<event>
 4    0  0.2253506E-002  0.2238630E+03  0.7546771E-02  0.1131035E+00
         21   -1    0    0  502  501  0.00000000000E+00  0.00000000000E+00  0.62949584237E+02  0.62949584237E+02  0.00000000000E+00 0. -1.
         21   -1    0    0  501  502 -0.00000000000E+00 -0.00000000000E+00 -0.79610770879E+03  0.79610770879E+03  0.00000000000E+00 0. -1.
         25    1    1    2    0    0  0.17116338441E+03 -0.45061442474E+02 -0.47447503729E+03  0.52161192353E+03  0.12500000000E+03 0.  0.
         25    1    1    2    0    0 -0.17116338441E+03  0.45061442474E+02 -0.25868308727E+03  0.33744536950E+03  0.12500000000E+03 0.  0.
</event>
<event>
 4    0  0.2253506E-002  0.2178368E+03  0.7546771E-02  0.1135506E+00
         21   -1    0    0  502  501  0.00000000000E+00  0.00000000000E+00  0.84084667697E+02  0.84084667697E+02  0.00000000000E+00 0.  1.
         21   -1    0    0  501  502 -0.00000000000E+00 -0.00000000000E+00 -0.56434625042E+03  0.56434625042E+03  0.00000000000E+00 0.  1.
         25    1    1    2    0    0 -0.15407917966E+03  0.37778035094E+02 -0.36159523664E+03  0.41417832959E+03  0.12500000000E+03 0.  0.
         25    1    1    2    0    0  0.15407917966E+03 -0.37778035094E+02 -0.11866634608E+03  0.23425258852E+03  0.12500000000E+03 0.  0.
</event>
<event>
 4    0  0.2253506E-002  0.2056074E+03  0.7546771E-02  0.1145092E+00
         21   -1    0    0  502  501  0.00000000000E+00  0.00000000000E+00  0.16306931738E+03  0.16306931738E+03  0.00000000000E+00 0. -1.
         21   -1    0    0  501  502 -0.00000000000E+00 -0.00000000000E+00 -0.25924192306E+03  0.25924192306E+03  0.00000000000E+00 0. -1.
         25    1    1    2    0    0 -0.57856945438E+02 -0.13679618941E+03  0.21482176921E+02  0.19531284520E+03  0.12500000000E+03 0.  0.
         25    1    1    2    0    0  0.57856945438E+02  0.13679618941E+03 -0.11765478261E+03  0.22699839524E+03  0.12500000000E+03 0.  0.
</event>
<event>
 4    0  0.2253506E-002  0.4445335E+03  0.7546771E-02  0.1029365E+00
         21   -1    0    0  502  501  0.00000000000E+00  0.00000000000E+00  0.10549918112E+04  0.10549918112E+04  0.00000000000E+00 0. -1.
         21   -1    0    0  501  502 -0.00000000000E+00 -0.00000000000E+00 -0.18730955090E+03  0.18730955090E+03  0.00000000000E+00 0. -1.
         25    1    1    2    0    0  0.40227513927E+03  0.14198494568E+03  0.43359959984E+03  0.62098198481E+03  0.12500000000E+03 0.  0.
         25    1    1    2    0    0 -0.40227513927E+03 -0.14198494568E+03  0.43408266041E+03  0.62131937725E+03  0.12500000000E+03 0.  0.
</event>
<event>
 4    0  0.2253506E-002  0.2237660E+03  0.7546771E-02  0.1131106E+00
         21   -1    0    0  502  501  0.00000000000E+00  0.00000000000E+00  0.49032542656E+03  0.49032542656E+03  0.00000000000E+00 0.  1.
         21   -1    0    0  501  502 -0.00000000000E+00 -0.00000000000E+00 -0.10211839016E+03  0.10211839016E+03  0.00000000000E+00 0.  1.
         25    1    1    2    0    0  0.75260373019E+02  0.92178562760E+01 -0.30151606604E+02  0.14927562427E+03  0.12500000000E+03 0.  0.
         25    1    1    2    0    0 -0.75260373019E+02 -0.92178562760E+01  0.41835864300E+03  0.44316819244E+03  0.12500000000E+03 0.  0.
</event>
<event>
 4    0  0.2253506E-002  0.2186352E+03  0.7546771E-02  0.1134905E+00
         21   -1    0    0  502  501  0.00000000000E+00  0.00000000000E+00  0.11113832811E+04  0.11113832811E+04  0.00000000000E+00 0. -1.
         21   -1    0    0  501  502 -0.00000000000E+00 -0.00000000000E+00 -0.43010676540E+02  0.43010676540E+02  0.00000000000E+00 0. -1.
         25    1    1    2    0    0  0.12808357179E+03 -0.12487281113E+03  0.56938122942E+03  0.60976930453E+03  0.12500000000E+03 0.  0.
         25    1    1    2    0    0 -0.12808357179E+03  0.12487281113E+03  0.49899137516E+03  0.54462465314E+03  0.12500000000E+03 0.  0.
</event>
<event>
 4    0  0.2253506E-002  0.1736990E+03  0.7546771E-02  0.1174044E+00
         21   -1    0    0  502  501  0.00000000000E+00  0.00000000000E+00  0.31682723180E+03  0.31682723180E+03  0.00000000000E+00 0.  1.
         21   -1    0    0  501  502 -0.00000000000E+00 -0.00000000000E+00 -0.95229662155E+02  0.95229662155E+02  0.00000000000E+00 0.  1.
         25    1    1    2    0    0 -0.62187444135E+02  0.42635832687E+02 -0.85604184841E+00  0.14598227716E+03  0.12500000000E+03 0.  0.
         25    1    1    2    0    0  0.62187444135E+02 -0.42635832687E+02  0.22245361149E+03  0.26607461679E+03  0.12500000000E+03 0.  0.
</event>
<event>
 4    0  0.2253506E-002  0.2435655E+03  0.7546771E-02  0.1117440E+00
         21   -1    0    0  502  501  0.00000000000E+00  0.00000000000E+00  0.40286480045E+03  0.40286480045E+03  0.00000000000E+00 0. -1.
         21   -1    0    0  501  502 -0.00000000000E+00 -0.00000000000E+00 -0.14725572686E+03  0.14725572686E+03  0.00000000000E+00 0. -1.
         25    1    1    2    0    0  0.75059499987E+02 -0.14800779668E+03 -0.15750409936E+02  0.20835861353E+03  0.12500000000E+03 0.  0.
         25    1    1    2    0    0 -0.75059499987E+02  0.14800779668E+03  0.27135948353E+03  0.34176191379E+03  0.12500000000E+03 0.  0.
</event>
<event>
 4    0  0.2253506E-002  0.3412784E+03  0.7546771E-02  0.1066253E+00
         21   -1    0    0  502  501  0.00000000000E+00  0.00000000000E+00  0.11193890333E+04  0.11193890333E+04  0.00000000000E+00 0. -1.
         21   -1    0    0  501  502 -0.00000000000E+00 -0.00000000000E+00 -0.10404870427E+03  0.10404870427E+03  0.00000000000E+00 0.  1.
         25    1    1    2    0    0  0.28067927739E+03 -0.14162883324E+03  0.42738204827E+03  0.54508714748E+03  0.12500000000E+03 0.  0.
         25    1    1    2    0    0 -0.28067927739E+03  0.14162883324E+03  0.58795828072E+03  0.67835059006E+03  0.12500000000E+03 0.  0.
</event>
<event>
 4    0  0.2253506E-002  0.2214685E+03  0.7546771E-02  0.1132793E+00
         21   -1    0    0  502  501  0.00000000000E+00  0.00000000000E+00  0.18260842403E+03  0.18260842403E+03  0.00000000000E+00 0.  1.
         21   -1    0    0  501  502 -0.00000000000E+00 -0.00000000000E+00 -0.26859828478E+03  0.26859828478E+03  0.00000000000E+00 0.  1.
         25    1    1    2    0    0  0.61881309800E+02  0.13895986673E+03  0.60309303470E+02  0.20591588853E+03  0.12500000000E+03 0.  0.
         25    1    1    2    0    0 -0.61881309800E+02 -0.13895986673E+03 -0.14629916422E+03  0.24529082028E+03  0.12500000000E+03 0.  0.
</event>
<event>
 4    0  0.2253506E-002  0.2385604E+03  0.7546771E-02  0.1120756E+00
         21   -1    0    0  502  501  0.00000000000E+00  0.00000000000E+00  0.23333056485E+03  0.23333056485E+03  0.00000000000E+00 0. -1.
         21   -1    0    0  501  502 -0.00000000000E+00 -0.00000000000E+00 -0.24390736544E+03  0.24390736544E+03  0.00000000000E+00 0. -1.
         25    1    1    2    0    0  0.23972655047E+02  0.18391945529E+03 -0.88284620338E+02  0.24045837147E+03  0.12500000000E+03 0.  0.
         25    1    1    2    0    0 -0.23972655047E+02 -0.18391945529E+03  0.77707819747E+02  0.23677955882E+03  0.12500000000E+03 0.  0.
</event>
<event>
 4    0  0.2253506E-002  0.2390289E+03  0.7546771E-02  0.1120441E+00
         21   -1    0    0  502  501  0.00000000000E+00  0.00000000000E+00  0.43207057167E+03  0.43207057167E+03  0.00000000000E+00 0. -1.
         21   -1    0    0  501  502 -0.00000000000E+00 -0.00000000000E+00 -0.13223494085E+03  0.13223494085E+03  0.00000000000E+00 0. -1.
         25    1    1    2    0    0  0.70431699825E+02 -0.47613580989E+02  0.36847639529E+03  0.39828071925E+03  0.12500000000E+03 0.  0.
         25    1    1    2    0    0 -0.70431699825E+02  0.47613580989E+02 -0.68640764471E+02  0.16602479328E+03  0.12500000000E+03 0.  0.
</event>
<event>
 4    0  0.2253506E-002  0.2391278E+03  0.7546771E-02  0.1120375E+00
         21   -1    0    0  502  501  0.00000000000E+00  0.00000000000E+00  0.19733175211E+02  0.19733175211E+02  0.00000000000E+00 0. -1.
         21   -1    0    0  501  502 -0.00000000000E+00 -0.00000000000E+00 -0.28977661544E+04  0.28977661544E+04  0.00000000000E+00 0. -1.
         25    1    1    2    0    0  0.18360924238E+03  0.38971342764E+02 -0.19242105514E+04  0.19373802842E+04  0.12500000000E+03 0.  0.
         25    1    1    2    0    0 -0.18360924238E+03 -0.38971342764E+02 -0.95382242772E+03  0.98011904535E+03  0.12500000000E+03 0.  0.
</event>
<event>
 4    0  0.2253506E-002  0.2688709E+03  0.7546771E-02  0.1101928E+00
         21   -1    0    0  502  501  0.00000000000E+00  0.00000000000E+00  0.51610902180E+03  0.51610902180E+03  0.00000000000E+00 0.  1.
         21   -1    0    0  501  502 -0.00000000000E+00 -0.00000000000E+00 -0.14007032852E+03  0.14007032852E+03  0.00000000000E+00 0.  1.
         25    1    1    2    0    0  0.40295872796E+01  0.13421479171E+03  0.42787438566E+03  0.46554413088E+03  0.12500000000E+03 0.  0.
         25    1    1    2    0    0 -0.40295872796E+01 -0.13421479171E+03 -0.51835692383E+02  0.19063521945E+03  0.12500000000E+03 0.  0.
</event>
<event>
 4    0  0.2253506E-002  0.2505567E+03  0.7546771E-02  0.1112953E+00
         21   -1    0    0  502  501  0.00000000000E+00  0.00000000000E+00  0.47469128293E+03  0.47469128293E+03  0.00000000000E+00 0.  1.
         21   -1    0    0  501  502 -0.00000000000E+00 -0.00000000000E+00 -0.13225158294E+03  0.13225158294E+03  0.00000000000E+00 0. -1.
         25    1    1    2    0    0 -0.18412724301E+03  0.90138215851E+02  0.84504046475E+02  0.25454601439E+03  0.12500000000E+03 0.  0.
         25    1    1    2    0    0  0.18412724301E+03 -0.90138215851E+02  0.25793565351E+03  0.35239685147E+03  0.12500000000E+03 0.  0.
</event>
<event>
 4    0  0.2253506E-002  0.2538421E+03  0.7546771E-02  0.1110901E+00
         21   -1    0    0  502  501  0.00000000000E+00  0.00000000000E+00  0.84287633753E+03  0.84287633753E+03  0.00000000000E+00 0.  1.
         21   -1    0    0  501  502 -0.00000000000E+00 -0.00000000000E+00 -0.76447519795E+02  0.76447519795E+02  0.00000000000E+00 0.  1.
         25    1    1    2    0    0 -0.24446103616E+02  0.11995606745E+03  0.71624619613E+03  0.73730637023E+03  0.12500000000E+03 0.  0.
         25    1    1    2    0    0  0.24446103616E+02 -0.11995606745E+03  0.50182621605E+02  0.18201748710E+03  0.12500000000E+03 0.  0.
</event>
<event>
 4    0  0.2253506E-002  0.2369367E+03  0.7546771E-02  0.1121850E+00
         21   -1    0    0  502  501  0.00000000000E+00  0.00000000000E+00  0.17510960473E+04  0.17510960473E+04  0.00000000000E+00 0. -1.
         21   -1    0    0  501  502 -0.00000000000E+00 -0.00000000000E+00 -0.32059349656E+02  0.32059349656E+02  0.00000000000E+00 0. -1.
         25    1    1    2    0    0 -0.12696653447E+03 -0.15594105973E+03  0.89229814018E+03  0.92317879414E+03  0.12500000000E+03 0.  0.
         25    1    1    2    0    0  0.12696653447E+03  0.15594105973E+03  0.82673855744E+03  0.85997660279E+03  0.12500000000E+03 0.  0.
</event>
<event>
 4    0  0.2253506E-002  0.2250311E+03  0.7546771E-02  0.1130187E+00
         21   -1    0    0  502  501  0.00000000000E+00  0.00000000000E+00  0.42215806621E+02  0.42215806621E+02  0.00000000000E+00 0.  1.
         21   -1    0    0  501  502 -0.00000000000E+00 -0.00000000000E+00 -0.11995264320E+04  0.11995264320E+04  0.00000000000E+00 0.  1.
         25    1    1    2    0    0 -0.45575208873E+02  0.98110298532E+02 -0.99990708497E+03  0.10134800979E+04  0.12500000000E+03 0.  0.
         25    1    1    2    0    0  0.45575208873E+02 -0.98110298532E+02 -0.15740354045E+03  0.22826214072E+03  0.12500000000E+03 0.  0.
</event>
<event>
 4    0  0.2253506E-002  0.2042237E+03  0.7546771E-02  0.1146224E+00
         21   -1    0    0  502  501  0.00000000000E+00  0.00000000000E+00  0.13759237017E+03  0.13759237017E+03  0.00000000000E+00 0. -1.
         21   -1    0    0  501  502 -0.00000000000E+00 -0.00000000000E+00 -0.30312218233E+03  0.30312218233E+03  0.00000000000E+00 0. -1.
         25    1    1    2    0    0  0.13847987343E+03  0.11447882945E+02 -0.17157498013E+03  0.25371382141E+03  0.12500000000E+03 0.  0.
         25    1    1    2    0    0 -0.13847987343E+03 -0.11447882945E+02  0.60451679740E+01  0.18700073108E+03  0.12500000000E+03 0.  0.
</event>
<event>
 4    0  0.2253506E-002  0.2363601E+03  0.7546771E-02  0.1122242E+00
         21   -1    0    0  502  501  0.00000000000E+00  0.00000000000E+00  0.84360536987E+03  0.84360536987E+03  0.00000000000E+00 0. -1.
         21   -1    0    0  501  502 -0.00000000000E+00 -0.00000000000E+00 -0.66223036346E+02  0.66223036346E+02  0.00000000000E+00 0. -1.
         25    1    1    2    0    0 -0.18163593410E+03  0.84186466575E+02  0.41319839269E+03  0.47585384881E+03  0.12500000000E+03 0.  0.
         25    1    1    2    0    0  0.18163593410E+03 -0.84186466575E+02  0.36418394084E+03  0.43397455740E+03  0.12500000000E+03 0.  0.
</event>
<event>
 4    0  0.2253506E-002  0.1734173E+03  0.7546771E-02  0.1174330E+00
         21   -1    0    0  502  501  0.00000000000E+00  0.00000000000E+00  0.28205823290E+02  0.28205823290E+02  0.00000000000E+00 0. -1.
         21   -1    0    0  501  502 -0.00000000000E+00 -0.00000000000E+00 -0.10662175826E+04  0.10662175826E+04  0.00000000000E+00 0. -1.
         25    1    1    2    0    0  0.48186087319E+02 -0.10617124645E+03 -0.61123569853E+03  0.63468757018E+03  0.12500000000E+03 0.  0.
         25    1    1    2    0    0 -0.48186087319E+02  0.10617124645E+03 -0.42677606081E+03  0.45973583574E+03  0.12500000000E+03 0.  0.
</event>
<event>
 4    0  0.2253506E-002  0.3098429E+03  0.7546771E-02  0.1080421E+00
         21   -1    0    0  502  501  0.00000000000E+00  0.00000000000E+00  0.13100161173E+03  0.13100161173E+03  0.00000000000E+00 0. -1.
         21   -1    0    0  501  502 -0.00000000000E+00 -0.00000000000E+00 -0.73283563537E+03  0.73283563537E+03  0.00000000000E+00 0. -1.
         25    1    1    2    0    0 -0.18749268711E+03  0.65804594555E+01 -0.59722098016E+03  0.63835312274E+03  0.12500000000E+03 0.  0.
         25    1    1    2    0    0  0.18749268711E+03 -0.65804594555E+01 -0.46130434834E+01  0.22548412436E+03  0.12500000000E+03 0.  0.
</event>
<event>
 4    0  0.2253506E-002  0.2215926E+03  0.7546771E-02  0.1132701E+00
         21   -1    0    0  502  501  0.00000000000E+00  0.00000000000E+00  0.98364955338E+03  0.98364955338E+03  0.00000000000E+00 0.  1.
         21   -1    0    0  501  502 -0.00000000000E+00 -0.00000000000E+00 -0.49919497541E+02  0.49919497541E+02  0.00000000000E+00 0.  1.
         25    1    1    2    0    0  0.85917716862E+02 -0.13294144260E+03  0.25282851711E+03  0.32342315980E+03  0.12500000000E+03 0.  0.
         25    1    1    2    0    0 -0.85917716862E+02  0.13294144260E+03  0.68090153872E+03  0.71014589111E+03  0.12500000000E+03 0.  0.
</event>
<event>
 4    0  0.2253506E-002  0.2062828E+03  0.7546771E-02  0.1144544E+00
         21   -1    0    0  502  501  0.00000000000E+00  0.00000000000E+00  0.59065626446E+02  0.59065626446E+02  0.00000000000E+00 0.  1.
         21   -1    0    0  501  502 -0.00000000000E+00 -0.00000000000E+00 -0.72042906885E+03  0.72042906885E+03  0.00000000000E+00 0.  1.
         25    1    1    2    0    0 -0.91059628859E+02  0.20283115845E+00 -0.58860644181E+03  0.60858396338E+03  0.12500000000E+03 0.  0.
         25    1    1    2    0    0  0.91059628859E+02 -0.20283115845E+00 -0.72757000601E+02  0.17091073192E+03  0.12500000000E+03 0.  0.
</event>
<event>
 4    0  0.2253506E-002  0.2896908E+03  0.7546771E-02  0.1090511E+00
         21   -1    0    0  502  501  0.00000000000E+00  0.00000000000E+00  0.25084879859E+04  0.25084879859E+04  0.00000000000E+00 0.  1.
         21   -1    0    0  501  502 -0.00000000000E+00 -0.00000000000E+00 -0.33454726417E+02  0.33454726417E+02  0.00000000000E+00 0.  1.
         25    1    1    2    0    0  0.22269874129E+02  0.21437650983E+03  0.58910227790E+03  0.63962467830E+03  0.12500000000E+03 0.  0.
         25    1    1    2    0    0 -0.22269874129E+02 -0.21437650983E+03  0.18859309816E+04  0.19023180340E+04  0.12500000000E+03 0.  0.
</event>
<event>
 4    0  0.2253506E-002  0.2432300E+03  0.7546771E-02  0.1117660E+00
         21   -1    0    0  502  501  0.00000000000E+00  0.00000000000E+00  0.12676695000E+04  0.12676695000E+04  0.00000000000E+00 0.  1.
         21   -1    0    0  501  502 -0.00000000000E+00 -0.00000000000E+00 -0.46668954500E+02  0.46668954500E+02  0.00000000000E+00 0.  1.
         25    1    1    2    0    0 -0.35320894821E+02  0.74924260906E+02  0.93080699250E+02  0.17649426919E+03  0.12500000000E+03 0.  0.
         25    1    1    2    0    0  0.35320894821E+02 -0.74924260906E+02  0.11279198462E+04  0.11378441853E+04  0.12500000000E+03 0.  0.
</event>
<event>
 4    0  0.2253506E-002  0.2122193E+03  0.7546771E-02  0.1139820E+00
         21   -1    0    0  502  501  0.00000000000E+00  0.00000000000E+00  0.23232092872E+02  0.23232092872E+02  0.00000000000E+00 0. -1.
         21   -1    0    0  501  502 -0.00000000000E+00 -0.00000000000E+00 -0.19385701664E+04  0.19385701664E+04  0.00000000000E+00 0. -1.
         25    1    1    2    0    0 -0.44491299626E+02 -0.16227548508E+03 -0.80442441157E+03  0.83128601740E+03  0.12500000000E+03 0.  0.
         25    1    1    2    0    0  0.44491299626E+02  0.16227548508E+03 -0.11109136620E+04  0.11305162419E+04  0.12500000000E+03 0.  0.
</event>
<event>
 4    0  0.2253506E-002  0.2937598E+03  0.7546771E-02  0.1088402E+00
         21   -1    0    0  502  501  0.00000000000E+00  0.00000000000E+00  0.36534440903E+03  0.36534440903E+03  0.00000000000E+00 0. -1.
         21   -1    0    0  501  502 -0.00000000000E+00 -0.00000000000E+00 -0.23620123587E+03  0.23620123587E+03  0.00000000000E+00 0. -1.
         25    1    1    2    0    0 -0.25673555771E+03 -0.57153300680E+02  0.10409568149E+03  0.30925807552E+03  0.12500000000E+03 0.  0.
         25    1    1    2    0    0  0.25673555771E+03  0.57153300680E+02  0.25047491665E+02  0.29228756938E+03  0.12500000000E+03 0.  0.
</event>
<event>
 4    0  0.2253506E-002  0.1793445E+03  0.7546771E-02  0.1168439E+00
         21   -1    0    0  502  501  0.00000000000E+00  0.00000000000E+00  0.10904613230E+04  0.10904613230E+04  0.00000000000E+00 0. -1.
         21   -1    0    0  501  502 -0.00000000000E+00 -0.00000000000E+00 -0.29496185071E+02  0.29496185071E+02  0.00000000000E+00 0. -1.
         25    1    1    2    0    0  0.71114785966E+02  0.10699760644E+03  0.51237059119E+03  0.54282080218E+03  0.12500000000E+03 0.  0.
         25    1    1    2    0    0 -0.71114785966E+02 -0.10699760644E+03  0.54859454671E+03  0.57713670586E+03  0.12500000000E+03 0.  0.
</event>
<event>
 4    0  0.2253506E-002  0.1766620E+03  0.7546771E-02  0.1171073E+00
         21   -1    0    0  502  501  0.00000000000E+00  0.00000000000E+00  0.51682989484E+02  0.51682989484E+02  0.00000000000E+00 0. -1.
         21   -1    0    0  501  502 -0.00000000000E+00 -0.00000000000E+00 -0.60386347271E+03  0.60386347271E+03  0.00000000000E+00 0. -1.
         25    1    1    2    0    0  0.45674258365E+02 -0.97699263178E+02 -0.15943509826E+03  0.22951216625E+03  0.12500000000E+03 0.  0.
         25    1    1    2    0    0 -0.45674258365E+02  0.97699263178E+02 -0.39274538497E+03  0.42603429594E+03  0.12500000000E+03 0.  0.
</event>
<event>
 4    0  0.2253506E-002  0.2036303E+03  0.7546771E-02  0.1146712E+00
         21   -1    0    0  502  501  0.00000000000E+00  0.00000000000E+00  0.19889802220E+03  0.19889802220E+03  0.00000000000E+00 0.  1.
         21   -1    0    0  501  502 -0.00000000000E+00 -0.00000000000E+00 -0.20847515869E+03  0.20847515869E+03  0.00000000000E+00 0.  1.
         25    1    1    2    0    0  0.13840439750E+03  0.11183088643E+02  0.76224303654E+02  0.20178201899E+03  0.12500000000E+03 0.  0.
         25    1    1    2    0    0 -0.13840439750E+03 -0.11183088643E+02 -0.85801440151E+02  0.20559116190E+03  0.12500000000E+03 0.  0.
</event>
<event>
 4    0  0.2253506E-002  0.1675433E+03  0.7546771E-02  0.1180434E+00
         21   -1    0    0  502  501  0.00000000000E+00  0.00000000000E+00  0.40592675539E+03  0.40592675539E+03  0.00000000000E+00 0.  1.
         21   -1    0    0  501  502 -0.00000000000E+00 -0.00000000000E+00 -0.69152242650E+02  0.69152242650E+02  0.00000000000E+00 0.  1.
         25    1    1    2    0    0 -0.24112987643E+02  0.38785917581E+02  0.24080075593E+02  0.13524286900E+03  0.12500000000E+03 0.  0.
         25    1    1    2    0    0  0.24112987643E+02 -0.38785917581E+02  0.31269443715E+03  0.33983612903E+03  0.12500000000E+03 0.  0.
</event>
<event>
 4    0  0.2253506E-002  0.2481717E+03  0.7546771E-02  0.1114466E+00
         21   -1    0    0  502  501  0.00000000000E+00  0.00000000000E+00  0.15197475803E+04  0.15197475803E+04  0.00000000000E+00 0. -1.
         21   -1    0    0  501  502 -0.00000000000E+00 -0.00000000000E+00 -0.40525941034E+02  0.40525941034E+02  0.00000000000E+00 0. -1.
         25    1    1    2    0    0 -0.17646316493E+03 -0.12027386573E+03  0.68003691381E+03  0.72365755403E+03  0.12500000000E+03 0.  0.
         25    1    1    2    0    0  0.17646316493E+03  0.12027386573E+03  0.79918472548E+03  0.83661596733E+03  0.12500000000E+03 0.  0.
</event>
<event>
 4    0  0.2253506E-002  0.1805052E+03  0.7546771E-02  0.1167315E+00
         21   -1    0    0  502  501  0.00000000000E+00  0.00000000000E+00  0.48781133760E+02  0.48781133760E+02  0.00000000000E+00 0. -1.
         21   -1    0    0  501  502 -0.00000000000E+00 -0.00000000000E+00 -0.66792487925E+03  0.66792487925E+03  0.00000000000E+00 0. -1.
         25    1    1    2    0    0 -0.42577232808E+02  0.59077896949E+02 -0.95252745417E+02  0.17320826819E+03  0.12500000000E+03 0.  0.
         25    1    1    2    0    0  0.42577232808E+02 -0.59077896949E+02 -0.52389100007E+03  0.54349774481E+03  0.12500000000E+03 0.  0.
</event>
<event>
 4    0  0.2253506E-002  0.2426601E+03  0.7546771E-02  0.1118033E+00
         21   -1    0    0  502  501  0.00000000000E+00  0.00000000000E+00  0.83610445978E+02  0.83610445978E+02  0.00000000000E+00 0. -1.
         21   -1    0    0  501  502 -0.00000000000E+00 -0.00000000000E+00 -0.70426536353E+03  0.70426536353E+03  0.00000000000E+00 0. -1.
         25    1    1    2    0    0  0.18237249291E+03  0.81811998494E+02 -0.40367041252E+03  0.46746949763E+03  0.12500000000E+03 0.  0.
         25    1    1    2    0    0 -0.18237249291E+03 -0.81811998494E+02 -0.21698450503E+03  0.32040631188E+03  0.12500000000E+03 0.  0.
</event>
<event>
 4    0  0.2253506E-002  0.1788509E+03  0.7546771E-02  0.1168920E+00
         21   -1    0    0  502  501  0.00000000000E+00  0.00000000000E+00  0.33037249354E+03  0.33037249354E+03  0.00000000000E+00 0. -1.
         21   -1    0    0  501  502 -0.00000000000E+00 -0.00000000000E+00 -0.96822995184E+02  0.96822995184E+02  0.00000000000E+00 0. -1.
         25    1    1    2    0    0 -0.84770434302E+01  0.12757563940E+03  0.11211089575E+03  0.21104799686E+03  0.12500000000E+03 0.  0.
         25    1    1    2    0    0  0.84770434302E+01 -0.12757563940E+03  0.12143860261E+03  0.21614749186E+03  0.12500000000E+03 0.  0.
</event>
<event>
 4    0  0.2253506E-002  0.2050449E+03  0.7546771E-02  0.1145551E+00
         21   -1    0    0  502  501  0.00000000000E+00  0.00000000000E+00  0.29571143687E+02  0.29571143687E+02  0.00000000000E+00 0. -1.
         21   -1    0    0  501  502 -0.00000000000E+00 -0.00000000000E+00 -0.14217718673E+04  0.14217718673E+04  0.00000000000E+00 0. -1.
         25    1    1    2    0    0 -0.15710122324E+03  0.62046705717E+01 -0.84198316064E+03  0.86560957427E+03  0.12500000000E+03 0.  0.
         25    1    1    2    0    0  0.15710122324E+03 -0.62046705717E+01 -0.55021756302E+03  0.58573343676E+03  0.12500000000E+03 0.  0.
</event>
<event>
 4    0  0.2253506E-002  0.3471828E+03  0.7546771E-02  0.1063777E+00
         21   -1    0    0  502  501  0.00000000000E+00  0.00000000000E+00  0.49127816510E+03  0.49127816510E+03  0.00000000000E+00 0. -1.
         21   -1    0    0  501  502 -0.00000000000E+00 -0.00000000000E+00 -0.24535155810E+03  0.24535155810E+03  0.00000000000E+00 0. -1.
         25    1    1    2    0    0  0.35714607344E+02 -0.19775603356E+03  0.39244843257E+03  0.45828348673E+03  0.12500000000E+03 0.  0.
         25    1    1    2    0    0 -0.35714607344E+02  0.19775603356E+03 -0.14652182557E+03  0.27834623647E+03  0.12500000000E+03 0.  0.
</event>
<event>
 4    0  0.2253506E-002  0.1819337E+03  0.7546771E-02  0.1165945E+00
         21   -1    0    0  502  501  0.00000000000E+00  0.00000000000E+00  0.15246267460E+04  0.15246267460E+04  0.00000000000E+00 0. -1.
         21   -1    0    0  501  502 -0.00000000000E+00 -0.00000000000E+00 -0.21710149052E+02  0.21710149052E+02  0.00000000000E+00 0. -1.
         25    1    1    2    0    0  0.67104892716E+02  0.92814436883E+02  0.47093491714E+03  0.50052201000E+03  0.12500000000E+03 0.  0.
         25    1    1    2    0    0 -0.67104892716E+02 -0.92814436883E+02  0.10319816798E+04  0.10458148851E+04  0.12500000000E+03 0.  0.
</event>
<event>
 4    0  0.2253506E-002  0.2046182E+03  0.7546771E-02  0.1145900E+00
         21   -1    0    0  502  501  0.00000000000E+00  0.00000000000E+00  0.48361889891E+02  0.48361889891E+02  0.00000000000E+00 0. -1.
         21   -1    0    0  501  502 -0.00000000000E+00 -0.00000000000E+00 -0.86573569917E+03  0.86573569917E+03  0.00000000000E+00 0. -1.
         25    1    1    2    0    0  0.66760348073E+02 -0.13352068201E+03 -0.54922867721E+03  0.58271936339E+03  0.12500000000E+03 0.  0.
         25    1    1    2    0    0 -0.66760348073E+02  0.13352068201E+03 -0.26814513207E+03  0.33137822568E+03  0.12500000000E+03 0.  0.
</event>
<event>
 4    0  0.2253506E-002  0.6067516E+03  0.7546771E-02  0.9891497E-01
         21   -1    0    0  502  501  0.00000000000E+00  0.00000000000E+00  0.20010205221E+03  0.20010205221E+03  0.00000000000E+00 0.  1.
         21   -1    0    0  501  502 -0.00000000000E+00 -0.00000000000E+00 -0.18397987343E+04  0.18397987343E+04  0.00000000000E+00 0.  1.
         25    1    1    2    0    0  0.26781638443E+03 -0.41471075112E+03 -0.26534230689E+03  0.57423180223E+03  0.12500000000E+03 0.  0.
         25    1    1    2    0    0 -0.26781638443E+03  0.41471075112E+03 -0.13743543752E+04  0.14656689843E+04  0.12500000000E+03 0.  0.
</event>
<event>
 4    0  0.2253506E-002  0.6714512E+03  0.7546771E-02  0.9767340E-01
         21   -1    0    0  502  501  0.00000000000E+00  0.00000000000E+00  0.14344920980E+03  0.14344920980E+03  0.00000000000E+00 0.  1.
         21   -1    0    0  501  502 -0.00000000000E+00 -0.00000000000E+00 -0.31429012591E+04  0.31429012591E+04  0.00000000000E+00 0.  1.
         25    1    1    2    0    0  0.36499679493E+02 -0.59206558255E+03 -0.22062331700E+04  0.22880043010E+04  0.12500000000E+03 0.  0.
         25    1    1    2    0    0 -0.36499679493E+02  0.59206558255E+03 -0.79321887927E+03  0.99834616796E+03  0.12500000000E+03 0.  0.
</event>
<event>
 4    0  0.2253506E-002  0.2522139E+03  0.7546771E-02  0.1111914E+00
         21   -1    0    0  502  501  0.00000000000E+00  0.00000000000E+00  0.43536369140E+02  0.43536369140E+02  0.00000000000E+00 0. -1.
         21   -1    0    0  501  502 -0.00000000000E+00 -0.00000000000E+00 -0.14611199790E+04  0.14611199790E+04  0.00000000000E+00 0. -1.
         25    1    1    2    0    0 -0.10668471009E+03 -0.18250505899E+03 -0.88007179833E+03  0.91369639057E+03  0.12500000000E+03 0.  0.
         25    1    1    2    0    0  0.10668471009E+03  0.18250505899E+03 -0.53751181156E+03  0.59095995760E+03  0.12500000000E+03 0.  0.
</event>
<event>
 4    0  0.2253506E-002  0.2473590E+03  0.7546771E-02  0.1114985E+00
         21   -1    0    0  502  501  0.00000000000E+00  0.00000000000E+00  0.17958409542E+03  0.17958409542E+03  0.00000000000E+00 0. -1.
         21   -1    0    0  501  502 -0.00000000000E+00 -0.00000000000E+00 -0.34071214860E+03  0.34071214860E+03  0.00000000000E+00 0. -1.
         25    1    1    2    0    0 -0.18056225045E+03 -0.10721243692E+03 -0.12080797459E+03  0.27261107762E+03  0.12500000000E+03 0.  0.
         25    1    1    2    0    0  0.18056225045E+03  0.10721243692E+03 -0.40320078589E+02  0.24768516640E+03  0.12500000000E+03 0.  0.
</event>
<event>
 4    0  0.2253506E-002  0.1841850E+03  0.7546771E-02  0.1163813E+00
         21   -1    0    0  502  501  0.00000000000E+00  0.00000000000E+00  0.15818510949E+03  0.15818510949E+03  0.00000000000E+00 0.  1.
         21   -1    0    0  501  502 -0.00000000000E+00 -0.00000000000E+00 -0.21445837194E+03  0.21445837194E+03  0.00000000000E+00 0.  1.
         25    1    1    2    0    0  0.46382461711E+02 -0.68364197960E+02 -0.13649663567E+03  0.20268529267E+03  0.12500000000E+03 0.  0.
         25    1    1    2    0    0 -0.46382461711E+02  0.68364197960E+02  0.80223373215E+02  0.16995818876E+03  0.12500000000E+03 0.  0.
</event>
<event>
 4    0  0.2253506E-002  0.2381815E+03  0.7546771E-02  0.1121010E+00
         21   -1    0    0  502  501  0.00000000000E+00  0.00000000000E+00  0.61192344229E+02  0.61192344229E+02  0.00000000000E+00 0. -1.
         21   -1    0    0  501  502 -0.00000000000E+00 -0.00000000000E+00 -0.92708378752E+03  0.92708378752E+03  0.00000000000E+00 0. -1.
         25    1    1    2    0    0 -0.36803587078E+02  0.97652755538E+02 -0.79356638299E+03  0.81010071528E+03  0.12500000000E+03 0.  0.
         25    1    1    2    0    0  0.36803587078E+02 -0.97652755538E+02 -0.72325060299E+02  0.17817541647E+03  0.12500000000E+03 0.  0.
</event>
<event>
 4    0  0.2253506E-002  0.1877072E+03  0.7546771E-02  0.1160546E+00
         21   -1    0    0  502  501  0.00000000000E+00  0.00000000000E+00  0.18619886123E+04  0.18619886123E+04  0.00000000000E+00 0.  1.
         21   -1    0    0  501  502 -0.00000000000E+00 -0.00000000000E+00 -0.18922766055E+02  0.18922766055E+02  0.00000000000E+00 0.  1.
         25    1    1    2    0    0 -0.13679029102E+03  0.29543261391E+02  0.89668961728E+03  0.91611225172E+03  0.12500000000E+03 0.  0.
         25    1    1    2    0    0  0.13679029102E+03 -0.29543261391E+02  0.94637622895E+03  0.96479912662E+03  0.12500000000E+03 0.  0.
</event>
<event>
 4    0  0.2253506E-002  0.2745592E+03  0.7546771E-02  0.1098698E+00
         21   -1    0    0  502  501  0.00000000000E+00  0.00000000000E+00  0.39696425713E+03  0.39696425713E+03  0.00000000000E+00 0.  1.
         21   -1    0    0  501  502 -0.00000000000E+00 -0.00000000000E+00 -0.18989802860E+03  0.18989802860E+03  0.00000000000E+00 0.  1.
         25    1    1    2    0    0  0.17852613373E+03  0.15842518678E+03  0.47106206342E+02  0.27352169001E+03  0.12500000000E+03 0.  0.
         25    1    1    2    0    0 -0.17852613373E+03 -0.15842518678E+03  0.15996002219E+03  0.31334059572E+03  0.12500000000E+03 0.  0.
</event>
<event>
 4    0  0.2253506E-002  0.1847776E+03  0.7546771E-02  0.1163258E+00
         21   -1    0    0  502  501  0.00000000000E+00  0.00000000000E+00  0.59121142575E+03  0.59121142575E+03  0.00000000000E+00 0.  1.
         21   -1    0    0  501  502 -0.00000000000E+00 -0.00000000000E+00 -0.57750492685E+02  0.57750492685E+02  0.00000000000E+00 0.  1.
         25    1    1    2    0    0  0.46919740569E+02 -0.73754257242E+02  0.83589074171E+02  0.17393471717E+03  0.12500000000E+03 0.  0.
         25    1    1    2    0    0 -0.46919740569E+02  0.73754257242E+02  0.44987185890E+03  0.47502720127E+03  0.12500000000E+03 0.  0.
</event>
<event>
 4    0  0.2253506E-002  0.1932501E+03  0.7546771E-02  0.1155562E+00
         21   -1    0    0  502  501  0.00000000000E+00  0.00000000000E+00  0.11284247010E+02  0.11284247010E+02  0.00000000000E+00 0. -1.
         21   -1    0    0  501  502 -0.00000000000E+00 -0.00000000000E+00 -0.33095330943E+04  0.33095330943E+04  0.00000000000E+00 0. -1.
         25    1    1    2    0    0 -0.13327102674E+03  0.10723433733E+02 -0.11163892969E+04  0.11312940470E+04  0.12500000000E+03 0.  0.
         25    1    1    2    0    0  0.13327102674E+03 -0.10723433733E+02 -0.21818595504E+04  0.21895232943E+04  0.12500000000E+03 0.  0.
</event>
<event>
 4    0  0.2343684E-002  0.2922447E+03  0.7546771E-02  0.1089183E+00
         21   -1    0    0  502  501  0.00000000000E+00  0.00000000000E+00  0.32991574628E+03  0.32991574628E+03  0.00000000000E+00 0. -1.
         21   -1    0    0  501  502 -0.00000000000E+00 -0.00000000000E+00 -0.25887509620E+03  0.25887509620E+03  0.00000000000E+00 0. -1.
         25    1    1    2    0    0  0.27847728510E+02 -0.99069384116E+00  0.30014249363E+03  0.32632344988E+03  0.12500000000E+03 0.  0.
         25    1    1    2    0    0 -0.27847728510E+02  0.99069384116E+00 -0.22910184356E+03  0.26246739260E+03  0.12500000000E+03 0.  0.
</event>
<event>
 4    0  0.2253506E-002  0.3783287E+03  0.7546771E-02  0.1051553E+00
         21   -1    0    0  502  501  0.00000000000E+00  0.00000000000E+00  0.63634114617E+03  0.63634114617E+03  0.00000000000E+00 0. -1.
         21   -1    0    0  501  502 -0.00000000000E+00 -0.00000000000E+00 -0.22493061396E+03  0.22493061396E+03  0.00000000000E+00 0. -1.
         25    1    1    2    0    0  0.18362031651E+03  0.30623595116E+03  0.20197735628E+03  0.42885513973E+03  0.12500000000E+03 0.  0.
         25    1    1    2    0    0 -0.18362031651E+03 -0.30623595116E+03  0.20943317593E+03  0.43241662040E+03  0.12500000000E+03 0.  0.
</event>
<event>
 4    0  0.2253506E-002  0.2094391E+03  0.7546771E-02  0.1142011E+00
         21   -1    0    0  502  501  0.00000000000E+00  0.00000000000E+00  0.20266920436E+03  0.20266920436E+03  0.00000000000E+00 0.  1.
         21   -1    0    0  501  502 -0.00000000000E+00 -0.00000000000E+00 -0.21643504612E+03  0.21643504612E+03  0.00000000000E+00 0.  1.
         25    1    1    2    0    0 -0.61616235437E+02 -0.43363810287E+02  0.14340715264E+03  0.20461571773E+03  0.12500000000E+03 0.  0.
         25    1    1    2    0    0  0.61616235437E+02  0.43363810287E+02 -0.15717299440E+03  0.21448853275E+03  0.12500000000E+03 0.  0.
</event>
<event>
 4    0  0.2253506E-002  0.2062793E+03  0.7546771E-02  0.1144547E+00
         21   -1    0    0  502  501  0.00000000000E+00  0.00000000000E+00  0.31972976525E+03  0.31972976525E+03  0.00000000000E+00 0.  1.
         21   -1    0    0  501  502 -0.00000000000E+00 -0.00000000000E+00 -0.13308470162E+03  0.13308470162E+03  0.00000000000E+00 0.  1.
         25    1    1    2    0    0 -0.15065399202E+02  0.16280721305E+03  0.10856997668E+03  0.23269205983E+03  0.12500000000E+03 0.  0.
         25    1    1    2    0    0  0.15065399202E+02 -0.16280721305E+03  0.78075086958E+02  0.22012240703E+03  0.12500000000E+03 0.  0.
</event>
<event>
 4    0  0.2253506E-002  0.3600977E+03  0.7546771E-02  0.1058545E+00
         21   -1    0    0  502  501  0.00000000000E+00  0.00000000000E+00  0.15016258022E+03  0.15016258022E+03  0.00000000000E+00 0. -1.
         21   -1    0    0  501  502 -0.00000000000E+00 -0.00000000000E+00 -0.86353318184E+03  0.86353318184E+03  0.00000000000E+00 0. -1.
         25    1    1    2    0    0  0.21588703736E+03 -0.14921942944E+03 -0.65583637809E+03  0.71737020140E+03  0.12500000000E+03 0.  0.
         25    1    1    2    0    0 -0.21588703736E+03  0.14921942944E+03 -0.57534223519E+02  0.29632556066E+03  0.12500000000E+03 0.  0.
</event>
<event>
 4    0  0.2253506E-002  0.2064604E+03  0.7546771E-02  0.1144400E+00
         21   -1    0    0  502  501  0.00000000000E+00  0.00000000000E+00  0.54613993393E+02  0.54613993393E+02  0.00000000000E+00 0.  1.
         21   -1    0    0  501  502 -0.00000000000E+00 -0.00000000000E+00 -0.78049440989E+03  0.78049440989E+03  0.00000000000E+00 0.  1.
         25    1    1    2    0    0 -0.12098973258E+02 -0.89984707460E+02 -0.85952199718E+02  0.17679483411E+03  0.12500000000E+03 0.  0.
         25    1    1    2    0    0  0.12098973258E+02  0.89984707460E+02 -0.63992821678E+03  0.65831356917E+03  0.12500000000E+03 0.  0.
</event>
<event>
 4    0  0.2253506E-002  0.2253504E+03  0.7546771E-02  0.1129956E+00
         21   -1    0    0  502  501  0.00000000000E+00  0.00000000000E+00  0.22228952358E+03  0.22228952358E+03  0.00000000000E+00 0.  1.
         21   -1    0    0  501  502 -0.00000000000E+00 -0.00000000000E+00 -0.22845332583E+03  0.22845332583E+03  0.00000000000E+00 0.  1.
         25    1    1    2    0    0  0.92766180871E+02 -0.11776260763E+03  0.10955271730E+03  0.22383117284E+03  0.12500000000E+03 0.  0.
         25    1    1    2    0    0 -0.92766180871E+02  0.11776260763E+03 -0.11571651955E+03  0.22691167657E+03  0.12500000000E+03 0.  0.
</event>
<event>
 4    0  0.2253506E-002  0.1812333E+03  0.7546771E-02  0.1166615E+00
         21   -1    0    0  502  501  0.00000000000E+00  0.00000000000E+00  0.76427853007E+02  0.76427853007E+02  0.00000000000E+00 0. -1.
         21   -1    0    0  501  502 -0.00000000000E+00 -0.00000000000E+00 -0.42975821052E+03  0.42975821052E+03  0.00000000000E+00 0. -1.
         25    1    1    2    0    0 -0.33158200812E+02 -0.65457425138E+02 -0.32859788957E+03  0.35914581136E+03  0.12500000000E+03 0.  0.
         25    1    1    2    0    0  0.33158200812E+02  0.65457425138E+02 -0.24732467941E+02  0.14704025217E+03  0.12500000000E+03 0.  0.
</event>
<event>
 4    0  0.2253506E-002  0.1868353E+03  0.7546771E-02  0.1161347E+00
         21   -1    0    0  502  501  0.00000000000E+00  0.00000000000E+00  0.49986358940E+02  0.49986358940E+02  0.00000000000E+00 0.  1.
         21   -1    0    0  501  502 -0.00000000000E+00 -0.00000000000E+00 -0.69833889974E+03  0.69833889974E+03  0.00000000000E+00 0.  1.
         25    1    1    2    0    0 -0.35641370829E+02 -0.13241338665E+03 -0.28035533789E+03  0.33619596631E+03  0.12500000000E+03 0.  0.
         25    1    1    2    0    0  0.35641370829E+02  0.13241338665E+03 -0.36799720291E+03  0.41212929237E+03  0.12500000000E+03 0.  0.
</event>
<event>
 4    0  0.2253506E-002  0.2394040E+03  0.7546771E-02  0.1120190E+00
         21   -1    0    0  502  501  0.00000000000E+00  0.00000000000E+00  0.84357362892E+02  0.84357362892E+02  0.00000000000E+00 0.  1.
         21   -1    0    0  501  502 -0.00000000000E+00 -0.00000000000E+00 -0.67942253573E+03  0.67942253573E+03  0.00000000000E+00 0.  1.
         25    1    1    2    0    0  0.19016819303E+03 -0.70809878758E+02 -0.26146225744E+03  0.35378735511E+03  0.12500000000E+03 0.  0.
         25    1    1    2    0    0 -0.19016819303E+03  0.70809878758E+02 -0.33360291540E+03  0.40999254351E+03  0.12500000000E+03 0.  0.
</event>
<event>
 4    0  0.2253506E-002  0.2804266E+03  0.7546771E-02  0.1095456E+00
         21   -1    0    0  502  501  0.00000000000E+00  0.00000000000E+00  0.14879173718E+03  0.14879173718E+03  0.00000000000E+00 0.  1.
         21   -1    0    0  501  502 -0.00000000000E+00 -0.00000000000E+00 -0.52851790258E+03  0.52851790258E+03  0.00000000000E+00 0.  1.
         25    1    1    2    0    0  0.24773225241E+03 -0.51079426128E+01 -0.23842073458E+03  0.36587813085E+03  0.12500000000E+03 0.  0.
         25    1    1    2    0    0 -0.24773225241E+03  0.51079426128E+01 -0.14130543082E+03  0.31143150890E+03  0.12500000000E+03 0.  0.
</event>
<event>
 4    0  0.2253506E-002  0.2304718E+03  0.7546771E-02  0.1126308E+00
         21   -1    0    0  502  501  0.00000000000E+00  0.00000000000E+00  0.38066900746E+03  0.38066900746E+03  0.00000000000E+00 0.  1.
         21   -1    0    0  501  502 -0.00000000000E+00 -0.00000000000E+00 -0.13953652897E+03  0.13953652897E+03  0.00000000000E+00 0.  1.
         25    1    1    2    0    0  0.57198160285E+02 -0.20685511225E+02  0.32802834451E+03  0.35626831843E+03  0.12500000000E+03 0.  0.
         25    1    1    2    0    0 -0.57198160285E+02  0.20685511225E+02 -0.86895866020E+02  0.16393721800E+03  0.12500000000E+03 0.  0.
</event>
<event>
 4    0  0.2253506E-002  0.2095712E+03  0.7546771E-02  0.1141906E+00
         21   -1    0    0  502  501  0.00000000000E+00  0.00000000000E+00  0.71645128965E+02  0.71645128965E+02  0.00000000000E+00 0. -1.
         21   -1    0    0  501  502 -0.00000000000E+00 -0.00000000000E+00 -0.61302293723E+03  0.61302293723E+03  0.00000000000E+00 0. -1.
         25    1    1    2    0    0  0.94982731787E+02 -0.27996912972E+02 -0.49280584266E+03  0.51796538980E+03  0.12500000000E+03 0.  0.
         25    1    1    2    0    0 -0.94982731787E+02  0.27996912972E+02 -0.48571965606E+02  0.16670267639E+03  0.12500000000E+03 0.  0.
</event>
<event>
 4    0  0.2253506E-002  0.2011447E+03  0.7546771E-02  0.1148777E+00
         21   -1    0    0  502  501  0.00000000000E+00  0.00000000000E+00  0.34718001834E+03  0.34718001834E+03  0.00000000000E+00 0.  1.
         21   -1    0    0  501  502 -0.00000000000E+00 -0.00000000000E+00 -0.11653659190E+03  0.11653659190E+03  0.00000000000E+00 0.  1.
         25    1    1    2    0    0  0.10603249492E+03 -0.41563383406E+02  0.24087425878E+03  0.29430564616E+03  0.12500000000E+03 0.  0.
         25    1    1    2    0    0 -0.10603249492E+03  0.41563383406E+02 -0.10230832342E+02  0.16941096408E+03  0.12500000000E+03 0.  0.
</event>
<event>
 4    0  0.2253506E-002  0.2385287E+03  0.7546771E-02  0.1120777E+00
         21   -1    0    0  502  501  0.00000000000E+00  0.00000000000E+00  0.71856388093E+03  0.71856388093E+03  0.00000000000E+00 0. -1.
         21   -1    0    0  501  502 -0.00000000000E+00 -0.00000000000E+00 -0.79180079966E+02  0.79180079966E+02  0.00000000000E+00 0. -1.
         25    1    1    2    0    0 -0.15489302150E+03 -0.12740795603E+03  0.37378266201E+03  0.44222518448E+03  0.12500000000E+03 0.  0.
         25    1    1    2    0    0  0.15489302150E+03  0.12740795603E+03  0.26560113895E+03  0.35551877642E+03  0.12500000000E+03 0.  0.
</event>
<event>
 4    0  0.2253506E-002  0.2080343E+03  0.7546771E-02  0.1143132E+00
         21   -1    0    0  502  501  0.00000000000E+00  0.00000000000E+00  0.46422988313E+02  0.46422988313E+02  0.00000000000E+00 0. -1.
         21   -1    0    0  501  502 -0.00000000000E+00 -0.00000000000E+00 -0.93225959438E+03  0.93225959438E+03  0.00000000000E+00 0. -1.
         25    1    1    2    0    0 -0.93247275731E+02  0.38930780548E+02 -0.75357641474E+03  0.77052778857E+03  0.12500000000E+03 0.  0.
         25    1    1    2    0    0  0.93247275731E+02 -0.38930780548E+02 -0.13226019132E+03  0.20815479412E+03  0.12500000000E+03 0.  0.
</event>
<event>
 4    0  0.2253506E-002  0.2903380E+03  0.7546771E-02  0.1090173E+00
         21   -1    0    0  502  501  0.00000000000E+00  0.00000000000E+00  0.28503164487E+03  0.28503164487E+03  0.00000000000E+00 0. -1.
         21   -1    0    0  501  502 -0.00000000000E+00 -0.00000000000E+00 -0.29574304157E+03  0.29574304157E+03  0.00000000000E+00 0. -1.
         25    1    1    2    0    0  0.14964806559E+03 -0.89373119403E+02  0.19035341291E+03  0.28677782308E+03  0.12500000000E+03 0.  0.
         25    1    1    2    0    0 -0.14964806559E+03  0.89373119403E+02 -0.20106480961E+03  0.29399686336E+03  0.12500000000E+03 0.  0.
</event>
<event>
 4    0  0.2253506E-002  0.2099416E+03  0.7546771E-02  0.1141612E+00
         21   -1    0    0  502  501  0.00000000000E+00  0.00000000000E+00  0.33626759302E+02  0.33626759302E+02  0.00000000000E+00 0. -1.
         21   -1    0    0  501  502 -0.00000000000E+00 -0.00000000000E+00 -0.13107257229E+04  0.13107257229E+04  0.00000000000E+00 0. -1.
         25    1    1    2    0    0 -0.11815143641E+03 -0.10529089915E+03 -0.45173399463E+03  0.49470651631E+03  0.12500000000E+03 0.  0.
         25    1    1    2    0    0  0.11815143641E+03  0.10529089915E+03 -0.82536496900E+03  0.84964596593E+03  0.12500000000E+03 0.  0.
</event>
<event>
 4    0  0.2253506E-002  0.2193537E+03  0.7546771E-02  0.1134366E+00
         21   -1    0    0  502  501  0.00000000000E+00  0.00000000000E+00  0.12607171203E+04  0.12607171203E+04  0.00000000000E+00 0.  1.
         21   -1    0    0  501  502 -0.00000000000E+00 -0.00000000000E+00 -0.38165626520E+02  0.38165626520E+02  0.00000000000E+00 0.  1.
         25    1    1    2    0    0 -0.10527799450E+03  0.14466651447E+03  0.54646390823E+03  0.58843832262E+03  0.12500000000E+03 0.  0.
         25    1    1    2    0    0  0.10527799450E+03 -0.14466651447E+03  0.67608758552E+03  0.71044442416E+03  0.12500000000E+03 0.  0.
</event>
<event>
 4    0  0.2253506E-002  0.1909131E+03  0.7546771E-02  0.1157640E+00
         21   -1    0    0  502  501  0.00000000000E+00  0.00000000000E+00  0.13050513411E+03  0.13050513411E+03  0.00000000000E+00 0. -1.
         21   -1    0    0  501  502 -0.00000000000E+00 -0.00000000000E+00 -0.27928250802E+03  0.27928250802E+03  0.00000000000E+00 0. -1.
         25    1    1    2    0    0  0.46904990808E+02  0.78053635824E+02  0.45747777553E+02  0.16127711362E+03  0.12500000000E+03 0.  0.
         25    1    1    2    0    0 -0.46904990808E+02 -0.78053635824E+02 -0.19452515146E+03  0.24851052851E+03  0.12500000000E+03 0.  0.
</event>
<event>
 4    0  0.2253506E-002  0.2058469E+03  0.7546771E-02  0.1144898E+00
         21   -1    0    0  502  501  0.00000000000E+00  0.00000000000E+00  0.23462855921E+03  0.23462855921E+03  0.00000000000E+00 0. -1.
         21   -1    0    0  501  502 -0.00000000000E+00 -0.00000000000E+00 -0.18059585316E+03  0.18059585316E+03  0.00000000000E+00 0. -1.
         25    1    1    2    0    0  0.29543791965E+02 -0.36892032041E+02  0.18492882156E+03  0.22816118582E+03  0.12500000000E+03 0.  0.
         25    1    1    2    0    0 -0.29543791965E+02  0.36892032041E+02 -0.13089611551E+03  0.18706322655E+03  0.12500000000E+03 0.  0.
</event>
<event>
 4    0  0.2253506E-002  0.2347486E+03  0.7546771E-02  0.1123341E+00
         21   -1    0    0  502  501  0.00000000000E+00  0.00000000000E+00  0.16350488095E+04  0.16350488095E+04  0.00000000000E+00 0. -1.
         21   -1    0    0  501  502 -0.00000000000E+00 -0.00000000000E+00 -0.33703534695E+02  0.33703534695E+02  0.00000000000E+00 0. -1.
         25    1    1    2    0    0 -0.13689639431E+03  0.19467889849E+01  0.28882921435E+03  0.34320799499E+03  0.12500000000E+03 0.  0.
         25    1    1    2    0    0  0.13689639431E+03 -0.19467889849E+01  0.13125160605E+04  0.13255443492E+04  0.12500000000E+03 0.  0.
</event>
<event>
 4    0  0.2253506E-002  0.1673869E+03  0.7546771E-02  0.1180601E+00
         21   -1    0    0  502  501  0.00000000000E+00  0.00000000000E+00  0.38071424379E+03  0.38071424379E+03  0.00000000000E+00 0. -1.
         21   -1    0    0  501  502 -0.00000000000E+00 -0.00000000000E+00 -0.73594273328E+02  0.73594273328E+02  0.00000000000E+00 0. -1.
         25    1    1    2    0    0  0.20887839541E+02  0.58688011874E+01  0.53813508901E+01  0.12698308393E+03  0.12500000000E+03 0.  0.
         25    1    1    2    0    0 -0.20887839541E+02 -0.58688011874E+01  0.30173861957E+03  0.32732543318E+03  0.12500000000E+03 0.  0.
</event>
<event>
 4    0  0.2253506E-002  0.1349230E+03  0.7546771E-02  0.1220328E+00
         21   -1    0    0  502  501  0.00000000000E+00  0.00000000000E+00  0.11488353838E+04  0.11488353838E+04  0.00000000000E+00 0.  1.
         21   -1    0    0  501  502 -0.00000000000E+00 -0.00000000000E+00 -0.15845791926E+02  0.15845791926E+02  0.00000000000E+00 0.  1.
         25    1    1    2    0    0 -0.40974674595E+02  0.28215807741E+02  0.52244719628E+03  0.53949154643E+03  0.12500000000E+03 0.  0.
         25    1    1    2    0    0  0.40974674595E+02 -0.28215807741E+02  0.61054239557E+03  0.62518962927E+03  0.12500000000E+03 0.  0.
</event>
<event>
 4    0  0.2253506E-002  0.1856028E+03  0.7546771E-02  0.1162488E+00
         21   -1    0    0  502  501  0.00000000000E+00  0.00000000000E+00  0.67176131148E+02  0.67176131148E+02  0.00000000000E+00 0.  1.
         21   -1    0    0  501  502 -0.00000000000E+00 -0.00000000000E+00 -0.51280700617E+03  0.51280700617E+03  0.00000000000E+00 0.  1.
         25    1    1    2    0    0 -0.11106294072E+03 -0.33207814746E+01 -0.97067519952E+02  0.19337297593E+03  0.12500000000E+03 0.  0.
         25    1    1    2    0    0  0.11106294072E+03  0.33207814746E+01 -0.34856335507E+03  0.38661016139E+03  0.12500000000E+03 0.  0.
</event>
<event>
 4    0  0.2253506E-002  0.1686494E+03  0.7546771E-02  0.1179264E+00
         21   -1    0    0  502  501  0.00000000000E+00  0.00000000000E+00  0.33884703584E+03  0.33884703584E+03  0.00000000000E+00 0.  1.
         21   -1    0    0  501  502 -0.00000000000E+00 -0.00000000000E+00 -0.83939427439E+02  0.83939427439E+02  0.00000000000E+00 0.  1.
         25    1    1    2    0    0 -0.85209064320E+02 -0.50342986596E+02  0.19636636416E+03  0.25294218690E+03  0.12500000000E+03 0.  0.
         25    1    1    2    0    0  0.85209064320E+02  0.50342986596E+02  0.58541244248E+02  0.16984427638E+03  0.12500000000E+03 0.  0.
</event>
<event>
 4    0  0.2253506E-002  0.2266466E+03  0.7546771E-02  0.1129023E+00
         21   -1    0    0  502  501  0.00000000000E+00  0.00000000000E+00  0.40684780221E+02  0.40684780221E+02  0.00000000000E+00 0.  1.
         21   -1    0    0  501  502 -0.00000000000E+00 -0.00000000000E+00 -0.12626015474E+04  0.12626015474E+04  0.00000000000E+00 0.  1.
         25    1    1    2    0    0  0.35502233876E+02 -0.10997129756E+02 -0.77989391119E+02  0.15194963179E+03  0.12500000000E+03 0.  0.
         25    1    1    2    0    0 -0.35502233876E+02  0.10997129756E+02 -0.11439273760E+04  0.11513366958E+04  0.12500000000E+03 0.  0.
</event>
<event>
 4    0  0.2253506E-002  0.2596313E+03  0.7546771E-02  0.1107365E+00
         21   -1    0    0  502  501  0.00000000000E+00  0.00000000000E+00  0.68982086109E+03  0.68982086109E+03  0.00000000000E+00 0. -1.
         21   -1    0    0  501  502 -0.00000000000E+00 -0.00000000000E+00 -0.97718724500E+02  0.97718724500E+02  0.00000000000E+00 0. -1.
         25    1    1    2    0    0 -0.21373472952E+03 -0.10309729822E+02  0.17862485221E+03  0.30548430885E+03  0.12500000000E+03 0.  0.
         25    1    1    2    0    0  0.21373472952E+03  0.10309729822E+02  0.41347728438E+03  0.48205527674E+03  0.12500000000E+03 0.  0.
</event>
<event>
 4    0  0.2253506E-002  0.3699495E+03  0.7546771E-02  0.1054712E+00
         21   -1    0    0  502  501  0.00000000000E+00  0.00000000000E+00  0.82418884783E+02  0.82418884783E+02  0.00000000000E+00 0. -1.
         21   -1    0    0  501  502 -0.00000000000E+00 -0.00000000000E+00 -0.16605738243E+04  0.16605738243E+04  0.00000000000E+00 0. -1.
         25    1    1    2    0    0  0.16500016190E+03 -0.30454356370E+03 -0.87288959900E+03  0.94738222891E+03  0.12500000000E+03 0.  0.
         25    1    1    2    0    0 -0.16500016190E+03  0.30454356370E+03 -0.70526534051E+03  0.79561048016E+03  0.12500000000E+03 0.  0.
</event>
<event>
 4    0  0.2253506E-002  0.3299536E+03  0.7546771E-02  0.1071157E+00
         21   -1    0    0  502  501  0.00000000000E+00  0.00000000000E+00  0.11334029739E+04  0.11334029739E+04  0.00000000000E+00 0. -1.
         21   -1    0    0  501  502 -0.00000000000E+00 -0.00000000000E+00 -0.96055291769E+02  0.96055291769E+02  0.00000000000E+00 0. -1.
         25    1    1    2    0    0  0.26966226448E+03  0.14237270912E+03  0.54851963441E+03  0.63991133333E+03  0.12500000000E+03 0.  0.
         25    1    1    2    0    0 -0.26966226448E+03 -0.14237270912E+03  0.48882804769E+03  0.58954693231E+03  0.12500000000E+03 0.  0.
</event>
<event>
 4    0  0.2253506E-002  0.2883460E+03  0.7546771E-02  0.1091216E+00
         21   -1    0    0  502  501  0.00000000000E+00  0.00000000000E+00  0.97702713961E+03  0.97702713961E+03  0.00000000000E+00 0. -1.
         21   -1    0    0  501  502 -0.00000000000E+00 -0.00000000000E+00 -0.85098381277E+02  0.85098381277E+02  0.00000000000E+00 0. -1.
         25    1    1    2    0    0 -0.94248054413E+02 -0.11488571637E+02  0.48898684784E+00  0.15697108698E+03  0.12500000000E+03 0.  0.
         25    1    1    2    0    0  0.94248054413E+02  0.11488571637E+02  0.89143977148E+03  0.90515443391E+03  0.12500000000E+03 0.  0.
</event>
<event>
 4    0  0.2253506E-002  0.2000170E+03  0.7546771E-02  0.1149725E+00
         21   -1    0    0  502  501  0.00000000000E+00  0.00000000000E+00  0.66690112579E+03  0.66690112579E+03  0.00000000000E+00 0.  1.
         21   -1    0    0  501  502 -0.00000000000E+00 -0.00000000000E+00 -0.59989101944E+02  0.59989101944E+02  0.00000000000E+00 0.  1.
         25    1    1    2    0    0  0.34500789080E+02  0.75603850354E+02  0.63248053160E+02  0.16288512168E+03  0.12500000000E+03 0.  0.
         25    1    1    2    0    0 -0.34500789080E+02 -0.75603850354E+02  0.54366397069E+03  0.56400510606E+03  0.12500000000E+03 0.  0.
</event>
<event>
 4    0  0.2253506E-002  0.3453553E+03  0.7546771E-02  0.1064538E+00
         21   -1    0    0  502  501  0.00000000000E+00  0.00000000000E+00  0.16878477018E+03  0.16878477018E+03  0.00000000000E+00 0.  1.
         21   -1    0    0  501  502 -0.00000000000E+00 -0.00000000000E+00 -0.70664111767E+03  0.70664111767E+03  0.00000000000E+00 0.  1.
         25    1    1    2    0    0  0.22101620251E+03  0.19184838449E+03 -0.98925985212E+02  0.33326463202E+03  0.12500000000E+03 0.  0.
         25    1    1    2    0    0 -0.22101620251E+03 -0.19184838449E+03 -0.43893036227E+03  0.54216125583E+03  0.12500000000E+03 0.  0.
</event>
<event>
 4    0  0.2253506E-002  0.2534337E+03  0.7546771E-02  0.1111154E+00
         21   -1    0    0  502  501  0.00000000000E+00  0.00000000000E+00  0.27734473766E+02  0.27734473766E+02  0.00000000000E+00 0.  1.
         21   -1    0    0  501  502 -0.00000000000E+00 -0.00000000000E+00 -0.23158422258E+04  0.23158422258E+04  0.00000000000E+00 0.  1.
         25    1    1    2    0    0  0.18240507396E+02  0.18450592996E+03 -0.16955779270E+04  0.17102586532E+04  0.12500000000E+03 0.  0.
         25    1    1    2    0    0 -0.18240507396E+02 -0.18450592996E+03 -0.59252982500E+03  0.63331804634E+03  0.12500000000E+03 0.  0.
</event>
<event>
 4    0  0.2253506E-002  0.1865265E+03  0.7546771E-02  0.1161632E+00
         21   -1    0    0  502  501  0.00000000000E+00  0.00000000000E+00  0.19203546406E+03  0.19203546406E+03  0.00000000000E+00 0. -1.
         21   -1    0    0  501  502 -0.00000000000E+00 -0.00000000000E+00 -0.18117564332E+03  0.18117564332E+03  0.00000000000E+00 0. -1.
         25    1    1    2    0    0 -0.12307369321E+03 -0.49864029763E+02  0.44607619973E+02  0.18774555969E+03  0.12500000000E+03 0.  0.
         25    1    1    2    0    0  0.12307369321E+03  0.49864029763E+02 -0.33747799236E+02  0.18546554769E+03  0.12500000000E+03 0.  0.
</event>
<event>
 4    0  0.2253506E-002  0.3131469E+03  0.7546771E-02  0.1078847E+00
         21   -1    0    0  502  501  0.00000000000E+00  0.00000000000E+00  0.22684976984E+04  0.22684976984E+04  0.00000000000E+00 0.  1.
         21   -1    0    0  501  502 -0.00000000000E+00 -0.00000000000E+00 -0.43227274739E+02  0.43227274739E+02  0.00000000000E+00 0.  1.
         25    1    1    2    0    0 -0.26275721989E+03 -0.16243601966E+02  0.15355988518E+04  0.15630080118E+04  0.12500000000E+03 0.  0.
         25    1    1    2    0    0  0.26275721989E+03  0.16243601966E+02  0.68967157189E+03  0.74871696140E+03  0.12500000000E+03 0.  0.
</event>
<event>
 4    0  0.2253506E-002  0.2300789E+03  0.7546771E-02  0.1126584E+00
         21   -1    0    0  502  501  0.00000000000E+00  0.00000000000E+00  0.49782296441E+03  0.49782296441E+03  0.00000000000E+00 0. -1.
         21   -1    0    0  501  502 -0.00000000000E+00 -0.00000000000E+00 -0.10633562096E+03  0.10633562096E+03  0.00000000000E+00 0. -1.
         25    1    1    2    0    0  0.17760004565E+03 -0.66007879789E+02  0.14639926038E+03  0.27010472015E+03  0.12500000000E+03 0.  0.
         25    1    1    2    0    0 -0.17760004565E+03  0.66007879789E+02  0.24508808306E+03  0.33405386522E+03  0.12500000000E+03 0.  0.
</event>
<event>
 4    0  0.2253506E-002  0.1613552E+03  0.7546771E-02  0.1187175E+00
         21   -1    0    0  502  501  0.00000000000E+00  0.00000000000E+00  0.15557642140E+03  0.15557642140E+03  0.00000000000E+00 0.  1.
         21   -1    0    0  501  502 -0.00000000000E+00 -0.00000000000E+00 -0.16734858543E+03  0.16734858543E+03  0.00000000000E+00 0.  1.
         25    1    1    2    0    0  0.79071492407E+02  0.64481336138E+02 -0.64784434700E+01  0.16148409783E+03  0.12500000000E+03 0.  0.
         25    1    1    2    0    0 -0.79071492407E+02 -0.64481336138E+02 -0.52937205639E+01  0.16144090900E+03  0.12500000000E+03 0.  0.
</event>
<event>
 4    0  0.2253506E-002  0.2042036E+03  0.7546771E-02  0.1146240E+00
         21   -1    0    0  502  501  0.00000000000E+00  0.00000000000E+00  0.57198518142E+02  0.57198518142E+02  0.00000000000E+00 0. -1.
         21   -1    0    0  501  502 -0.00000000000E+00 -0.00000000000E+00 -0.72902425631E+03  0.72902425631E+03  0.00000000000E+00 0. -1.
         25    1    1    2    0    0 -0.42492446192E+02 -0.14474365659E+03 -0.44679857952E+03  0.48786299795E+03  0.12500000000E+03 0.  0.
         25    1    1    2    0    0  0.42492446192E+02  0.14474365659E+03 -0.22502715865E+03  0.29835977650E+03  0.12500000000E+03 0.  0.
</event>
<event>
 4    0  0.2253506E-002  0.1906763E+03  0.7546771E-02  0.1157853E+00
         21   -1    0    0  502  501  0.00000000000E+00  0.00000000000E+00  0.31857200773E+03  0.31857200773E+03  0.00000000000E+00 0.  1.
         21   -1    0    0  501  502 -0.00000000000E+00 -0.00000000000E+00 -0.11412630734E+03  0.11412630734E+03  0.00000000000E+00 0.  1.
         25    1    1    2    0    0 -0.45315839116E+01  0.12153450454E+02 -0.60487239445E+02  0.13947023964E+03  0.12500000000E+03 0.  0.
         25    1    1    2    0    0  0.45315839116E+01 -0.12153450454E+02  0.26493293983E+03  0.29322807543E+03  0.12500000000E+03 0.  0.
</event>
<event>
 4    0  0.2253506E-002  0.1906330E+03  0.7546771E-02  0.1157892E+00
         21   -1    0    0  502  501  0.00000000000E+00  0.00000000000E+00  0.45172915254E+03  0.45172915254E+03  0.00000000000E+00 0.  1.
         21   -1    0    0  501  502 -0.00000000000E+00 -0.00000000000E+00 -0.80448503077E+02  0.80448503077E+02  0.00000000000E+00 0.  1.
         25    1    1    2    0    0  0.95608283983E+02  0.10016477088E+03  0.24045186762E+03  0.30432881220E+03  0.12500000000E+03 0.  0.
         25    1    1    2    0    0 -0.95608283983E+02 -0.10016477088E+03  0.13082878185E+03  0.22784884343E+03  0.12500000000E+03 0.  0.
</event>
<event>
 4    0  0.2253506E-002  0.1713164E+03  0.7546771E-02  0.1176482E+00
         21   -1    0    0  502  501  0.00000000000E+00  0.00000000000E+00  0.63920901404E+03  0.63920901404E+03  0.00000000000E+00 0. -1.
         21   -1    0    0  501  502 -0.00000000000E+00 -0.00000000000E+00 -0.45915047650E+02  0.45915047650E+02  0.00000000000E+00 0. -1.
         25    1    1    2    0    0 -0.51132712981E+02  0.87474642135E+02  0.17906269370E+03  0.24073806435E+03  0.12500000000E+03 0.  0.
         25    1    1    2    0    0  0.51132712981E+02 -0.87474642135E+02  0.41423127269E+03  0.44438599734E+03  0.12500000000E+03 0.  0.
</event>
<event>
 4    0  0.2253506E-002  0.1889898E+03  0.7546771E-02  0.1159376E+00
         21   -1    0    0  502  501  0.00000000000E+00  0.00000000000E+00  0.32639368608E+04  0.32639368608E+04  0.00000000000E+00 0.  1.
         21   -1    0    0  501  502 -0.00000000000E+00 -0.00000000000E+00 -0.10942963038E+02  0.10942963038E+02  0.00000000000E+00 0.  1.
         25    1    1    2    0    0  0.11596867048E+03 -0.79701895446E+02  0.17743006408E+04  0.17842558361E+04  0.12500000000E+03 0.  0.
         25    1    1    2    0    0 -0.11596867048E+03  0.79701895446E+02  0.14786932570E+04  0.14906239878E+04  0.12500000000E+03 0.  0.
</event>
<event>
 4    0  0.2253506E-002  0.2423555E+03  0.7546771E-02  0.1118234E+00
         21   -1    0    0  502  501  0.00000000000E+00  0.00000000000E+00  0.83890578672E+02  0.83890578672E+02  0.00000000000E+00 0.  1.
         21   -1    0    0  501  502 -0.00000000000E+00 -0.00000000000E+00 -0.70015218495E+03  0.70015218495E+03  0.00000000000E+00 0.  1.
         25    1    1    2    0    0 -0.12510780963E+03 -0.11733176141E+03 -0.49740776942E+03  0.54079404152E+03  0.12500000000E+03 0.  0.
         25    1    1    2    0    0  0.12510780963E+03  0.11733176141E+03 -0.11885383685E+03  0.24324872210E+03  0.12500000000E+03 0.  0.
</event>
<event>
 4    0  0.2253506E-002  0.1796905E+03  0.7546771E-02  0.1168103E+00
         21   -1    0    0  502  501  0.00000000000E+00  0.00000000000E+00  0.13434871850E+03  0.13434871850E+03  0.00000000000E+00 0.  1.
         21   -1    0    0  501  502 -0.00000000000E+00 -0.00000000000E+00 -0.24033475368E+03  0.24033475368E+03  0.00000000000E+00 0.  1.
         25    1    1    2    0    0  0.91973781512E+02  0.90189765338E+02 -0.44251747900E+02  0.18486910896E+03  0.12500000000E+03 0.  0.
         25    1    1    2    0    0 -0.91973781512E+02 -0.90189765338E+02 -0.61734287276E+02  0.18981436321E+03  0.12500000000E+03 0.  0.
</event>
<event>
 4    0  0.2253506E-002  0.3469969E+03  0.7546771E-02  0.1063854E+00
         21   -1    0    0  502  501  0.00000000000E+00  0.00000000000E+00  0.16340140333E+04  0.16340140333E+04  0.00000000000E+00 0. -1.
         21   -1    0    0  501  502 -0.00000000000E+00 -0.00000000000E+00 -0.73687771021E+02  0.73687771021E+02  0.00000000000E+00 0. -1.
         25    1    1    2    0    0  0.22520619613E+03  0.20908523904E+03  0.52985686412E+03  0.62514619443E+03  0.12500000000E+03 0.  0.
         25    1    1    2    0    0 -0.22520619613E+03 -0.20908523904E+03  0.10304693981E+04  0.10825556099E+04  0.12500000000E+03 0.  0.
</event>
<event>
 4    0  0.2253506E-002  0.2357930E+03  0.7546771E-02  0.1122628E+00
         21   -1    0    0  502  501  0.00000000000E+00  0.00000000000E+00  0.12943583292E+03  0.12943583292E+03  0.00000000000E+00 0. -1.
         21   -1    0    0  501  502 -0.00000000000E+00 -0.00000000000E+00 -0.42954354353E+03  0.42954354353E+03  0.00000000000E+00 0. -1.
         25    1    1    2    0    0  0.16611743594E+03 -0.10678039218E+03 -0.18708953075E+03  0.29937359135E+03  0.12500000000E+03 0.  0.
         25    1    1    2    0    0 -0.16611743594E+03  0.10678039218E+03 -0.11301817986E+03  0.25960578510E+03  0.12500000000E+03 0.  0.
</event>
<event>
 4    0  0.2253506E-002  0.1969211E+03  0.7546771E-02  0.1152363E+00
         21   -1    0    0  502  501  0.00000000000E+00  0.00000000000E+00  0.13334930559E+03  0.13334930559E+03  0.00000000000E+00 0. -1.
         21   -1    0    0  501  502 -0.00000000000E+00 -0.00000000000E+00 -0.29079946338E+03  0.29079946338E+03  0.00000000000E+00 0. -1.
         25    1    1    2    0    0  0.12467427685E+03  0.70253214203E+02 -0.13441207119E+03  0.23274620146E+03  0.12500000000E+03 0.  0.
         25    1    1    2    0    0 -0.12467427685E+03 -0.70253214203E+02 -0.23038086599E+02  0.19140256751E+03  0.12500000000E+03 0.  0.
</event>
<event>
 4    0  0.2253506E-002  0.1977205E+03  0.7546771E-02  0.1151677E+00
         21   -1    0    0  502  501  0.00000000000E+00  0.00000000000E+00  0.15532197761E+03  0.15532197761E+03  0.00000000000E+00 0.  1.
         21   -1    0    0  501  502 -0.00000000000E+00 -0.00000000000E+00 -0.25169264635E+03  0.25169264635E+03  0.00000000000E+00 0.  1.
         25    1    1    2    0    0  0.91555659336E+02  0.12100019851E+03 -0.69895630175E+02  0.20864775559E+03  0.12500000000E+03 0.  0.
         25    1    1    2    0    0 -0.91555659336E+02 -0.12100019851E+03 -0.26475038569E+02  0.19836686836E+03  0.12500000000E+03 0.  0.
</event>
<event>
 4    0  0.2253506E-002  0.3573775E+03  0.7546771E-02  0.1059627E+00
         21   -1    0    0  502  501  0.00000000000E+00  0.00000000000E+00  0.16468262132E+03  0.16468262132E+03  0.00000000000E+00 0. -1.
         21   -1    0    0  501  502 -0.00000000000E+00 -0.00000000000E+00 -0.77554423514E+03  0.77554423514E+03  0.00000000000E+00 0. -1.
         25    1    1    2    0    0  0.22786387767E+03  0.24489808278E+03 -0.28698442049E+03  0.45812888503E+03  0.12500000000E+03 0.  0.
         25    1    1    2    0    0 -0.22786387767E+03 -0.24489808278E+03 -0.32387719333E+03  0.48209797143E+03  0.12500000000E+03 0.  0.
</event>
<event>
 4    0  0.2253506E-002  0.2193184E+03  0.7546771E-02  0.1134392E+00
         21   -1    0    0  502  501  0.00000000000E+00  0.00000000000E+00  0.59236417109E+02  0.59236417109E+02  0.00000000000E+00 0.  1.
         21   -1    0    0  501  502 -0.00000000000E+00 -0.00000000000E+00 -0.81200975403E+03  0.81200975403E+03  0.00000000000E+00 0.  1.
         25    1    1    2    0    0 -0.66650653293E+02  0.79674955344E+01 -0.44201508950E+02  0.14860876139E+03  0.12500000000E+03 0.  0.
         25    1    1    2    0    0  0.66650653293E+02 -0.79674955344E+01 -0.70857182798E+03  0.72263740975E+03  0.12500000000E+03 0.  0.
</event>
<event>
 4    0  0.2253506E-002  0.2107783E+03  0.7546771E-02  0.1140951E+00
         21   -1    0    0  502  501  0.00000000000E+00  0.00000000000E+00  0.28895191429E+03  0.28895191429E+03  0.00000000000E+00 0.  1.
         21   -1    0    0  501  502 -0.00000000000E+00 -0.00000000000E+00 -0.15375397219E+03  0.15375397219E+03  0.00000000000E+00 0.  1.
         25    1    1    2    0    0  0.95422711342E+02  0.70389699562E+02 -0.59910362867E+02  0.18241287022E+03  0.12500000000E+03 0.  0.
         25    1    1    2    0    0 -0.95422711342E+02 -0.70389699562E+02  0.19510830497E+03  0.26029301626E+03  0.12500000000E+03 0.  0.
</event>
<event>
 4    0  0.2253506E-002  0.1695229E+03  0.7546771E-02  0.1178346E+00
         21   -1    0    0  502  501  0.00000000000E+00  0.00000000000E+00  0.24223419394E+03  0.24223419394E+03  0.00000000000E+00 0. -1.
         21   -1    0    0  501  502 -0.00000000000E+00 -0.00000000000E+00 -0.11863736953E+03  0.11863736953E+03  0.00000000000E+00 0. -1.
         25    1    1    2    0    0  0.52445458086E+02 -0.10079754482E+03  0.46657476019E+02  0.17525008183E+03  0.12500000000E+03 0.  0.
         25    1    1    2    0    0 -0.52445458086E+02  0.10079754482E+03  0.76939348387E+02  0.18562148164E+03  0.12500000000E+03 0.  0.
</event>
<event>
 4    0  0.2253506E-002  0.5605995E+03  0.7546771E-02  0.9990699E-01
         21   -1    0    0  502  501  0.00000000000E+00  0.00000000000E+00  0.11127862681E+04  0.11127862681E+04  0.00000000000E+00 0.  1.
         21   -1    0    0  501  502 -0.00000000000E+00 -0.00000000000E+00 -0.28241879747E+03  0.28241879747E+03  0.00000000000E+00 0.  1.
         25    1    1    2    0    0 -0.15054953634E+03  0.52208668207E+03  0.34254849539E+03  0.65437308791E+03  0.12500000000E+03 0.  0.
         25    1    1    2    0    0  0.15054953634E+03 -0.52208668207E+03  0.48781897520E+03  0.74083197762E+03  0.12500000000E+03 0.  0.
</event>
<event>
 4    0  0.2253506E-002  0.2700284E+03  0.7546771E-02  0.1101263E+00
         21   -1    0    0  502  501  0.00000000000E+00  0.00000000000E+00  0.38476566647E+03  0.38476566647E+03  0.00000000000E+00 0. -1.
         21   -1    0    0  501  502 -0.00000000000E+00 -0.00000000000E+00 -0.18950586899E+03  0.18950586899E+03  0.00000000000E+00 0. -1.
         25    1    1    2    0    0  0.79850577315E+02  0.10947985974E+03 -0.11217279990E+03  0.21580011915E+03  0.12500000000E+03 0.  0.
         25    1    1    2    0    0 -0.79850577315E+02 -0.10947985974E+03  0.30743259738E+03  0.35847141632E+03  0.12500000000E+03 0.  0.
</event>
<event>
 4    0  0.2253506E-002  0.1697998E+03  0.7546771E-02  0.1178057E+00
         21   -1    0    0  502  501  0.00000000000E+00  0.00000000000E+00  0.68845399361E+03  0.68845399361E+03  0.00000000000E+00 0.  1.
         21   -1    0    0  501  502 -0.00000000000E+00 -0.00000000000E+00 -0.41879294686E+02  0.41879294686E+02  0.00000000000E+00 0.  1.
         25    1    1    2    0    0 -0.94414077978E+02  0.47105378570E+02  0.22534697139E+03  0.27845860074E+03  0.12500000000E+03 0.  0.
         25    1    1    2    0    0  0.94414077978E+02 -0.47105378570E+02  0.42122772753E+03  0.45187468755E+03  0.12500000000E+03 0.  0.
</event>
<event>
 4    0  0.2253506E-002  0.1745386E+03  0.7546771E-02  0.1173196E+00
         21   -1    0    0  502  501  0.00000000000E+00  0.00000000000E+00  0.10373611742E+03  0.10373611742E+03  0.00000000000E+00 0.  1.
         21   -1    0    0  501  502 -0.00000000000E+00 -0.00000000000E+00 -0.29366565249E+03  0.29366565249E+03  0.00000000000E+00 0.  1.
         25    1    1    2    0    0 -0.22833872854E+01 -0.88982171906E+02 -0.29177416896E+00  0.15345398629E+03  0.12500000000E+03 0.  0.
         25    1    1    2    0    0  0.22833872854E+01  0.88982171906E+02 -0.18963776090E+03  0.24394778362E+03  0.12500000000E+03 0.  0.
</event>
<event>
 4    0  0.2253506E-002  0.2016072E+03  0.7546771E-02  0.1148390E+00
         21   -1    0    0  502  501  0.00000000000E+00  0.00000000000E+00  0.21965902548E+03  0.21965902548E+03  0.00000000000E+00 0. -1.
         21   -1    0    0  501  502 -0.00000000000E+00 -0.00000000000E+00 -0.18503896942E+03  0.18503896942E+03  0.00000000000E+00 0. -1.
         25    1    1    2    0    0  0.14275437248E+03 -0.60901936674E+02 -0.13341207047E+02  0.19972692497E+03  0.12500000000E+03 0.  0.
         25    1    1    2    0    0 -0.14275437248E+03  0.60901936674E+02  0.47961263108E+02  0.20497106994E+03  0.12500000000E+03 0.  0.
</event>
<event>
 4    0  0.2253506E-002  0.1943047E+03  0.7546771E-02  0.1154635E+00
         21   -1    0    0  502  501  0.00000000000E+00  0.00000000000E+00  0.46570216748E+03  0.46570216748E+03  0.00000000000E+00 0.  1.
         21   -1    0    0  501  502 -0.00000000000E+00 -0.00000000000E+00 -0.81069684619E+02  0.81069684619E+02  0.00000000000E+00 0.  1.
         25    1    1    2    0    0  0.80185010014E+01 -0.86923241002E+02  0.22836717958E+02  0.15416375019E+03  0.12500000000E+03 0.  0.
         25    1    1    2    0    0 -0.80185010014E+01  0.86923241002E+02  0.36179576490E+03  0.39260810191E+03  0.12500000000E+03 0.  0.
</event>
<event>
 4    0  0.2253506E-002  0.2076054E+03  0.7546771E-02  0.1143476E+00
         21   -1    0    0  502  501  0.00000000000E+00  0.00000000000E+00  0.39530556807E+03  0.39530556807E+03  0.00000000000E+00 0. -1.
         21   -1    0    0  501  502 -0.00000000000E+00 -0.00000000000E+00 -0.10902956550E+03  0.10902956550E+03  0.00000000000E+00 0. -1.
         25    1    1    2    0    0  0.85782889190E+02 -0.13153582511E+03  0.78697298011E+02  0.21558905835E+03  0.12500000000E+03 0.  0.
         25    1    1    2    0    0 -0.85782889190E+02  0.13153582511E+03  0.20757870456E+03  0.28874607522E+03  0.12500000000E+03 0.  0.
</event>
<event>
 4    0  0.2253506E-002  0.2776963E+03  0.7546771E-02  0.1096954E+00
         21   -1    0    0  502  501  0.00000000000E+00  0.00000000000E+00  0.54764046643E+03  0.54764046643E+03  0.00000000000E+00 0.  1.
         21   -1    0    0  501  502 -0.00000000000E+00 -0.00000000000E+00 -0.14081365176E+03  0.14081365176E+03  0.00000000000E+00 0.  1.
         25    1    1    2    0    0 -0.63088463282E+02 -0.23202616293E+03  0.12827845084E+03  0.29982770958E+03  0.12500000000E+03 0.  0.
         25    1    1    2    0    0  0.63088463282E+02  0.23202616293E+03  0.27854836382E+03  0.38862640861E+03  0.12500000000E+03 0.  0.
</event>
<event>
 4    0  0.2253506E-002  0.2410608E+03  0.7546771E-02  0.1119088E+00
         21   -1    0    0  502  501  0.00000000000E+00  0.00000000000E+00  0.40560726674E+02  0.40560726674E+02  0.00000000000E+00 0.  1.
         21   -1    0    0  501  502 -0.00000000000E+00 -0.00000000000E+00 -0.14326737771E+04  0.14326737771E+04  0.00000000000E+00 0.  1.
         25    1    1    2    0    0  0.69575751221E+02  0.30762208593E+02 -0.11067677638E+03  0.18347056294E+03  0.12500000000E+03 0.  0.
         25    1    1    2    0    0 -0.69575751221E+02 -0.30762208593E+02 -0.12814362741E+04  0.12897639409E+04  0.12500000000E+03 0.  0.
</event>
<event>
 4    0  0.2253506E-002  0.1880033E+03  0.7546771E-02  0.1160275E+00
         21   -1    0    0  502  501  0.00000000000E+00  0.00000000000E+00  0.27596385918E+03  0.27596385918E+03  0.00000000000E+00 0.  1.
         21   -1    0    0  501  502 -0.00000000000E+00 -0.00000000000E+00 -0.12807923006E+03  0.12807923006E+03  0.00000000000E+00 0.  1.
         25    1    1    2    0    0  0.21796602212E+02  0.99288754868E+02  0.17805246891E+03  0.24012711300E+03  0.12500000000E+03 0.  0.
         25    1    1    2    0    0 -0.21796602212E+02 -0.99288754868E+02 -0.30167839793E+02  0.16391597625E+03  0.12500000000E+03 0.  0.
</event>
<event>
 4    0  0.2253506E-002  0.2117039E+03  0.7546771E-02  0.1140224E+00
         21   -1    0    0  502  501  0.00000000000E+00  0.00000000000E+00  0.29927839686E+02  0.29927839686E+02  0.00000000000E+00 0. -1.
         21   -1    0    0  501  502 -0.00000000000E+00 -0.00000000000E+00 -0.14975532813E+04  0.14975532813E+04  0.00000000000E+00 0. -1.
         25    1    1    2    0    0  0.75309585540E+02  0.35441970281E+02 -0.19549727553E+03  0.24651947523E+03  0.12500000000E+03 0.  0.
         25    1    1    2    0    0 -0.75309585540E+02 -0.35441970281E+02 -0.12721281661E+04  0.12809616457E+04  0.12500000000E+03 0.  0.
</event>
<event>
 4    0  0.2253506E-002  0.1996758E+03  0.7546771E-02  0.1150013E+00
         21   -1    0    0  502  501  0.00000000000E+00  0.00000000000E+00  0.33479017516E+02  0.33479017516E+02  0.00000000000E+00 0.  1.
         21   -1    0    0  501  502 -0.00000000000E+00 -0.00000000000E+00 -0.11909072979E+04  0.11909072979E+04  0.00000000000E+00 0.  1.
         25    1    1    2    0    0  0.14944799133E+03  0.21231337589E+02 -0.46156750384E+03  0.50145292143E+03  0.12500000000E+03 0.  0.
         25    1    1    2    0    0 -0.14944799133E+03 -0.21231337589E+02 -0.69586077654E+03  0.72293339398E+03  0.12500000000E+03 0.  0.
</event>
<event>
 4    0  0.2253506E-002  0.2001055E+03  0.7546771E-02  0.1149650E+00
         21   -1    0    0  502  501  0.00000000000E+00  0.00000000000E+00  0.29480628550E+02  0.29480628550E+02  0.00000000000E+00 0. -1.
         21   -1    0    0  501  502 -0.00000000000E+00 -0.00000000000E+00 -0.13582553523E+04  0.13582553523E+04  0.00000000000E+00 0. -1.
         25    1    1    2    0    0  0.15232733849E+03 -0.25147607558E+02 -0.58079221615E+03  0.61382458289E+03  0.12500000000E+03 0.  0.
         25    1    1    2    0    0 -0.15232733849E+03  0.25147607558E+02 -0.74798250756E+03  0.77391139792E+03  0.12500000000E+03 0.  0.
</event>
<event>
 4    0  0.2253506E-002  0.2480117E+03  0.7546771E-02  0.1114568E+00
         21   -1    0    0  502  501  0.00000000000E+00  0.00000000000E+00  0.56527608600E+03  0.56527608600E+03  0.00000000000E+00 0.  1.
         21   -1    0    0  501  502 -0.00000000000E+00 -0.00000000000E+00 -0.10881377727E+03  0.10881377727E+03  0.00000000000E+00 0.  1.
         25    1    1    2    0    0 -0.96851713228E+02 -0.92905494026E+02  0.45511757645E+03  0.49068186594E+03  0.12500000000E+03 0.  0.
         25    1    1    2    0    0  0.96851713228E+02  0.92905494026E+02  0.13447322814E+01  0.18340799732E+03  0.12500000000E+03 0.  0.
</event>
<event>
 4    0  0.2253506E-002  0.1995504E+03  0.7546771E-02  0.1150119E+00
         21   -1    0    0  502  501  0.00000000000E+00  0.00000000000E+00  0.64986811646E+03  0.64986811646E+03  0.00000000000E+00 0. -1.
         21   -1    0    0  501  502 -0.00000000000E+00 -0.00000000000E+00 -0.61274529331E+02  0.61274529331E+02  0.00000000000E+00 0. -1.
         25    1    1    2    0    0  0.73821684603E+02 -0.11301581164E+03  0.15658353198E+03  0.24158977066E+03  0.12500000000E+03 0.  0.
         25    1    1    2    0    0 -0.73821684603E+02  0.11301581164E+03  0.43201005514E+03  0.46955287513E+03  0.12500000000E+03 0.  0.
</event>
<event>
 4    0  0.2253506E-002  0.2141583E+03  0.7546771E-02  0.1138315E+00
         21   -1    0    0  502  501  0.00000000000E+00  0.00000000000E+00  0.58833296841E+03  0.58833296841E+03  0.00000000000E+00 0.  1.
         21   -1    0    0  501  502 -0.00000000000E+00 -0.00000000000E+00 -0.77955465684E+02  0.77955465684E+02  0.00000000000E+00 0.  1.
         25    1    1    2    0    0 -0.13726589700E+03 -0.32631716745E+02  0.97067618463E+02  0.21202329582E+03  0.12500000000E+03 0.  0.
         25    1    1    2    0    0  0.13726589700E+03  0.32631716745E+02  0.41330988426E+03  0.45426513827E+03  0.12500000000E+03 0.  0.
</event>
<event>
 4    0  0.2253506E-002  0.2020935E+03  0.7546771E-02  0.1147985E+00
         21   -1    0    0  502  501  0.00000000000E+00  0.00000000000E+00  0.13810768044E+03  0.13810768044E+03  0.00000000000E+00 0. -1.
         21   -1    0    0  501  502 -0.00000000000E+00 -0.00000000000E+00 -0.29572419307E+03  0.29572419307E+03  0.00000000000E+00 0. -1.
         25    1    1    2    0    0 -0.31982613877E+02 -0.12946038285E+03  0.13735599996E+02  0.18329360334E+03  0.12500000000E+03 0.  0.
         25    1    1    2    0    0  0.31982613877E+02  0.12946038285E+03 -0.17135211263E+03  0.25053827017E+03  0.12500000000E+03 0.  0.
</event>
<event>
 4    0  0.2253506E-002  0.1835129E+03  0.7546771E-02  0.1164446E+00
         21   -1    0    0  502  501  0.00000000000E+00  0.00000000000E+00  0.16793815438E+02  0.16793815438E+02  0.00000000000E+00 0.  1.
         21   -1    0    0  501  502 -0.00000000000E+00 -0.00000000000E+00 -0.20053207371E+04  0.20053207371E+04  0.00000000000E+00 0.  1.
         25    1    1    2    0    0  0.87429189597E+02  0.97900453225E+02 -0.11523787094E+04  0.11665462064E+04  0.12500000000E+03 0.  0.
         25    1    1    2    0    0 -0.87429189597E+02 -0.97900453225E+02 -0.83614821230E+03  0.85556834611E+03  0.12500000000E+03 0.  0.
</event>
<event>
 4    0  0.2253506E-002  0.2059451E+03  0.7546771E-02  0.1144818E+00
         21   -1    0    0  502  501  0.00000000000E+00  0.00000000000E+00  0.13184200028E+03  0.13184200028E+03  0.00000000000E+00 0. -1.
         21   -1    0    0  501  502 -0.00000000000E+00 -0.00000000000E+00 -0.32169863604E+03  0.32169863604E+03  0.00000000000E+00 0. -1.
         25    1    1    2    0    0  0.32747994626E+02  0.14640763782E+03 -0.22884726258E+02  0.19661215186E+03  0.12500000000E+03 0.  0.
         25    1    1    2    0    0 -0.32747994626E+02 -0.14640763782E+03 -0.16697190951E+03  0.25692848446E+03  0.12500000000E+03 0.  0.
</event>
<event>
 4    0  0.2253506E-002  0.4774308E+03  0.7546771E-02  0.1019844E+00
         21   -1    0    0  502  501  0.00000000000E+00  0.00000000000E+00  0.27932987821E+03  0.27932987821E+03  0.00000000000E+00 0.  1.
         21   -1    0    0  501  502 -0.00000000000E+00 -0.00000000000E+00 -0.81602485435E+03  0.81602485435E+03  0.00000000000E+00 0.  1.
         25    1    1    2    0    0 -0.17602253935E+03  0.33396768472E+03 -0.57140990347E+03  0.69616996961E+03  0.12500000000E+03 0.  0.
         25    1    1    2    0    0  0.17602253935E+03 -0.33396768472E+03  0.34714927333E+02  0.39918476296E+03  0.12500000000E+03 0.  0.
</event>
<event>
 4    0  0.2253506E-002  0.2586582E+03  0.7546771E-02  0.1107952E+00
         21   -1    0    0  502  501  0.00000000000E+00  0.00000000000E+00  0.31019102313E+03  0.31019102313E+03  0.00000000000E+00 0.  1.
         21   -1    0    0  501  502 -0.00000000000E+00 -0.00000000000E+00 -0.21568673262E+03  0.21568673262E+03  0.00000000000E+00 0.  1.
         25    1    1    2    0    0 -0.72398721445E+02  0.14653922464E+03 -0.11206993908E+03  0.23430746995E+03  0.12500000000E+03 0.  0.
         25    1    1    2    0    0  0.72398721445E+02 -0.14653922464E+03  0.20657422960E+03  0.29157028580E+03  0.12500000000E+03 0.  0.
</event>
<event>
 4    0  0.2253506E-002  0.2138355E+03  0.7546771E-02  0.1138564E+00
         21   -1    0    0  502  501  0.00000000000E+00  0.00000000000E+00  0.26351157833E+03  0.26351157833E+03  0.00000000000E+00 0. -1.
         21   -1    0    0  501  502 -0.00000000000E+00 -0.00000000000E+00 -0.17352422434E+03  0.17352422434E+03  0.00000000000E+00 0.  1.
         25    1    1    2    0    0 -0.10966122118E+03 -0.31065270363E+02  0.17866314432E+03  0.24604095917E+03  0.12500000000E+03 0.  0.
         25    1    1    2    0    0  0.10966122118E+03  0.31065270363E+02 -0.88675790324E+02  0.19099484350E+03  0.12500000000E+03 0.  0.
</event>
<event>
 4    0  0.2253506E-002  0.2646312E+03  0.7546771E-02  0.1104392E+00
         21   -1    0    0  502  501  0.00000000000E+00  0.00000000000E+00  0.93030540286E+03  0.93030540286E+03  0.00000000000E+00 0. -1.
         21   -1    0    0  501  502 -0.00000000000E+00 -0.00000000000E+00 -0.75275989221E+02  0.75275989221E+02  0.00000000000E+00 0. -1.
         25    1    1    2    0    0  0.98008984465E+02  0.94381331815E+02  0.67567022606E+02  0.19673306630E+03  0.12500000000E+03 0.  0.
         25    1    1    2    0    0 -0.98008984465E+02 -0.94381331815E+02  0.78746239103E+03  0.80884832578E+03  0.12500000000E+03 0.  0.
</event>
<event>
 4    0  0.2253506E-002  0.2293482E+03  0.7546771E-02  0.1127099E+00
         21   -1    0    0  502  501  0.00000000000E+00  0.00000000000E+00  0.16078526453E+03  0.16078526453E+03  0.00000000000E+00 0. -1.
         21   -1    0    0  501  502 -0.00000000000E+00 -0.00000000000E+00 -0.32714800654E+03  0.32714800654E+03  0.00000000000E+00 0. -1.
         25    1    1    2    0    0  0.18675440265E+03 -0.45772542052E+02 -0.85097948841E+02  0.24462010018E+03  0.12500000000E+03 0.  0.
         25    1    1    2    0    0 -0.18675440265E+03  0.45772542052E+02 -0.81264793178E+02  0.24331317089E+03  0.12500000000E+03 0.  0.
</event>
<event>
 4    0  0.2253506E-002  0.1420614E+03  0.7546771E-02  0.1210582E+00
         21   -1    0    0  502  501  0.00000000000E+00  0.00000000000E+00  0.21557733390E+03  0.21557733390E+03  0.00000000000E+00 0. -1.
         21   -1    0    0  501  502 -0.00000000000E+00 -0.00000000000E+00 -0.93615828284E+02  0.93615828284E+02  0.00000000000E+00 0. -1.
         25    1    1    2    0    0 -0.39553226578E+02 -0.50290420351E+01  0.17072444857E+01  0.13121609536E+03  0.12500000000E+03 0.  0.
         25    1    1    2    0    0  0.39553226578E+02  0.50290420351E+01  0.12025426113E+03  0.17797706682E+03  0.12500000000E+03 0.  0.
</event>
<event>
 4    0  0.2253506E-002  0.1580400E+03  0.7546771E-02  0.1190928E+00
         21   -1    0    0  502  501  0.00000000000E+00  0.00000000000E+00  0.88377423137E+03  0.88377423137E+03  0.00000000000E+00 0.  1.
         21   -1    0    0  501  502 -0.00000000000E+00 -0.00000000000E+00 -0.28261327980E+02  0.28261327980E+02  0.00000000000E+00 0.  1.
         25    1    1    2    0    0 -0.73675988618E+02 -0.55873148136E+02  0.50945485546E+03  0.53265299185E+03  0.12500000000E+03 0.  0.
         25    1    1    2    0    0  0.73675988618E+02  0.55873148136E+02  0.34605804793E+03  0.37938256750E+03  0.12500000000E+03 0.  0.
</event>
<event>
 4    0  0.2253506E-002  0.1867778E+03  0.7546771E-02  0.1161400E+00
         21   -1    0    0  502  501  0.00000000000E+00  0.00000000000E+00  0.38077365857E+03  0.38077365857E+03  0.00000000000E+00 0. -1.
         21   -1    0    0  501  502 -0.00000000000E+00 -0.00000000000E+00 -0.91618567963E+02  0.91618567963E+02  0.00000000000E+00 0. -1.
         25    1    1    2    0    0  0.90230473895E+02  0.10317988771E+03  0.11706566732E+03  0.21935587093E+03  0.12500000000E+03 0.  0.
         25    1    1    2    0    0 -0.90230473895E+02 -0.10317988771E+03  0.17208942329E+03  0.25303635560E+03  0.12500000000E+03 0.  0.
</event>
<event>
 4    0  0.2253506E-002  0.2174025E+03  0.7546771E-02  0.1135835E+00
         21   -1    0    0  502  501  0.00000000000E+00  0.00000000000E+00  0.93758600679E+03  0.93758600679E+03  0.00000000000E+00 0. -1.
         21   -1    0    0  501  502 -0.00000000000E+00 -0.00000000000E+00 -0.50410145648E+02  0.50410145648E+02  0.00000000000E+00 0. -1.
         25    1    1    2    0    0 -0.90661401318E+02 -0.13517158335E+03  0.28055324348E+03  0.34760030073E+03  0.12500000000E+03 0.  0.
         25    1    1    2    0    0  0.90661401318E+02  0.13517158335E+03  0.60662261766E+03  0.64039585171E+03  0.12500000000E+03 0.  0.
</event>
<event>
 4    0  0.2253506E-002  0.2263945E+03  0.7546771E-02  0.1129204E+00
         21   -1    0    0  502  501  0.00000000000E+00  0.00000000000E+00  0.36862743748E+02  0.36862743748E+02  0.00000000000E+00 0. -1.
         21   -1    0    0  501  502 -0.00000000000E+00 -0.00000000000E+00 -0.13904135397E+04  0.13904135397E+04  0.00000000000E+00 0. -1.
         25    1    1    2    0    0 -0.78778135142E+02 -0.20087662150E+02 -0.13979237509E+03  0.20439280046E+03  0.12500000000E+03 0.  0.
         25    1    1    2    0    0  0.78778135142E+02  0.20087662150E+02 -0.12137584209E+04  0.12228834830E+04  0.12500000000E+03 0.  0.
</event>
<event>
 4    0  0.2253506E-002  0.1815789E+03  0.7546771E-02  0.1166284E+00
         21   -1    0    0  502  501  0.00000000000E+00  0.00000000000E+00  0.85988738080E+03  0.85988738080E+03  0.00000000000E+00 0.  1.
         21   -1    0    0  501  502 -0.00000000000E+00 -0.00000000000E+00 -0.38343266791E+02  0.38343266791E+02  0.00000000000E+00 0.  1.
         25    1    1    2    0    0  0.74903660697E+02  0.46823261170E+02  0.16915195711E+03  0.22812356469E+03  0.12500000000E+03 0.  0.
         25    1    1    2    0    0 -0.74903660697E+02 -0.46823261170E+02  0.65239215689E+03  0.67010708290E+03  0.12500000000E+03 0.  0.
</event>
<event>
 4    0  0.2253506E-002  0.2067983E+03  0.7546771E-02  0.1144127E+00
         21   -1    0    0  502  501  0.00000000000E+00  0.00000000000E+00  0.51728063542E+03  0.51728063542E+03  0.00000000000E+00 0.  1.
         21   -1    0    0  501  502 -0.00000000000E+00 -0.00000000000E+00 -0.82673796731E+02  0.82673796731E+02  0.00000000000E+00 0.  1.
         25    1    1    2    0    0 -0.37010277721E+02 -0.20528108542E+02  0.44825714736E+03  0.46728003815E+03  0.12500000000E+03 0.  0.
         25    1    1    2    0    0  0.37010277721E+02  0.20528108542E+02 -0.13650308666E+02  0.13267439400E+03  0.12500000000E+03 0.  0.
</event>
<event>
 4    0  0.2253506E-002  0.1886174E+03  0.7546771E-02  0.1159714E+00
         21   -1    0    0  502  501  0.00000000000E+00  0.00000000000E+00  0.92097049870E+02  0.92097049870E+02  0.00000000000E+00 0. -1.
         21   -1    0    0  501  502 -0.00000000000E+00 -0.00000000000E+00 -0.38629395448E+03  0.38629395448E+03  0.00000000000E+00 0. -1.
         25    1    1    2    0    0 -0.93448224350E+02 -0.10325243985E+03 -0.17705198564E+03  0.25761607595E+03  0.12500000000E+03 0.  0.
         25    1    1    2    0    0  0.93448224350E+02  0.10325243985E+03 -0.11714491897E+03  0.22077492840E+03  0.12500000000E+03 0.  0.
</event>
<event>
 4    0  0.2253506E-002  0.2283048E+03  0.7546771E-02  0.1127839E+00
         21   -1    0    0  502  501  0.00000000000E+00  0.00000000000E+00  0.25402872906E+03  0.25402872906E+03  0.00000000000E+00 0. -1.
         21   -1    0    0  501  502 -0.00000000000E+00 -0.00000000000E+00 -0.20518572861E+03  0.20518572861E+03  0.00000000000E+00 0. -1.
         25    1    1    2    0    0 -0.46135714147E+02 -0.14328630371E+03 -0.93887192731E+02  0.21702367131E+03  0.12500000000E+03 0.  0.
         25    1    1    2    0    0  0.46135714147E+02  0.14328630371E+03  0.14273019318E+03  0.24219078636E+03  0.12500000000E+03 0.  0.
</event>
<event>
 4    0  0.2253506E-002  0.2276032E+03  0.7546771E-02  0.1128338E+00
         21   -1    0    0  502  501  0.00000000000E+00  0.00000000000E+00  0.22502744692E+02  0.22502744692E+02  0.00000000000E+00 0.  1.
         21   -1    0    0  501  502 -0.00000000000E+00 -0.00000000000E+00 -0.23020836009E+04  0.23020836009E+04  0.00000000000E+00 0.  1.
         25    1    1    2    0    0 -0.13149997109E+02 -0.33690651730E+02 -0.18619377000E+03  0.22715876040E+03  0.12500000000E+03 0.  0.
         25    1    1    2    0    0  0.13149997109E+02  0.33690651730E+02 -0.20933870862E+04  0.20974275852E+04  0.12500000000E+03 0.  0.
</event>
<event>
 4    0  0.2253506E-002  0.1846256E+03  0.7546771E-02  0.1163400E+00
         21   -1    0    0  502  501  0.00000000000E+00  0.00000000000E+00  0.35535711681E+03  0.35535711681E+03  0.00000000000E+00 0.  1.
         21   -1    0    0  501  502 -0.00000000000E+00 -0.00000000000E+00 -0.95922098658E+02  0.95922098658E+02  0.00000000000E+00 0.  1.
         25    1    1    2    0    0  0.11868251273E+03  0.54326021276E+02  0.17584842336E+03  0.25215971807E+03  0.12500000000E+03 0.  0.
         25    1    1    2    0    0 -0.11868251273E+03 -0.54326021276E+02  0.83586594782E+02  0.19911949740E+03  0.12500000000E+03 0.  0.
</event>
<event>
 4    0  0.2253506E-002  0.1989171E+03  0.7546771E-02  0.1150656E+00
         21   -1    0    0  502  501  0.00000000000E+00  0.00000000000E+00  0.87254961653E+02  0.87254961653E+02  0.00000000000E+00 0. -1.
         21   -1    0    0  501  502 -0.00000000000E+00 -0.00000000000E+00 -0.45347574895E+03  0.45347574895E+03  0.00000000000E+00 0. -1.
         25    1    1    2    0    0  0.38236324296E+02  0.19837361872E+02 -0.38511066067E+03  0.40717411310E+03  0.12500000000E+03 0.  0.
         25    1    1    2    0    0 -0.38236324296E+02 -0.19837361872E+02  0.18889873365E+02  0.13355659751E+03  0.12500000000E+03 0.  0.
</event>
<event>
 4    0  0.2253506E-002  0.2118885E+03  0.7546771E-02  0.1140079E+00
         21   -1    0    0  502  501  0.00000000000E+00  0.00000000000E+00  0.10473849944E+04  0.10473849944E+04  0.00000000000E+00 0.  1.
         21   -1    0    0  501  502 -0.00000000000E+00 -0.00000000000E+00 -0.42865542829E+02  0.42865542829E+02  0.00000000000E+00 0.  1.
         25    1    1    2    0    0  0.54859465883E+02  0.10443007790E+02  0.91831462208E+03  0.92846398020E+03  0.12500000000E+03 0.  0.
         25    1    1    2    0    0 -0.54859465883E+02 -0.10443007790E+02  0.86204829503E+02  0.16178655704E+03  0.12500000000E+03 0.  0.
</event>
<event>
 4    0  0.2253506E-002  0.2646117E+03  0.7546771E-02  0.1104404E+00
         21   -1    0    0  502  501  0.00000000000E+00  0.00000000000E+00  0.43561557751E+03  0.43561557751E+03  0.00000000000E+00 0.  1.
         21   -1    0    0  501  502 -0.00000000000E+00 -0.00000000000E+00 -0.16073655067E+03  0.16073655067E+03  0.00000000000E+00 0.  1.
         25    1    1    2    0    0  0.43074995127E+02 -0.20069757687E+03  0.12673045573E+02  0.24066694549E+03  0.12500000000E+03 0.  0.
         25    1    1    2    0    0 -0.43074995127E+02  0.20069757687E+03  0.26220598127E+03  0.35568518269E+03  0.12500000000E+03 0.  0.
</event>
<event>
 4    0  0.2253506E-002  0.2026412E+03  0.7546771E-02  0.1147530E+00
         21   -1    0    0  502  501  0.00000000000E+00  0.00000000000E+00  0.16092500635E+04  0.16092500635E+04  0.00000000000E+00 0. -1.
         21   -1    0    0  501  502 -0.00000000000E+00 -0.00000000000E+00 -0.25517132473E+02  0.25517132473E+02  0.00000000000E+00 0. -1.
         25    1    1    2    0    0 -0.92053569013E+02  0.12966634499E+03  0.74226298974E+03  0.76932864663E+03  0.12500000000E+03 0.  0.
         25    1    1    2    0    0  0.92053569013E+02 -0.12966634499E+03  0.84146994127E+03  0.86543854933E+03  0.12500000000E+03 0.  0.
</event>
<event>
 4    0  0.2253506E-002  0.3179523E+03  0.7546771E-02  0.1076596E+00
         21   -1    0    0  502  501  0.00000000000E+00  0.00000000000E+00  0.14380127674E+03  0.14380127674E+03  0.00000000000E+00 0. -1.
         21   -1    0    0  501  502 -0.00000000000E+00 -0.00000000000E+00 -0.70300943267E+03  0.70300943267E+03  0.00000000000E+00 0. -1.
         25    1    1    2    0    0  0.60461786391E+02  0.53280930810E+02  0.94624484044E+02  0.17627614184E+03  0.12500000000E+03 0.  0.
         25    1    1    2    0    0 -0.60461786391E+02 -0.53280930810E+02 -0.65383263997E+03  0.67053456756E+03  0.12500000000E+03 0.  0.
</event>
<event>
 4    0  0.2253506E-002  0.2586651E+03  0.7546771E-02  0.1107948E+00
         21   -1    0    0  502  501  0.00000000000E+00  0.00000000000E+00  0.20142511965E+03  0.20142511965E+03  0.00000000000E+00 0.  1.
         21   -1    0    0  501  502 -0.00000000000E+00 -0.00000000000E+00 -0.33217112709E+03  0.33217112709E+03  0.00000000000E+00 0.  1.
         25    1    1    2    0    0 -0.16244177953E+03 -0.33028607226E+02  0.93764861925E+02  0.22780489451E+03  0.12500000000E+03 0.  0.
         25    1    1    2    0    0  0.16244177953E+03  0.33028607226E+02 -0.22451086936E+03  0.30579135222E+03  0.12500000000E+03 0.  0.
</event>
<event>
 4    0  0.2253506E-002  0.2742966E+03  0.7546771E-02  0.1098845E+00
         21   -1    0    0  502  501  0.00000000000E+00  0.00000000000E+00  0.23419887753E+03  0.23419887753E+03  0.00000000000E+00 0. -1.
         21   -1    0    0  501  502 -0.00000000000E+00 -0.00000000000E+00 -0.32125942803E+03  0.32125942803E+03  0.00000000000E+00 0. -1.
         25    1    1    2    0    0 -0.24234432350E+03  0.29434264014E+02 -0.39423608199E+02  0.27708548846E+03  0.12500000000E+03 0.  0.
         25    1    1    2    0    0  0.24234432350E+03 -0.29434264014E+02 -0.47636942304E+02  0.27837281711E+03  0.12500000000E+03 0.  0.
</event>
<event>
 4    0  0.2253506E-002  0.2940436E+03  0.7546771E-02  0.1088257E+00
         21   -1    0    0  502  501  0.00000000000E+00  0.00000000000E+00  0.66516610720E+03  0.66516610720E+03  0.00000000000E+00 0. -1.
         21   -1    0    0  501  502 -0.00000000000E+00 -0.00000000000E+00 -0.12998502123E+03  0.12998502123E+03  0.00000000000E+00 0. -1.
         25    1    1    2    0    0  0.94322707356E+01 -0.96172992306E+02 -0.67714392897E+02  0.17189662936E+03  0.12500000000E+03 0.  0.
         25    1    1    2    0    0 -0.94322707356E+01  0.96172992306E+02  0.60289547886E+03  0.62325449907E+03  0.12500000000E+03 0.  0.
</event>
<event>
 4    0  0.2253506E-002  0.3491720E+03  0.7546771E-02  0.1062955E+00
         21   -1    0    0  502  501  0.00000000000E+00  0.00000000000E+00  0.57136726969E+03  0.57136726969E+03  0.00000000000E+00 0. -1.
         21   -1    0    0  501  502 -0.00000000000E+00 -0.00000000000E+00 -0.21338480584E+03  0.21338480584E+03  0.00000000000E+00 0. -1.
         25    1    1    2    0    0  0.10622730599E+03 -0.24960638106E+03  0.38222385311E+03  0.48508520889E+03  0.12500000000E+03 0.  0.
         25    1    1    2    0    0 -0.10622730599E+03  0.24960638106E+03 -0.24241389258E+02  0.29966686663E+03  0.12500000000E+03 0.  0.
</event>
<event>
 4    0  0.2253506E-002  0.2255715E+03  0.7546771E-02  0.1129796E+00
         21   -1    0    0  502  501  0.00000000000E+00  0.00000000000E+00  0.40200973245E+03  0.40200973245E+03  0.00000000000E+00 0.  1.
         21   -1    0    0  501  502 -0.00000000000E+00 -0.00000000000E+00 -0.12657033493E+03  0.12657033493E+03  0.00000000000E+00 0.  1.
         25    1    1    2    0    0 -0.39281320454E+02 -0.13986153542E+02 -0.76787185425E+02  0.15251198796E+03  0.12500000000E+03 0.  0.
         25    1    1    2    0    0  0.39281320454E+02  0.13986153542E+02  0.35222658294E+03  0.37606807941E+03  0.12500000000E+03 0.  0.
</event>
<event>
 4    0  0.2253506E-002  0.1842826E+03  0.7546771E-02  0.1163722E+00
         21   -1    0    0  502  501  0.00000000000E+00  0.00000000000E+00  0.21978231038E+03  0.21978231038E+03  0.00000000000E+00 0. -1.
         21   -1    0    0  501  502 -0.00000000000E+00 -0.00000000000E+00 -0.15451682030E+03  0.15451682030E+03  0.00000000000E+00 0. -1.
         25    1    1    2    0    0 -0.24579200726E+02 -0.82454118458E+02 -0.73551296747E+02  0.16863455166E+03  0.12500000000E+03 0.  0.
         25    1    1    2    0    0  0.24579200726E+02  0.82454118458E+02  0.13881678682E+03  0.20566457902E+03  0.12500000000E+03 0.  0.
</event>
<event>
 4    0  0.2253506E-002  0.2096876E+03  0.7546771E-02  0.1141814E+00
         21   -1    0    0  502  501  0.00000000000E+00  0.00000000000E+00  0.14068227075E+03  0.14068227075E+03  0.00000000000E+00 0.  1.
         21   -1    0    0  501  502 -0.00000000000E+00 -0.00000000000E+00 -0.31254030177E+03  0.31254030177E+03  0.00000000000E+00 0.  1.
         25    1    1    2    0    0  0.31291103123E+02  0.14098398528E+03  0.75898772642E+01  0.19114974098E+03  0.12500000000E+03 0.  0.
         25    1    1    2    0    0 -0.31291103123E+02 -0.14098398528E+03 -0.17944790829E+03  0.26207283154E+03  0.12500000000E+03 0.  0.
</event>
<event>
 4    0  0.2253506E-002  0.3026888E+03  0.7546771E-02  0.1083904E+00
         21   -1    0    0  502  501  0.00000000000E+00  0.00000000000E+00  0.93466253945E+03  0.93466253945E+03  0.00000000000E+00 0.  1.
         21   -1    0    0  501  502 -0.00000000000E+00 -0.00000000000E+00 -0.98025250204E+02  0.98025250204E+02  0.00000000000E+00 0.  1.
         25    1    1    2    0    0 -0.67160561834E+02  0.74321984196E+02 -0.19795246921E+02  0.16140368707E+03  0.12500000000E+03 0.  0.
         25    1    1    2    0    0  0.67160561834E+02 -0.74321984196E+02  0.85643253617E+03  0.87128410258E+03  0.12500000000E+03 0.  0.
</event>
<event>
 4    0  0.2253506E-002  0.1812491E+03  0.7546771E-02  0.1166600E+00
         21   -1    0    0  502  501  0.00000000000E+00  0.00000000000E+00  0.16178140456E+04  0.16178140456E+04  0.00000000000E+00 0.  1.
         21   -1    0    0  501  502 -0.00000000000E+00 -0.00000000000E+00 -0.20305935681E+02  0.20305935681E+02  0.00000000000E+00 0.  1.
         25    1    1    2    0    0  0.10658952369E+03 -0.35125628227E+00  0.45268266491E+03  0.48156831815E+03  0.12500000000E+03 0.  0.
         25    1    1    2    0    0 -0.10658952369E+03  0.35125628227E+00  0.11448254451E+04  0.11565516632E+04  0.12500000000E+03 0.  0.
</event>
<event>
 4    0  0.2253506E-002  0.1577125E+03  0.7546771E-02  0.1191304E+00
         21   -1    0    0  502  501  0.00000000000E+00  0.00000000000E+00  0.23586165138E+03  0.23586165138E+03  0.00000000000E+00 0. -1.
         21   -1    0    0  501  502 -0.00000000000E+00 -0.00000000000E+00 -0.10545685414E+03  0.10545685414E+03  0.00000000000E+00 0. -1.
         25    1    1    2    0    0 -0.48746567899E+02  0.17628280243E+02 -0.22448595890E+02  0.13717114713E+03  0.12500000000E+03 0.  0.
         25    1    1    2    0    0  0.48746567899E+02 -0.17628280243E+02  0.15285339313E+03  0.20414735839E+03  0.12500000000E+03 0.  0.
</event>
<event>
 4    0  0.2253506E-002  0.2463108E+03  0.7546771E-02  0.1115659E+00
         21   -1    0    0  502  501  0.00000000000E+00  0.00000000000E+00  0.41652650320E+03  0.41652650320E+03  0.00000000000E+00 0.  1.
         21   -1    0    0  501  502 -0.00000000000E+00 -0.00000000000E+00 -0.14565464517E+03  0.14565464517E+03  0.00000000000E+00 0.  1.
         25    1    1    2    0    0 -0.20199577596E+03 -0.20528562034E+01  0.20972386273E+03  0.31688421596E+03  0.12500000000E+03 0.  0.
         25    1    1    2    0    0  0.20199577596E+03  0.20528562034E+01  0.61147995303E+02  0.24529693242E+03  0.12500000000E+03 0.  0.
</event>
<event>
 4    0  0.2253506E-002  0.2717855E+03  0.7546771E-02  0.1100262E+00
         21   -1    0    0  502  501  0.00000000000E+00  0.00000000000E+00  0.54649507777E+02  0.54649507777E+02  0.00000000000E+00 0. -1.
         21   -1    0    0  501  502 -0.00000000000E+00 -0.00000000000E+00 -0.13516560646E+04  0.13516560646E+04  0.00000000000E+00 0. -1.
         25    1    1    2    0    0  0.18578613476E+03  0.11981512153E+03 -0.39806678499E+03  0.47218038559E+03  0.12500000000E+03 0.  0.
         25    1    1    2    0    0 -0.18578613476E+03 -0.11981512153E+03 -0.89893977181E+03  0.93412518677E+03  0.12500000000E+03 0.  0.
</event>
<event>
 4    0  0.2253506E-002  0.2571143E+03  0.7546771E-02  0.1108890E+00
         21   -1    0    0  502  501  0.00000000000E+00  0.00000000000E+00  0.16730652391E+04  0.16730652391E+04  0.00000000000E+00 0.  1.
         21   -1    0    0  501  502 -0.00000000000E+00 -0.00000000000E+00 -0.39512948339E+02  0.39512948339E+02  0.00000000000E+00 0.  1.
         25    1    1    2    0    0  0.16842178686E+03  0.34164717857E+02  0.33473704171E+03  0.39649339632E+03  0.12500000000E+03 0.  0.
         25    1    1    2    0    0 -0.16842178686E+03 -0.34164717857E+02  0.12988152490E+04  0.13160847911E+04  0.12500000000E+03 0.  0.
</event>
<event>
 4    0  0.2253506E-002  0.1971210E+03  0.7546771E-02  0.1152191E+00
         21   -1    0    0  502  501  0.00000000000E+00  0.00000000000E+00  0.86401854594E+02  0.86401854594E+02  0.00000000000E+00 0.  1.
         21   -1    0    0  501  502 -0.00000000000E+00 -0.00000000000E+00 -0.44972031961E+03  0.44972031961E+03  0.00000000000E+00 0.  1.
         25    1    1    2    0    0  0.12351874383E+03  0.89249105151E+02 -0.17749284082E+03  0.26523761308E+03  0.12500000000E+03 0.  0.
         25    1    1    2    0    0 -0.12351874383E+03 -0.89249105151E+02 -0.18582562420E+03  0.27088456113E+03  0.12500000000E+03 0.  0.
</event>
<event>
 4    0  0.2253506E-002  0.1937079E+03  0.7546771E-02  0.1155159E+00
         21   -1    0    0  502  501  0.00000000000E+00  0.00000000000E+00  0.46067450317E+02  0.46067450317E+02  0.00000000000E+00 0.  1.
         21   -1    0    0  501  502 -0.00000000000E+00 -0.00000000000E+00 -0.81451746618E+03  0.81451746618E+03  0.00000000000E+00 0.  1.
         25    1    1    2    0    0 -0.48002174432E+02 -0.89436154494E+02 -0.62341684883E+03  0.64387623180E+03  0.12500000000E+03 0.  0.
         25    1    1    2    0    0  0.48002174432E+02  0.89436154494E+02 -0.14503316704E+03  0.21670868469E+03  0.12500000000E+03 0.  0.
</event>
<event>
 4    0  0.2253506E-002  0.1948836E+03  0.7546771E-02  0.1154129E+00
         21   -1    0    0  502  501  0.00000000000E+00  0.00000000000E+00  0.42392228796E+03  0.42392228796E+03  0.00000000000E+00 0.  1.
         21   -1    0    0  501  502 -0.00000000000E+00 -0.00000000000E+00 -0.89591008616E+02  0.89591008616E+02  0.00000000000E+00 0.  1.
         25    1    1    2    0    0 -0.13167964579E+03 -0.70817343936E+02  0.16715787622E+03  0.25675159376E+03  0.12500000000E+03 0.  0.
         25    1    1    2    0    0  0.13167964579E+03  0.70817343936E+02  0.16717340312E+03  0.25676170281E+03  0.12500000000E+03 0.  0.
</event>
<event>
 4    0  0.2253506E-002  0.1845838E+03  0.7546771E-02  0.1163439E+00
         21   -1    0    0  502  501  0.00000000000E+00  0.00000000000E+00  0.44004445308E+02  0.44004445308E+02  0.00000000000E+00 0.  1.
         21   -1    0    0  501  502 -0.00000000000E+00 -0.00000000000E+00 -0.77426634041E+03  0.77426634041E+03  0.00000000000E+00 0.  1.
         25    1    1    2    0    0  0.33016812786E+02  0.12925714373E+03 -0.42158251655E+03  0.45951532879E+03  0.12500000000E+03 0.  0.
         25    1    1    2    0    0 -0.33016812786E+02 -0.12925714373E+03 -0.30867937855E+03  0.35875545693E+03  0.12500000000E+03 0.  0.
</event>
<event>
 4    0  0.2253506E-002  0.1683249E+03  0.7546771E-02  0.1179606E+00
         21   -1    0    0  502  501  0.00000000000E+00  0.00000000000E+00  0.46758136763E+02  0.46758136763E+02  0.00000000000E+00 0.  1.
         21   -1    0    0  501  502 -0.00000000000E+00 -0.00000000000E+00 -0.60595407158E+03  0.60595407158E+03  0.00000000000E+00 0.  1.
         25    1    1    2    0    0 -0.99414688224E+02  0.13216910882E+02 -0.17978380923E+03  0.24084265616E+03  0.12500000000E+03 0.  0.
         25    1    1    2    0    0  0.99414688224E+02 -0.13216910882E+02 -0.37941212559E+03  0.41186955218E+03  0.12500000000E+03 0.  0.
</event>
<event>
 4    0  0.2253506E-002  0.1617206E+03  0.7546771E-02  0.1186768E+00
         21   -1    0    0  502  501  0.00000000000E+00  0.00000000000E+00  0.75059692549E+02  0.75059692549E+02  0.00000000000E+00 0. -1.
         21   -1    0    0  501  502 -0.00000000000E+00 -0.00000000000E+00 -0.34843690399E+03  0.34843690399E+03  0.00000000000E+00 0. -1.
         25    1    1    2    0    0 -0.31143415448E+02 -0.84931094240E+02 -0.20009887145E+03  0.25268114581E+03  0.12500000000E+03 0.  0.
         25    1    1    2    0    0  0.31143415448E+02  0.84931094240E+02 -0.73278339991E+02  0.17081545072E+03  0.12500000000E+03 0.  0.
</event>
<event>
 4    0  0.2253506E-002  0.2294917E+03  0.7546771E-02  0.1126998E+00
         21   -1    0    0  502  501  0.00000000000E+00  0.00000000000E+00  0.40960113219E+03  0.40960113219E+03  0.00000000000E+00 0. -1.
         21   -1    0    0  501  502 -0.00000000000E+00 -0.00000000000E+00 -0.12857980492E+03  0.12857980492E+03  0.00000000000E+00 0.  1.
         25    1    1    2    0    0 -0.12577825228E+03 -0.14289534409E+03  0.17372065635E+03  0.28643169265E+03  0.12500000000E+03 0.  0.
         25    1    1    2    0    0  0.12577825228E+03  0.14289534409E+03  0.10730067092E+03  0.25174924446E+03  0.12500000000E+03 0.  0.
</event>
<event>
 4    0  0.2253506E-002  0.1823297E+03  0.7546771E-02  0.1165567E+00
         21   -1    0    0  502  501  0.00000000000E+00  0.00000000000E+00  0.12575666033E+04  0.12575666033E+04  0.00000000000E+00 0. -1.
         21   -1    0    0  501  502 -0.00000000000E+00 -0.00000000000E+00 -0.26435281947E+02  0.26435281947E+02  0.00000000000E+00 0. -1.
         25    1    1    2    0    0  0.94513688524E-01  0.72129304849E+02  0.10079191139E+04  0.10181986966E+04  0.12500000000E+03 0.  0.
         25    1    1    2    0    0 -0.94513688524E-01 -0.72129304849E+02  0.22321220746E+03  0.26580318868E+03  0.12500000000E+03 0.  0.
</event>
<event>
 4    0  0.2253506E-002  0.5998078E+03  0.7546771E-02  0.9905805E-01
         21   -1    0    0  502  501  0.00000000000E+00  0.00000000000E+00  0.24489391301E+03  0.24489391301E+03  0.00000000000E+00 0. -1.
         21   -1    0    0  501  502 -0.00000000000E+00 -0.00000000000E+00 -0.14690825975E+04  0.14690825975E+04  0.00000000000E+00 0. -1.
         25    1    1    2    0    0  0.95611401145E+02  0.42237638565E+03 -0.46688773940E+02  0.45315360839E+03  0.12500000000E+03 0.  0.
         25    1    1    2    0    0 -0.95611401145E+02 -0.42237638565E+03 -0.11774999106E+04  0.12608229021E+04  0.12500000000E+03 0.  0.
</event>
<event>
 4    0  0.2253506E-002  0.1906885E+03  0.7546771E-02  0.1157842E+00
         21   -1    0    0  502  501  0.00000000000E+00  0.00000000000E+00  0.26183614241E+03  0.26183614241E+03  0.00000000000E+00 0.  1.
         21   -1    0    0  501  502 -0.00000000000E+00 -0.00000000000E+00 -0.13887349328E+03  0.13887349328E+03  0.00000000000E+00 0.  1.
         25    1    1    2    0    0  0.88645577192E+01 -0.10092504303E+03  0.16900490387E+03  0.23334974229E+03  0.12500000000E+03 0.  0.
         25    1    1    2    0    0 -0.88645577192E+01  0.10092504303E+03 -0.46042254741E+02  0.16735989339E+03  0.12500000000E+03 0.  0.
</event>
<event>
 4    0  0.2253506E-002  0.1826924E+03  0.7546771E-02  0.1165223E+00
         21   -1    0    0  502  501  0.00000000000E+00  0.00000000000E+00  0.13485733499E+03  0.13485733499E+03  0.00000000000E+00 0. -1.
         21   -1    0    0  501  502 -0.00000000000E+00 -0.00000000000E+00 -0.24749491206E+03  0.24749491206E+03  0.00000000000E+00 0. -1.
         25    1    1    2    0    0 -0.10401500399E+03 -0.35042108153E+02  0.22716219503E+02  0.16789311191E+03  0.12500000000E+03 0.  0.
         25    1    1    2    0    0  0.10401500399E+03  0.35042108153E+02 -0.13535379658E+03  0.21445913514E+03  0.12500000000E+03 0.  0.
</event>
<event>
 4    0  0.2253506E-002  0.2297597E+03  0.7546771E-02  0.1126809E+00
         21   -1    0    0  502  501  0.00000000000E+00  0.00000000000E+00  0.73895109820E+02  0.73895109820E+02  0.00000000000E+00 0.  1.
         21   -1    0    0  501  502 -0.00000000000E+00 -0.00000000000E+00 -0.71438417113E+03  0.71438417113E+03  0.00000000000E+00 0.  1.
         25    1    1    2    0    0  0.14372406262E+03 -0.12331471245E+03 -0.25836070788E+03  0.34385808099E+03  0.12500000000E+03 0.  0.
         25    1    1    2    0    0 -0.14372406262E+03  0.12331471245E+03 -0.38212835343E+03  0.44442119997E+03  0.12500000000E+03 0.  0.
</event>
<event>
 4    0  0.2253506E-002  0.1949909E+03  0.7546771E-02  0.1154035E+00
         21   -1    0    0  502  501  0.00000000000E+00  0.00000000000E+00  0.18501820812E+03  0.18501820812E+03  0.00000000000E+00 0. -1.
         21   -1    0    0  501  502 -0.00000000000E+00 -0.00000000000E+00 -0.20550104320E+03  0.20550104320E+03  0.00000000000E+00 0. -1.
         25    1    1    2    0    0  0.82620505823E+02  0.88090962911E+02  0.78256122547E+02  0.19061790694E+03  0.12500000000E+03 0.  0.
         25    1    1    2    0    0 -0.82620505823E+02 -0.88090962911E+02 -0.98738957627E+02  0.19990134437E+03  0.12500000000E+03 0.  0.
</event>
<event>
 4    0  0.2253506E-002  0.2072752E+03  0.7546771E-02  0.1143742E+00
         21   -1    0    0  502  501  0.00000000000E+00  0.00000000000E+00  0.45893428858E+03  0.45893428858E+03  0.00000000000E+00 0.  1.
         21   -1    0    0  501  502 -0.00000000000E+00 -0.00000000000E+00 -0.93614763010E+02  0.93614763010E+02  0.00000000000E+00 0.  1.
         25    1    1    2    0    0  0.10753195746E+03  0.93957351869E+02  0.71566037627E+02  0.20282456357E+03  0.12500000000E+03 0.  0.
         25    1    1    2    0    0 -0.10753195746E+03 -0.93957351869E+02  0.29375348794E+03  0.34972448802E+03  0.12500000000E+03 0.  0.
</event>
<event>
 4    0  0.2253506E-002  0.1885610E+03  0.7546771E-02  0.1159766E+00
         21   -1    0    0  502  501  0.00000000000E+00  0.00000000000E+00  0.50023236124E+02  0.50023236124E+02  0.00000000000E+00 0. -1.
         21   -1    0    0  501  502 -0.00000000000E+00 -0.00000000000E+00 -0.71077470471E+03  0.71077470471E+03  0.00000000000E+00 0. -1.
         25    1    1    2    0    0 -0.73832311895E+02  0.37802051665E+02 -0.56083462756E+03  0.58055205181E+03  0.12500000000E+03 0.  0.
         25    1    1    2    0    0  0.73832311895E+02 -0.37802051665E+02 -0.99916841029E+02  0.18024588903E+03  0.12500000000E+03 0.  0.
</event>
<event>
 4    0  0.2253506E-002  0.2112318E+03  0.7546771E-02  0.1140594E+00
         21   -1    0    0  502  501  0.00000000000E+00  0.00000000000E+00  0.21977500801E+03  0.21977500801E+03  0.00000000000E+00 0. -1.
         21   -1    0    0  501  502 -0.00000000000E+00 -0.00000000000E+00 -0.20302073182E+03  0.20302073182E+03  0.00000000000E+00 0. -1.
         25    1    1    2    0    0  0.12559697940E+03  0.55137125403E+02  0.10934836622E+03  0.21539909245E+03  0.12500000000E+03 0.  0.
         25    1    1    2    0    0 -0.12559697940E+03 -0.55137125403E+02 -0.92594090037E+02  0.20739664738E+03  0.12500000000E+03 0.  0.
</event>
<event>
 4    0  0.2253506E-002  0.1708778E+03  0.7546771E-02  0.1176936E+00
         21   -1    0    0  502  501  0.00000000000E+00  0.00000000000E+00  0.36956647811E+02  0.36956647811E+02  0.00000000000E+00 0. -1.
         21   -1    0    0  501  502 -0.00000000000E+00 -0.00000000000E+00 -0.79009391566E+03  0.79009391566E+03  0.00000000000E+00 0. -1.
         25    1    1    2    0    0 -0.11192180696E+03  0.30239220099E+02 -0.40451119114E+03  0.43897061982E+03  0.12500000000E+03 0.  0.
         25    1    1    2    0    0  0.11192180696E+03 -0.30239220099E+02 -0.34862607671E+03  0.38807994365E+03  0.12500000000E+03 0.  0.
</event>
<event>
 4    0  0.2253506E-002  0.1782912E+03  0.7546771E-02  0.1169467E+00
         21   -1    0    0  502  501  0.00000000000E+00  0.00000000000E+00  0.13454810387E+02  0.13454810387E+02  0.00000000000E+00 0. -1.
         21   -1    0    0  501  502 -0.00000000000E+00 -0.00000000000E+00 -0.23625557339E+04  0.23625557339E+04  0.00000000000E+00 0. -1.
         25    1    1    2    0    0  0.62055497323E+02  0.34889983385E+02 -0.47270213458E+03  0.49410576168E+03  0.12500000000E+03 0.  0.
         25    1    1    2    0    0 -0.62055497323E+02 -0.34889983385E+02 -0.18763987889E+04  0.18819047826E+04  0.12500000000E+03 0.  0.
</event>
<event>
 4    0  0.2253506E-002  0.2160009E+03  0.7546771E-02  0.1136900E+00
         21   -1    0    0  502  501  0.00000000000E+00  0.00000000000E+00  0.46736235785E+02  0.46736235785E+02  0.00000000000E+00 0.  1.
         21   -1    0    0  501  502 -0.00000000000E+00 -0.00000000000E+00 -0.99829164026E+03  0.99829164026E+03  0.00000000000E+00 0.  1.
         25    1    1    2    0    0 -0.10543417609E+03  0.13904920494E+03 -0.41750220082E+03  0.46945088622E+03  0.12500000000E+03 0.  0.
         25    1    1    2    0    0  0.10543417609E+03 -0.13904920494E+03 -0.53405320366E+03  0.57557698983E+03  0.12500000000E+03 0.  0.
</event>
<event>
 4    0  0.2253506E-002  0.2242248E+03  0.7546771E-02  0.1130772E+00
         21   -1    0    0  502  501  0.00000000000E+00  0.00000000000E+00  0.62053517810E+02  0.62053517810E+02  0.00000000000E+00 0. -1.
         21   -1    0    0  501  502 -0.00000000000E+00 -0.00000000000E+00 -0.81021578779E+03  0.81021578779E+03  0.00000000000E+00 0. -1.
         25    1    1    2    0    0  0.54847468426E+01 -0.17070444844E+03 -0.23007113894E+03  0.31261449125E+03  0.12500000000E+03 0.  0.
         25    1    1    2    0    0 -0.54847468426E+01  0.17070444844E+03 -0.51809113104E+03  0.55965481435E+03  0.12500000000E+03 0.  0.
</event>
<event>
 4    0  0.2253506E-002  0.2784920E+03  0.7546771E-02  0.1096515E+00
         21   -1    0    0  502  501  0.00000000000E+00  0.00000000000E+00  0.14354605872E+03  0.14354605872E+03  0.00000000000E+00 0.  1.
         21   -1    0    0  501  502 -0.00000000000E+00 -0.00000000000E+00 -0.54029882894E+03  0.54029882894E+03  0.00000000000E+00 0.  1.
         25    1    1    2    0    0  0.16762091067E+03  0.18381160107E+03 -0.20699639523E+03  0.34692359681E+03  0.12500000000E+03 0.  0.
         25    1    1    2    0    0 -0.16762091067E+03 -0.18381160107E+03 -0.18975637499E+03  0.33692129085E+03  0.12500000000E+03 0.  0.
</event>
<event>
 4    0  0.2253506E-002  0.2271965E+03  0.7546771E-02  0.1128629E+00
         21   -1    0    0  502  501  0.00000000000E+00  0.00000000000E+00  0.10022965559E+03  0.10022965559E+03  0.00000000000E+00 0.  1.
         21   -1    0    0  501  502 -0.00000000000E+00 -0.00000000000E+00 -0.51499974046E+03  0.51499974046E+03  0.00000000000E+00 0.  1.
         25    1    1    2    0    0 -0.16471131242E+03 -0.57837303672E+02 -0.30796401303E+03  0.37542216697E+03  0.12500000000E+03 0.  0.
         25    1    1    2    0    0  0.16471131242E+03  0.57837303672E+02 -0.10680607185E+03  0.23980722908E+03  0.12500000000E+03 0.  0.
</event>
<event>
 4    0  0.2253506E-002  0.1985286E+03  0.7546771E-02  0.1150986E+00
         21   -1    0    0  502  501  0.00000000000E+00  0.00000000000E+00  0.54669654774E+02  0.54669654774E+02  0.00000000000E+00 0.  1.
         21   -1    0    0  501  502 -0.00000000000E+00 -0.00000000000E+00 -0.72094141561E+03  0.72094141561E+03  0.00000000000E+00 0.  1.
         25    1    1    2    0    0 -0.12210695940E+03 -0.48133718819E+02 -0.49136904341E+03  0.52373228012E+03  0.12500000000E+03 0.  0.
         25    1    1    2    0    0  0.12210695940E+03  0.48133718819E+02 -0.17490271742E+03  0.25187879026E+03  0.12500000000E+03 0.  0.
</event>
<event>
 4    0  0.2253506E-002  0.1883347E+03  0.7546771E-02  0.1159972E+00
         21   -1    0    0  502  501  0.00000000000E+00  0.00000000000E+00  0.34343987263E+03  0.34343987263E+03  0.00000000000E+00 0.  1.
         21   -1    0    0  501  502 -0.00000000000E+00 -0.00000000000E+00 -0.10327847851E+03  0.10327847851E+03  0.00000000000E+00 0.  1.
         25    1    1    2    0    0  0.33707033354E+02  0.74997078229E+02  0.25573934104E+03  0.29629096577E+03  0.12500000000E+03 0.  0.
         25    1    1    2    0    0 -0.33707033354E+02 -0.74997078229E+02 -0.15577946920E+02  0.15042738537E+03  0.12500000000E+03 0.  0.
</event>
<event>
 4    0  0.2253506E-002  0.2332104E+03  0.7546771E-02  0.1124400E+00
         21   -1    0    0  502  501  0.00000000000E+00  0.00000000000E+00  0.11221741838E+04  0.11221741838E+04  0.00000000000E+00 0.  1.
         21   -1    0    0  501  502 -0.00000000000E+00 -0.00000000000E+00 -0.48465838683E+02  0.48465838683E+02  0.00000000000E+00 0.  1.
         25    1    1    2    0    0 -0.57302934873E+02 -0.19925221086E+02  0.66760641993E+02  0.15415130262E+03  0.12500000000E+03 0.  0.
         25    1    1    2    0    0  0.57302934873E+02  0.19925221086E+02  0.10069477031E+04  0.10164887199E+04  0.12500000000E+03 0.  0.
</event>
<event>
 4    0  0.2253506E-002  0.1806163E+03  0.7546771E-02  0.1167208E+00
         21   -1    0    0  502  501  0.00000000000E+00  0.00000000000E+00  0.37683205585E+03  0.37683205585E+03  0.00000000000E+00 0.  1.
         21   -1    0    0  501  502 -0.00000000000E+00 -0.00000000000E+00 -0.86569682588E+02  0.86569682588E+02  0.00000000000E+00 0.  1.
         25    1    1    2    0    0 -0.11801847492E+03  0.21896639307E+02  0.21040982581E+03  0.27258965137E+03  0.12500000000E+03 0.  0.
         25    1    1    2    0    0  0.11801847492E+03 -0.21896639307E+02  0.79852547452E+02  0.19081208707E+03  0.12500000000E+03 0.  0.
</event>
<event>
 4    0  0.2253506E-002  0.2325259E+03  0.7546771E-02  0.1124874E+00
         21   -1    0    0  502  501  0.00000000000E+00  0.00000000000E+00  0.12098481281E+04  0.12098481281E+04  0.00000000000E+00 0. -1.
         21   -1    0    0  501  502 -0.00000000000E+00 -0.00000000000E+00 -0.44690143375E+02  0.44690143375E+02  0.00000000000E+00 0. -1.
         25    1    1    2    0    0  0.96595664814E+02 -0.60787824948E+02  0.10126579694E+04  0.10267068935E+04  0.12500000000E+03 0.  0.
         25    1    1    2    0    0 -0.96595664814E+02  0.60787824948E+02  0.15250001530E+03  0.22783137797E+03  0.12500000000E+03 0.  0.
</event>
<event>
 4    0  0.2253506E-002  0.2418243E+03  0.7546771E-02  0.1118583E+00
         21   -1    0    0  502  501  0.00000000000E+00  0.00000000000E+00  0.59214520352E+03  0.59214520352E+03  0.00000000000E+00 0.  1.
         21   -1    0    0  501  502 -0.00000000000E+00 -0.00000000000E+00 -0.98757842449E+02  0.98757842449E+02  0.00000000000E+00 0.  1.
         25    1    1    2    0    0 -0.72841004642E+02 -0.16969169435E+03  0.11304545983E+03  0.25001071793E+03  0.12500000000E+03 0.  0.
         25    1    1    2    0    0  0.72841004642E+02  0.16969169435E+03  0.38034190124E+03  0.44089232804E+03  0.12500000000E+03 0.  0.
</event>
<event>
 4    0  0.2253506E-002  0.2106980E+03  0.7546771E-02  0.1141014E+00
         21   -1    0    0  502  501  0.00000000000E+00  0.00000000000E+00  0.24460353949E+04  0.24460353949E+04  0.00000000000E+00 0.  1.
         21   -1    0    0  501  502 -0.00000000000E+00 -0.00000000000E+00 -0.18149231325E+02  0.18149231325E+02  0.00000000000E+00 0.  1.
         25    1    1    2    0    0  0.70967849447E+02 -0.12297916297E+03  0.67138933011E+03  0.69753060346E+03  0.12500000000E+03 0.  0.
         25    1    1    2    0    0 -0.70967849447E+02  0.12297916297E+03  0.17564968334E+04  0.17666540227E+04  0.12500000000E+03 0.  0.
</event>
<event>
 4    0  0.2253506E-002  0.2326244E+03  0.7546771E-02  0.1124806E+00
         21   -1    0    0  502  501  0.00000000000E+00  0.00000000000E+00  0.86461077187E+02  0.86461077187E+02  0.00000000000E+00 0.  1.
         21   -1    0    0  501  502 -0.00000000000E+00 -0.00000000000E+00 -0.62587855726E+03  0.62587855726E+03  0.00000000000E+00 0.  1.
         25    1    1    2    0    0  0.13464119674E+03  0.13569385003E+03 -0.20213109047E+03  0.30499680414E+03  0.12500000000E+03 0.  0.
         25    1    1    2    0    0 -0.13464119674E+03 -0.13569385003E+03 -0.33728638960E+03  0.40734283031E+03  0.12500000000E+03 0.  0.
</event>
<event>
 4    0  0.2253506E-002  0.2876215E+03  0.7546771E-02  0.1091598E+00
         21   -1    0    0  502  501  0.00000000000E+00  0.00000000000E+00  0.57737654833E+03  0.57737654833E+03  0.00000000000E+00 0. -1.
         21   -1    0    0  501  502 -0.00000000000E+00 -0.00000000000E+00 -0.14327932035E+03  0.14327932035E+03  0.00000000000E+00 0. -1.
         25    1    1    2    0    0  0.24407432996E+03 -0.86298594817E+02  0.22835102889E+03  0.36713610338E+03  0.12500000000E+03 0.  0.
         25    1    1    2    0    0 -0.24407432996E+03  0.86298594817E+02  0.20574619910E+03  0.35351976529E+03  0.12500000000E+03 0.  0.
</event>
<event>
 4    0  0.2253506E-002  0.2376753E+03  0.7546771E-02  0.1121351E+00
         21   -1    0    0  502  501  0.00000000000E+00  0.00000000000E+00  0.62861579753E+03  0.62861579753E+03  0.00000000000E+00 0.  1.
         21   -1    0    0  501  502 -0.00000000000E+00 -0.00000000000E+00 -0.89863395381E+02  0.89863395381E+02  0.00000000000E+00 0.  1.
         25    1    1    2    0    0 -0.56666874175E+02  0.97170216416E+02  0.52324667138E+03  0.54960464399E+03  0.12500000000E+03 0.  0.
         25    1    1    2    0    0  0.56666874175E+02 -0.97170216416E+02  0.15505730772E+02  0.16887454892E+03  0.12500000000E+03 0.  0.
</event>
<event>
 4    0  0.2253506E-002  0.2304640E+03  0.7546771E-02  0.1126314E+00
         21   -1    0    0  502  501  0.00000000000E+00  0.00000000000E+00  0.61930941002E+03  0.61930941002E+03  0.00000000000E+00 0.  1.
         21   -1    0    0  501  502 -0.00000000000E+00 -0.00000000000E+00 -0.85762712038E+02  0.85762712038E+02  0.00000000000E+00 0.  1.
         25    1    1    2    0    0 -0.18211184349E+03  0.28849744757E+02  0.35716205009E+03  0.42093557861E+03  0.12500000000E+03 0.  0.
         25    1    1    2    0    0  0.18211184349E+03 -0.28849744757E+02  0.17638464789E+03  0.28413654345E+03  0.12500000000E+03 0.  0.
</event>
<event>
 4    0  0.2253506E-002  0.1692132E+03  0.7546771E-02  0.1178671E+00
         21   -1    0    0  502  501  0.00000000000E+00  0.00000000000E+00  0.12253653643E+03  0.12253653643E+03  0.00000000000E+00 0.  1.
         21   -1    0    0  501  502 -0.00000000000E+00 -0.00000000000E+00 -0.23366984922E+03  0.23366984922E+03  0.00000000000E+00 0.  1.
         25    1    1    2    0    0 -0.31040002215E+02  0.10483535229E+03 -0.89740283187E+02  0.18876506894E+03  0.12500000000E+03 0.  0.
         25    1    1    2    0    0  0.31040002215E+02 -0.10483535229E+03 -0.21393029598E+02  0.16744131671E+03  0.12500000000E+03 0.  0.
</event>
<event>
 4    0  0.2253506E-002  0.1725989E+03  0.7546771E-02  0.1175164E+00
         21   -1    0    0  502  501  0.00000000000E+00  0.00000000000E+00  0.17384152627E+03  0.17384152627E+03  0.00000000000E+00 0.  1.
         21   -1    0    0  501  502 -0.00000000000E+00 -0.00000000000E+00 -0.17136510805E+03  0.17136510805E+03  0.00000000000E+00 0.  1.
         25    1    1    2    0    0  0.80920707058E+02 -0.12054981664E+01  0.88508764401E+02  0.17322937231E+03  0.12500000000E+03 0.  0.
         25    1    1    2    0    0 -0.80920707058E+02  0.12054981664E+01 -0.86032346185E+02  0.17197726200E+03  0.12500000000E+03 0.  0.
</event>
<event>
 4    0  0.2253506E-002  0.1898738E+03  0.7546771E-02  0.1158575E+00
         21   -1    0    0  502  501  0.00000000000E+00  0.00000000000E+00  0.99230047774E+02  0.99230047774E+02  0.00000000000E+00 0.  1.
         21   -1    0    0  501  502 -0.00000000000E+00 -0.00000000000E+00 -0.36331806472E+03  0.36331806472E+03  0.00000000000E+00 0.  1.
         25    1    1    2    0    0  0.78937266636E+02  0.11914645664E+03 -0.13166129378E+03  0.23105554846E+03  0.12500000000E+03 0.  0.
         25    1    1    2    0    0 -0.78937266636E+02 -0.11914645664E+03 -0.13242672316E+03  0.23149256403E+03  0.12500000000E+03 0.  0.
</event>
<event>
 4    0  0.2253506E-002  0.2408279E+03  0.7546771E-02  0.1119243E+00
         21   -1    0    0  502  501  0.00000000000E+00  0.00000000000E+00  0.59221090737E+03  0.59221090737E+03  0.00000000000E+00 0. -1.
         21   -1    0    0  501  502 -0.00000000000E+00 -0.00000000000E+00 -0.97934836618E+02  0.97934836618E+02  0.00000000000E+00 0. -1.
         25    1    1    2    0    0 -0.18864246157E+03 -0.76836065741E+02  0.28972364206E+03  0.37557229407E+03  0.12500000000E+03 0.  0.
         25    1    1    2    0    0  0.18864246157E+03  0.76836065741E+02  0.20455242869E+03  0.31457344992E+03  0.12500000000E+03 0.  0.
</event>
<event>
 4    0  0.2253506E-002  0.2109499E+03  0.7546771E-02  0.1140816E+00
         21   -1    0    0  502  501  0.00000000000E+00  0.00000000000E+00  0.14830034695E+04  0.14830034695E+04  0.00000000000E+00 0.  1.
         21   -1    0    0  501  502 -0.00000000000E+00 -0.00000000000E+00 -0.30006565261E+02  0.30006565261E+02  0.00000000000E+00 0.  1.
         25    1    1    2    0    0  0.88141567670E+02  0.54917175558E+02  0.24415990734E+03  0.29329829947E+03  0.12500000000E+03 0.  0.
         25    1    1    2    0    0 -0.88141567670E+02 -0.54917175558E+02  0.12088369969E+04  0.12197117353E+04  0.12500000000E+03 0.  0.
</event>
<event>
 4    0  0.2253506E-002  0.1899593E+03  0.7546771E-02  0.1158498E+00
         21   -1    0    0  502  501  0.00000000000E+00  0.00000000000E+00  0.90946106392E+02  0.90946106392E+02  0.00000000000E+00 0.  1.
         21   -1    0    0  501  502 -0.00000000000E+00 -0.00000000000E+00 -0.39676832277E+03  0.39676832277E+03  0.00000000000E+00 0.  1.
         25    1    1    2    0    0 -0.44974917909E+02  0.10281463661E+03 -0.26676566306E+03  0.31524991948E+03  0.12500000000E+03 0.  0.
         25    1    1    2    0    0  0.44974917909E+02 -0.10281463661E+03 -0.39056553317E+02  0.17246450968E+03  0.12500000000E+03 0.  0.
</event>
<event>
 4    0  0.2253506E-002  0.1881404E+03  0.7546771E-02  0.1160149E+00
         21   -1    0    0  502  501  0.00000000000E+00  0.00000000000E+00  0.52968391063E+03  0.52968391063E+03  0.00000000000E+00 0. -1.
         21   -1    0    0  501  502 -0.00000000000E+00 -0.00000000000E+00 -0.66826264595E+02  0.66826264595E+02  0.00000000000E+00 0. -1.
         25    1    1    2    0    0  0.55831136240E+02 -0.62989017450E+02  0.40998976183E+03  0.43680812366E+03  0.12500000000E+03 0.  0.
         25    1    1    2    0    0 -0.55831136240E+02  0.62989017450E+02  0.52867884209E+02  0.15970205156E+03  0.12500000000E+03 0.  0.
</event>
<event>
 4    0  0.2253506E-002  0.1726129E+03  0.7546771E-02  0.1175150E+00
         21   -1    0    0  502  501  0.00000000000E+00  0.00000000000E+00  0.76318303340E+02  0.76318303340E+02  0.00000000000E+00 0.  1.
         21   -1    0    0  501  502 -0.00000000000E+00 -0.00000000000E+00 -0.39040735935E+03  0.39040735935E+03  0.00000000000E+00 0.  1.
         25    1    1    2    0    0  0.11036273954E+03 -0.31461034217E+02 -0.19980732296E+03  0.26214060590E+03  0.12500000000E+03 0.  0.
         25    1    1    2    0    0 -0.11036273954E+03  0.31461034217E+02 -0.11428173305E+03  0.20458505679E+03  0.12500000000E+03 0.  0.
</event>
<event>
 4    0  0.2253506E-002  0.1803411E+03  0.7546771E-02  0.1167473E+00
         21   -1    0    0  502  501  0.00000000000E+00  0.00000000000E+00  0.55527223379E+02  0.55527223379E+02  0.00000000000E+00 0.  1.
         21   -1    0    0  501  502 -0.00000000000E+00 -0.00000000000E+00 -0.58571097492E+03  0.58571097492E+03  0.00000000000E+00 0.  1.
         25    1    1    2    0    0 -0.14629770517E+02  0.60298080851E+02 -0.62011966686E+02  0.15271009381E+03  0.12500000000E+03 0.  0.
         25    1    1    2    0    0  0.14629770517E+02 -0.60298080851E+02 -0.46817178485E+03  0.48852810449E+03  0.12500000000E+03 0.  0.
</event>
<event>
 4    0  0.2253506E-002  0.1978844E+03  0.7546771E-02  0.1151536E+00
         21   -1    0    0  502  501  0.00000000000E+00  0.00000000000E+00  0.60445926057E+03  0.60445926057E+03  0.00000000000E+00 0.  1.
         21   -1    0    0  501  502 -0.00000000000E+00 -0.00000000000E+00 -0.64782239113E+02  0.64782239113E+02  0.00000000000E+00 0.  1.
         25    1    1    2    0    0  0.14012926765E+03 -0.62423249755E+02  0.26883726473E+03  0.33381334405E+03  0.12500000000E+03 0.  0.
         25    1    1    2    0    0 -0.14012926765E+03  0.62423249755E+02  0.27083975673E+03  0.33542815563E+03  0.12500000000E+03 0.  0.
</event>
<event>
 4    0  0.2253506E-002  0.3905236E+03  0.7546771E-02  0.1047111E+00
         21   -1    0    0  502  501  0.00000000000E+00  0.00000000000E+00  0.23219704743E+03  0.23219704743E+03  0.00000000000E+00 0.  1.
         21   -1    0    0  501  502 -0.00000000000E+00 -0.00000000000E+00 -0.65680701191E+03  0.65680701191E+03  0.00000000000E+00 0.  1.
         25    1    1    2    0    0  0.32188124754E+03 -0.14538160682E+02 -0.41927581862E+03  0.54335633586E+03  0.12500000000E+03 0.  0.
         25    1    1    2    0    0 -0.32188124754E+03  0.14538160682E+02 -0.53341458571E+01  0.34564772348E+03  0.12500000000E+03 0.  0.
</event>
<event>
 4    0  0.2253506E-002  0.2709434E+03  0.7546771E-02  0.1100741E+00
         21   -1    0    0  502  501  0.00000000000E+00  0.00000000000E+00  0.57726568339E+02  0.57726568339E+02  0.00000000000E+00 0.  1.
         21   -1    0    0  501  502 -0.00000000000E+00 -0.00000000000E+00 -0.12716903478E+04  0.12716903478E+04  0.00000000000E+00 0.  1.
         25    1    1    2    0    0 -0.37690834223E+02  0.60750869669E+02 -0.43926637854E+02  0.15055170761E+03  0.12500000000E+03 0.  0.
         25    1    1    2    0    0  0.37690834223E+02 -0.60750869669E+02 -0.11700371416E+04  0.11788652085E+04  0.12500000000E+03 0.  0.
</event>
<event>
 4    0  0.2253506E-002  0.2196040E+03  0.7546771E-02  0.1134179E+00
         21   -1    0    0  502  501  0.00000000000E+00  0.00000000000E+00  0.40408630683E+03  0.40408630683E+03  0.00000000000E+00 0.  1.
         21   -1    0    0  501  502 -0.00000000000E+00 -0.00000000000E+00 -0.11934563358E+03  0.11934563358E+03  0.00000000000E+00 0.  1.
         25    1    1    2    0    0  0.14546300367E+03  0.14938172721E+02  0.26859768277E+03  0.33038212668E+03  0.12500000000E+03 0.  0.
         25    1    1    2    0    0 -0.14546300367E+03 -0.14938172721E+02  0.16142990475E+02  0.19304981373E+03  0.12500000000E+03 0.  0.
</event>
<event>
 4    0  0.2253506E-002  0.1578052E+03  0.7546771E-02  0.1191197E+00
         21   -1    0    0  502  501  0.00000000000E+00  0.00000000000E+00  0.72820622725E+02  0.72820622725E+02  0.00000000000E+00 0. -1.
         21   -1    0    0  501  502 -0.00000000000E+00 -0.00000000000E+00 -0.34197021123E+03  0.34197021123E+03  0.00000000000E+00 0. -1.
         25    1    1    2    0    0 -0.40916048299E+02 -0.86588721047E+02 -0.12105947033E+03  0.19862558994E+03  0.12500000000E+03 0.  0.
         25    1    1    2    0    0  0.40916048299E+02  0.86588721047E+02 -0.14809011817E+03  0.21616524402E+03  0.12500000000E+03 0.  0.
</event>
<event>
 4    0  0.2253506E-002  0.2156336E+03  0.7546771E-02  0.1137181E+00
         21   -1    0    0  502  501  0.00000000000E+00  0.00000000000E+00  0.21691716518E+04  0.21691716518E+04  0.00000000000E+00 0.  1.
         21   -1    0    0  501  502 -0.00000000000E+00 -0.00000000000E+00 -0.21435756389E+02  0.21435756389E+02  0.00000000000E+00 0.  1.
         25    1    1    2    0    0 -0.59595541557E+02  0.11378323009E+03  0.46487001499E+03  0.49822422950E+03  0.12500000000E+03 0.  0.
         25    1    1    2    0    0  0.59595541557E+02 -0.11378323009E+03  0.16828658804E+04  0.16923831787E+04  0.12500000000E+03 0.  0.
</event>
<event>
 4    0  0.2253506E-002  0.3158545E+03  0.7546771E-02  0.1077573E+00
         21   -1    0    0  502  501  0.00000000000E+00  0.00000000000E+00  0.25686262234E+03  0.25686262234E+03  0.00000000000E+00 0.  1.
         21   -1    0    0  501  502 -0.00000000000E+00 -0.00000000000E+00 -0.38839452008E+03  0.38839452008E+03  0.00000000000E+00 0. -1.
         25    1    1    2    0    0  0.58373123770E+02  0.27832994176E+03 -0.74087173575E+01  0.31073279060E+03  0.12500000000E+03 0.  0.
         25    1    1    2    0    0 -0.58373123770E+02 -0.27832994176E+03 -0.12412318038E+03  0.33452435183E+03  0.12500000000E+03 0.  0.
</event>
<event>
 4    0  0.2253506E-002  0.2610855E+03  0.7546771E-02  0.1106493E+00
         21   -1    0    0  502  501  0.00000000000E+00  0.00000000000E+00  0.17595561895E+03  0.17595561895E+03  0.00000000000E+00 0.  1.
         21   -1    0    0  501  502 -0.00000000000E+00 -0.00000000000E+00 -0.38740242902E+03  0.38740242902E+03  0.00000000000E+00 0.  1.
         25    1    1    2    0    0 -0.72902891885E+01 -0.21141822094E+03 -0.10501793617E+02  0.24593922040E+03  0.12500000000E+03 0.  0.
         25    1    1    2    0    0  0.72902891885E+01  0.21141822094E+03 -0.20094501645E+03  0.31741882757E+03  0.12500000000E+03 0.  0.
</event>
<event>
 4    0  0.2253506E-002  0.2456057E+03  0.7546771E-02  0.1116114E+00
         21   -1    0    0  502  501  0.00000000000E+00  0.00000000000E+00  0.23811075144E+03  0.23811075144E+03  0.00000000000E+00 0. -1.
         21   -1    0    0  501  502 -0.00000000000E+00 -0.00000000000E+00 -0.25333665808E+03  0.25333665808E+03  0.00000000000E+00 0. -1.
         25    1    1    2    0    0 -0.39394741724E+02 -0.20751584430E+03 -0.16695347917E+02  0.24600509335E+03  0.12500000000E+03 0.  0.
         25    1    1    2    0    0  0.39394741724E+02  0.20751584430E+03  0.14694412733E+01  0.24544231617E+03  0.12500000000E+03 0.  0.
</event>
<event>
 4    0  0.2253506E-002  0.1800537E+03  0.7546771E-02  0.1167751E+00
         21   -1    0    0  502  501  0.00000000000E+00  0.00000000000E+00  0.55017543437E+02  0.55017543437E+02  0.00000000000E+00 0. -1.
         21   -1    0    0  501  502 -0.00000000000E+00 -0.00000000000E+00 -0.58925454178E+03  0.58925454178E+03  0.00000000000E+00 0. -1.
         25    1    1    2    0    0 -0.66710125984E+02 -0.76805522714E+02 -0.12348723374E+03  0.20303552922E+03  0.12500000000E+03 0.  0.
         25    1    1    2    0    0  0.66710125984E+02  0.76805522714E+02 -0.41074976460E+03  0.44123655600E+03  0.12500000000E+03 0.  0.
</event>
<event>
 4    0  0.2253506E-002  0.2375020E+03  0.7546771E-02  0.1121468E+00
         21   -1    0    0  502  501  0.00000000000E+00  0.00000000000E+00  0.13578435194E+04  0.13578435194E+04  0.00000000000E+00 0.  1.
         21   -1    0    0  501  502 -0.00000000000E+00 -0.00000000000E+00 -0.41541763385E+02  0.41541763385E+02  0.00000000000E+00 0.  1.
         25    1    1    2    0    0 -0.56755540016E+02  0.36235096840E+00  0.12291138271E+04  0.12367566950E+04  0.12500000000E+03 0.  0.
         25    1    1    2    0    0  0.56755540016E+02 -0.36235096840E+00  0.87187928910E+02  0.16262858780E+03  0.12500000000E+03 0.  0.
</event>
<event>
 4    0  0.2253506E-002  0.2990247E+03  0.7546771E-02  0.1085729E+00
         21   -1    0    0  502  501  0.00000000000E+00  0.00000000000E+00  0.14909847197E+04  0.14909847197E+04  0.00000000000E+00 0.  1.
         21   -1    0    0  501  502 -0.00000000000E+00 -0.00000000000E+00 -0.59970937293E+02  0.59970937293E+02  0.00000000000E+00 0.  1.
         25    1    1    2    0    0  0.19227894196E+03 -0.18205723014E+03  0.87271493622E+03  0.92052831921E+03  0.12500000000E+03 0.  0.
         25    1    1    2    0    0 -0.19227894196E+03  0.18205723014E+03  0.55829884617E+03  0.63042733776E+03  0.12500000000E+03 0.  0.
</event>
<event>
 4    0  0.2253506E-002  0.2684328E+03  0.7546771E-02  0.1102180E+00
         21   -1    0    0  502  501  0.00000000000E+00  0.00000000000E+00  0.93871499688E+03  0.93871499688E+03  0.00000000000E+00 0.  1.
         21   -1    0    0  501  502 -0.00000000000E+00 -0.00000000000E+00 -0.76760455680E+02  0.76760455680E+02  0.00000000000E+00 0.  1.
         25    1    1    2    0    0  0.18208874551E+03 -0.85847512409E+02  0.19243147244E+03  0.30525559489E+03  0.12500000000E+03 0.  0.
         25    1    1    2    0    0 -0.18208874551E+03  0.85847512409E+02  0.66952306876E+03  0.71021985767E+03  0.12500000000E+03 0.  0.
</event>
<event>
 4    0  0.2253506E-002  0.1962066E+03  0.7546771E-02  0.1152980E+00
         21   -1    0    0  502  501  0.00000000000E+00  0.00000000000E+00  0.47023502031E+03  0.47023502031E+03  0.00000000000E+00 0. -1.
         21   -1    0    0  501  502 -0.00000000000E+00 -0.00000000000E+00 -0.81867602134E+02  0.81867602134E+02  0.00000000000E+00 0. -1.
         25    1    1    2    0    0 -0.13659204795E+03 -0.33007129784E+02  0.27283613119E+03  0.33137805097E+03  0.12500000000E+03 0.  0.
         25    1    1    2    0    0  0.13659204795E+03  0.33007129784E+02  0.11553128698E+03  0.22072457147E+03  0.12500000000E+03 0.  0.
</event>
<event>
 4    0  0.2253506E-002  0.2140479E+03  0.7546771E-02  0.1138400E+00
         21   -1    0    0  502  501  0.00000000000E+00  0.00000000000E+00  0.55829915819E+03  0.55829915819E+03  0.00000000000E+00 0. -1.
         21   -1    0    0  501  502 -0.00000000000E+00 -0.00000000000E+00 -0.82064435329E+02  0.82064435329E+02  0.00000000000E+00 0. -1.
         25    1    1    2    0    0 -0.26199366502E+02  0.15410755093E+03  0.35160396103E+03  0.40458112841E+03  0.12500000000E+03 0.  0.
         25    1    1    2    0    0  0.26199366502E+02 -0.15410755093E+03  0.12463076184E+03  0.23578246511E+03  0.12500000000E+03 0.  0.
</event>
<event>
 4    0  0.2253506E-002  0.1948714E+03  0.7546771E-02  0.1154140E+00
         21   -1    0    0  502  501  0.00000000000E+00  0.00000000000E+00  0.48378822310E+03  0.48378822310E+03  0.00000000000E+00 0. -1.
         21   -1    0    0  501  502 -0.00000000000E+00 -0.00000000000E+00 -0.78494771691E+02  0.78494771691E+02  0.00000000000E+00 0. -1.
         25    1    1    2    0    0  0.53045070664E+02  0.11310584273E+03  0.84176867823E+02  0.19574845148E+03  0.12500000000E+03 0.  0.
         25    1    1    2    0    0 -0.53045070664E+02 -0.11310584273E+03  0.32111658358E+03  0.36653454330E+03  0.12500000000E+03 0.  0.
</event>
<event>
 4    0  0.2253506E-002  0.1936042E+03  0.7546771E-02  0.1155250E+00
         21   -1    0    0  502  501  0.00000000000E+00  0.00000000000E+00  0.93091148090E+02  0.93091148090E+02  0.00000000000E+00 0. -1.
         21   -1    0    0  501  502 -0.00000000000E+00 -0.00000000000E+00 -0.40264386042E+03  0.40264386042E+03  0.00000000000E+00 0. -1.
         25    1    1    2    0    0 -0.19758294752E+02 -0.13287310319E+03 -0.75730851845E+02  0.19850897633E+03  0.12500000000E+03 0.  0.
         25    1    1    2    0    0  0.19758294752E+02  0.13287310319E+03 -0.23382186048E+03  0.29722603217E+03  0.12500000000E+03 0.  0.
</event>
<event>
 4    0  0.2253506E-002  0.1674097E+03  0.7546771E-02  0.1180576E+00
         21   -1    0    0  502  501  0.00000000000E+00  0.00000000000E+00  0.33808125998E+02  0.33808125998E+02  0.00000000000E+00 0. -1.
         21   -1    0    0  501  502 -0.00000000000E+00 -0.00000000000E+00 -0.82897268003E+03  0.82897268003E+03  0.00000000000E+00 0. -1.
         25    1    1    2    0    0  0.52330389833E+02  0.77242523237E+02 -0.55424431650E+03  0.57577481664E+03  0.12500000000E+03 0.  0.
         25    1    1    2    0    0 -0.52330389833E+02 -0.77242523237E+02 -0.24092023753E+03  0.28700598939E+03  0.12500000000E+03 0.  0.
</event>
<event>
 4    0  0.2253506E-002  0.1864073E+03  0.7546771E-02  0.1161742E+00
         21   -1    0    0  502  501  0.00000000000E+00  0.00000000000E+00  0.18158812581E+04  0.18158812581E+04  0.00000000000E+00 0. -1.
         21   -1    0    0  501  502 -0.00000000000E+00 -0.00000000000E+00 -0.19135429453E+02  0.19135429453E+02  0.00000000000E+00 0. -1.
         25    1    1    2    0    0  0.94680039158E+02 -0.17580540544E+01  0.40236013178E+03  0.43184033649E+03  0.12500000000E+03 0.  0.
         25    1    1    2    0    0 -0.94680039158E+02  0.17580540544E+01  0.13943856968E+04  0.14031763510E+04  0.12500000000E+03 0.  0.
</event>
<event>
 4    0  0.2253506E-002  0.1654379E+03  0.7546771E-02  0.1182691E+00
         21   -1    0    0  502  501  0.00000000000E+00  0.00000000000E+00  0.13109077216E+03  0.13109077216E+03  0.00000000000E+00 0. -1.
         21   -1    0    0  501  502 -0.00000000000E+00 -0.00000000000E+00 -0.20878437898E+03  0.20878437898E+03  0.00000000000E+00 0. -1.
         25    1    1    2    0    0 -0.95204997616E+02  0.84324957380E+00 -0.92023576698E+02  0.18209349606E+03  0.12500000000E+03 0.  0.
         25    1    1    2    0    0  0.95204997616E+02 -0.84324957380E+00  0.14329969875E+02  0.15778165507E+03  0.12500000000E+03 0.  0.
</event>
<event>
 4    0  0.2253506E-002  0.2751158E+03  0.7546771E-02  0.1098387E+00
         21   -1    0    0  502  501  0.00000000000E+00  0.00000000000E+00  0.26814346794E+03  0.26814346794E+03  0.00000000000E+00 0. -1.
         21   -1    0    0  501  502 -0.00000000000E+00 -0.00000000000E+00 -0.28226941162E+03  0.28226941162E+03  0.00000000000E+00 0. -1.
         25    1    1    2    0    0 -0.53902253462E+02  0.14451162459E+03  0.18345879742E+03  0.27031683802E+03  0.12500000000E+03 0.  0.
         25    1    1    2    0    0  0.53902253462E+02 -0.14451162459E+03 -0.19758474109E+03  0.28009604153E+03  0.12500000000E+03 0.  0.
</event>
<event>
 4    0  0.2253506E-002  0.1438421E+03  0.7546771E-02  0.1208251E+00
         21   -1    0    0  502  501  0.00000000000E+00  0.00000000000E+00  0.99912492002E+02  0.99912492002E+02  0.00000000000E+00 0.  1.
         21   -1    0    0  501  502 -0.00000000000E+00 -0.00000000000E+00 -0.20708669246E+03  0.20708669246E+03  0.00000000000E+00 0.  1.
         25    1    1    2    0    0 -0.63805149197E+02 -0.28225890093E+02 -0.68593586204E+02  0.15873839486E+03  0.12500000000E+03 0.  0.
         25    1    1    2    0    0  0.63805149197E+02  0.28225890093E+02 -0.38580614250E+02  0.14826078960E+03  0.12500000000E+03 0.  0.
</event>
<event>
 4    0  0.2253506E-002  0.1735931E+03  0.7546771E-02  0.1174152E+00
         21   -1    0    0  502  501  0.00000000000E+00  0.00000000000E+00  0.61846862492E+03  0.61846862492E+03  0.00000000000E+00 0.  1.
         21   -1    0    0  501  502 -0.00000000000E+00 -0.00000000000E+00 -0.48724471333E+02  0.48724471333E+02  0.00000000000E+00 0.  1.
         25    1    1    2    0    0  0.10244452400E+03  0.62176888382E+02  0.26143731974E+03  0.31358462670E+03  0.12500000000E+03 0.  0.
         25    1    1    2    0    0 -0.10244452400E+03 -0.62176888382E+02  0.30830683384E+03  0.35360846955E+03  0.12500000000E+03 0.  0.
</event>
<event>
 4    0  0.2253506E-002  0.2271723E+03  0.7546771E-02  0.1128646E+00
         21   -1    0    0  502  501  0.00000000000E+00  0.00000000000E+00  0.13277614209E+04  0.13277614209E+04  0.00000000000E+00 0. -1.
         21   -1    0    0  501  502 -0.00000000000E+00 -0.00000000000E+00 -0.38867878125E+02  0.38867878125E+02  0.00000000000E+00 0. -1.
         25    1    1    2    0    0  0.18234353955E+03 -0.16277384451E+02  0.79388132028E+03  0.82424915550E+03  0.12500000000E+03 0.  0.
         25    1    1    2    0    0 -0.18234353955E+03  0.16277384451E+02  0.49501222246E+03  0.54238014349E+03  0.12500000000E+03 0.  0.
</event>
<event>
 4    0  0.2253506E-002  0.2195119E+03  0.7546771E-02  0.1134248E+00
         21   -1    0    0  502  501  0.00000000000E+00  0.00000000000E+00  0.16367209858E+03  0.16367209858E+03  0.00000000000E+00 0.  1.
         21   -1    0    0  501  502 -0.00000000000E+00 -0.00000000000E+00 -0.29440237086E+03  0.29440237086E+03  0.00000000000E+00 0.  1.
         25    1    1    2    0    0  0.53258390222E+02 -0.15226141345E+03  0.19017337410E+02  0.20495524701E+03  0.12500000000E+03 0.  0.
         25    1    1    2    0    0 -0.53258390222E+02  0.15226141345E+03 -0.14974760969E+03  0.25311922243E+03  0.12500000000E+03 0.  0.
</event>
<event>
 4    0  0.2253506E-002  0.1742682E+03  0.7546771E-02  0.1173468E+00
         21   -1    0    0  502  501  0.00000000000E+00  0.00000000000E+00  0.53873238021E+02  0.53873238021E+02  0.00000000000E+00 0. -1.
         21   -1    0    0  501  502 -0.00000000000E+00 -0.00000000000E+00 -0.56371968571E+03  0.56371968571E+03  0.00000000000E+00 0. -1.
         25    1    1    2    0    0  0.87549817323E+02 -0.27658056276E+02 -0.39572965702E+03  0.42503752780E+03  0.12500000000E+03 0.  0.
         25    1    1    2    0    0 -0.87549817323E+02  0.27658056276E+02 -0.11411679066E+03  0.19255539593E+03  0.12500000000E+03 0.  0.
</event>
<event>
 4    0  0.2253506E-002  0.2259938E+03  0.7546771E-02  0.1129492E+00
         21   -1    0    0  502  501  0.00000000000E+00  0.00000000000E+00  0.51635285031E+03  0.51635285031E+03  0.00000000000E+00 0.  1.
         21   -1    0    0  501  502 -0.00000000000E+00 -0.00000000000E+00 -0.98911454268E+02  0.98911454268E+02  0.00000000000E+00 0.  1.
         25    1    1    2    0    0 -0.14330260002E+03  0.74367976793E+02  0.34057138500E+03  0.39708953578E+03  0.12500000000E+03 0.  0.
         25    1    1    2    0    0  0.14330260002E+03 -0.74367976793E+02  0.76870011042E+02  0.21817476880E+03  0.12500000000E+03 0.  0.
</event>
<event>
 4    0  0.2253506E-002  0.2551932E+03  0.7546771E-02  0.1110066E+00
         21   -1    0    0  502  501  0.00000000000E+00  0.00000000000E+00  0.59274853043E+02  0.59274853043E+02  0.00000000000E+00 0. -1.
         21   -1    0    0  501  502 -0.00000000000E+00 -0.00000000000E+00 -0.10986709184E+04  0.10986709184E+04  0.00000000000E+00 0. -1.
         25    1    1    2    0    0 -0.66637638078E+02  0.30415488937E+02 -0.99631588449E+03  0.10067949237E+04  0.12500000000E+03 0.  0.
         25    1    1    2    0    0  0.66637638078E+02 -0.30415488937E+02 -0.43080180854E+02  0.15115084769E+03  0.12500000000E+03 0.  0.
</event>
<event>
 4    0  0.2253506E-002  0.1607750E+03  0.7546771E-02  0.1187825E+00
         21   -1    0    0  502  501  0.00000000000E+00  0.00000000000E+00  0.10548769737E+04  0.10548769737E+04  0.00000000000E+00 0. -1.
         21   -1    0    0  501  502 -0.00000000000E+00 -0.00000000000E+00 -0.24503899076E+02  0.24503899076E+02  0.00000000000E+00 0. -1.
         25    1    1    2    0    0  0.64894007782E+02 -0.11130387744E+02  0.77277586293E+03  0.78558427435E+03  0.12500000000E+03 0.  0.
         25    1    1    2    0    0 -0.64894007782E+02  0.11130387744E+02  0.25759721173E+03  0.29379659847E+03  0.12500000000E+03 0.  0.
</event>
<event>
 4    0  0.2253506E-002  0.1878044E+03  0.7546771E-02  0.1160457E+00
         21   -1    0    0  502  501  0.00000000000E+00  0.00000000000E+00  0.55266402117E+02  0.55266402117E+02  0.00000000000E+00 0.  1.
         21   -1    0    0  501  502 -0.00000000000E+00 -0.00000000000E+00 -0.63819016403E+03  0.63819016403E+03  0.00000000000E+00 0.  1.
         25    1    1    2    0    0 -0.87858319622E+02  0.73269734385E+02 -0.14195292658E+03  0.22105015645E+03  0.12500000000E+03 0.  0.
         25    1    1    2    0    0  0.87858319622E+02 -0.73269734385E+02 -0.44097083534E+03  0.47240640970E+03  0.12500000000E+03 0.  0.
</event>
<event>
 4    0  0.2253506E-002  0.1888201E+03  0.7546771E-02  0.1159530E+00
         21   -1    0    0  502  501  0.00000000000E+00  0.00000000000E+00  0.94810772071E+03  0.94810772071E+03  0.00000000000E+00 0.  1.
         21   -1    0    0  501  502 -0.00000000000E+00 -0.00000000000E+00 -0.37604404907E+02  0.37604404907E+02  0.00000000000E+00 0.  1.
         25    1    1    2    0    0  0.12831680750E+03  0.79624651177E+00  0.29946494529E+03  0.34895571431E+03  0.12500000000E+03 0.  0.
         25    1    1    2    0    0 -0.12831680750E+03 -0.79624651177E+00  0.61103837051E+03  0.63675641130E+03  0.12500000000E+03 0.  0.
</event>
<event>
 4    0  0.2253506E-002  0.3412692E+03  0.7546771E-02  0.1066257E+00
         21   -1    0    0  502  501  0.00000000000E+00  0.00000000000E+00  0.40436091920E+03  0.40436091920E+03  0.00000000000E+00 0.  1.
         21   -1    0    0  501  502 -0.00000000000E+00 -0.00000000000E+00 -0.28802149765E+03  0.28802149765E+03  0.00000000000E+00 0.  1.
         25    1    1    2    0    0  0.14666444582E+03 -0.27476291355E+03 -0.46468932165E+01  0.33563627925E+03  0.12500000000E+03 0.  0.
         25    1    1    2    0    0 -0.14666444582E+03  0.27476291355E+03  0.12098631476E+03  0.35674613760E+03  0.12500000000E+03 0.  0.
</event>
<event>
 4    0  0.2253506E-002  0.3287255E+03  0.7546771E-02  0.1071702E+00
         21   -1    0    0  502  501  0.00000000000E+00  0.00000000000E+00  0.65562113612E+03  0.65562113612E+03  0.00000000000E+00 0.  1.
         21   -1    0    0  501  502 -0.00000000000E+00 -0.00000000000E+00 -0.16482148742E+03  0.16482148742E+03  0.00000000000E+00 0.  1.
         25    1    1    2    0    0 -0.12602201873E+03 -0.11410018834E+03 -0.69151497731E+02  0.22205254293E+03  0.12500000000E+03 0.  0.
         25    1    1    2    0    0  0.12602201873E+03  0.11410018834E+03  0.55995114642E+03  0.59839008060E+03  0.12500000000E+03 0.  0.
</event>
<event>
 4    0  0.2253506E-002  0.2564079E+03  0.7546771E-02  0.1109321E+00
         21   -1    0    0  502  501  0.00000000000E+00  0.00000000000E+00  0.51743591734E+03  0.51743591734E+03  0.00000000000E+00 0.  1.
         21   -1    0    0  501  502 -0.00000000000E+00 -0.00000000000E+00 -0.12705926857E+03  0.12705926857E+03  0.00000000000E+00 0.  1.
         25    1    1    2    0    0  0.21723843439E+03 -0.32479482942E+02  0.14080348732E+03  0.28930619805E+03  0.12500000000E+03 0.  0.
         25    1    1    2    0    0 -0.21723843439E+03  0.32479482942E+02  0.24957316145E+03  0.35518898787E+03  0.12500000000E+03 0.  0.
</event>
<event>
 4    0  0.2253506E-002  0.2243268E+03  0.7546771E-02  0.1130698E+00
         21   -1    0    0  502  501  0.00000000000E+00  0.00000000000E+00  0.80897823544E+02  0.80897823544E+02  0.00000000000E+00 0. -1.
         21   -1    0    0  501  502 -0.00000000000E+00 -0.00000000000E+00 -0.62205021126E+03  0.62205021126E+03  0.00000000000E+00 0. -1.
         25    1    1    2    0    0  0.39917083527E+02  0.52174980819E+02  0.25224816588E+01  0.14123372506E+03  0.12500000000E+03 0.  0.
         25    1    1    2    0    0 -0.39917083527E+02 -0.52174980819E+02 -0.54367486937E+03  0.56171430974E+03  0.12500000000E+03 0.  0.
</event>
<event>
 4    0  0.2253506E-002  0.1573053E+03  0.7546771E-02  0.1191773E+00
         21   -1    0    0  502  501  0.00000000000E+00  0.00000000000E+00  0.36391911947E+02  0.36391911947E+02  0.00000000000E+00 0. -1.
         21   -1    0    0  501  502 -0.00000000000E+00 -0.00000000000E+00 -0.67995788360E+03  0.67995788360E+03  0.00000000000E+00 0. -1.
         25    1    1    2    0    0  0.50424130952E+02 -0.71780291522E+02 -0.23583144269E+03  0.28095635354E+03  0.12500000000E+03 0.  0.
         25    1    1    2    0    0 -0.50424130952E+02  0.71780291522E+02 -0.40773452897E+03  0.43539344201E+03  0.12500000000E+03 0.  0.
</event>
<event>
 4    0  0.2253506E-002  0.3168065E+03  0.7546771E-02  0.1077129E+00
         21   -1    0    0  502  501  0.00000000000E+00  0.00000000000E+00  0.27440390204E+03  0.27440390204E+03  0.00000000000E+00 0.  1.
         21   -1    0    0  501  502 -0.00000000000E+00 -0.00000000000E+00 -0.36576131549E+03  0.36576131549E+03  0.00000000000E+00 0.  1.
         25    1    1    2    0    0  0.11913101791E+03 -0.22488267239E+03  0.97122631558E+02  0.29970355575E+03  0.12500000000E+03 0.  0.
         25    1    1    2    0    0 -0.11913101791E+03  0.22488267239E+03 -0.18848004501E+03  0.34046166177E+03  0.12500000000E+03 0.  0.
</event>
<event>
 4    0  0.2253506E-002  0.2068756E+03  0.7546771E-02  0.1144064E+00
         21   -1    0    0  502  501  0.00000000000E+00  0.00000000000E+00  0.15139499449E+04  0.15139499449E+04  0.00000000000E+00 0. -1.
         21   -1    0    0  501  502 -0.00000000000E+00 -0.00000000000E+00 -0.28268774643E+02  0.28268774643E+02  0.00000000000E+00 0. -1.
         25    1    1    2    0    0 -0.71044914565E+02 -0.13199488223E+03  0.99844611723E+03  0.10173444244E+04  0.12500000000E+03 0.  0.
         25    1    1    2    0    0  0.71044914565E+02  0.13199488223E+03  0.48723505304E+03  0.52487429517E+03  0.12500000000E+03 0.  0.
</event>
<event>
 4    0  0.2253506E-002  0.1369873E+03  0.7546771E-02  0.1217441E+00
         21   -1    0    0  502  501  0.00000000000E+00  0.00000000000E+00  0.53236404112E+03  0.53236404112E+03  0.00000000000E+00 0.  1.
         21   -1    0    0  501  502 -0.00000000000E+00 -0.00000000000E+00 -0.35249397675E+02  0.35249397675E+02  0.00000000000E+00 0.  1.
         25    1    1    2    0    0 -0.78445076455E+01 -0.33813107191E+02  0.33970713881E+03  0.36363553550E+03  0.12500000000E+03 0.  0.
         25    1    1    2    0    0  0.78445076455E+01  0.33813107191E+02  0.15740750463E+03  0.20397790330E+03  0.12500000000E+03 0.  0.
</event>
<event>
 4    0  0.2253506E-002  0.1881663E+03  0.7546771E-02  0.1160126E+00
         21   -1    0    0  502  501  0.00000000000E+00  0.00000000000E+00  0.69353195521E+03  0.69353195521E+03  0.00000000000E+00 0.  1.
         21   -1    0    0  501  502 -0.00000000000E+00 -0.00000000000E+00 -0.51052518604E+02  0.51052518604E+02  0.00000000000E+00 0.  1.
         25    1    1    2    0    0  0.11272237203E+03  0.78058608077E+02  0.38324292814E+03  0.42579293256E+03  0.12500000000E+03 0.  0.
         25    1    1    2    0    0 -0.11272237203E+03 -0.78058608077E+02  0.25923650846E+03  0.31879154125E+03  0.12500000000E+03 0.  0.
</event>
<event>
 4    0  0.2253506E-002  0.1909432E+03  0.7546771E-02  0.1157613E+00
         21   -1    0    0  502  501  0.00000000000E+00  0.00000000000E+00  0.62873685325E+03  0.62873685325E+03  0.00000000000E+00 0. -1.
         21   -1    0    0  501  502 -0.00000000000E+00 -0.00000000000E+00 -0.57988193880E+02  0.57988193880E+02  0.00000000000E+00 0. -1.
         25    1    1    2    0    0 -0.11109804463E+03  0.29771902630E+01  0.11975345811E+03  0.20571225027E+03  0.12500000000E+03 0.  0.
         25    1    1    2    0    0  0.11109804463E+03 -0.29771902630E+01  0.45099520125E+03  0.48101279685E+03  0.12500000000E+03 0.  0.
</event>
<event>
 4    0  0.2253506E-002  0.2674142E+03  0.7546771E-02  0.1102769E+00
         21   -1    0    0  502  501  0.00000000000E+00  0.00000000000E+00  0.89507385010E+03  0.89507385010E+03  0.00000000000E+00 0. -1.
         21   -1    0    0  501  502 -0.00000000000E+00 -0.00000000000E+00 -0.79893241291E+02  0.79893241291E+02  0.00000000000E+00 0. -1.
         25    1    1    2    0    0  0.68175717713E+02  0.35118287193E+02 -0.51239207980E-01  0.14665000923E+03  0.12500000000E+03 0.  0.
         25    1    1    2    0    0 -0.68175717713E+02 -0.35118287193E+02  0.81523184802E+03  0.82831708217E+03  0.12500000000E+03 0.  0.
</event>
<event>
 4    0  0.2253506E-002  0.2932663E+03  0.7546771E-02  0.1088656E+00
         21   -1    0    0  502  501  0.00000000000E+00  0.00000000000E+00  0.13821332685E+04  0.13821332685E+04  0.00000000000E+00 0. -1.
         21   -1    0    0  501  502 -0.00000000000E+00 -0.00000000000E+00 -0.62226355358E+02  0.62226355358E+02  0.00000000000E+00 0. -1.
         25    1    1    2    0    0  0.14667123094E+03  0.77207942568E+01  0.11591581038E+03  0.22501896753E+03  0.12500000000E+03 0.  0.
         25    1    1    2    0    0 -0.14667123094E+03 -0.77207942568E+01  0.12039911028E+04  0.12193406564E+04  0.12500000000E+03 0.  0.
</event>
<event>
 4    0  0.2253506E-002  0.1907528E+03  0.7546771E-02  0.1157784E+00
         21   -1    0    0  502  501  0.00000000000E+00  0.00000000000E+00  0.21127488118E+03  0.21127488118E+03  0.00000000000E+00 0. -1.
         21   -1    0    0  501  502 -0.00000000000E+00 -0.00000000000E+00 -0.17222415567E+03  0.17222415567E+03  0.00000000000E+00 0. -1.
         25    1    1    2    0    0 -0.42334120569E+02 -0.97242099060E+02  0.11757183706E+03  0.20173333999E+03  0.12500000000E+03 0.  0.
         25    1    1    2    0    0  0.42334120569E+02  0.97242099060E+02 -0.78521111556E+02  0.18176569686E+03  0.12500000000E+03 0.  0.
</event>
<event>
 4    0  0.2253506E-002  0.2298879E+03  0.7546771E-02  0.1126719E+00
         21   -1    0    0  502  501  0.00000000000E+00  0.00000000000E+00  0.11475170763E+03  0.11475170763E+03  0.00000000000E+00 0.  1.
         21   -1    0    0  501  502 -0.00000000000E+00 -0.00000000000E+00 -0.46054618523E+03  0.46054618523E+03  0.00000000000E+00 0.  1.
         25    1    1    2    0    0  0.22784000024E+02 -0.12553468648E+03 -0.35398573887E+03  0.39649586567E+03  0.12500000000E+03 0.  0.
         25    1    1    2    0    0 -0.22784000024E+02  0.12553468648E+03  0.81912612735E+01  0.17880202719E+03  0.12500000000E+03 0.  0.
</event>
<event>
 4    0  0.2253506E-002  0.3957314E+03  0.7546771E-02  0.1045268E+00
         21   -1    0    0  502  501  0.00000000000E+00  0.00000000000E+00  0.39218754121E+03  0.39218754121E+03  0.00000000000E+00 0.  1.
         21   -1    0    0  501  502 -0.00000000000E+00 -0.00000000000E+00 -0.39930728859E+03  0.39930728859E+03  0.00000000000E+00 0.  1.
         25    1    1    2    0    0 -0.24258013778E+03  0.28055686413E+03 -0.62052123490E+02  0.39627357127E+03  0.12500000000E+03 0.  0.
         25    1    1    2    0    0  0.24258013778E+03 -0.28055686413E+03  0.54932376110E+02  0.39522125854E+03  0.12500000000E+03 0.  0.
</event>
<event>
 4    0  0.2253506E-002  0.3031510E+03  0.7546771E-02  0.1083676E+00
         21   -1    0    0  502  501  0.00000000000E+00  0.00000000000E+00  0.13941943500E+03  0.13941943500E+03  0.00000000000E+00 0. -1.
         21   -1    0    0  501  502 -0.00000000000E+00 -0.00000000000E+00 -0.65916598200E+03  0.65916598200E+03  0.00000000000E+00 0. -1.
         25    1    1    2    0    0 -0.20766065764E+03  0.54491578646E+02 -0.48870458860E+03  0.54822391027E+03  0.12500000000E+03 0.  0.
         25    1    1    2    0    0  0.20766065764E+03 -0.54491578646E+02 -0.31041958403E+02  0.25036150674E+03  0.12500000000E+03 0.  0.
</event>
<event>
 4    0  0.2253506E-002  0.2554175E+03  0.7546771E-02  0.1109928E+00
         21   -1    0    0  502  501  0.00000000000E+00  0.00000000000E+00  0.13324025509E+03  0.13324025509E+03  0.00000000000E+00 0.  1.
         21   -1    0    0  501  502 -0.00000000000E+00 -0.00000000000E+00 -0.48962738736E+03  0.48962738736E+03  0.00000000000E+00 0.  1.
         25    1    1    2    0    0  0.18314274097E+03  0.29883677507E+02 -0.27971534103E+02  0.22548105125E+03  0.12500000000E+03 0.  0.
         25    1    1    2    0    0 -0.18314274097E+03 -0.29883677507E+02 -0.32841559817E+03  0.39738659121E+03  0.12500000000E+03 0.  0.
</event>
<event>
 4    0  0.2253506E-002  0.2511661E+03  0.7546771E-02  0.1112570E+00
         21   -1    0    0  502  501  0.00000000000E+00  0.00000000000E+00  0.13076727150E+03  0.13076727150E+03  0.00000000000E+00 0.  1.
         21   -1    0    0  501  502 -0.00000000000E+00 -0.00000000000E+00 -0.48241726711E+03  0.48241726711E+03  0.00000000000E+00 0.  1.
         25    1    1    2    0    0  0.17014395106E+03  0.10329714484E+03 -0.28390908397E+03  0.36857649433E+03  0.12500000000E+03 0.  0.
         25    1    1    2    0    0 -0.17014395106E+03 -0.10329714484E+03 -0.67740911638E+02  0.24460804428E+03  0.12500000000E+03 0.  0.
</event>
<event>
 4    0  0.2253506E-002  0.2133547E+03  0.7546771E-02  0.1138937E+00
         21   -1    0    0  502  501  0.00000000000E+00  0.00000000000E+00  0.26205934476E+03  0.26205934476E+03  0.00000000000E+00 0. -1.
         21   -1    0    0  501  502 -0.00000000000E+00 -0.00000000000E+00 -0.17370206073E+03  0.17370206073E+03  0.00000000000E+00 0. -1.
         25    1    1    2    0    0 -0.16372176716E+03 -0.54767323873E+02  0.34438418455E+02  0.21590572357E+03  0.12500000000E+03 0.  0.
         25    1    1    2    0    0  0.16372176716E+03  0.54767323873E+02  0.53918865568E+02  0.21985568191E+03  0.12500000000E+03 0.  0.
</event>
<event>
 4    0  0.2253506E-002  0.2263885E+03  0.7546771E-02  0.1129208E+00
         21   -1    0    0  502  501  0.00000000000E+00  0.00000000000E+00  0.44076242118E+02  0.44076242118E+02  0.00000000000E+00 0. -1.
         21   -1    0    0  501  502 -0.00000000000E+00 -0.00000000000E+00 -0.11627976753E+04  0.11627976753E+04  0.00000000000E+00 0. -1.
         25    1    1    2    0    0  0.38893094821E+02  0.17789652415E+03 -0.69175030318E+03  0.72615654516E+03  0.12500000000E+03 0.  0.
         25    1    1    2    0    0 -0.38893094821E+02 -0.17789652415E+03 -0.42697112997E+03  0.48071737222E+03  0.12500000000E+03 0.  0.
</event>
<event>
 4    0  0.2253506E-002  0.2385673E+03  0.7546771E-02  0.1120751E+00
         21   -1    0    0  502  501  0.00000000000E+00  0.00000000000E+00  0.60383375415E+02  0.60383375415E+02  0.00000000000E+00 0.  1.
         21   -1    0    0  501  502 -0.00000000000E+00 -0.00000000000E+00 -0.94255010213E+03  0.94255010213E+03  0.00000000000E+00 0.  1.
         25    1    1    2    0    0  0.84285393642E+02  0.65178021868E+02 -0.80477764826E+03  0.82136731445E+03  0.12500000000E+03 0.  0.
         25    1    1    2    0    0 -0.84285393642E+02 -0.65178021868E+02 -0.77389078460E+02  0.18156616309E+03  0.12500000000E+03 0.  0.
</event>
<event>
 4    0  0.2253506E-002  0.3850407E+03  0.7546771E-02  0.1049086E+00
         21   -1    0    0  502  501  0.00000000000E+00  0.00000000000E+00  0.16601853487E+04  0.16601853487E+04  0.00000000000E+00 0. -1.
         21   -1    0    0  501  502 -0.00000000000E+00 -0.00000000000E+00 -0.89301077379E+02  0.89301077379E+02  0.00000000000E+00 0. -1.
         25    1    1    2    0    0  0.20939045774E+03  0.18464045152E+03  0.25413300252E+03  0.39767454419E+03  0.12500000000E+03 0.  0.
         25    1    1    2    0    0 -0.20939045774E+03 -0.18464045152E+03  0.13167512688E+04  0.13518118819E+04  0.12500000000E+03 0.  0.
</event>
<event>
 4    0  0.2253506E-002  0.2336217E+03  0.7546771E-02  0.1124116E+00
         21   -1    0    0  502  501  0.00000000000E+00  0.00000000000E+00  0.33615347908E+03  0.33615347908E+03  0.00000000000E+00 0.  1.
         21   -1    0    0  501  502 -0.00000000000E+00 -0.00000000000E+00 -0.16236364746E+03  0.16236364746E+03  0.00000000000E+00 0.  1.
         25    1    1    2    0    0 -0.12929063999E+03  0.53443925183E+02  0.23543160436E+03  0.30104046747E+03  0.12500000000E+03 0.  0.
         25    1    1    2    0    0  0.12929063999E+03 -0.53443925183E+02 -0.61641772738E+02  0.19747665906E+03  0.12500000000E+03 0.  0.
</event>
<event>
 4    0  0.2253506E-002  0.1900192E+03  0.7546771E-02  0.1158444E+00
         21   -1    0    0  502  501  0.00000000000E+00  0.00000000000E+00  0.10050411617E+04  0.10050411617E+04  0.00000000000E+00 0.  1.
         21   -1    0    0  501  502 -0.00000000000E+00 -0.00000000000E+00 -0.35926196530E+02  0.35926196530E+02  0.00000000000E+00 0.  1.
         25    1    1    2    0    0  0.22131866675E+02  0.54070179902E+02  0.12669813274E+03  0.18732544066E+03  0.12500000000E+03 0.  0.
         25    1    1    2    0    0 -0.22131866675E+02 -0.54070179902E+02  0.84241683242E+03  0.85364191756E+03  0.12500000000E+03 0.  0.
</event>
<event>
 4    0  0.2253506E-002  0.1818511E+03  0.7546771E-02  0.1166023E+00
         21   -1    0    0  502  501  0.00000000000E+00  0.00000000000E+00  0.95870283349E+02  0.95870283349E+02  0.00000000000E+00 0. -1.
         21   -1    0    0  501  502 -0.00000000000E+00 -0.00000000000E+00 -0.34494355099E+03  0.34494355099E+03  0.00000000000E+00 0. -1.
         25    1    1    2    0    0  0.66580948601E+02  0.33973840983E+02  0.74431582842E+01  0.14583430733E+03  0.12500000000E+03 0.  0.
         25    1    1    2    0    0 -0.66580948601E+02 -0.33973840983E+02 -0.25651642593E+03  0.29497952702E+03  0.12500000000E+03 0.  0.
</event>
<event>
 4    0  0.2253506E-002  0.2060364E+03  0.7546771E-02  0.1144744E+00
         21   -1    0    0  502  501  0.00000000000E+00  0.00000000000E+00  0.13200325378E+03  0.13200325378E+03  0.00000000000E+00 0.  1.
         21   -1    0    0  501  502 -0.00000000000E+00 -0.00000000000E+00 -0.32159057454E+03  0.32159057454E+03  0.00000000000E+00 0.  1.
         25    1    1    2    0    0  0.17857305019E+02  0.14538115211E+03 -0.14118746375E+02  0.19307745008E+03  0.12500000000E+03 0.  0.
         25    1    1    2    0    0 -0.17857305019E+02 -0.14538115211E+03 -0.17546857439E+03  0.26051637824E+03  0.12500000000E+03 0.  0.
</event>
<event>
 4    0  0.2253506E-002  0.1541175E+03  0.7546771E-02  0.1195503E+00
         21   -1    0    0  502  501  0.00000000000E+00  0.00000000000E+00  0.60955369142E+02  0.60955369142E+02  0.00000000000E+00 0. -1.
         21   -1    0    0  501  502 -0.00000000000E+00 -0.00000000000E+00 -0.38966562240E+03  0.38966562240E+03  0.00000000000E+00 0. -1.
         25    1    1    2    0    0 -0.55545428624E+02 -0.16503723431E+02 -0.26531942667E+03  0.29895997340E+03  0.12500000000E+03 0.  0.
         25    1    1    2    0    0  0.55545428624E+02  0.16503723431E+02 -0.63390826591E+02  0.15166101814E+03  0.12500000000E+03 0.  0.
</event>
<event>
 4    0  0.2253506E-002  0.1579352E+03  0.7546771E-02  0.1191048E+00
         21   -1    0    0  502  501  0.00000000000E+00  0.00000000000E+00  0.29455829548E+02  0.29455829548E+02  0.00000000000E+00 0.  1.
         21   -1    0    0  501  502 -0.00000000000E+00 -0.00000000000E+00 -0.84681173810E+03  0.84681173810E+03  0.00000000000E+00 0.  1.
         25    1    1    2    0    0 -0.57184974969E+02  0.62782997684E+02 -0.28134797125E+03  0.31936422324E+03  0.12500000000E+03 0.  0.
         25    1    1    2    0    0  0.57184974969E+02 -0.62782997684E+02 -0.53600793730E+03  0.55690334441E+03  0.12500000000E+03 0.  0.
</event>
<event>
 4    0  0.2253506E-002  0.2406910E+03  0.7546771E-02  0.1119333E+00
         21   -1    0    0  502  501  0.00000000000E+00  0.00000000000E+00  0.22575343355E+03  0.22575343355E+03  0.00000000000E+00 0.  1.
         21   -1    0    0  501  502 -0.00000000000E+00 -0.00000000000E+00 -0.25661684784E+03  0.25661684784E+03  0.00000000000E+00 0.  1.
         25    1    1    2    0    0  0.55432850010E+01 -0.20560072467E+03 -0.13248125262E+02  0.24104542895E+03  0.12500000000E+03 0.  0.
         25    1    1    2    0    0 -0.55432850010E+01  0.20560072467E+03 -0.17615289030E+02  0.24132485243E+03  0.12500000000E+03 0.  0.
</event>
<event>
 4    0  0.2253506E-002  0.4051294E+03  0.7546771E-02  0.1042018E+00
         21   -1    0    0  502  501  0.00000000000E+00  0.00000000000E+00  0.53187685658E+03  0.53187685658E+03  0.00000000000E+00 0.  1.
         21   -1    0    0  501  502 -0.00000000000E+00 -0.00000000000E+00 -0.30858616796E+03  0.30858616796E+03  0.00000000000E+00 0.  1.
         25    1    1    2    0    0 -0.32052568161E+03 -0.17424845446E+03 -0.17100794907E+02  0.38602677840E+03  0.12500000000E+03 0.  0.
         25    1    1    2    0    0  0.32052568161E+03  0.17424845446E+03  0.24039148353E+03  0.45443624614E+03  0.12500000000E+03 0.  0.
</event>
<event>
 4    0  0.2253506E-002  0.2167544E+03  0.7546771E-02  0.1136326E+00
         21   -1    0    0  502  501  0.00000000000E+00  0.00000000000E+00  0.10622836751E+04  0.10622836751E+04  0.00000000000E+00 0.  1.
         21   -1    0    0  501  502 -0.00000000000E+00 -0.00000000000E+00 -0.44227803129E+02  0.44227803129E+02  0.00000000000E+00 0.  1.
         25    1    1    2    0    0 -0.21210392026E+02  0.17315104785E+03  0.58671263689E+03  0.62473024930E+03  0.12500000000E+03 0.  0.
         25    1    1    2    0    0  0.21210392026E+02 -0.17315104785E+03  0.43134323510E+03  0.48178122895E+03  0.12500000000E+03 0.  0.
</event>
<event>
 4    0  0.2253506E-002  0.2750303E+03  0.7546771E-02  0.1098435E+00
         21   -1    0    0  502  501  0.00000000000E+00  0.00000000000E+00  0.18874361819E+03  0.18874361819E+03  0.00000000000E+00 0. -1.
         21   -1    0    0  501  502 -0.00000000000E+00 -0.00000000000E+00 -0.40076422168E+03  0.40076422168E+03  0.00000000000E+00 0. -1.
         25    1    1    2    0    0 -0.53635615072E+02  0.75069380258E+01 -0.36206602617E+03  0.38684614594E+03  0.12500000000E+03 0.  0.
         25    1    1    2    0    0  0.53635615072E+02 -0.75069380258E+01  0.15004542267E+03  0.20266169393E+03  0.12500000000E+03 0.  0.
</event>
<event>
 4    0  0.2253506E-002  0.4113982E+03  0.7546771E-02  0.1039903E+00
         21   -1    0    0  502  501  0.00000000000E+00  0.00000000000E+00  0.15161783039E+04  0.15161783039E+04  0.00000000000E+00 0. -1.
         21   -1    0    0  501  502 -0.00000000000E+00 -0.00000000000E+00 -0.11162836493E+03  0.11162836493E+03  0.00000000000E+00 0. -1.
         25    1    1    2    0    0  0.36177936172E+03  0.13845623356E+03  0.82046692816E+03  0.91588504485E+03  0.12500000000E+03 0.  0.
         25    1    1    2    0    0 -0.36177936172E+03 -0.13845623356E+03  0.58408301083E+03  0.71192162400E+03  0.12500000000E+03 0.  0.
</event>
<event>
 4    0  0.2253506E-002  0.2028591E+03  0.7546771E-02  0.1147349E+00
         21   -1    0    0  502  501  0.00000000000E+00  0.00000000000E+00  0.24188870712E+03  0.24188870712E+03  0.00000000000E+00 0.  1.
         21   -1    0    0  501  502 -0.00000000000E+00 -0.00000000000E+00 -0.17012701186E+03  0.17012701186E+03  0.00000000000E+00 0.  1.
         25    1    1    2    0    0 -0.45680446707E+02  0.91865129402E+02  0.16026011121E+03  0.22767127280E+03  0.12500000000E+03 0.  0.
         25    1    1    2    0    0  0.45680446707E+02 -0.91865129402E+02 -0.88498415954E+02  0.18434444618E+03  0.12500000000E+03 0.  0.
</event>
<event>
 4    0  0.2253506E-002  0.2058053E+03  0.7546771E-02  0.1144931E+00
         21   -1    0    0  502  501  0.00000000000E+00  0.00000000000E+00  0.19559583856E+02  0.19559583856E+02  0.00000000000E+00 0.  1.
         21   -1    0    0  501  502 -0.00000000000E+00 -0.00000000000E+00 -0.21654756973E+04  0.21654756973E+04  0.00000000000E+00 0.  1.
         25    1    1    2    0    0 -0.90083008535E+02 -0.11931758155E+03 -0.72166635732E+03  0.74751519381E+03  0.12500000000E+03 0.  0.
         25    1    1    2    0    0  0.90083008535E+02  0.11931758155E+03 -0.14242497562E+04  0.14375200874E+04  0.12500000000E+03 0.  0.
</event>
<event>
 4    0  0.2253506E-002  0.2487202E+03  0.7546771E-02  0.1114116E+00
         21   -1    0    0  502  501  0.00000000000E+00  0.00000000000E+00  0.45515907412E+03  0.45515907412E+03  0.00000000000E+00 0. -1.
         21   -1    0    0  501  502 -0.00000000000E+00 -0.00000000000E+00 -0.13591229489E+03  0.13591229489E+03  0.00000000000E+00 0. -1.
         25    1    1    2    0    0  0.40359648196E+02 -0.17535925675E+03  0.19750777464E+02  0.21998832547E+03  0.12500000000E+03 0.  0.
         25    1    1    2    0    0 -0.40359648196E+02  0.17535925675E+03  0.29949600177E+03  0.37108304355E+03  0.12500000000E+03 0.  0.
</event>
<event>
 4    0  0.2253506E-002  0.3077944E+03  0.7546771E-02  0.1081408E+00
         21   -1    0    0  502  501  0.00000000000E+00  0.00000000000E+00  0.31313039723E+03  0.31313039723E+03  0.00000000000E+00 0.  1.
         21   -1    0    0  501  502 -0.00000000000E+00 -0.00000000000E+00 -0.30254930465E+03  0.30254930465E+03  0.00000000000E+00 0.  1.
         25    1    1    2    0    0 -0.15934294229E+03  0.17180324419E+03 -0.15031474772E+03  0.30516561299E+03  0.12500000000E+03 0.  0.
         25    1    1    2    0    0  0.15934294229E+03 -0.17180324419E+03  0.16089584031E+03  0.31051408889E+03  0.12500000000E+03 0.  0.
</event>
<event>
 4    0  0.2253506E-002  0.1512264E+03  0.7546771E-02  0.1198974E+00
         21   -1    0    0  502  501  0.00000000000E+00  0.00000000000E+00  0.28105935886E+03  0.28105935886E+03  0.00000000000E+00 0.  1.
         21   -1    0    0  501  502 -0.00000000000E+00 -0.00000000000E+00 -0.81368684631E+02  0.81368684631E+02  0.00000000000E+00 0.  1.
         25    1    1    2    0    0  0.74101659155E+02 -0.18581975531E+02  0.54879932632E+02  0.15643897440E+03  0.12500000000E+03 0.  0.
         25    1    1    2    0    0 -0.74101659155E+02  0.18581975531E+02  0.14481074159E+03  0.20598906909E+03  0.12500000000E+03 0.  0.
</event>
<event>
 4    0  0.2253506E-002  0.1678665E+03  0.7546771E-02  0.1180091E+00
         21   -1    0    0  502  501  0.00000000000E+00  0.00000000000E+00  0.14699141301E+03  0.14699141301E+03  0.00000000000E+00 0. -1.
         21   -1    0    0  501  502 -0.00000000000E+00 -0.00000000000E+00 -0.19170614884E+03  0.19170614884E+03  0.00000000000E+00 0. -1.
         25    1    1    2    0    0  0.10360029209E+03  0.42285223974E+02 -0.28161168476E+02  0.17011499668E+03  0.12500000000E+03 0.  0.
         25    1    1    2    0    0 -0.10360029209E+03 -0.42285223974E+02 -0.16553567359E+02  0.16858256517E+03  0.12500000000E+03 0.  0.
</event>
<event>
 4    0  0.2253506E-002  0.2529298E+03  0.7546771E-02  0.1111467E+00
         21   -1    0    0  502  501  0.00000000000E+00  0.00000000000E+00  0.41105483125E+03  0.41105483125E+03  0.00000000000E+00 0.  1.
         21   -1    0    0  501  502 -0.00000000000E+00 -0.00000000000E+00 -0.15563247547E+03  0.15563247547E+03  0.00000000000E+00 0.  1.
         25    1    1    2    0    0 -0.38929906335E+02 -0.28550203220E+01 -0.11469932217E+03  0.17408223130E+03  0.12500000000E+03 0.  0.
         25    1    1    2    0    0  0.38929906335E+02  0.28550203220E+01  0.37012167796E+03  0.39260507541E+03  0.12500000000E+03 0.  0.
</event>
<event>
 4    0  0.2253506E-002  0.1829778E+03  0.7546771E-02  0.1164952E+00
         21   -1    0    0  502  501  0.00000000000E+00  0.00000000000E+00  0.55086703493E+03  0.55086703493E+03  0.00000000000E+00 0. -1.
         21   -1    0    0  501  502 -0.00000000000E+00 -0.00000000000E+00 -0.60778499168E+02  0.60778499168E+02  0.00000000000E+00 0. -1.
         25    1    1    2    0    0  0.12328279388E+03  0.37809600558E+02  0.18648303428E+03  0.25889985561E+03  0.12500000000E+03 0.  0.
         25    1    1    2    0    0 -0.12328279388E+03 -0.37809600558E+02  0.30360550148E+03  0.35274567849E+03  0.12500000000E+03 0.  0.
</event>
<event>
 4    0  0.2253506E-002  0.2690175E+03  0.7546771E-02  0.1101843E+00
         21   -1    0    0  502  501  0.00000000000E+00  0.00000000000E+00  0.12695100540E+04  0.12695100540E+04  0.00000000000E+00 0.  1.
         21   -1    0    0  501  502 -0.00000000000E+00 -0.00000000000E+00 -0.57006562554E+02  0.57006562554E+02  0.00000000000E+00 0.  1.
         25    1    1    2    0    0 -0.15453448616E+03 -0.18118601027E+03  0.59143285888E+03  0.64971309383E+03  0.12500000000E+03 0.  0.
         25    1    1    2    0    0  0.15453448616E+03  0.18118601027E+03  0.62107063252E+03  0.67680352268E+03  0.12500000000E+03 0.  0.
</event>
<event>
 4    0  0.2253506E-002  0.2862398E+03  0.7546771E-02  0.1092329E+00
         21   -1    0    0  502  501  0.00000000000E+00  0.00000000000E+00  0.90248514496E+03  0.90248514496E+03  0.00000000000E+00 0.  1.
         21   -1    0    0  501  502 -0.00000000000E+00 -0.00000000000E+00 -0.90786237961E+02  0.90786237961E+02  0.00000000000E+00 0.  1.
         25    1    1    2    0    0 -0.11425339738E+03 -0.22974280985E+03  0.36812958239E+03  0.46581110648E+03  0.12500000000E+03 0.  0.
         25    1    1    2    0    0  0.11425339738E+03  0.22974280985E+03  0.44356932461E+03  0.52746027644E+03  0.12500000000E+03 0.  0.
</event>
<event>
 4    0  0.2253506E-002  0.2812497E+03  0.7546771E-02  0.1095008E+00
         21   -1    0    0  502  501  0.00000000000E+00  0.00000000000E+00  0.24746337864E+03  0.24746337864E+03  0.00000000000E+00 0.  1.
         21   -1    0    0  501  502 -0.00000000000E+00 -0.00000000000E+00 -0.31964899787E+03  0.31964899787E+03  0.00000000000E+00 0.  1.
         25    1    1    2    0    0 -0.20400338012E+03 -0.14519218534E+03 -0.64219100815E+02  0.28713627896E+03  0.12500000000E+03 0.  0.
         25    1    1    2    0    0  0.20400338012E+03  0.14519218534E+03 -0.79665184213E+01  0.27997609755E+03  0.12500000000E+03 0.  0.
</event>
<event>
 4    0  0.2253506E-002  0.1494054E+03  0.7546771E-02  0.1201205E+00
         21   -1    0    0  502  501  0.00000000000E+00  0.00000000000E+00  0.14901474137E+02  0.14901474137E+02  0.00000000000E+00 0. -1.
         21   -1    0    0  501  502 -0.00000000000E+00 -0.00000000000E+00 -0.14979716811E+04  0.14979716811E+04  0.00000000000E+00 0. -1.
         25    1    1    2    0    0 -0.45057348828E+02 -0.68075611417E+02 -0.71265716214E+03  0.72812751925E+03  0.12500000000E+03 0.  0.
         25    1    1    2    0    0  0.45057348828E+02  0.68075611417E+02 -0.77041304480E+03  0.78474563596E+03  0.12500000000E+03 0.  0.
</event>
<event>
 4    0  0.2253506E-002  0.2132971E+03  0.7546771E-02  0.1138981E+00
         21   -1    0    0  502  501  0.00000000000E+00  0.00000000000E+00  0.42632744915E+03  0.42632744915E+03  0.00000000000E+00 0.  1.
         21   -1    0    0  501  502 -0.00000000000E+00 -0.00000000000E+00 -0.10671527292E+03  0.10671527292E+03  0.00000000000E+00 0.  1.
         25    1    1    2    0    0  0.11056840187E+03 -0.51006462205E+02  0.65480528538E+01  0.17462791207E+03  0.12500000000E+03 0.  0.
         25    1    1    2    0    0 -0.11056840187E+03  0.51006462205E+02  0.31306412338E+03  0.35841481000E+03  0.12500000000E+03 0.  0.
</event>
<event>
 4    0  0.2253506E-002  0.3058878E+03  0.7546771E-02  0.1082334E+00
         21   -1    0    0  502  501  0.00000000000E+00  0.00000000000E+00  0.22059995484E+03  0.22059995484E+03  0.00000000000E+00 0.  1.
         21   -1    0    0  501  502 -0.00000000000E+00 -0.00000000000E+00 -0.42414953888E+03  0.42414953888E+03  0.00000000000E+00 0.  1.
         25    1    1    2    0    0 -0.56219142386E+02  0.21880251422E+03  0.71100671004E+02  0.26779738164E+03  0.12500000000E+03 0.  0.
         25    1    1    2    0    0  0.56219142386E+02 -0.21880251422E+03 -0.27465025505E+03  0.37695211207E+03  0.12500000000E+03 0.  0.
</event>
<event>
 4    0  0.2253506E-002  0.1609392E+03  0.7546771E-02  0.1187640E+00
         21   -1    0    0  502  501  0.00000000000E+00  0.00000000000E+00  0.82660345375E+02  0.82660345375E+02  0.00000000000E+00 0. -1.
         21   -1    0    0  501  502 -0.00000000000E+00 -0.00000000000E+00 -0.31334758063E+03  0.31334758063E+03  0.00000000000E+00 0. -1.
         25    1    1    2    0    0 -0.40593454116E+02  0.56646067056E+02 -0.24769463787E+02  0.14524163235E+03  0.12500000000E+03 0.  0.
         25    1    1    2    0    0  0.40593454116E+02 -0.56646067056E+02 -0.20591777147E+03  0.25076629366E+03  0.12500000000E+03 0.  0.
</event>
<event>
 4    0  0.2253506E-002  0.1898576E+03  0.7546771E-02  0.1158590E+00
         21   -1    0    0  502  501  0.00000000000E+00  0.00000000000E+00  0.48588551204E+03  0.48588551204E+03  0.00000000000E+00 0.  1.
         21   -1    0    0  501  502 -0.00000000000E+00 -0.00000000000E+00 -0.74186022201E+02  0.74186022201E+02  0.00000000000E+00 0.  1.
         25    1    1    2    0    0  0.11358643403E+03 -0.73223888220E+02  0.13734186696E+03  0.22967673853E+03  0.12500000000E+03 0.  0.
         25    1    1    2    0    0 -0.11358643403E+03  0.73223888220E+02  0.27435762288E+03  0.33039479571E+03  0.12500000000E+03 0.  0.
</event>
<event>
 4    0  0.2253506E-002  0.2706877E+03  0.7546771E-02  0.1100887E+00
         21   -1    0    0  502  501  0.00000000000E+00  0.00000000000E+00  0.69744468931E+02  0.69744468931E+02  0.00000000000E+00 0. -1.
         21   -1    0    0  501  502 -0.00000000000E+00 -0.00000000000E+00 -0.10505752688E+04  0.10505752688E+04  0.00000000000E+00 0. -1.
         25    1    1    2    0    0 -0.72846146416E+02 -0.21562127124E+03 -0.33216791218E+03  0.42161548304E+03  0.12500000000E+03 0.  0.
         25    1    1    2    0    0  0.72846146416E+02  0.21562127124E+03 -0.64866288772E+03  0.69870425472E+03  0.12500000000E+03 0.  0.
</event>
<event>
 4    0  0.2253506E-002  0.1871087E+03  0.7546771E-02  0.1161095E+00
         21   -1    0    0  502  501  0.00000000000E+00  0.00000000000E+00  0.29564903005E+02  0.29564903005E+02  0.00000000000E+00 0. -1.
         21   -1    0    0  501  502 -0.00000000000E+00 -0.00000000000E+00 -0.11841626965E+04  0.11841626965E+04  0.00000000000E+00 0. -1.
         25    1    1    2    0    0  0.82247395767E+02  0.11057166202E+03 -0.64167224993E+03  0.66810104242E+03  0.12500000000E+03 0.  0.
         25    1    1    2    0    0 -0.82247395767E+02 -0.11057166202E+03 -0.51292554355E+03  0.54562655707E+03  0.12500000000E+03 0.  0.
</event>
<event>
 4    0  0.2253506E-002  0.2567449E+03  0.7546771E-02  0.1109115E+00
         21   -1    0    0  502  501  0.00000000000E+00  0.00000000000E+00  0.23143027673E+03  0.23143027673E+03  0.00000000000E+00 0.  1.
         21   -1    0    0  501  502 -0.00000000000E+00 -0.00000000000E+00 -0.28482860610E+03  0.28482860610E+03  0.00000000000E+00 0.  1.
         25    1    1    2    0    0  0.10209296199E+02 -0.21423281802E+03  0.39175401743E+02  0.25131582152E+03  0.12500000000E+03 0.  0.
         25    1    1    2    0    0 -0.10209296199E+02  0.21423281802E+03 -0.92573731112E+02  0.26494306131E+03  0.12500000000E+03 0.  0.
</event>
<event>
 4    0  0.2253506E-002  0.1571881E+03  0.7546771E-02  0.1191908E+00
         21   -1    0    0  502  501  0.00000000000E+00  0.00000000000E+00  0.41879099001E+03  0.41879099001E+03  0.00000000000E+00 0. -1.
         21   -1    0    0  501  502 -0.00000000000E+00 -0.00000000000E+00 -0.58998640311E+02  0.58998640311E+02  0.00000000000E+00 0. -1.
         25    1    1    2    0    0 -0.12376907951E+02  0.69667589732E+02  0.82862572299E+02  0.16582510907E+03  0.12500000000E+03 0.  0.
         25    1    1    2    0    0  0.12376907951E+02 -0.69667589732E+02  0.27692977740E+03  0.31196452126E+03  0.12500000000E+03 0.  0.
</event>
<event>
 4    0  0.2253506E-002  0.2820574E+03  0.7546771E-02  0.1094571E+00
         21   -1    0    0  502  501  0.00000000000E+00  0.00000000000E+00  0.18190417381E+03  0.18190417381E+03  0.00000000000E+00 0.  1.
         21   -1    0    0  501  502 -0.00000000000E+00 -0.00000000000E+00 -0.43735325960E+03  0.43735325960E+03  0.00000000000E+00 0.  1.
         25    1    1    2    0    0  0.21454104500E+03 -0.11469800471E+03 -0.52084095261E+02  0.27842637313E+03  0.12500000000E+03 0.  0.
         25    1    1    2    0    0 -0.21454104500E+03  0.11469800471E+03 -0.20336499052E+03  0.34083106027E+03  0.12500000000E+03 0.  0.
</event>
<event>
 4    0  0.2253506E-002  0.1833352E+03  0.7546771E-02  0.1164614E+00
         21   -1    0    0  502  501  0.00000000000E+00  0.00000000000E+00  0.72563961791E+03  0.72563961791E+03  0.00000000000E+00 0. -1.
         21   -1    0    0  501  502 -0.00000000000E+00 -0.00000000000E+00 -0.46320250142E+02  0.46320250142E+02  0.00000000000E+00 0. -1.
         25    1    1    2    0    0 -0.11162493692E+02 -0.21065546338E+02  0.61751809055E+03  0.63049341841E+03  0.12500000000E+03 0.  0.
         25    1    1    2    0    0  0.11162493692E+02  0.21065546338E+02  0.61801277223E+02  0.14146644964E+03  0.12500000000E+03 0.  0.
</event>
<event>
 4    0  0.2253506E-002  0.2032219E+03  0.7546771E-02  0.1147049E+00
         21   -1    0    0  502  501  0.00000000000E+00  0.00000000000E+00  0.51772918716E+03  0.51772918716E+03  0.00000000000E+00 0.  1.
         21   -1    0    0  501  502 -0.00000000000E+00 -0.00000000000E+00 -0.79769788725E+02  0.79769788725E+02  0.00000000000E+00 0.  1.
         25    1    1    2    0    0  0.15571982198E+03  0.30779242515E+02  0.18683521149E+03  0.27518797390E+03  0.12500000000E+03 0.  0.
         25    1    1    2    0    0 -0.15571982198E+03 -0.30779242515E+02  0.25112418694E+03  0.32231100198E+03  0.12500000000E+03 0.  0.
</event>
<event>
 4    0  0.2253506E-002  0.1997298E+03  0.7546771E-02  0.1149967E+00
         21   -1    0    0  502  501  0.00000000000E+00  0.00000000000E+00  0.13878707397E+03  0.13878707397E+03  0.00000000000E+00 0.  1.
         21   -1    0    0  501  502 -0.00000000000E+00 -0.00000000000E+00 -0.28743311104E+03  0.28743311104E+03  0.00000000000E+00 0.  1.
         25    1    1    2    0    0 -0.52962323573E+02 -0.14458004016E+03 -0.99541179219E+02  0.22190502944E+03  0.12500000000E+03 0.  0.
         25    1    1    2    0    0  0.52962323573E+02  0.14458004016E+03 -0.49104857850E+02  0.20431515557E+03  0.12500000000E+03 0.  0.
</event>
<event>
 4    0  0.2253506E-002  0.2305422E+03  0.7546771E-02  0.1126259E+00
         21   -1    0    0  502  501  0.00000000000E+00  0.00000000000E+00  0.16083998769E+04  0.16083998769E+04  0.00000000000E+00 0. -1.
         21   -1    0    0  501  502 -0.00000000000E+00 -0.00000000000E+00 -0.33045068077E+02  0.33045068077E+02  0.00000000000E+00 0. -1.
         25    1    1    2    0    0  0.15132301604E+03  0.10329345985E+03  0.56375322717E+03  0.60581424148E+03  0.12500000000E+03 0.  0.
         25    1    1    2    0    0 -0.15132301604E+03 -0.10329345985E+03  0.10116015817E+04  0.10356307035E+04  0.12500000000E+03 0.  0.
</event>
<event>
 4    0  0.2253506E-002  0.2795532E+03  0.7546771E-02  0.1095933E+00
         21   -1    0    0  502  501  0.00000000000E+00  0.00000000000E+00  0.24902102897E+03  0.24902102897E+03  0.00000000000E+00 0.  1.
         21   -1    0    0  501  502 -0.00000000000E+00 -0.00000000000E+00 -0.31382889104E+03  0.31382889104E+03  0.00000000000E+00 0.  1.
         25    1    1    2    0    0  0.78044874414E+02  0.20796644022E+03  0.83186245041E+02  0.26811563558E+03  0.12500000000E+03 0.  0.
         25    1    1    2    0    0 -0.78044874414E+02 -0.20796644022E+03 -0.14799410711E+03  0.29473428443E+03  0.12500000000E+03 0.  0.
</event>
<event>
 4    0  0.2253506E-002  0.2000798E+03  0.7546771E-02  0.1149672E+00
         21   -1    0    0  502  501  0.00000000000E+00  0.00000000000E+00  0.29010600572E+02  0.29010600572E+02  0.00000000000E+00 0. -1.
         21   -1    0    0  501  502 -0.00000000000E+00 -0.00000000000E+00 -0.13799066751E+04  0.13799066751E+04  0.00000000000E+00 0. -1.
         25    1    1    2    0    0 -0.14814287648E+03  0.12770161050E+02 -0.84421332111E+03  0.86627392920E+03  0.12500000000E+03 0.  0.
         25    1    1    2    0    0  0.14814287648E+03 -0.12770161050E+02 -0.50668275345E+03  0.54264334651E+03  0.12500000000E+03 0.  0.
</event>
<event>
 4    0  0.2253506E-002  0.3147434E+03  0.7546771E-02  0.1078094E+00
         21   -1    0    0  502  501  0.00000000000E+00  0.00000000000E+00  0.50879167550E+03  0.50879167550E+03  0.00000000000E+00 0.  1.
         21   -1    0    0  501  502 -0.00000000000E+00 -0.00000000000E+00 -0.19470333757E+03  0.19470333757E+03  0.00000000000E+00 0.  1.
         25    1    1    2    0    0 -0.13045678848E+03 -0.21886670249E+03  0.30911910876E+03  0.41964417132E+03  0.12500000000E+03 0.  0.
         25    1    1    2    0    0  0.13045678848E+03  0.21886670249E+03  0.49692291664E+01  0.28385084174E+03  0.12500000000E+03 0.  0.
</event>
<event>
 4    0  0.2253506E-002  0.2348837E+03  0.7546771E-02  0.1123249E+00
         21   -1    0    0  502  501  0.00000000000E+00  0.00000000000E+00  0.39051202408E+03  0.39051202408E+03  0.00000000000E+00 0.  1.
         21   -1    0    0  501  502 -0.00000000000E+00 -0.00000000000E+00 -0.14127692837E+03  0.14127692837E+03  0.00000000000E+00 0.  1.
         25    1    1    2    0    0 -0.44715944868E+02  0.15679934451E+03 -0.42535282053E+01  0.20549608918E+03  0.12500000000E+03 0.  0.
         25    1    1    2    0    0  0.44715944868E+02 -0.15679934451E+03  0.25348862392E+03  0.32629286327E+03  0.12500000000E+03 0.  0.
</event>
<event>
 4    0  0.2253506E-002  0.2295792E+03  0.7546771E-02  0.1126936E+00
         21   -1    0    0  502  501  0.00000000000E+00  0.00000000000E+00  0.24374054654E+03  0.24374054654E+03  0.00000000000E+00 0. -1.
         21   -1    0    0  501  502 -0.00000000000E+00 -0.00000000000E+00 -0.21624064977E+03  0.21624064977E+03  0.00000000000E+00 0. -1.
         25    1    1    2    0    0  0.62129549326E+02  0.25672219889E+02  0.19452404355E+03  0.24079814637E+03  0.12500000000E+03 0.  0.
         25    1    1    2    0    0 -0.62129549326E+02 -0.25672219889E+02 -0.16702414678E+03  0.21918304994E+03  0.12500000000E+03 0.  0.
</event>
<event>
 4    0  0.2253506E-002  0.2365329E+03  0.7546771E-02  0.1122124E+00
         21   -1    0    0  502  501  0.00000000000E+00  0.00000000000E+00  0.56724063408E+03  0.56724063408E+03  0.00000000000E+00 0. -1.
         21   -1    0    0  501  502 -0.00000000000E+00 -0.00000000000E+00 -0.98631502887E+02  0.98631502887E+02  0.00000000000E+00 0. -1.
         25    1    1    2    0    0 -0.16515802253E+03  0.11315740693E+03  0.25615703292E+03  0.34831479535E+03  0.12500000000E+03 0.  0.
         25    1    1    2    0    0  0.16515802253E+03 -0.11315740693E+03  0.21245209827E+03  0.31755734161E+03  0.12500000000E+03 0.  0.
</event>
<event>
 4    0  0.2253506E-002  0.1886026E+03  0.7546771E-02  0.1159728E+00
         21   -1    0    0  502  501  0.00000000000E+00  0.00000000000E+00  0.64572075275E+02  0.64572075275E+02  0.00000000000E+00 0. -1.
         21   -1    0    0  501  502 -0.00000000000E+00 -0.00000000000E+00 -0.55087177866E+03  0.55087177866E+03  0.00000000000E+00 0.  1.
         25    1    1    2    0    0  0.66773936029E+02 -0.12372117472E+03 -0.22124481169E+03  0.29041341964E+03  0.12500000000E+03 0.  0.
         25    1    1    2    0    0 -0.66773936029E+02  0.12372117472E+03 -0.26505489169E+03  0.32503043430E+03  0.12500000000E+03 0.  0.
</event>
<event>
 4    0  0.2253506E-002  0.1965233E+03  0.7546771E-02  0.1152706E+00
         21   -1    0    0  502  501  0.00000000000E+00  0.00000000000E+00  0.90685472963E+03  0.90685472963E+03  0.00000000000E+00 0.  1.
         21   -1    0    0  501  502 -0.00000000000E+00 -0.00000000000E+00 -0.42588285384E+02  0.42588285384E+02  0.00000000000E+00 0.  1.
         25    1    1    2    0    0 -0.42105879045E+02 -0.74192122234E+02  0.73499020502E+03  0.75040854041E+03  0.12500000000E+03 0.  0.
         25    1    1    2    0    0  0.42105879045E+02  0.74192122234E+02  0.12927623923E+03  0.19903447461E+03  0.12500000000E+03 0.  0.
</event>
<event>
 4    0  0.2253506E-002  0.2874248E+03  0.7546771E-02  0.1091701E+00
         21   -1    0    0  502  501  0.00000000000E+00  0.00000000000E+00  0.54211505858E+03  0.54211505858E+03  0.00000000000E+00 0. -1.
         21   -1    0    0  501  502 -0.00000000000E+00 -0.00000000000E+00 -0.15239021245E+03  0.15239021245E+03  0.00000000000E+00 0. -1.
         25    1    1    2    0    0 -0.24921436773E+02  0.23495180131E+03  0.67205932581E+02  0.27561760525E+03  0.12500000000E+03 0.  0.
         25    1    1    2    0    0  0.24921436773E+02 -0.23495180131E+03  0.32251891355E+03  0.41888766579E+03  0.12500000000E+03 0.  0.
</event>
<event>
 4    0  0.2253506E-002  0.2172089E+03  0.7546771E-02  0.1135981E+00
         21   -1    0    0  502  501  0.00000000000E+00  0.00000000000E+00  0.43899843907E+03  0.43899843907E+03  0.00000000000E+00 0. -1.
         21   -1    0    0  501  502 -0.00000000000E+00 -0.00000000000E+00 -0.10747124137E+03  0.10747124137E+03  0.00000000000E+00 0. -1.
         25    1    1    2    0    0  0.99390706976E+02 -0.14443738044E+03  0.20165419859E+03  0.29500861904E+03  0.12500000000E+03 0.  0.
         25    1    1    2    0    0 -0.99390706976E+02  0.14443738044E+03  0.12987299911E+03  0.25146106140E+03  0.12500000000E+03 0.  0.
</event>
<event>
 4    0  0.2253506E-002  0.2384374E+03  0.7546771E-02  0.1120838E+00
         21   -1    0    0  502  501  0.00000000000E+00  0.00000000000E+00  0.46812930362E+03  0.46812930362E+03  0.00000000000E+00 0. -1.
         21   -1    0    0  501  502 -0.00000000000E+00 -0.00000000000E+00 -0.12144593436E+03  0.12144593436E+03  0.00000000000E+00 0. -1.
         25    1    1    2    0    0 -0.10546093497E+03  0.20675381189E+02  0.38632793541E+03  0.42002827747E+03  0.12500000000E+03 0.  0.
         25    1    1    2    0    0  0.10546093497E+03 -0.20675381189E+02 -0.39644566152E+02  0.16954696051E+03  0.12500000000E+03 0.  0.
</event>
<event>
 4    0  0.2253506E-002  0.3241524E+03  0.7546771E-02  0.1073754E+00
         21   -1    0    0  502  501  0.00000000000E+00  0.00000000000E+00  0.13629367977E+04  0.13629367977E+04  0.00000000000E+00 0. -1.
         21   -1    0    0  501  502 -0.00000000000E+00 -0.00000000000E+00 -0.77094408783E+02  0.77094408783E+02  0.00000000000E+00 0. -1.
         25    1    1    2    0    0  0.41433695018E+02 -0.16067247998E+03  0.11956333272E+04  0.12135470531E+04  0.12500000000E+03 0.  0.
         25    1    1    2    0    0 -0.41433695018E+02  0.16067247998E+03  0.90209061622E+02  0.22648415332E+03  0.12500000000E+03 0.  0.
</event>
<event>
 4    0  0.2253506E-002  0.1783929E+03  0.7546771E-02  0.1169368E+00
         21   -1    0    0  502  501  0.00000000000E+00  0.00000000000E+00  0.81952669681E+03  0.81952669681E+03  0.00000000000E+00 0.  1.
         21   -1    0    0  501  502 -0.00000000000E+00 -0.00000000000E+00 -0.38832201795E+02  0.38832201795E+02  0.00000000000E+00 0.  1.
         25    1    1    2    0    0 -0.28239458435E+02 -0.14083681016E+02  0.68698675409E+03  0.69897898208E+03  0.12500000000E+03 0.  0.
         25    1    1    2    0    0  0.28239458435E+02  0.14083681016E+02  0.93707740917E+02  0.15937991652E+03  0.12500000000E+03 0.  0.
</event>
<event>
 4    0  0.2253506E-002  0.2621508E+03  0.7546771E-02  0.1105858E+00
         21   -1    0    0  502  501  0.00000000000E+00  0.00000000000E+00  0.23177923320E+03  0.23177923320E+03  0.00000000000E+00 0.  1.
         21   -1    0    0  501  502 -0.00000000000E+00 -0.00000000000E+00 -0.29650206578E+03  0.29650206578E+03  0.00000000000E+00 0.  1.
         25    1    1    2    0    0 -0.60589489200E+02  0.22103370199E+03 -0.82836296952E+01  0.26119073899E+03  0.12500000000E+03 0.  0.
         25    1    1    2    0    0  0.60589489200E+02 -0.22103370199E+03 -0.56439202879E+02  0.26709055999E+03  0.12500000000E+03 0.  0.
</event>
<event>
 4    0  0.2253506E-002  0.1886091E+03  0.7546771E-02  0.1159722E+00
         21   -1    0    0  502  501  0.00000000000E+00  0.00000000000E+00  0.45487827396E+03  0.45487827396E+03  0.00000000000E+00 0. -1.
         21   -1    0    0  501  502 -0.00000000000E+00 -0.00000000000E+00 -0.78204207405E+02  0.78204207405E+02  0.00000000000E+00 0. -1.
         25    1    1    2    0    0 -0.45286468329E+02  0.90473434318E+02  0.32760719199E+03  0.36494900846E+03  0.12500000000E+03 0.  0.
         25    1    1    2    0    0  0.45286468329E+02 -0.90473434318E+02  0.49066874560E+02  0.16813347290E+03  0.12500000000E+03 0.  0.
</event>
<event>
 4    0  0.2253506E-002  0.1866141E+03  0.7546771E-02  0.1161551E+00
         21   -1    0    0  502  501  0.00000000000E+00  0.00000000000E+00  0.31668072713E+03  0.31668072713E+03  0.00000000000E+00 0.  1.
         21   -1    0    0  501  502 -0.00000000000E+00 -0.00000000000E+00 -0.10996818250E+03  0.10996818250E+03  0.00000000000E+00 0.  1.
         25    1    1    2    0    0  0.46793294144E+02  0.11617793934E+03  0.17110916461E+03  0.24615091342E+03  0.12500000000E+03 0.  0.
         25    1    1    2    0    0 -0.46793294144E+02 -0.11617793934E+03  0.35603380018E+02  0.18049799621E+03  0.12500000000E+03 0.  0.
</event>
<event>
 4    0  0.2253506E-002  0.1648615E+03  0.7546771E-02  0.1183315E+00
         21   -1    0    0  502  501  0.00000000000E+00  0.00000000000E+00  0.39018971562E+03  0.39018971562E+03  0.00000000000E+00 0.  1.
         21   -1    0    0  501  502 -0.00000000000E+00 -0.00000000000E+00 -0.69656690941E+02  0.69656690941E+02  0.00000000000E+00 0.  1.
         25    1    1    2    0    0  0.56410597002E+02 -0.61621393785E+02  0.65934797193E+02  0.16416987881E+03  0.12500000000E+03 0.  0.
         25    1    1    2    0    0 -0.56410597002E+02  0.61621393785E+02  0.25459822749E+03  0.29567652776E+03  0.12500000000E+03 0.  0.
</event>
<event>
 4    0  0.2253506E-002  0.4168403E+03  0.7546771E-02  0.1038100E+00
         21   -1    0    0  502  501  0.00000000000E+00  0.00000000000E+00  0.12616651210E+03  0.12616651210E+03  0.00000000000E+00 0. -1.
         21   -1    0    0  501  502 -0.00000000000E+00 -0.00000000000E+00 -0.13771942435E+04  0.13771942435E+04  0.00000000000E+00 0. -1.
         25    1    1    2    0    0 -0.10847075279E+03 -0.33300214660E+03 -0.96515592401E+03  0.10343148899E+04  0.12500000000E+03 0.  0.
         25    1    1    2    0    0  0.10847075279E+03  0.33300214660E+03 -0.28587180740E+03  0.46904586568E+03  0.12500000000E+03 0.  0.
</event>
<event>
 4    0  0.2253506E-002  0.2136660E+03  0.7546771E-02  0.1138695E+00
         21   -1    0    0  502  501  0.00000000000E+00  0.00000000000E+00  0.17474314056E+03  0.17474314056E+03  0.00000000000E+00 0. -1.
         21   -1    0    0  501  502 -0.00000000000E+00 -0.00000000000E+00 -0.26125855368E+03  0.26125855368E+03  0.00000000000E+00 0. -1.
         25    1    1    2    0    0  0.11036753668E+03 -0.99608297816E+02  0.47572780123E+02  0.19997743762E+03  0.12500000000E+03 0.  0.
         25    1    1    2    0    0 -0.11036753668E+03  0.99608297816E+02 -0.13408819324E+03  0.23602425662E+03  0.12500000000E+03 0.  0.
</event>
<event>
 4    0  0.2253506E-002  0.2780460E+03  0.7546771E-02  0.1096761E+00
         21   -1    0    0  502  501  0.00000000000E+00  0.00000000000E+00  0.70115339565E+02  0.70115339565E+02  0.00000000000E+00 0. -1.
         21   -1    0    0  501  502 -0.00000000000E+00 -0.00000000000E+00 -0.11026055595E+04  0.11026055595E+04  0.00000000000E+00 0. -1.
         25    1    1    2    0    0  0.11258686186E+03  0.13394131950E+03 -0.14453181457E+03  0.25909558845E+03  0.12500000000E+03 0.  0.
         25    1    1    2    0    0 -0.11258686186E+03 -0.13394131950E+03 -0.88795840539E+03  0.91362531064E+03  0.12500000000E+03 0.  0.
</event>
<event>
 4    0  0.2253506E-002  0.4404975E+03  0.7546771E-02  0.1030594E+00
         21   -1    0    0  502  501  0.00000000000E+00  0.00000000000E+00  0.50027462607E+03  0.50027462607E+03  0.00000000000E+00 0.  1.
         21   -1    0    0  501  502 -0.00000000000E+00 -0.00000000000E+00 -0.38786299759E+03  0.38786299759E+03  0.00000000000E+00 0.  1.
         25    1    1    2    0    0  0.49580248369E+02 -0.12561773908E+03  0.45966928883E+03  0.49513520627E+03  0.12500000000E+03 0.  0.
         25    1    1    2    0    0 -0.49580248369E+02  0.12561773908E+03 -0.34725766035E+03  0.39300241739E+03  0.12500000000E+03 0.  0.
</event>
<event>
 4    0  0.2253506E-002  0.1726976E+03  0.7546771E-02  0.1175064E+00
         21   -1    0    0  502  501  0.00000000000E+00  0.00000000000E+00  0.57230284620E+02  0.57230284620E+02  0.00000000000E+00 0. -1.
         21   -1    0    0  501  502 -0.00000000000E+00 -0.00000000000E+00 -0.52113048133E+03  0.52113048133E+03  0.00000000000E+00 0. -1.
         25    1    1    2    0    0  0.88951042061E+02 -0.68329955848E+02 -0.29930906004E+03  0.34320865982E+03  0.12500000000E+03 0.  0.
         25    1    1    2    0    0 -0.88951042061E+02  0.68329955848E+02 -0.16459113667E+03  0.23515210614E+03  0.12500000000E+03 0.  0.
</event>
<event>
 4    0  0.2253506E-002  0.4709053E+03  0.7546771E-02  0.1021665E+00
         21   -1    0    0  502  501  0.00000000000E+00  0.00000000000E+00  0.23806982228E+04  0.23806982228E+04  0.00000000000E+00 0.  1.
         21   -1    0    0  501  502 -0.00000000000E+00 -0.00000000000E+00 -0.93145711760E+02  0.93145711760E+02  0.00000000000E+00 0.  1.
         25    1    1    2    0    0  0.24867737712E+03  0.17510899696E+03  0.20291818558E+04  0.20556525978E+04  0.12500000000E+03 0.  0.
         25    1    1    2    0    0 -0.24867737712E+03 -0.17510899696E+03  0.25837065527E+03  0.41819133684E+03  0.12500000000E+03 0.  0.
</event>
<event>
 4    0  0.2253506E-002  0.2475801E+03  0.7546771E-02  0.1114844E+00
         21   -1    0    0  502  501  0.00000000000E+00  0.00000000000E+00  0.21151718021E+03  0.21151718021E+03  0.00000000000E+00 0. -1.
         21   -1    0    0  501  502 -0.00000000000E+00 -0.00000000000E+00 -0.28979163892E+03  0.28979163892E+03  0.00000000000E+00 0. -1.
         25    1    1    2    0    0 -0.37895538653E+02  0.19184735783E+03 -0.12640167619E+03  0.26427989765E+03  0.12500000000E+03 0.  0.
         25    1    1    2    0    0  0.37895538653E+02 -0.19184735783E+03  0.48127217485E+02  0.23702892148E+03  0.12500000000E+03 0.  0.
</event>
<event>
 4    0  0.2253506E-002  0.1612143E+03  0.7546771E-02  0.1187333E+00
         21   -1    0    0  502  501  0.00000000000E+00  0.00000000000E+00  0.58922159245E+03  0.58922159245E+03  0.00000000000E+00 0.  1.
         21   -1    0    0  501  502 -0.00000000000E+00 -0.00000000000E+00 -0.44109135564E+02  0.44109135564E+02  0.00000000000E+00 0.  1.
         25    1    1    2    0    0  0.96726283066E+02  0.13277057129E+02  0.21587130202E+03  0.26787622724E+03  0.12500000000E+03 0.  0.
         25    1    1    2    0    0 -0.96726283066E+02 -0.13277057129E+02  0.32924115487E+03  0.36545450078E+03  0.12500000000E+03 0.  0.
</event>
<event>
 4    0  0.2253506E-002  0.2720432E+03  0.7546771E-02  0.1100116E+00
         21   -1    0    0  502  501  0.00000000000E+00  0.00000000000E+00  0.25523182332E+02  0.25523182332E+02  0.00000000000E+00 0.  1.
         21   -1    0    0  501  502 -0.00000000000E+00 -0.00000000000E+00 -0.28996188543E+04  0.28996188543E+04  0.00000000000E+00 0.  1.
         25    1    1    2    0    0  0.52297272757E+02 -0.15860898747E+03 -0.23758253648E+04  0.23849660333E+04  0.12500000000E+03 0.  0.
         25    1    1    2    0    0 -0.52297272757E+02  0.15860898747E+03 -0.49827030717E+03  0.54017600340E+03  0.12500000000E+03 0.  0.
</event>
<event>
 4    0  0.2253506E-002  0.5543747E+03  0.7546771E-02  0.1000486E+00
         21   -1    0    0  502  501  0.00000000000E+00  0.00000000000E+00  0.42449897671E+03  0.42449897671E+03  0.00000000000E+00 0.  1.
         21   -1    0    0  501  502 -0.00000000000E+00 -0.00000000000E+00 -0.72398608018E+03  0.72398608018E+03  0.00000000000E+00 0.  1.
         25    1    1    2    0    0  0.44795383782E+03 -0.17853533010E+02  0.16225696673E+03  0.49288306191E+03  0.12500000000E+03 0.  0.
         25    1    1    2    0    0 -0.44795383782E+03  0.17853533010E+02 -0.46174407020E+03  0.65560199498E+03  0.12500000000E+03 0.  0.
</event>
<event>
 4    0  0.2253506E-002  0.2570160E+03  0.7546771E-02  0.1108949E+00
         21   -1    0    0  502  501  0.00000000000E+00  0.00000000000E+00  0.10053874624E+03  0.10053874624E+03  0.00000000000E+00 0. -1.
         21   -1    0    0  501  502 -0.00000000000E+00 -0.00000000000E+00 -0.65703242823E+03  0.65703242823E+03  0.00000000000E+00 0. -1.
         25    1    1    2    0    0  0.18655304713E+03  0.18703102664E+02 -0.96067023768E+02  0.24496064683E+03  0.12500000000E+03 0.  0.
         25    1    1    2    0    0 -0.18655304713E+03 -0.18703102664E+02 -0.46042665822E+03  0.51261052764E+03  0.12500000000E+03 0.  0.
</event>
<event>
 4    0  0.2253506E-002  0.2615183E+03  0.7546771E-02  0.1106234E+00
         21   -1    0    0  502  501  0.00000000000E+00  0.00000000000E+00  0.24871179018E+03  0.24871179018E+03  0.00000000000E+00 0.  1.
         21   -1    0    0  501  502 -0.00000000000E+00 -0.00000000000E+00 -0.27498420971E+03  0.27498420971E+03  0.00000000000E+00 0.  1.
         25    1    1    2    0    0 -0.12290961159E+02  0.22933075101E+03 -0.17954135117E+02  0.26208970230E+03  0.12500000000E+03 0.  0.
         25    1    1    2    0    0  0.12290961159E+02 -0.22933075101E+03 -0.83182844171E+01  0.26160629759E+03  0.12500000000E+03 0.  0.
</event>
<event>
 4    0  0.2253506E-002  0.1805207E+03  0.7546771E-02  0.1167300E+00
         21   -1    0    0  502  501  0.00000000000E+00  0.00000000000E+00  0.35289753142E+03  0.35289753142E+03  0.00000000000E+00 0.  1.
         21   -1    0    0  501  502 -0.00000000000E+00 -0.00000000000E+00 -0.92343254347E+02  0.92343254347E+02  0.00000000000E+00 0.  1.
         25    1    1    2    0    0  0.11152786521E+03 -0.32714405745E+02  0.57800205569E+02  0.18020699439E+03  0.12500000000E+03 0.  0.
         25    1    1    2    0    0 -0.11152786521E+03  0.32714405745E+02  0.20275407151E+03  0.26503379138E+03  0.12500000000E+03 0.  0.
</event>
<event>
 4    0  0.2253506E-002  0.2089882E+03  0.7546771E-02  0.1142370E+00
         21   -1    0    0  502  501  0.00000000000E+00  0.00000000000E+00  0.20237833879E+03  0.20237833879E+03  0.00000000000E+00 0. -1.
         21   -1    0    0  501  502 -0.00000000000E+00 -0.00000000000E+00 -0.21581384244E+03  0.21581384244E+03  0.00000000000E+00 0. -1.
         25    1    1    2    0    0  0.15081747366E+03  0.66882958560E+02  0.22138198617E+02  0.20816901869E+03  0.12500000000E+03 0.  0.
         25    1    1    2    0    0 -0.15081747366E+03 -0.66882958560E+02 -0.35573702266E+02  0.21002316253E+03  0.12500000000E+03 0.  0.
</event>
<event>
 4    0  0.2253506E-002  0.3075716E+03  0.7546771E-02  0.1081516E+00
         21   -1    0    0  502  501  0.00000000000E+00  0.00000000000E+00  0.13088923104E+04  0.13088923104E+04  0.00000000000E+00 0.  1.
         21   -1    0    0  501  502 -0.00000000000E+00 -0.00000000000E+00 -0.72275063740E+02  0.72275063740E+02  0.00000000000E+00 0.  1.
         25    1    1    2    0    0  0.22083504781E+03  0.29812420406E+02  0.10027588077E+04  0.10347981084E+04  0.12500000000E+03 0.  0.
         25    1    1    2    0    0 -0.22083504781E+03 -0.29812420406E+02  0.23385843889E+03  0.34636926566E+03  0.12500000000E+03 0.  0.
</event>
<event>
 4    0  0.2253506E-002  0.1604987E+03  0.7546771E-02  0.1188135E+00
         21   -1    0    0  502  501  0.00000000000E+00  0.00000000000E+00  0.60567700206E+03  0.60567700206E+03  0.00000000000E+00 0.  1.
         21   -1    0    0  501  502 -0.00000000000E+00 -0.00000000000E+00 -0.42530630047E+02  0.42530630047E+02  0.00000000000E+00 0. -1.
         25    1    1    2    0    0 -0.10017490154E+03  0.65768428686E+01  0.26638651561E+03  0.31091002148E+03  0.12500000000E+03 0.  0.
         25    1    1    2    0    0  0.10017490154E+03 -0.65768428686E+01  0.29675985640E+03  0.33729761062E+03  0.12500000000E+03 0.  0.
</event>
<event>
 4    0  0.2253506E-002  0.2421459E+03  0.7546771E-02  0.1118372E+00
         21   -1    0    0  502  501  0.00000000000E+00  0.00000000000E+00  0.81860060977E+02  0.81860060977E+02  0.00000000000E+00 0.  1.
         21   -1    0    0  501  502 -0.00000000000E+00 -0.00000000000E+00 -0.71627877335E+03  0.71627877335E+03  0.00000000000E+00 0.  1.
         25    1    1    2    0    0  0.11875598228E+02 -0.20303372059E+03 -0.25034826943E+03  0.34592336945E+03  0.12500000000E+03 0.  0.
         25    1    1    2    0    0 -0.11875598228E+02  0.20303372059E+03 -0.38407044295E+03  0.45221546488E+03  0.12500000000E+03 0.  0.
</event>
<event>
 4    0  0.2253506E-002  0.2774242E+03  0.7546771E-02  0.1097104E+00
         21   -1    0    0  502  501  0.00000000000E+00  0.00000000000E+00  0.91178120985E+03  0.91178120985E+03  0.00000000000E+00 0.  1.
         21   -1    0    0  501  502 -0.00000000000E+00 -0.00000000000E+00 -0.84410833668E+02  0.84410833668E+02  0.00000000000E+00 0.  1.
         25    1    1    2    0    0  0.77048864579E+02  0.22098923453E+03  0.26819498839E+03  0.37726160831E+03  0.12500000000E+03 0.  0.
         25    1    1    2    0    0 -0.77048864579E+02 -0.22098923453E+03  0.55917538780E+03  0.61893043521E+03  0.12500000000E+03 0.  0.
</event>
<event>
 4    0  0.2253506E-002  0.1961594E+03  0.7546771E-02  0.1153020E+00
         21   -1    0    0  502  501  0.00000000000E+00  0.00000000000E+00  0.30077919350E+03  0.30077919350E+03  0.00000000000E+00 0. -1.
         21   -1    0    0  501  502 -0.00000000000E+00 -0.00000000000E+00 -0.12792943746E+03  0.12792943746E+03  0.00000000000E+00 0. -1.
         25    1    1    2    0    0 -0.77314467721E+02 -0.28278039052E+02  0.22497811085E+03  0.27021718076E+03  0.12500000000E+03 0.  0.
         25    1    1    2    0    0  0.77314467721E+02  0.28278039052E+02 -0.52128354822E+02  0.15849145021E+03  0.12500000000E+03 0.  0.
</event>
<event>
 4    0  0.2253506E-002  0.1758342E+03  0.7546771E-02  0.1171897E+00
         21   -1    0    0  502  501  0.00000000000E+00  0.00000000000E+00  0.88002965568E+02  0.88002965568E+02  0.00000000000E+00 0.  1.
         21   -1    0    0  501  502 -0.00000000000E+00 -0.00000000000E+00 -0.35132526552E+03  0.35132526552E+03  0.00000000000E+00 0.  1.
         25    1    1    2    0    0  0.51650389049E+02  0.94628217332E+02 -0.55975656171E+02  0.17430013278E+03  0.12500000000E+03 0.  0.
         25    1    1    2    0    0 -0.51650389049E+02 -0.94628217332E+02 -0.20734664379E+03  0.26502809831E+03  0.12500000000E+03 0.  0.
</event>
<event>
 4    0  0.2253506E-002  0.2465757E+03  0.7546771E-02  0.1115488E+00
         21   -1    0    0  502  501  0.00000000000E+00  0.00000000000E+00  0.14051901768E+03  0.14051901768E+03  0.00000000000E+00 0. -1.
         21   -1    0    0  501  502 -0.00000000000E+00 -0.00000000000E+00 -0.43267876984E+03  0.43267876984E+03  0.00000000000E+00 0. -1.
         25    1    1    2    0    0  0.86714697742E+02 -0.16881589275E+03 -0.34859236929E+02  0.22990957102E+03  0.12500000000E+03 0.  0.
         25    1    1    2    0    0 -0.86714697742E+02  0.16881589275E+03 -0.25730051523E+03  0.34328821650E+03  0.12500000000E+03 0.  0.
</event>
<event>
 4    0  0.2253506E-002  0.7991856E+03  0.7546771E-02  0.9561197E-01
         21   -1    0    0  502  501  0.00000000000E+00  0.00000000000E+00  0.63549055937E+03  0.63549055937E+03  0.00000000000E+00 0.  1.
         21   -1    0    0  501  502 -0.00000000000E+00 -0.00000000000E+00 -0.10050465629E+04  0.10050465629E+04  0.00000000000E+00 0.  1.
         25    1    1    2    0    0  0.66440434868E+03  0.36245915565E+03 -0.41488608140E+03  0.87210391502E+03  0.12500000000E+03 0.  0.
         25    1    1    2    0    0 -0.66440434868E+03 -0.36245915565E+03  0.45330077853E+02  0.76843320726E+03  0.12500000000E+03 0.  0.
</event>
<event>
 4    0  0.2253506E-002  0.2025537E+03  0.7546771E-02  0.1147602E+00
         21   -1    0    0  502  501  0.00000000000E+00  0.00000000000E+00  0.60831214935E+03  0.60831214935E+03  0.00000000000E+00 0. -1.
         21   -1    0    0  501  502 -0.00000000000E+00 -0.00000000000E+00 -0.67445656163E+02  0.67445656163E+02  0.00000000000E+00 0. -1.
         25    1    1    2    0    0  0.12260794928E+02 -0.13612233694E+03  0.13365559885E+03  0.22840410856E+03  0.12500000000E+03 0.  0.
         25    1    1    2    0    0 -0.12260794928E+02  0.13612233694E+03  0.40721089433E+03  0.44735369694E+03  0.12500000000E+03 0.  0.
</event>
<event>
 4    0  0.2253506E-002  0.2369439E+03  0.7546771E-02  0.1121846E+00
         21   -1    0    0  502  501  0.00000000000E+00  0.00000000000E+00  0.21579459286E+03  0.21579459286E+03  0.00000000000E+00 0. -1.
         21   -1    0    0  501  502 -0.00000000000E+00 -0.00000000000E+00 -0.26016592772E+03  0.26016592772E+03  0.00000000000E+00 0. -1.
         25    1    1    2    0    0  0.16803237983E+03 -0.10804683105E+03 -0.46959362627E+02  0.24028978362E+03  0.12500000000E+03 0.  0.
         25    1    1    2    0    0 -0.16803237983E+03  0.10804683105E+03  0.25880277743E+01  0.23567073696E+03  0.12500000000E+03 0.  0.
</event>
<event>
 4    0  0.2253506E-002  0.2045287E+03  0.7546771E-02  0.1145973E+00
         21   -1    0    0  502  501  0.00000000000E+00  0.00000000000E+00  0.25385970530E+03  0.25385970530E+03  0.00000000000E+00 0. -1.
         21   -1    0    0  501  502 -0.00000000000E+00 -0.00000000000E+00 -0.16478386054E+03  0.16478386054E+03  0.00000000000E+00 0. -1.
         25    1    1    2    0    0 -0.45941739758E+02  0.15517473672E+03  0.48774980638E+02  0.21022331247E+03  0.12500000000E+03 0.  0.
         25    1    1    2    0    0  0.45941739758E+02 -0.15517473672E+03  0.40300864117E+02  0.20842025337E+03  0.12500000000E+03 0.  0.
</event>
<event>
 4    0  0.2253506E-002  0.3355270E+03  0.7546771E-02  0.1068717E+00
         21   -1    0    0  502  501  0.00000000000E+00  0.00000000000E+00  0.10153148033E+03  0.10153148033E+03  0.00000000000E+00 0.  1.
         21   -1    0    0  501  502 -0.00000000000E+00 -0.00000000000E+00 -0.11088022741E+04  0.11088022741E+04  0.00000000000E+00 0. -1.
         25    1    1    2    0    0 -0.56733342344E+02 -0.30616114462E+03 -0.50387517649E+03  0.60536642795E+03  0.12500000000E+03 0.  0.
         25    1    1    2    0    0  0.56733342344E+02  0.30616114462E+03 -0.50339561731E+03  0.60496732650E+03  0.12500000000E+03 0.  0.
</event>
<event>
 4    0  0.2253506E-002  0.1851238E+03  0.7546771E-02  0.1162934E+00
         21   -1    0    0  502  501  0.00000000000E+00  0.00000000000E+00  0.86013675910E+02  0.86013675910E+02  0.00000000000E+00 0. -1.
         21   -1    0    0  501  502 -0.00000000000E+00 -0.00000000000E+00 -0.39843442453E+03  0.39843442453E+03  0.00000000000E+00 0. -1.
         25    1    1    2    0    0 -0.10894191711E+03 -0.58732265021E+02 -0.23169283246E+03  0.29090271376E+03  0.12500000000E+03 0.  0.
         25    1    1    2    0    0  0.10894191711E+03  0.58732265021E+02 -0.80727916162E+02  0.19354538668E+03  0.12500000000E+03 0.  0.
</event>
<event>
 4    0  0.2253506E-002  0.1871647E+03  0.7546771E-02  0.1161044E+00
         21   -1    0    0  502  501  0.00000000000E+00  0.00000000000E+00  0.11555407388E+03  0.11555407388E+03  0.00000000000E+00 0.  1.
         21   -1    0    0  501  502 -0.00000000000E+00 -0.00000000000E+00 -0.30315343857E+03  0.30315343857E+03  0.00000000000E+00 0.  1.
         25    1    1    2    0    0  0.34643139218E+01  0.90733345122E+02 -0.21197039660E+03  0.26229942894E+03  0.12500000000E+03 0.  0.
         25    1    1    2    0    0 -0.34643139218E+01 -0.90733345122E+02  0.24371031917E+02  0.15640808350E+03  0.12500000000E+03 0.  0.
</event>
<event>
 4    0  0.2253506E-002  0.5509844E+03  0.7546771E-02  0.1001266E+00
         21   -1    0    0  502  501  0.00000000000E+00  0.00000000000E+00  0.22300252465E+03  0.22300252465E+03  0.00000000000E+00 0.  1.
         21   -1    0    0  501  502 -0.00000000000E+00 -0.00000000000E+00 -0.13613471189E+04  0.13613471189E+04  0.00000000000E+00 0.  1.
         25    1    1    2    0    0 -0.50663641405E+03  0.14360606066E+03 -0.42075912445E+03  0.68554095246E+03  0.12500000000E+03 0.  0.
         25    1    1    2    0    0  0.50663641405E+03 -0.14360606066E+03 -0.71758546975E+03  0.89880869104E+03  0.12500000000E+03 0.  0.
</event>
<event>
 4    0  0.2253506E-002  0.2066801E+03  0.7546771E-02  0.1144222E+00
         21   -1    0    0  502  501  0.00000000000E+00  0.00000000000E+00  0.35823325296E+03  0.35823325296E+03  0.00000000000E+00 0. -1.
         21   -1    0    0  501  502 -0.00000000000E+00 -0.00000000000E+00 -0.11924254246E+03  0.11924254246E+03  0.00000000000E+00 0. -1.
         25    1    1    2    0    0  0.13592078244E+03  0.53696141246E+02  0.20696315633E+03  0.28251811050E+03  0.12500000000E+03 0.  0.
         25    1    1    2    0    0 -0.13592078244E+03 -0.53696141246E+02  0.32027554171E+02  0.19495768492E+03  0.12500000000E+03 0.  0.
</event>
<event>
 4    0  0.2253506E-002  0.2097708E+03  0.7546771E-02  0.1141748E+00
         21   -1    0    0  502  501  0.00000000000E+00  0.00000000000E+00  0.30970639583E+03  0.30970639583E+03  0.00000000000E+00 0. -1.
         21   -1    0    0  501  502 -0.00000000000E+00 -0.00000000000E+00 -0.14208227092E+03  0.14208227092E+03  0.00000000000E+00 0. -1.
         25    1    1    2    0    0  0.68961675056E+02 -0.77654622591E+02  0.22664495109E+03  0.27888866397E+03  0.12500000000E+03 0.  0.
         25    1    1    2    0    0 -0.68961675056E+02  0.77654622591E+02 -0.59020826181E+02  0.17290000277E+03  0.12500000000E+03 0.  0.
</event>
<event>
 4    0  0.2253506E-002  0.2063067E+03  0.7546771E-02  0.1144525E+00
         21   -1    0    0  502  501  0.00000000000E+00  0.00000000000E+00  0.89823220783E+03  0.89823220783E+03  0.00000000000E+00 0. -1.
         21   -1    0    0  501  502 -0.00000000000E+00 -0.00000000000E+00 -0.47384675969E+02  0.47384675969E+02  0.00000000000E+00 0. -1.
         25    1    1    2    0    0  0.16341864663E+03  0.14708373109E+02  0.41641507661E+03  0.46470259987E+03  0.12500000000E+03 0.  0.
         25    1    1    2    0    0 -0.16341864663E+03 -0.14708373109E+02  0.43443245526E+03  0.48091428393E+03  0.12500000000E+03 0.  0.
</event>
<event>
 4    0  0.2253506E-002  0.1893567E+03  0.7546771E-02  0.1159043E+00
         21   -1    0    0  502  501  0.00000000000E+00  0.00000000000E+00  0.13897936322E+03  0.13897936322E+03  0.00000000000E+00 0. -1.
         21   -1    0    0  501  502 -0.00000000000E+00 -0.00000000000E+00 -0.25799498472E+03  0.25799498472E+03  0.00000000000E+00 0. -1.
         25    1    1    2    0    0 -0.40424912513E+02 -0.10948156991E+03 -0.14473375104E+03  0.22403849310E+03  0.12500000000E+03 0.  0.
         25    1    1    2    0    0  0.40424912513E+02  0.10948156991E+03  0.25718129538E+02  0.17293585484E+03  0.12500000000E+03 0.  0.
</event>
<event>
 4    0  0.2253506E-002  0.3830631E+03  0.7546771E-02  0.1049807E+00
         21   -1    0    0  502  501  0.00000000000E+00  0.00000000000E+00  0.83167413871E+03  0.83167413871E+03  0.00000000000E+00 0. -1.
         21   -1    0    0  501  502 -0.00000000000E+00 -0.00000000000E+00 -0.17643612944E+03  0.17643612944E+03  0.00000000000E+00 0.  1.
         25    1    1    2    0    0  0.35946236891E+03 -0.39770508374E+02  0.30417323506E+03  0.48881616680E+03  0.12500000000E+03 0.  0.
         25    1    1    2    0    0 -0.35946236891E+03  0.39770508374E+02  0.35106477422E+03  0.51929410135E+03  0.12500000000E+03 0.  0.
</event>
<event>
 4    0  0.2253506E-002  0.2396032E+03  0.7546771E-02  0.1120057E+00
         21   -1    0    0  502  501  0.00000000000E+00  0.00000000000E+00  0.22613522905E+03  0.22613522905E+03  0.00000000000E+00 0.  1.
         21   -1    0    0  501  502 -0.00000000000E+00 -0.00000000000E+00 -0.25387336555E+03  0.25387336555E+03  0.00000000000E+00 0.  1.
         25    1    1    2    0    0  0.15767629532E+03 -0.10704860677E+03  0.60170102246E+02  0.23572581429E+03  0.12500000000E+03 0.  0.
         25    1    1    2    0    0 -0.15767629532E+03  0.10704860677E+03 -0.87908238745E+02  0.24428278031E+03  0.12500000000E+03 0.  0.
</event>
<event>
 4    0  0.2253506E-002  0.2157954E+03  0.7546771E-02  0.1137057E+00
         21   -1    0    0  502  501  0.00000000000E+00  0.00000000000E+00  0.22356323556E+03  0.22356323556E+03  0.00000000000E+00 0.  1.
         21   -1    0    0  501  502 -0.00000000000E+00 -0.00000000000E+00 -0.20829755760E+03  0.20829755760E+03  0.00000000000E+00 0.  1.
         25    1    1    2    0    0 -0.17085240552E+02  0.16189581837E+03 -0.59046017921E+02  0.21357339180E+03  0.12500000000E+03 0.  0.
         25    1    1    2    0    0  0.17085240552E+02 -0.16189581837E+03  0.74311695886E+02  0.21828740137E+03  0.12500000000E+03 0.  0.
</event>
<event>
 4    0  0.2253506E-002  0.2492465E+03  0.7546771E-02  0.1113782E+00
         21   -1    0    0  502  501  0.00000000000E+00  0.00000000000E+00  0.37221544732E+03  0.37221544732E+03  0.00000000000E+00 0.  1.
         21   -1    0    0  501  502 -0.00000000000E+00 -0.00000000000E+00 -0.16690286562E+03  0.16690286562E+03  0.00000000000E+00 0.  1.
         25    1    1    2    0    0  0.11791225921E+03 -0.59883786770E+02  0.28685848029E+03  0.33970892909E+03  0.12500000000E+03 0.  0.
         25    1    1    2    0    0 -0.11791225921E+03  0.59883786770E+02 -0.81545898590E+02  0.19940938385E+03  0.12500000000E+03 0.  0.
</event>
<event>
 4    0  0.2253506E-002  0.1837911E+03  0.7546771E-02  0.1164184E+00
         21   -1    0    0  502  501  0.00000000000E+00  0.00000000000E+00  0.40293211893E+03  0.40293211893E+03  0.00000000000E+00 0.  1.
         21   -1    0    0  501  502 -0.00000000000E+00 -0.00000000000E+00 -0.83833390774E+02  0.83833390774E+02  0.00000000000E+00 0.  1.
         25    1    1    2    0    0  0.11971991105E+03  0.37688572344E+02  0.22443530207E+03  0.28591867795E+03  0.12500000000E+03 0.  0.
         25    1    1    2    0    0 -0.11971991105E+03 -0.37688572344E+02  0.94663426078E+02  0.20084683175E+03  0.12500000000E+03 0.  0.
</event>
<event>
 4    0  0.2253506E-002  0.2200701E+03  0.7546771E-02  0.1133831E+00
         21   -1    0    0  502  501  0.00000000000E+00  0.00000000000E+00  0.16954760187E+03  0.16954760187E+03  0.00000000000E+00 0. -1.
         21   -1    0    0  501  502 -0.00000000000E+00 -0.00000000000E+00 -0.28564741792E+03  0.28564741792E+03  0.00000000000E+00 0. -1.
         25    1    1    2    0    0  0.96168084123E+02  0.56959401280E+02 -0.20544916130E+03  0.26519244272E+03  0.12500000000E+03 0.  0.
         25    1    1    2    0    0 -0.96168084123E+02 -0.56959401280E+02  0.89349345251E+02  0.19000257707E+03  0.12500000000E+03 0.  0.
</event>
<event>
 4    0  0.2253506E-002  0.2297226E+03  0.7546771E-02  0.1126835E+00
         21   -1    0    0  502  501  0.00000000000E+00  0.00000000000E+00  0.24060556461E+03  0.24060556461E+03  0.00000000000E+00 0. -1.
         21   -1    0    0  501  502 -0.00000000000E+00 -0.00000000000E+00 -0.21933197425E+03  0.21933197425E+03  0.00000000000E+00 0. -1.
         25    1    1    2    0    0 -0.82322669339E+02  0.66391995140E+02 -0.15066490032E+03  0.22250804726E+03  0.12500000000E+03 0.  0.
         25    1    1    2    0    0  0.82322669339E+02 -0.66391995140E+02  0.17193849068E+03  0.23742949160E+03  0.12500000000E+03 0.  0.
</event>
<event>
 4    0  0.2253506E-002  0.2871266E+03  0.7546771E-02  0.1091859E+00
         21   -1    0    0  502  501  0.00000000000E+00  0.00000000000E+00  0.10452286045E+04  0.10452286045E+04  0.00000000000E+00 0. -1.
         21   -1    0    0  501  502 -0.00000000000E+00 -0.00000000000E+00 -0.78874285735E+02  0.78874285735E+02  0.00000000000E+00 0. -1.
         25    1    1    2    0    0 -0.23604227853E+02  0.86141835152E+02  0.83498836337E+01  0.15385803811E+03  0.12500000000E+03 0.  0.
         25    1    1    2    0    0  0.23604227853E+02 -0.86141835152E+02  0.95800443511E+03  0.97024485210E+03  0.12500000000E+03 0.  0.
</event>
<event>
 4    0  0.2253506E-002  0.1725914E+03  0.7546771E-02  0.1175172E+00
         21   -1    0    0  502  501  0.00000000000E+00  0.00000000000E+00  0.67819933529E+03  0.67819933529E+03  0.00000000000E+00 0.  1.
         21   -1    0    0  501  502 -0.00000000000E+00 -0.00000000000E+00 -0.43921878621E+02  0.43921878621E+02  0.00000000000E+00 0.  1.
         25    1    1    2    0    0 -0.10753831125E+02 -0.47806816446E+02  0.54401816889E+03  0.56034088256E+03  0.12500000000E+03 0.  0.
         25    1    1    2    0    0  0.10753831125E+02  0.47806816446E+02  0.90259287779E+02  0.16178033135E+03  0.12500000000E+03 0.  0.
</event>
<event>
 4    0  0.2253506E-002  0.2919282E+03  0.7546771E-02  0.1089347E+00
         21   -1    0    0  502  501  0.00000000000E+00  0.00000000000E+00  0.11714650898E+03  0.11714650898E+03  0.00000000000E+00 0.  1.
         21   -1    0    0  501  502 -0.00000000000E+00 -0.00000000000E+00 -0.72748287889E+03  0.72748287889E+03  0.00000000000E+00 0.  1.
         25    1    1    2    0    0 -0.20591058447E+03  0.10931642020E+03 -0.48380220203E+03  0.55139715198E+03  0.12500000000E+03 0.  0.
         25    1    1    2    0    0  0.20591058447E+03 -0.10931642020E+03 -0.12653416788E+03  0.29323223589E+03  0.12500000000E+03 0.  0.
</event>
<event>
 4    0  0.2253506E-002  0.1470384E+03  0.7546771E-02  0.1204160E+00
         21   -1    0    0  502  501  0.00000000000E+00  0.00000000000E+00  0.72898298450E+02  0.72898298450E+02  0.00000000000E+00 0. -1.
         21   -1    0    0  501  502 -0.00000000000E+00 -0.00000000000E+00 -0.29658160683E+03  0.29658160683E+03  0.00000000000E+00 0. -1.
         25    1    1    2    0    0  0.42068890115E+02  0.24183147667E+02 -0.36032582159E+02  0.13884510479E+03  0.12500000000E+03 0.  0.
         25    1    1    2    0    0 -0.42068890115E+02 -0.24183147667E+02 -0.18765072622E+03  0.23063480049E+03  0.12500000000E+03 0.  0.
</event>
<event>
 4    0  0.2253506E-002  0.1656877E+03  0.7546771E-02  0.1182421E+00
         21   -1    0    0  502  501  0.00000000000E+00  0.00000000000E+00  0.11209351349E+04  0.11209351349E+04  0.00000000000E+00 0. -1.
         21   -1    0    0  501  502 -0.00000000000E+00 -0.00000000000E+00 -0.24490623496E+02  0.24490623496E+02  0.00000000000E+00 0. -1.
         25    1    1    2    0    0 -0.71808059090E+02  0.49706136291E+02  0.32420209787E+03  0.35827237906E+03  0.12500000000E+03 0.  0.
         25    1    1    2    0    0  0.71808059090E+02 -0.49706136291E+02  0.77224241353E+03  0.78715337933E+03  0.12500000000E+03 0.  0.
</event>
<event>
 4    0  0.2253506E-002  0.1813868E+03  0.7546771E-02  0.1166468E+00
         21   -1    0    0  502  501  0.00000000000E+00  0.00000000000E+00  0.21159366974E+03  0.21159366974E+03  0.00000000000E+00 0.  1.
         21   -1    0    0  501  502 -0.00000000000E+00 -0.00000000000E+00 -0.15549229836E+03  0.15549229836E+03  0.00000000000E+00 0.  1.
         25    1    1    2    0    0 -0.70773170889E+02 -0.10485925081E+03  0.64138068999E+02  0.18905818177E+03  0.12500000000E+03 0.  0.
         25    1    1    2    0    0  0.70773170889E+02  0.10485925081E+03 -0.80366976217E+01  0.17802778634E+03  0.12500000000E+03 0.  0.
</event>
<event>
 4    0  0.2253506E-002  0.3631252E+03  0.7546771E-02  0.1057353E+00
         21   -1    0    0  502  501  0.00000000000E+00  0.00000000000E+00  0.13805680091E+03  0.13805680091E+03  0.00000000000E+00 0. -1.
         21   -1    0    0  501  502 -0.00000000000E+00 -0.00000000000E+00 -0.95511329240E+03  0.95511329240E+03  0.00000000000E+00 0. -1.
         25    1    1    2    0    0 -0.19477174324E+03 -0.24051655719E+03 -0.62378403689E+03  0.70747139230E+03  0.12500000000E+03 0.  0.
         25    1    1    2    0    0  0.19477174324E+03  0.24051655719E+03 -0.19327245460E+03  0.38569870100E+03  0.12500000000E+03 0.  0.
</event>
<event>
 4    0  0.2253506E-002  0.2575085E+03  0.7546771E-02  0.1108649E+00
         21   -1    0    0  502  501  0.00000000000E+00  0.00000000000E+00  0.14099056592E+03  0.14099056592E+03  0.00000000000E+00 0.  1.
         21   -1    0    0  501  502 -0.00000000000E+00 -0.00000000000E+00 -0.47031970821E+03  0.47031970821E+03  0.00000000000E+00 0.  1.
         25    1    1    2    0    0 -0.10099539047E+03  0.25994940901E+02  0.72164645027E+02  0.17806892441E+03  0.12500000000E+03 0.  0.
         25    1    1    2    0    0  0.10099539047E+03 -0.25994940901E+02 -0.40149378732E+03  0.43324134972E+03  0.12500000000E+03 0.  0.
</event>
<event>
 4    0  0.2253506E-002  0.1892745E+03  0.7546771E-02  0.1159117E+00
         21   -1    0    0  502  501  0.00000000000E+00  0.00000000000E+00  0.94645189368E+02  0.94645189368E+02  0.00000000000E+00 0. -1.
         21   -1    0    0  501  502 -0.00000000000E+00 -0.00000000000E+00 -0.37851707224E+03  0.37851707224E+03  0.00000000000E+00 0. -1.
         25    1    1    2    0    0 -0.33179985841E+02  0.32960953244E+02  0.25818837071E+02  0.13593729528E+03  0.12500000000E+03 0.  0.
         25    1    1    2    0    0  0.33179985841E+02 -0.32960953244E+02 -0.30969071994E+03  0.33722496633E+03  0.12500000000E+03 0.  0.
</event>
<event>
 4    0  0.2253506E-002  0.2577531E+03  0.7546771E-02  0.1108501E+00
         21   -1    0    0  502  501  0.00000000000E+00  0.00000000000E+00  0.59579785144E+03  0.59579785144E+03  0.00000000000E+00 0.  1.
         21   -1    0    0  501  502 -0.00000000000E+00 -0.00000000000E+00 -0.11150870958E+03  0.11150870958E+03  0.00000000000E+00 0.  1.
         25    1    1    2    0    0  0.15477030795E+03 -0.10076449059E+03  0.41947702102E+03  0.47507189135E+03  0.12500000000E+03 0.  0.
         25    1    1    2    0    0 -0.15477030795E+03  0.10076449059E+03  0.64812120844E+02  0.23223466967E+03  0.12500000000E+03 0.  0.
</event>
<event>
 4    0  0.2253506E-002  0.2156362E+03  0.7546771E-02  0.1137179E+00
         21   -1    0    0  502  501  0.00000000000E+00  0.00000000000E+00  0.85306181694E+03  0.85306181694E+03  0.00000000000E+00 0.  1.
         21   -1    0    0  501  502 -0.00000000000E+00 -0.00000000000E+00 -0.54508340793E+02  0.54508340793E+02  0.00000000000E+00 0.  1.
         25    1    1    2    0    0  0.17522562679E+03 -0.10291006664E+02  0.38243375532E+03  0.43896526322E+03  0.12500000000E+03 0.  0.
         25    1    1    2    0    0 -0.17522562679E+03  0.10291006664E+02  0.41611972083E+03  0.46860489451E+03  0.12500000000E+03 0.  0.
</event>
<event>
 4    0  0.2253506E-002  0.3251803E+03  0.7546771E-02  0.1073290E+00
         21   -1    0    0  502  501  0.00000000000E+00  0.00000000000E+00  0.41449590617E+03  0.41449590617E+03  0.00000000000E+00 0. -1.
         21   -1    0    0  501  502 -0.00000000000E+00 -0.00000000000E+00 -0.25511050479E+03  0.25511050479E+03  0.00000000000E+00 0. -1.
         25    1    1    2    0    0  0.20081509162E+03 -0.11598051448E+03 -0.11657655349E+03  0.28808553171E+03  0.12500000000E+03 0.  0.
         25    1    1    2    0    0 -0.20081509162E+03  0.11598051448E+03  0.27596195488E+03  0.38152087925E+03  0.12500000000E+03 0.  0.
</event>
<event>
 4    0  0.2253506E-002  0.5747917E+03  0.7546771E-02  0.9959131E-01
         21   -1    0    0  502  501  0.00000000000E+00  0.00000000000E+00  0.71932741545E+03  0.71932741545E+03  0.00000000000E+00 0. -1.
         21   -1    0    0  501  502 -0.00000000000E+00 -0.00000000000E+00 -0.45929781599E+03  0.45929781599E+03  0.00000000000E+00 0. -1.
         25    1    1    2    0    0 -0.38913760513E+03 -0.34377596255E+03 -0.87839749485E+02  0.54124930461E+03  0.12500000000E+03 0.  0.
         25    1    1    2    0    0  0.38913760513E+03  0.34377596255E+03  0.34786934895E+03  0.63737592683E+03  0.12500000000E+03 0.  0.
</event>
<event>
 4    0  0.2253506E-002  0.1865222E+03  0.7546771E-02  0.1161636E+00
         21   -1    0    0  502  501  0.00000000000E+00  0.00000000000E+00  0.18720318190E+02  0.18720318190E+02  0.00000000000E+00 0. -1.
         21   -1    0    0  501  502 -0.00000000000E+00 -0.00000000000E+00 -0.18584366599E+04  0.18584366599E+04  0.00000000000E+00 0. -1.
         25    1    1    2    0    0  0.11233884803E+03  0.15596931367E+02 -0.13193314436E+04  0.13300841098E+04  0.12500000000E+03 0.  0.
         25    1    1    2    0    0 -0.11233884803E+03 -0.15596931367E+02 -0.52038489806E+03  0.54707286825E+03  0.12500000000E+03 0.  0.
</event>
<event>
 4    0  0.2253506E-002  0.2473730E+03  0.7546771E-02  0.1114976E+00
         21   -1    0    0  502  501  0.00000000000E+00  0.00000000000E+00  0.10578716396E+04  0.10578716396E+04  0.00000000000E+00 0.  1.
         21   -1    0    0  501  502 -0.00000000000E+00 -0.00000000000E+00 -0.57845755440E+02  0.57845755440E+02  0.00000000000E+00 0.  1.
         25    1    1    2    0    0 -0.81501657022E+02 -0.12071356364E+03  0.14808154646E+03  0.24241994338E+03  0.12500000000E+03 0.  0.
         25    1    1    2    0    0  0.81501657022E+02  0.12071356364E+03  0.85194433773E+03  0.87329745170E+03  0.12500000000E+03 0.  0.
</event>
<event>
 4    0  0.2253506E-002  0.2042205E+03  0.7546771E-02  0.1146226E+00
         21   -1    0    0  502  501  0.00000000000E+00  0.00000000000E+00  0.13971316826E+03  0.13971316826E+03  0.00000000000E+00 0.  1.
         21   -1    0    0  501  502 -0.00000000000E+00 -0.00000000000E+00 -0.29851179673E+03  0.29851179673E+03  0.00000000000E+00 0.  1.
         25    1    1    2    0    0  0.12903785225E+03 -0.90335534467E+02 -0.11763133786E+03  0.23296653783E+03  0.12500000000E+03 0.  0.
         25    1    1    2    0    0 -0.12903785225E+03  0.90335534467E+02 -0.41167290612E+02  0.20525842715E+03  0.12500000000E+03 0.  0.
</event>
<event>
 4    0  0.2253506E-002  0.3418362E+03  0.7546771E-02  0.1066017E+00
         21   -1    0    0  502  501  0.00000000000E+00  0.00000000000E+00  0.13532875002E+03  0.13532875002E+03  0.00000000000E+00 0.  1.
         21   -1    0    0  501  502 -0.00000000000E+00 -0.00000000000E+00 -0.86346735444E+03  0.86346735444E+03  0.00000000000E+00 0.  1.
         25    1    1    2    0    0  0.16851938210E+03 -0.20669525603E+03 -0.61755294705E+03  0.68419175194E+03  0.12500000000E+03 0.  0.
         25    1    1    2    0    0 -0.16851938210E+03  0.20669525603E+03 -0.11058565736E+03  0.31460435252E+03  0.12500000000E+03 0.  0.
</event>
<event>
 4    0  0.2253506E-002  0.2458877E+03  0.7546771E-02  0.1115932E+00
         21   -1    0    0  502  501  0.00000000000E+00  0.00000000000E+00  0.17659627410E+03  0.17659627410E+03  0.00000000000E+00 0.  1.
         21   -1    0    0  501  502 -0.00000000000E+00 -0.00000000000E+00 -0.34236704696E+03  0.34236704696E+03  0.00000000000E+00 0.  1.
         25    1    1    2    0    0  0.44778849455E+02  0.16671898758E+03  0.46512477547E+02  0.21814851992E+03  0.12500000000E+03 0.  0.
         25    1    1    2    0    0 -0.44778849455E+02 -0.16671898758E+03 -0.21228325041E+03  0.30081480113E+03  0.12500000000E+03 0.  0.
</event>
<event>
 4    0  0.2253506E-002  0.2085038E+03  0.7546771E-02  0.1142756E+00
         21   -1    0    0  502  501  0.00000000000E+00  0.00000000000E+00  0.11280080634E+04  0.11280080634E+04  0.00000000000E+00 0. -1.
         21   -1    0    0  501  502 -0.00000000000E+00 -0.00000000000E+00 -0.38540346315E+02  0.38540346315E+02  0.00000000000E+00 0. -1.
         25    1    1    2    0    0 -0.60761560662E+01 -0.12990018956E+03  0.83730042459E+03  0.85650918263E+03  0.12500000000E+03 0.  0.
         25    1    1    2    0    0  0.60761560662E+01  0.12990018956E+03  0.25216729245E+03  0.31003922704E+03  0.12500000000E+03 0.  0.
</event>
<event>
 4    0  0.2253506E-002  0.1891156E+03  0.7546771E-02  0.1159261E+00
         21   -1    0    0  502  501  0.00000000000E+00  0.00000000000E+00  0.16416142488E+04  0.16416142488E+04  0.00000000000E+00 0.  1.
         21   -1    0    0  501  502 -0.00000000000E+00 -0.00000000000E+00 -0.21786296042E+02  0.21786296042E+02  0.00000000000E+00 0.  1.
         25    1    1    2    0    0 -0.93379888158E+02  0.95266336399E+02  0.10228447182E+04  0.10390533172E+04  0.12500000000E+03 0.  0.
         25    1    1    2    0    0  0.93379888158E+02 -0.95266336399E+02  0.59698323454E+03  0.62434722766E+03  0.12500000000E+03 0.  0.
</event>
<event>
 4    0  0.2253506E-002  0.2337821E+03  0.7546771E-02  0.1124006E+00
         21   -1    0    0  502  501  0.00000000000E+00  0.00000000000E+00  0.57143153762E+03  0.57143153762E+03  0.00000000000E+00 0. -1.
         21   -1    0    0  501  502 -0.00000000000E+00 -0.00000000000E+00 -0.95644128702E+02  0.95644128702E+02  0.00000000000E+00 0. -1.
         25    1    1    2    0    0 -0.15943596879E+03 -0.15356308914E+02  0.72904624430E+02  0.21586043785E+03  0.12500000000E+03 0.  0.
         25    1    1    2    0    0  0.15943596879E+03  0.15356308914E+02  0.40288278449E+03  0.45121522847E+03  0.12500000000E+03 0.  0.
</event>
<event>
 4    0  0.2253506E-002  0.1982570E+03  0.7546771E-02  0.1151218E+00
         21   -1    0    0  502  501  0.00000000000E+00  0.00000000000E+00  0.50522937043E+03  0.50522937043E+03  0.00000000000E+00 0.  1.
         21   -1    0    0  501  502 -0.00000000000E+00 -0.00000000000E+00 -0.77798025845E+02  0.77798025845E+02  0.00000000000E+00 0.  1.
         25    1    1    2    0    0 -0.41169156433E+02 -0.18186443863E+02  0.43009287291E+03  0.45014500499E+03  0.12500000000E+03 0.  0.
         25    1    1    2    0    0  0.41169156433E+02  0.18186443863E+02 -0.26615283293E+01  0.13288239129E+03  0.12500000000E+03 0.  0.
</event>
<event>
 4    0  0.2253506E-002  0.2223956E+03  0.7546771E-02  0.1132110E+00
         21   -1    0    0  502  501  0.00000000000E+00  0.00000000000E+00  0.35275197961E+02  0.35275197961E+02  0.00000000000E+00 0. -1.
         21   -1    0    0  501  502 -0.00000000000E+00 -0.00000000000E+00 -0.14021132122E+04  0.14021132122E+04  0.00000000000E+00 0. -1.
         25    1    1    2    0    0 -0.35719973326E+02  0.16793394322E+03 -0.89673155555E+03  0.92153687311E+03  0.12500000000E+03 0.  0.
         25    1    1    2    0    0  0.35719973326E+02 -0.16793394322E+03 -0.47010645869E+03  0.51585153705E+03  0.12500000000E+03 0.  0.
</event>
<event>
 4    0  0.2253506E-002  0.2268773E+03  0.7546771E-02  0.1128857E+00
         21   -1    0    0  502  501  0.00000000000E+00  0.00000000000E+00  0.14619204120E+04  0.14619204120E+04  0.00000000000E+00 0. -1.
         21   -1    0    0  501  502 -0.00000000000E+00 -0.00000000000E+00 -0.35209369544E+02  0.35209369544E+02  0.00000000000E+00 0. -1.
         25    1    1    2    0    0  0.93103694827E+02  0.15436480287E+03  0.90436655018E+03  0.93059155779E+03  0.12500000000E+03 0.  0.
         25    1    1    2    0    0 -0.93103694827E+02 -0.15436480287E+03  0.52234449227E+03  0.56653822374E+03  0.12500000000E+03 0.  0.
</event>
<event>
 4    0  0.2253506E-002  0.2664086E+03  0.7546771E-02  0.1103353E+00
         21   -1    0    0  502  501  0.00000000000E+00  0.00000000000E+00  0.16499127301E+03  0.16499127301E+03  0.00000000000E+00 0.  1.
         21   -1    0    0  501  502 -0.00000000000E+00 -0.00000000000E+00 -0.43016556921E+03  0.43016556921E+03  0.00000000000E+00 0.  1.
         25    1    1    2    0    0 -0.16707080912E+03  0.75215974808E+02 -0.29742873089E+03  0.37102418801E+03  0.12500000000E+03 0.  0.
         25    1    1    2    0    0  0.16707080912E+03 -0.75215974808E+02  0.32254434694E+02  0.22413265421E+03  0.12500000000E+03 0.  0.
</event>
<event>
 4    0  0.2253506E-002  0.2857669E+03  0.7546771E-02  0.1092580E+00
         21   -1    0    0  502  501  0.00000000000E+00  0.00000000000E+00  0.75391892604E+03  0.75391892604E+03  0.00000000000E+00 0. -1.
         21   -1    0    0  501  502 -0.00000000000E+00 -0.00000000000E+00 -0.10831765624E+03  0.10831765624E+03  0.00000000000E+00 0. -1.
         25    1    1    2    0    0 -0.20239897905E+03  0.98061506812E+02  0.13524175832E+03  0.29068322799E+03  0.12500000000E+03 0.  0.
         25    1    1    2    0    0  0.20239897905E+03 -0.98061506812E+02  0.51035951148E+03  0.57155335429E+03  0.12500000000E+03 0.  0.
</event>
<event>
 4    0  0.2253506E-002  0.1883929E+03  0.7546771E-02  0.1159919E+00
         21   -1    0    0  502  501  0.00000000000E+00  0.00000000000E+00  0.87681732963E+03  0.87681732963E+03  0.00000000000E+00 0.  1.
         21   -1    0    0  501  502 -0.00000000000E+00 -0.00000000000E+00 -0.40478096432E+02  0.40478096432E+02  0.00000000000E+00 0.  1.
         25    1    1    2    0    0 -0.58820011737E+02  0.45934685938E+02  0.70926727865E+03  0.72405446046E+03  0.12500000000E+03 0.  0.
         25    1    1    2    0    0  0.58820011737E+02 -0.45934685938E+02  0.12707195455E+03  0.19324096560E+03  0.12500000000E+03 0.  0.
</event>
<event>
 4    0  0.2253506E-002  0.1962569E+03  0.7546771E-02  0.1152936E+00
         21   -1    0    0  502  501  0.00000000000E+00  0.00000000000E+00  0.22469212432E+03  0.22469212432E+03  0.00000000000E+00 0.  1.
         21   -1    0    0  501  502 -0.00000000000E+00 -0.00000000000E+00 -0.17142015574E+03  0.17142015574E+03  0.00000000000E+00 0.  1.
         25    1    1    2    0    0  0.58850571228E+02 -0.44088923268E+02  0.16007735654E+03  0.21600227537E+03  0.12500000000E+03 0.  0.
         25    1    1    2    0    0 -0.58850571228E+02  0.44088923268E+02 -0.10680538797E+03  0.18011000469E+03  0.12500000000E+03 0.  0.
</event>
<event>
 4    0  0.2253506E-002  0.2467839E+03  0.7546771E-02  0.1115354E+00
         21   -1    0    0  502  501  0.00000000000E+00  0.00000000000E+00  0.54317475325E+03  0.54317475325E+03  0.00000000000E+00 0. -1.
         21   -1    0    0  501  502 -0.00000000000E+00 -0.00000000000E+00 -0.11212280824E+03  0.11212280824E+03  0.00000000000E+00 0. -1.
         25    1    1    2    0    0 -0.53578814563E+02  0.14782083647E+03  0.25174274813E+02  0.20243624472E+03  0.12500000000E+03 0.  0.
         25    1    1    2    0    0  0.53578814563E+02 -0.14782083647E+03  0.40587767020E+03  0.45286131677E+03  0.12500000000E+03 0.  0.
</event>
<event>
 4    0  0.2253506E-002  0.2911134E+03  0.7546771E-02  0.1089769E+00
         21   -1    0    0  502  501  0.00000000000E+00  0.00000000000E+00  0.16043418081E+03  0.16043418081E+03  0.00000000000E+00 0.  1.
         21   -1    0    0  501  502 -0.00000000000E+00 -0.00000000000E+00 -0.52823544150E+03  0.52823544150E+03  0.00000000000E+00 0.  1.
         25    1    1    2    0    0  0.10948219370E+03  0.23209690186E+03 -0.25150475407E+03  0.38044048669E+03  0.12500000000E+03 0.  0.
         25    1    1    2    0    0 -0.10948219370E+03 -0.23209690186E+03 -0.11629650662E+03  0.30822913562E+03  0.12500000000E+03 0.  0.
</event>
<event>
 4    0  0.2253506E-002  0.2127335E+03  0.7546771E-02  0.1139419E+00
         21   -1    0    0  502  501  0.00000000000E+00  0.00000000000E+00  0.15584153372E+03  0.15584153372E+03  0.00000000000E+00 0.  1.
         21   -1    0    0  501  502 -0.00000000000E+00 -0.00000000000E+00 -0.29039461465E+03  0.29039461465E+03  0.00000000000E+00 0.  1.
         25    1    1    2    0    0  0.58759999873E+02 -0.15730575318E+03 -0.10697532305E+03  0.23508840318E+03  0.12500000000E+03 0.  0.
         25    1    1    2    0    0 -0.58759999873E+02  0.15730575318E+03 -0.27577757872E+02  0.21114774519E+03  0.12500000000E+03 0.  0.
</event>
<event>
 4    0  0.2253506E-002  0.2278216E+03  0.7546771E-02  0.1128182E+00
         21   -1    0    0  502  501  0.00000000000E+00  0.00000000000E+00  0.23227053920E+03  0.23227053920E+03  0.00000000000E+00 0. -1.
         21   -1    0    0  501  502 -0.00000000000E+00 -0.00000000000E+00 -0.22345786526E+03  0.22345786526E+03  0.00000000000E+00 0. -1.
         25    1    1    2    0    0  0.21935524239E+01 -0.18209559425E+03 -0.51407878486E+02  0.22678489166E+03  0.12500000000E+03 0.  0.
         25    1    1    2    0    0 -0.21935524239E+01  0.18209559425E+03  0.60220552421E+02  0.22894351279E+03  0.12500000000E+03 0.  0.
</event>
<event>
 4    0  0.2253506E-002  0.2501185E+03  0.7546771E-02  0.1113230E+00
         21   -1    0    0  502  501  0.00000000000E+00  0.00000000000E+00  0.22151102318E+03  0.22151102318E+03  0.00000000000E+00 0.  1.
         21   -1    0    0  501  502 -0.00000000000E+00 -0.00000000000E+00 -0.28242051200E+03  0.28242051200E+03  0.00000000000E+00 0.  1.
         25    1    1    2    0    0 -0.68007597211E+02 -0.16231386058E+03 -0.15773437653E+03  0.26734987592E+03  0.12500000000E+03 0.  0.
         25    1    1    2    0    0  0.68007597211E+02  0.16231386058E+03  0.96824887713E+02  0.23658165925E+03  0.12500000000E+03 0.  0.
</event>
<event>
 4    0  0.2253506E-002  0.2364061E+03  0.7546771E-02  0.1122210E+00
         21   -1    0    0  502  501  0.00000000000E+00  0.00000000000E+00  0.17588846888E+03  0.17588846888E+03  0.00000000000E+00 0.  1.
         21   -1    0    0  501  502 -0.00000000000E+00 -0.00000000000E+00 -0.31774588294E+03  0.31774588294E+03  0.00000000000E+00 0.  1.
         25    1    1    2    0    0 -0.43984327213E+02 -0.19063617248E+03 -0.24400800000E+02  0.23344629005E+03  0.12500000000E+03 0.  0.
         25    1    1    2    0    0  0.43984327213E+02  0.19063617248E+03 -0.11745661406E+03  0.26018806177E+03  0.12500000000E+03 0.  0.
</event>
<event>
 4    0  0.2253506E-002  0.2279739E+03  0.7546771E-02  0.1128074E+00
         21   -1    0    0  502  501  0.00000000000E+00  0.00000000000E+00  0.16518782239E+03  0.16518782239E+03  0.00000000000E+00 0. -1.
         21   -1    0    0  501  502 -0.00000000000E+00 -0.00000000000E+00 -0.31462427912E+03  0.31462427912E+03  0.00000000000E+00 0. -1.
         25    1    1    2    0    0 -0.72047385044E+02  0.10952763967E+03 -0.22038264811E+03  0.28527292394E+03  0.12500000000E+03 0.  0.
         25    1    1    2    0    0  0.72047385044E+02 -0.10952763967E+03  0.70946191382E+02  0.19453917758E+03  0.12500000000E+03 0.  0.
</event>
<event>
 4    0  0.2253506E-002  0.2135629E+03  0.7546771E-02  0.1138775E+00
         21   -1    0    0  502  501  0.00000000000E+00  0.00000000000E+00  0.19578747958E+03  0.19578747958E+03  0.00000000000E+00 0.  1.
         21   -1    0    0  501  502 -0.00000000000E+00 -0.00000000000E+00 -0.23295212245E+03  0.23295212245E+03  0.00000000000E+00 0.  1.
         25    1    1    2    0    0  0.17287026564E+03  0.95830952133E+01 -0.15717688143E+02  0.21412148462E+03  0.12500000000E+03 0.  0.
         25    1    1    2    0    0 -0.17287026564E+03 -0.95830952133E+01 -0.21446954723E+02  0.21461811741E+03  0.12500000000E+03 0.  0.
</event>
<event>
 4    0  0.2253506E-002  0.1757615E+03  0.7546771E-02  0.1171969E+00
         21   -1    0    0  502  501  0.00000000000E+00  0.00000000000E+00  0.95477655311E+02  0.95477655311E+02  0.00000000000E+00 0. -1.
         21   -1    0    0  501  502 -0.00000000000E+00 -0.00000000000E+00 -0.32355327986E+03  0.32355327986E+03  0.00000000000E+00 0. -1.
         25    1    1    2    0    0 -0.21872422862E+02  0.48484372042E+02  0.18905682134E+02  0.13715524792E+03  0.12500000000E+03 0.  0.
         25    1    1    2    0    0  0.21872422862E+02 -0.48484372042E+02 -0.24698130668E+03  0.28187568725E+03  0.12500000000E+03 0.  0.
</event>
<event>
 4    0  0.2253506E-002  0.2000762E+03  0.7546771E-02  0.1149675E+00
         21   -1    0    0  502  501  0.00000000000E+00  0.00000000000E+00  0.57066121516E+03  0.57066121516E+03  0.00000000000E+00 0. -1.
         21   -1    0    0  501  502 -0.00000000000E+00 -0.00000000000E+00 -0.70147557916E+02  0.70147557916E+02  0.00000000000E+00 0. -1.
         25    1    1    2    0    0 -0.11870152686E+03  0.61251841460E+01  0.41260807200E+03  0.44721134986E+03  0.12500000000E+03 0.  0.
         25    1    1    2    0    0  0.11870152686E+03 -0.61251841460E+01  0.87905585242E+02  0.19359742322E+03  0.12500000000E+03 0.  0.
</event>
<event>
 4    0  0.2253506E-002  0.2099417E+03  0.7546771E-02  0.1141612E+00
         21   -1    0    0  502  501  0.00000000000E+00  0.00000000000E+00  0.60856070204E+02  0.60856070204E+02  0.00000000000E+00 0.  1.
         21   -1    0    0  501  502 -0.00000000000E+00 -0.00000000000E+00 -0.72425821519E+03  0.72425821519E+03  0.00000000000E+00 0.  1.
         25    1    1    2    0    0  0.15588077059E+02 -0.14089430076E+03 -0.50262846251E+03  0.53698655798E+03  0.12500000000E+03 0.  0.
         25    1    1    2    0    0 -0.15588077059E+02  0.14089430076E+03 -0.16077368248E+03  0.24812772741E+03  0.12500000000E+03 0.  0.
</event>
<event>
 4    0  0.2253506E-002  0.1601743E+03  0.7546771E-02  0.1188500E+00
         21   -1    0    0  502  501  0.00000000000E+00  0.00000000000E+00  0.20599171085E+03  0.20599171085E+03  0.00000000000E+00 0.  1.
         21   -1    0    0  501  502 -0.00000000000E+00 -0.00000000000E+00 -0.12454773656E+03  0.12454773656E+03  0.00000000000E+00 0.  1.
         25    1    1    2    0    0 -0.48959237855E+02  0.16849507060E+01 -0.49412286656E+02  0.14306089648E+03  0.12500000000E+03 0.  0.
         25    1    1    2    0    0  0.48959237855E+02 -0.16849507060E+01  0.13085626094E+03  0.18747855093E+03  0.12500000000E+03 0.  0.
</event>
<event>
 4    0  0.2253506E-002  0.2207157E+03  0.7546771E-02  0.1133351E+00
         21   -1    0    0  502  501  0.00000000000E+00  0.00000000000E+00  0.11301906199E+03  0.11301906199E+03  0.00000000000E+00 0.  1.
         21   -1    0    0  501  502 -0.00000000000E+00 -0.00000000000E+00 -0.43103738721E+03  0.43103738721E+03  0.00000000000E+00 0.  1.
         25    1    1    2    0    0 -0.10641572683E+03  0.14208774742E+03 -0.11006229564E+03  0.24341722167E+03  0.12500000000E+03 0.  0.
         25    1    1    2    0    0  0.10641572683E+03 -0.14208774742E+03 -0.20795602959E+03  0.30063922753E+03  0.12500000000E+03 0.  0.
</event>
<event>
 4    0  0.2253506E-002  0.1820516E+03  0.7546771E-02  0.1165832E+00
         21   -1    0    0  502  501  0.00000000000E+00  0.00000000000E+00  0.40485720677E+03  0.40485720677E+03  0.00000000000E+00 0. -1.
         21   -1    0    0  501  502 -0.00000000000E+00 -0.00000000000E+00 -0.81862931911E+02  0.81862931911E+02  0.00000000000E+00 0. -1.
         25    1    1    2    0    0  0.12349948372E+03  0.12425987849E+02  0.22291951946E+03  0.28412081904E+03  0.12500000000E+03 0.  0.
         25    1    1    2    0    0 -0.12349948372E+03 -0.12425987849E+02  0.10007475540E+03  0.20259931965E+03  0.12500000000E+03 0.  0.
</event>
<event>
 4    0  0.2253506E-002  0.1882143E+03  0.7546771E-02  0.1160082E+00
         21   -1    0    0  502  501  0.00000000000E+00  0.00000000000E+00  0.25392703353E+03  0.25392703353E+03  0.00000000000E+00 0. -1.
         21   -1    0    0  501  502 -0.00000000000E+00 -0.00000000000E+00 -0.13950713271E+03  0.13950713271E+03  0.00000000000E+00 0. -1.
         25    1    1    2    0    0  0.67729617582E+02  0.12250921674E+03  0.42288326767E+02  0.19237752432E+03  0.12500000000E+03 0.  0.
         25    1    1    2    0    0 -0.67729617582E+02 -0.12250921674E+03  0.72131574052E+02  0.20105664192E+03  0.12500000000E+03 0.  0.
</event>
<event>
 4    0  0.2253506E-002  0.1867745E+03  0.7546771E-02  0.1161403E+00
         21   -1    0    0  502  501  0.00000000000E+00  0.00000000000E+00  0.32483431835E+03  0.32483431835E+03  0.00000000000E+00 0.  1.
         21   -1    0    0  501  502 -0.00000000000E+00 -0.00000000000E+00 -0.10739230437E+03  0.10739230437E+03  0.00000000000E+00 0.  1.
         25    1    1    2    0    0  0.29465939355E+02  0.90570487670E+02  0.22551434431E+03  0.27486901300E+03  0.12500000000E+03 0.  0.
         25    1    1    2    0    0 -0.29465939355E+02 -0.90570487670E+02 -0.80723303399E+01  0.15735760972E+03  0.12500000000E+03 0.  0.
</event>
<event>
 4    0  0.2253506E-002  0.1678019E+03  0.7546771E-02  0.1180160E+00
         21   -1    0    0  502  501  0.00000000000E+00  0.00000000000E+00  0.66742851757E+02  0.66742851757E+02  0.00000000000E+00 0. -1.
         21   -1    0    0  501  502 -0.00000000000E+00 -0.00000000000E+00 -0.42188001690E+03  0.42188001690E+03  0.00000000000E+00 0. -1.
         25    1    1    2    0    0  0.26487774971E+02 -0.70937617538E+02 -0.29761819373E+03  0.33156498163E+03  0.12500000000E+03 0.  0.
         25    1    1    2    0    0 -0.26487774971E+02  0.70937617538E+02 -0.57518971414E+02  0.15705788703E+03  0.12500000000E+03 0.  0.
</event>
<event>
 4    0  0.2253506E-002  0.1766427E+03  0.7546771E-02  0.1171092E+00
         21   -1    0    0  502  501  0.00000000000E+00  0.00000000000E+00  0.32156512760E+03  0.32156512760E+03  0.00000000000E+00 0.  1.
         21   -1    0    0  501  502 -0.00000000000E+00 -0.00000000000E+00 -0.97033625260E+02  0.97033625260E+02  0.00000000000E+00 0.  1.
         25    1    1    2    0    0 -0.43205715363E+01  0.92757309815E+02  0.13450886284E+02  0.15629623221E+03  0.12500000000E+03 0.  0.
         25    1    1    2    0    0  0.43205715363E+01 -0.92757309815E+02  0.21108061605E+03  0.26230252064E+03  0.12500000000E+03 0.  0.
</event>
<event>
 4    0  0.2253506E-002  0.2188225E+03  0.7546771E-02  0.1134764E+00
         21   -1    0    0  502  501  0.00000000000E+00  0.00000000000E+00  0.78222221942E+03  0.78222221942E+03  0.00000000000E+00 0.  1.
         21   -1    0    0  501  502 -0.00000000000E+00 -0.00000000000E+00 -0.61214454524E+02  0.61214454524E+02  0.00000000000E+00 0.  1.
         25    1    1    2    0    0 -0.92157236597E+02  0.13064547202E+03  0.51821930480E+03  0.55654060363E+03  0.12500000000E+03 0.  0.
         25    1    1    2    0    0  0.92157236597E+02 -0.13064547202E+03  0.20278846009E+03  0.28689607032E+03  0.12500000000E+03 0.  0.
</event>
<event>
 4    0  0.2253506E-002  0.1775695E+03  0.7546771E-02  0.1170176E+00
         21   -1    0    0  502  501  0.00000000000E+00  0.00000000000E+00  0.17494618462E+03  0.17494618462E+03  0.00000000000E+00 0. -1.
         21   -1    0    0  501  502 -0.00000000000E+00 -0.00000000000E+00 -0.18023205575E+03  0.18023205575E+03  0.00000000000E+00 0. -1.
         25    1    1    2    0    0 -0.12419790900E+03 -0.19283164650E+02  0.77961063479E+01  0.17743376317E+03  0.12500000000E+03 0.  0.
         25    1    1    2    0    0  0.12419790900E+03  0.19283164650E+02 -0.13081977476E+02  0.17774447719E+03  0.12500000000E+03 0.  0.
</event>
<event>
 4    0  0.2253506E-002  0.4414055E+03  0.7546771E-02  0.1030316E+00
         21   -1    0    0  502  501  0.00000000000E+00  0.00000000000E+00  0.54618174276E+03  0.54618174276E+03  0.00000000000E+00 0. -1.
         21   -1    0    0  501  502 -0.00000000000E+00 -0.00000000000E+00 -0.35672889916E+03  0.35672889916E+03  0.00000000000E+00 0.  1.
         25    1    1    2    0    0  0.22260683868E+02  0.41706652102E+03  0.16539213280E+03  0.46628272389E+03  0.12500000000E+03 0.  0.
         25    1    1    2    0    0 -0.22260683868E+02 -0.41706652102E+03  0.24060710797E+02  0.43662791803E+03  0.12500000000E+03 0.  0.
</event>
<event>
 4    0  0.2253506E-002  0.2986203E+03  0.7546771E-02  0.1085932E+00
         21   -1    0    0  502  501  0.00000000000E+00  0.00000000000E+00  0.13689566515E+03  0.13689566515E+03  0.00000000000E+00 0. -1.
         21   -1    0    0  501  502 -0.00000000000E+00 -0.00000000000E+00 -0.65140194943E+03  0.65140194943E+03  0.00000000000E+00 0. -1.
         25    1    1    2    0    0 -0.41737627558E+01 -0.26757825860E+03 -0.31529208403E+03  0.43202967840E+03  0.12500000000E+03 0.  0.
         25    1    1    2    0    0  0.41737627558E+01  0.26757825860E+03 -0.19921420025E+03  0.35626793618E+03  0.12500000000E+03 0.  0.
</event>
<event>
 4    0  0.2253506E-002  0.2307993E+03  0.7546771E-02  0.1126078E+00
         21   -1    0    0  502  501  0.00000000000E+00  0.00000000000E+00  0.28093617132E+03  0.28093617132E+03  0.00000000000E+00 0. -1.
         21   -1    0    0  501  502 -0.00000000000E+00 -0.00000000000E+00 -0.18961005110E+03  0.18961005110E+03  0.00000000000E+00 0. -1.
         25    1    1    2    0    0 -0.70899843910E+02 -0.22279434317E+02  0.22835805231E+03  0.27073152959E+03  0.12500000000E+03 0.  0.
         25    1    1    2    0    0  0.70899843910E+02  0.22279434317E+02 -0.13703193209E+03  0.19981469283E+03  0.12500000000E+03 0.  0.
</event>
<event>
 4    0  0.2253506E-002  0.2360836E+03  0.7546771E-02  0.1122430E+00
         21   -1    0    0  502  501  0.00000000000E+00  0.00000000000E+00  0.12466656342E+04  0.12466656342E+04  0.00000000000E+00 0. -1.
         21   -1    0    0  501  502 -0.00000000000E+00 -0.00000000000E+00 -0.44707617359E+02  0.44707617359E+02  0.00000000000E+00 0. -1.
         25    1    1    2    0    0  0.16312907807E+03  0.10698378163E+03  0.72492648787E+03  0.76105192888E+03  0.12500000000E+03 0.  0.
         25    1    1    2    0    0 -0.16312907807E+03 -0.10698378163E+03  0.47703152892E+03  0.53032132263E+03  0.12500000000E+03 0.  0.
</event>
<event>
 4    0  0.2253506E-002  0.2418487E+03  0.7546771E-02  0.1118567E+00
         21   -1    0    0  502  501  0.00000000000E+00  0.00000000000E+00  0.26055126163E+03  0.26055126163E+03  0.00000000000E+00 0. -1.
         21   -1    0    0  501  502 -0.00000000000E+00 -0.00000000000E+00 -0.22448854210E+03  0.22448854210E+03  0.00000000000E+00 0. -1.
         25    1    1    2    0    0 -0.13517588908E+03 -0.13395796495E+03 -0.63733377720E+02  0.23644069193E+03  0.12500000000E+03 0.  0.
         25    1    1    2    0    0  0.13517588908E+03  0.13395796495E+03  0.99796097256E+02  0.24859911180E+03  0.12500000000E+03 0.  0.
</event>
<event>
 4    0  0.2253506E-002  0.2567989E+03  0.7546771E-02  0.1109082E+00
         21   -1    0    0  502  501  0.00000000000E+00  0.00000000000E+00  0.35835278155E+02  0.35835278155E+02  0.00000000000E+00 0. -1.
         21   -1    0    0  501  502 -0.00000000000E+00 -0.00000000000E+00 -0.18402452160E+04  0.18402452160E+04  0.00000000000E+00 0. -1.
         25    1    1    2    0    0 -0.20368917765E+03  0.61326684282E+02 -0.64209814956E+03  0.68787010181E+03  0.12500000000E+03 0.  0.
         25    1    1    2    0    0  0.20368917765E+03 -0.61326684282E+02 -0.11623117883E+04  0.11882103924E+04  0.12500000000E+03 0.  0.
</event>
<event>
 4    0  0.2253506E-002  0.2645926E+03  0.7546771E-02  0.1104415E+00
         21   -1    0    0  502  501  0.00000000000E+00  0.00000000000E+00  0.27078921995E+03  0.27078921995E+03  0.00000000000E+00 0. -1.
         21   -1    0    0  501  502 -0.00000000000E+00 -0.00000000000E+00 -0.25853777982E+03  0.25853777982E+03  0.00000000000E+00 0. -1.
         25    1    1    2    0    0  0.17135702362E+03  0.56190804246E+02 -0.14177737805E+03  0.26124023609E+03  0.12500000000E+03 0.  0.
         25    1    1    2    0    0 -0.17135702362E+03 -0.56190804246E+02  0.15402881818E+03  0.26808676367E+03  0.12500000000E+03 0.  0.
</event>
<event>
 4    0  0.2253506E-002  0.2335741E+03  0.7546771E-02  0.1124149E+00
         21   -1    0    0  502  501  0.00000000000E+00  0.00000000000E+00  0.28995933059E+03  0.28995933059E+03  0.00000000000E+00 0. -1.
         21   -1    0    0  501  502 -0.00000000000E+00 -0.00000000000E+00 -0.18815350310E+03  0.18815350310E+03  0.00000000000E+00 0. -1.
         25    1    1    2    0    0  0.10985649173E+03  0.83813269257E+02  0.19505896239E+03  0.26975194474E+03  0.12500000000E+03 0.  0.
         25    1    1    2    0    0 -0.10985649173E+03 -0.83813269257E+02 -0.93253134901E+02  0.20836088896E+03  0.12500000000E+03 0.  0.
</event>
<event>
 4    0  0.2253506E-002  0.2060915E+03  0.7546771E-02  0.1144699E+00
         21   -1    0    0  502  501  0.00000000000E+00  0.00000000000E+00  0.74614742268E+02  0.74614742268E+02  0.00000000000E+00 0.  1.
         21   -1    0    0  501  502 -0.00000000000E+00 -0.00000000000E+00 -0.56924031239E+03  0.56924031239E+03  0.00000000000E+00 0.  1.
         25    1    1    2    0    0  0.70521588417E+02 -0.12422803489E+03 -0.37269500963E+03  0.41824929084E+03  0.12500000000E+03 0.  0.
         25    1    1    2    0    0 -0.70521588417E+02  0.12422803489E+03 -0.12193056049E+03  0.22560576382E+03  0.12500000000E+03 0.  0.
</event>
<event>
 4    0  0.2253506E-002  0.1799401E+03  0.7546771E-02  0.1167861E+00
         21   -1    0    0  502  501  0.00000000000E+00  0.00000000000E+00  0.64550340271E+03  0.64550340271E+03  0.00000000000E+00 0.  1.
         21   -1    0    0  501  502 -0.00000000000E+00 -0.00000000000E+00 -0.50159996589E+02  0.50159996589E+02  0.00000000000E+00 0.  1.
         25    1    1    2    0    0 -0.87443763700E+01  0.12807974659E+03  0.26575819900E+03  0.32052036743E+03  0.12500000000E+03 0.  0.
         25    1    1    2    0    0  0.87443763700E+01 -0.12807974659E+03  0.32958520712E+03  0.37514303186E+03  0.12500000000E+03 0.  0.
</event>
<event>
 4    0  0.2253506E-002  0.1965581E+03  0.7546771E-02  0.1152676E+00
         21   -1    0    0  502  501  0.00000000000E+00  0.00000000000E+00  0.47432504300E+02  0.47432504300E+02  0.00000000000E+00 0.  1.
         21   -1    0    0  501  502 -0.00000000000E+00 -0.00000000000E+00 -0.81452785401E+03  0.81452785401E+03  0.00000000000E+00 0.  1.
         25    1    1    2    0    0 -0.54532491555E+02  0.14126485331E+03 -0.40322582664E+03  0.44849260716E+03  0.12500000000E+03 0.  0.
         25    1    1    2    0    0  0.54532491555E+02 -0.14126485331E+03 -0.36386952308E+03  0.41346775115E+03  0.12500000000E+03 0.  0.
</event>
<event>
 4    0  0.2253506E-002  0.2503796E+03  0.7546771E-02  0.1113065E+00
         21   -1    0    0  502  501  0.00000000000E+00  0.00000000000E+00  0.39600413950E+03  0.39600413950E+03  0.00000000000E+00 0.  1.
         21   -1    0    0  501  502 -0.00000000000E+00 -0.00000000000E+00 -0.15830633545E+03  0.15830633545E+03  0.00000000000E+00 0.  1.
         25    1    1    2    0    0 -0.11073925276E+03  0.10292961962E+03  0.29107423586E+03  0.35100840371E+03  0.12500000000E+03 0.  0.
         25    1    1    2    0    0  0.11073925276E+03 -0.10292961962E+03 -0.53376431813E+02  0.20330207124E+03  0.12500000000E+03 0.  0.
</event>
<event>
 4    0  0.2253506E-002  0.2006007E+03  0.7546771E-02  0.1149233E+00
         21   -1    0    0  502  501  0.00000000000E+00  0.00000000000E+00  0.56335075519E+03  0.56335075519E+03  0.00000000000E+00 0. -1.
         21   -1    0    0  501  502 -0.00000000000E+00 -0.00000000000E+00 -0.71430905544E+02  0.71430905544E+02  0.00000000000E+00 0. -1.
         25    1    1    2    0    0 -0.25756313146E+01 -0.48686555778E+02  0.10012104661E+02  0.13454462765E+03  0.12500000000E+03 0.  0.
         25    1    1    2    0    0  0.25756313146E+01  0.48686555778E+02  0.48190774498E+03  0.50023703308E+03  0.12500000000E+03 0.  0.
</event>
<event>
 4    0  0.2253506E-002  0.1662798E+03  0.7546771E-02  0.1181784E+00
         21   -1    0    0  502  501  0.00000000000E+00  0.00000000000E+00  0.89732865444E+02  0.89732865444E+02  0.00000000000E+00 0.  1.
         21   -1    0    0  501  502 -0.00000000000E+00 -0.00000000000E+00 -0.30812521685E+03  0.30812521685E+03  0.00000000000E+00 0.  1.
         25    1    1    2    0    0  0.36274787568E+02 -0.10346598715E+03 -0.10716311260E+03  0.19781305167E+03  0.12500000000E+03 0.  0.
         25    1    1    2    0    0 -0.36274787568E+02  0.10346598715E+03 -0.11122923882E+03  0.20004503063E+03  0.12500000000E+03 0.  0.
</event>
<event>
 4    0  0.2253506E-002  0.3634103E+03  0.7546771E-02  0.1057242E+00
         21   -1    0    0  502  501  0.00000000000E+00  0.00000000000E+00  0.20820021877E+04  0.20820021877E+04  0.00000000000E+00 0. -1.
         21   -1    0    0  501  502 -0.00000000000E+00 -0.00000000000E+00 -0.63432715188E+02  0.63432715188E+02  0.00000000000E+00 0. -1.
         25    1    1    2    0    0  0.24288724894E+02 -0.19788904957E+03  0.19183090862E+03  0.30360190316E+03  0.12500000000E+03 0.  0.
         25    1    1    2    0    0 -0.24288724894E+02  0.19788904957E+03  0.18267385639E+04  0.18418329997E+04  0.12500000000E+03 0.  0.
</event>
<event>
 4    0  0.2253506E-002  0.2624192E+03  0.7546771E-02  0.1105698E+00
         21   -1    0    0  502  501  0.00000000000E+00  0.00000000000E+00  0.10053233754E+03  0.10053233754E+03  0.00000000000E+00 0.  1.
         21   -1    0    0  501  502 -0.00000000000E+00 -0.00000000000E+00 -0.68499199723E+03  0.68499199723E+03  0.00000000000E+00 0.  1.
         25    1    1    2    0    0 -0.17324448478E+03 -0.12366081857E+03 -0.42553841879E+03  0.49194877317E+03  0.12500000000E+03 0.  0.
         25    1    1    2    0    0  0.17324448478E+03  0.12366081857E+03 -0.15892124091E+03  0.29357556160E+03  0.12500000000E+03 0.  0.
</event>
<event>
 4    0  0.2253506E-002  0.2333117E+03  0.7546771E-02  0.1124330E+00
         21   -1    0    0  502  501  0.00000000000E+00  0.00000000000E+00  0.97492126835E+03  0.97492126835E+03  0.00000000000E+00 0. -1.
         21   -1    0    0  501  502 -0.00000000000E+00 -0.00000000000E+00 -0.55834610814E+02  0.55834610814E+02  0.00000000000E+00 0. -1.
         25    1    1    2    0    0  0.72039724088E+02 -0.91788030492E+02  0.81016835589E+03  0.82801722764E+03  0.12500000000E+03 0.  0.
         25    1    1    2    0    0 -0.72039724088E+02  0.91788030492E+02  0.10891830165E+03  0.20273865153E+03  0.12500000000E+03 0.  0.
</event>
<event>
 4    0  0.2253506E-002  0.1875568E+03  0.7546771E-02  0.1160684E+00
         21   -1    0    0  502  501  0.00000000000E+00  0.00000000000E+00  0.31491040295E+02  0.31491040295E+02  0.00000000000E+00 0. -1.
         21   -1    0    0  501  502 -0.00000000000E+00 -0.00000000000E+00 -0.11170657149E+04  0.11170657149E+04  0.00000000000E+00 0. -1.
         25    1    1    2    0    0  0.12026829189E+03  0.70788454188E+02 -0.51590293757E+03  0.54886820665E+03  0.12500000000E+03 0.  0.
         25    1    1    2    0    0 -0.12026829189E+03 -0.70788454188E+02 -0.56967173707E+03  0.59968854858E+03  0.12500000000E+03 0.  0.
</event>
<event>
 4    0  0.2253506E-002  0.1528122E+03  0.7546771E-02  0.1197059E+00
         21   -1    0    0  502  501  0.00000000000E+00  0.00000000000E+00  0.62576468354E+03  0.62576468354E+03  0.00000000000E+00 0.  1.
         21   -1    0    0  501  502 -0.00000000000E+00 -0.00000000000E+00 -0.37316836600E+02  0.37316836600E+02  0.00000000000E+00 0.  1.
         25    1    1    2    0    0 -0.82244923507E+01  0.67949874247E+02  0.41388127298E+03  0.43772998048E+03  0.12500000000E+03 0.  0.
         25    1    1    2    0    0  0.82244923507E+01 -0.67949874247E+02  0.17456657396E+03  0.22535153967E+03  0.12500000000E+03 0.  0.
</event>
<event>
 4    0  0.2253506E-002  0.2365707E+03  0.7546771E-02  0.1122099E+00
         21   -1    0    0  502  501  0.00000000000E+00  0.00000000000E+00  0.74633968653E+02  0.74633968653E+02  0.00000000000E+00 0.  1.
         21   -1    0    0  501  502 -0.00000000000E+00 -0.00000000000E+00 -0.74986899144E+03  0.74986899144E+03  0.00000000000E+00 0.  1.
         25    1    1    2    0    0  0.61799981368E+02  0.16513031283E+03 -0.50524795165E+03  0.54953412137E+03  0.12500000000E+03 0.  0.
         25    1    1    2    0    0 -0.61799981368E+02 -0.16513031283E+03 -0.16998707114E+03  0.27496883872E+03  0.12500000000E+03 0.  0.
</event>
<event>
 4    0  0.2253506E-002  0.2189052E+03  0.7546771E-02  0.1134702E+00
         21   -1    0    0  502  501  0.00000000000E+00  0.00000000000E+00  0.31721021114E+03  0.31721021114E+03  0.00000000000E+00 0.  1.
         21   -1    0    0  501  502 -0.00000000000E+00 -0.00000000000E+00 -0.15106544198E+03  0.15106544198E+03  0.00000000000E+00 0.  1.
         25    1    1    2    0    0  0.48034776199E+02 -0.16849712001E+03  0.12580069994E+03  0.24929788463E+03  0.12500000000E+03 0.  0.
         25    1    1    2    0    0 -0.48034776199E+02  0.16849712001E+03  0.40344069222E+02  0.21897776850E+03  0.12500000000E+03 0.  0.
</event>
<event>
 4    0  0.2253506E-002  0.1685015E+03  0.7546771E-02  0.1179420E+00
         21   -1    0    0  502  501  0.00000000000E+00  0.00000000000E+00  0.63436925520E+03  0.63436925520E+03  0.00000000000E+00 0. -1.
         21   -1    0    0  501  502 -0.00000000000E+00 -0.00000000000E+00 -0.44757484625E+02  0.44757484625E+02  0.00000000000E+00 0. -1.
         25    1    1    2    0    0 -0.27148730192E+02  0.97032995403E+02  0.19174851466E+03  0.25008988108E+03  0.12500000000E+03 0.  0.
         25    1    1    2    0    0  0.27148730192E+02 -0.97032995403E+02  0.39786325592E+03  0.42903685875E+03  0.12500000000E+03 0.  0.
</event>
<event>
 4    0  0.2253506E-002  0.1731830E+03  0.7546771E-02  0.1174569E+00
         21   -1    0    0  502  501  0.00000000000E+00  0.00000000000E+00  0.25290603014E+02  0.25290603014E+02  0.00000000000E+00 0. -1.
         21   -1    0    0  501  502 -0.00000000000E+00 -0.00000000000E+00 -0.11859092508E+04  0.11859092508E+04  0.00000000000E+00 0. -1.
         25    1    1    2    0    0  0.38066110656E+00 -0.10252491906E+03 -0.79744985951E+03  0.81367240482E+03  0.12500000000E+03 0.  0.
         25    1    1    2    0    0 -0.38066110656E+00  0.10252491906E+03 -0.36316878833E+03  0.39752744905E+03  0.12500000000E+03 0.  0.
</event>
<event>
 4    0  0.2253506E-002  0.2704779E+03  0.7546771E-02  0.1101006E+00
         21   -1    0    0  502  501  0.00000000000E+00  0.00000000000E+00  0.76588491875E+03  0.76588491875E+03  0.00000000000E+00 0. -1.
         21   -1    0    0  501  502 -0.00000000000E+00 -0.00000000000E+00 -0.95521272635E+02  0.95521272635E+02  0.00000000000E+00 0. -1.
         25    1    1    2    0    0 -0.16398675581E+03  0.68320574412E+02  0.78547261124E+02  0.23098491120E+03  0.12500000000E+03 0.  0.
         25    1    1    2    0    0  0.16398675581E+03 -0.68320574412E+02  0.59181638499E+03  0.63042128019E+03  0.12500000000E+03 0.  0.
</event>
<event>
 4    0  0.2253506E-002  0.4021201E+03  0.7546771E-02  0.1043048E+00
         21   -1    0    0  502  501  0.00000000000E+00  0.00000000000E+00  0.43336496990E+03  0.43336496990E+03  0.00000000000E+00 0.  1.
         21   -1    0    0  501  502 -0.00000000000E+00 -0.00000000000E+00 -0.37312792186E+03  0.37312792186E+03  0.00000000000E+00 0.  1.
         25    1    1    2    0    0 -0.33715709488E+03  0.17420431810E+03  0.75561230934E+02  0.40664056696E+03  0.12500000000E+03 0.  0.
         25    1    1    2    0    0  0.33715709488E+03 -0.17420431810E+03 -0.15324182893E+02  0.39985232481E+03  0.12500000000E+03 0.  0.
</event>
<event>
 4    0  0.2253506E-002  0.1966346E+03  0.7546771E-02  0.1152610E+00
         21   -1    0    0  502  501  0.00000000000E+00  0.00000000000E+00  0.68082312453E+02  0.68082312453E+02  0.00000000000E+00 0.  1.
         21   -1    0    0  501  502 -0.00000000000E+00 -0.00000000000E+00 -0.56791802823E+03  0.56791802823E+03  0.00000000000E+00 0.  1.
         25    1    1    2    0    0 -0.41777534067E+02 -0.13528137927E+03 -0.33840410443E+03  0.38754193557E+03  0.12500000000E+03 0.  0.
         25    1    1    2    0    0  0.41777534067E+02  0.13528137927E+03 -0.16143161135E+03  0.24845840512E+03  0.12500000000E+03 0.  0.
</event>
<event>
 4    0  0.2253506E-002  0.2708760E+03  0.7546771E-02  0.1100779E+00
         21   -1    0    0  502  501  0.00000000000E+00  0.00000000000E+00  0.29370909384E+03  0.29370909384E+03  0.00000000000E+00 0.  1.
         21   -1    0    0  501  502 -0.00000000000E+00 -0.00000000000E+00 -0.24981789195E+03  0.24981789195E+03  0.00000000000E+00 0.  1.
         25    1    1    2    0    0  0.12301252503E+03 -0.15084966965E+03  0.16333671204E+03  0.28318118873E+03  0.12500000000E+03 0.  0.
         25    1    1    2    0    0 -0.12301252503E+03  0.15084966965E+03 -0.11944551015E+03  0.26034579706E+03  0.12500000000E+03 0.  0.
</event>
<event>
 4    0  0.2253506E-002  0.2796344E+03  0.7546771E-02  0.1095889E+00
         21   -1    0    0  502  501  0.00000000000E+00  0.00000000000E+00  0.23501185094E+04  0.23501185094E+04  0.00000000000E+00 0. -1.
         21   -1    0    0  501  502 -0.00000000000E+00 -0.00000000000E+00 -0.33272967465E+02  0.33272967465E+02  0.00000000000E+00 0. -1.
         25    1    1    2    0    0 -0.16498017048E+02 -0.92583758981E+02  0.17062298017E+03  0.23147599952E+03  0.12500000000E+03 0.  0.
         25    1    1    2    0    0  0.16498017048E+02  0.92583758981E+02  0.21462225618E+04  0.21519154774E+04  0.12500000000E+03 0.  0.
</event>
<event>
 4    0  0.2253506E-002  0.1951941E+03  0.7546771E-02  0.1153858E+00
         21   -1    0    0  502  501  0.00000000000E+00  0.00000000000E+00  0.39638586164E+03  0.39638586164E+03  0.00000000000E+00 0. -1.
         21   -1    0    0  501  502 -0.00000000000E+00 -0.00000000000E+00 -0.96120295231E+02  0.96120295231E+02  0.00000000000E+00 0. -1.
         25    1    1    2    0    0  0.72952888323E+02  0.10158431394E+03  0.45838665298E+02  0.18266822381E+03  0.12500000000E+03 0.  0.
         25    1    1    2    0    0 -0.72952888323E+02 -0.10158431394E+03  0.25442690112E+03  0.30983793306E+03  0.12500000000E+03 0.  0.
</event>
<event>
 4    0  0.2253506E-002  0.2470995E+03  0.7546771E-02  0.1115152E+00
         21   -1    0    0  502  501  0.00000000000E+00  0.00000000000E+00  0.31386474238E+03  0.31386474238E+03  0.00000000000E+00 0.  1.
         21   -1    0    0  501  502 -0.00000000000E+00 -0.00000000000E+00 -0.19453656755E+03  0.19453656755E+03  0.00000000000E+00 0.  1.
         25    1    1    2    0    0 -0.16403454230E+03 -0.72153663848E+02 -0.59063540362E+02  0.22633378907E+03  0.12500000000E+03 0.  0.
         25    1    1    2    0    0  0.16403454230E+03  0.72153663848E+02  0.17839171519E+03  0.28206752086E+03  0.12500000000E+03 0.  0.
</event>
<event>
 4    0  0.2253506E-002  0.1919123E+03  0.7546771E-02  0.1156748E+00
         21   -1    0    0  502  501  0.00000000000E+00  0.00000000000E+00  0.86300245414E+02  0.86300245414E+02  0.00000000000E+00 0.  1.
         21   -1    0    0  501  502 -0.00000000000E+00 -0.00000000000E+00 -0.42676958013E+03  0.42676958013E+03  0.00000000000E+00 0.  1.
         25    1    1    2    0    0 -0.60332204578E+02  0.60020861446E+02 -0.32818866719E+03  0.36135201673E+03  0.12500000000E+03 0.  0.
         25    1    1    2    0    0  0.60332204578E+02 -0.60020861446E+02 -0.12280667525E+02  0.15171780882E+03  0.12500000000E+03 0.  0.
</event>
<event>
 4    0  0.2253506E-002  0.1810428E+03  0.7546771E-02  0.1166798E+00
         21   -1    0    0  502  501  0.00000000000E+00  0.00000000000E+00  0.25181363527E+03  0.25181363527E+03  0.00000000000E+00 0.  1.
         21   -1    0    0  501  502 -0.00000000000E+00 -0.00000000000E+00 -0.13016175785E+03  0.13016175785E+03  0.00000000000E+00 0.  1.
         25    1    1    2    0    0 -0.11184148082E+03 -0.47698774709E+02  0.94927793511E+01  0.17463906436E+03  0.12500000000E+03 0.  0.
         25    1    1    2    0    0  0.11184148082E+03  0.47698774709E+02  0.11215909807E+03  0.20733632876E+03  0.12500000000E+03 0.  0.
</event>
<event>
 4    0  0.2253506E-002  0.2761955E+03  0.7546771E-02  0.1097785E+00
         21   -1    0    0  502  501  0.00000000000E+00  0.00000000000E+00  0.30869607165E+03  0.30869607165E+03  0.00000000000E+00 0.  1.
         21   -1    0    0  501  502 -0.00000000000E+00 -0.00000000000E+00 -0.24711664330E+03  0.24711664330E+03  0.00000000000E+00 0.  1.
         25    1    1    2    0    0  0.16568601838E+03  0.11968740450E+03  0.16905271959E+03  0.29322474910E+03  0.12500000000E+03 0.  0.
         25    1    1    2    0    0 -0.16568601838E+03 -0.11968740450E+03 -0.10747329124E+03  0.26258796586E+03  0.12500000000E+03 0.  0.
</event>
<event>
 4    0  0.2253506E-002  0.2302253E+03  0.7546771E-02  0.1126481E+00
         21   -1    0    0  502  501  0.00000000000E+00  0.00000000000E+00  0.19833125743E+03  0.19833125743E+03  0.00000000000E+00 0. -1.
         21   -1    0    0  501  502 -0.00000000000E+00 -0.00000000000E+00 -0.26724824459E+03  0.26724824459E+03  0.00000000000E+00 0. -1.
         25    1    1    2    0    0 -0.18615440550E+02 -0.26212914960E+02  0.15830880068E+03  0.20425554560E+03  0.12500000000E+03 0.  0.
         25    1    1    2    0    0  0.18615440550E+02  0.26212914960E+02 -0.22722578784E+03  0.26132395641E+03  0.12500000000E+03 0.  0.
</event>
<event>
 4    0  0.2253506E-002  0.1884917E+03  0.7546771E-02  0.1159829E+00
         21   -1    0    0  502  501  0.00000000000E+00  0.00000000000E+00  0.37174777113E+03  0.37174777113E+03  0.00000000000E+00 0. -1.
         21   -1    0    0  501  502 -0.00000000000E+00 -0.00000000000E+00 -0.95573234368E+02  0.95573234368E+02  0.00000000000E+00 0. -1.
         25    1    1    2    0    0 -0.13572273087E+03 -0.38329882803E+02  0.14277453299E+03  0.23643055399E+03  0.12500000000E+03 0.  0.
         25    1    1    2    0    0  0.13572273087E+03  0.38329882803E+02  0.13340000377E+03  0.23089045151E+03  0.12500000000E+03 0.  0.
</event>
<event>
 4    0  0.2253506E-002  0.2359836E+03  0.7546771E-02  0.1122498E+00
         21   -1    0    0  502  501  0.00000000000E+00  0.00000000000E+00  0.37695468002E+03  0.37695468002E+03  0.00000000000E+00 0. -1.
         21   -1    0    0  501  502 -0.00000000000E+00 -0.00000000000E+00 -0.14773194143E+03  0.14773194143E+03  0.00000000000E+00 0. -1.
         25    1    1    2    0    0 -0.10633156984E+03  0.12147314458E+03  0.24615493130E+03  0.31981147228E+03  0.12500000000E+03 0.  0.
         25    1    1    2    0    0  0.10633156984E+03 -0.12147314458E+03 -0.16932192709E+02  0.20487514918E+03  0.12500000000E+03 0.  0.
</event>
<event>
 4    0  0.2253506E-002  0.1941655E+03  0.7546771E-02  0.1154757E+00
         21   -1    0    0  502  501  0.00000000000E+00  0.00000000000E+00  0.32945613732E+03  0.32945613732E+03  0.00000000000E+00 0. -1.
         21   -1    0    0  501  502 -0.00000000000E+00 -0.00000000000E+00 -0.11443175025E+03  0.11443175025E+03  0.00000000000E+00 0. -1.
         25    1    1    2    0    0 -0.89704246139E+02  0.10984042792E+03  0.15816266331E+03  0.24647961264E+03  0.12500000000E+03 0.  0.
         25    1    1    2    0    0  0.89704246139E+02 -0.10984042792E+03  0.56861723763E+02  0.19740827493E+03  0.12500000000E+03 0.  0.
</event>
<event>
 4    0  0.2253506E-002  0.2660671E+03  0.7546771E-02  0.1103552E+00
         21   -1    0    0  502  501  0.00000000000E+00  0.00000000000E+00  0.68093334187E+03  0.68093334187E+03  0.00000000000E+00 0.  1.
         21   -1    0    0  501  502 -0.00000000000E+00 -0.00000000000E+00 -0.10396278369E+03  0.10396278369E+03  0.00000000000E+00 0.  1.
         25    1    1    2    0    0 -0.18808828430E+03 -0.21267339053E+02  0.83374730410E+02  0.24167301892E+03  0.12500000000E+03 0.  0.
         25    1    1    2    0    0  0.18808828430E+03  0.21267339053E+02  0.49359582777E+03  0.54322310664E+03  0.12500000000E+03 0.  0.
</event>
<event>
 4    0  0.2253506E-002  0.2497527E+03  0.7546771E-02  0.1113461E+00
         21   -1    0    0  502  501  0.00000000000E+00  0.00000000000E+00  0.61751076413E+02  0.61751076413E+02  0.00000000000E+00 0.  1.
         21   -1    0    0  501  502 -0.00000000000E+00 -0.00000000000E+00 -0.10101265864E+04  0.10101265864E+04  0.00000000000E+00 0.  1.
         25    1    1    2    0    0  0.19994906300E+03  0.38062764772E+02 -0.31762682970E+03  0.39741691560E+03  0.12500000000E+03 0.  0.
         25    1    1    2    0    0 -0.19994906300E+03 -0.38062764772E+02 -0.63074868031E+03  0.67446074724E+03  0.12500000000E+03 0.  0.
</event>
<event>
 4    0  0.2253506E-002  0.2664760E+03  0.7546771E-02  0.1103314E+00
         21   -1    0    0  502  501  0.00000000000E+00  0.00000000000E+00  0.29326341380E+03  0.29326341380E+03  0.00000000000E+00 0.  1.
         21   -1    0    0  501  502 -0.00000000000E+00 -0.00000000000E+00 -0.24213545304E+03  0.24213545304E+03  0.00000000000E+00 0.  1.
         25    1    1    2    0    0 -0.69950935165E+02  0.85907882455E+01  0.25113334707E+03  0.28924019946E+03  0.12500000000E+03 0.  0.
         25    1    1    2    0    0  0.69950935165E+02 -0.85907882455E+01 -0.20000538631E+03  0.24615866738E+03  0.12500000000E+03 0.  0.
</event>
<event>
 4    0  0.2253506E-002  0.1371907E+03  0.7546771E-02  0.1217160E+00
         21   -1    0    0  502  501  0.00000000000E+00  0.00000000000E+00  0.34168856495E+03  0.34168856495E+03  0.00000000000E+00 0. -1.
         21   -1    0    0  501  502 -0.00000000000E+00 -0.00000000000E+00 -0.55083134078E+02  0.55083134078E+02  0.00000000000E+00 0. -1.
         25    1    1    2    0    0  0.24314891117E+02  0.12199245930E+02  0.71635310221E+02  0.14661737005E+03  0.12500000000E+03 0.  0.
         25    1    1    2    0    0 -0.24314891117E+02 -0.12199245930E+02  0.21497012065E+03  0.25015432897E+03  0.12500000000E+03 0.  0.
</event>
<event>
 4    0  0.2253506E-002  0.2414983E+03  0.7546771E-02  0.1118799E+00
         21   -1    0    0  502  501  0.00000000000E+00  0.00000000000E+00  0.58484595015E+03  0.58484595015E+03  0.00000000000E+00 0.  1.
         21   -1    0    0  501  502 -0.00000000000E+00 -0.00000000000E+00 -0.99720980958E+02  0.99720980958E+02  0.00000000000E+00 0.  1.
         25    1    1    2    0    0  0.11654687316E+03 -0.10151182259E+03  0.43694178010E+03  0.48003223117E+03  0.12500000000E+03 0.  0.
         25    1    1    2    0    0 -0.11654687316E+03  0.10151182259E+03  0.48183189098E+02  0.20453469994E+03  0.12500000000E+03 0.  0.
</event>
<event>
 4    0  0.2253506E-002  0.4224209E+03  0.7546771E-02  0.1036281E+00
         21   -1    0    0  502  501  0.00000000000E+00  0.00000000000E+00  0.17086784454E+04  0.17086784454E+04  0.00000000000E+00 0. -1.
         21   -1    0    0  501  502 -0.00000000000E+00 -0.00000000000E+00 -0.10443125265E+03  0.10443125265E+03  0.00000000000E+00 0. -1.
         25    1    1    2    0    0 -0.24932772432E+03  0.49520020969E+02  0.12961206497E+03  0.31151377815E+03  0.12500000000E+03 0.  0.
         25    1    1    2    0    0  0.24932772432E+03 -0.49520020969E+02  0.14746351278E+04  0.15015959199E+04  0.12500000000E+03 0.  0.
</event>
<event>
 4    0  0.2253506E-002  0.2759756E+03  0.7546771E-02  0.1097907E+00
         21   -1    0    0  502  501  0.00000000000E+00  0.00000000000E+00  0.14720225985E+03  0.14720225985E+03  0.00000000000E+00 0. -1.
         21   -1    0    0  501  502 -0.00000000000E+00 -0.00000000000E+00 -0.51740057929E+03  0.51740057929E+03  0.00000000000E+00 0.  1.
         25    1    1    2    0    0 -0.49141370466E+02 -0.23860533105E+03 -0.14355944700E+03  0.30916289091E+03  0.12500000000E+03 0.  0.
         25    1    1    2    0    0  0.49141370466E+02  0.23860533105E+03 -0.22663887244E+03  0.35543994823E+03  0.12500000000E+03 0.  0.
</event>
<event>
 4    0  0.2253506E-002  0.3091814E+03  0.7546771E-02  0.1080739E+00
         21   -1    0    0  502  501  0.00000000000E+00  0.00000000000E+00  0.84338906755E+02  0.84338906755E+02  0.00000000000E+00 0. -1.
         21   -1    0    0  501  502 -0.00000000000E+00 -0.00000000000E+00 -0.11334402776E+04  0.11334402776E+04  0.00000000000E+00 0. -1.
         25    1    1    2    0    0 -0.82386585848E+02  0.26912098347E+03 -0.47045737839E+03  0.56228889208E+03  0.12500000000E+03 0.  0.
         25    1    1    2    0    0  0.82386585848E+02 -0.26912098347E+03 -0.57864399250E+03  0.65549029232E+03  0.12500000000E+03 0.  0.
</event>
<event>
 4    0  0.2253506E-002  0.3234905E+03  0.7546771E-02  0.1074054E+00
         21   -1    0    0  502  501  0.00000000000E+00  0.00000000000E+00  0.15659443181E+04  0.15659443181E+04  0.00000000000E+00 0. -1.
         21   -1    0    0  501  502 -0.00000000000E+00 -0.00000000000E+00 -0.66826216070E+02  0.66826216070E+02  0.00000000000E+00 0. -1.
         25    1    1    2    0    0 -0.23783210547E+03 -0.10103520740E+03  0.37312583887E+03  0.47076545663E+03  0.12500000000E+03 0.  0.
         25    1    1    2    0    0  0.23783210547E+03  0.10103520740E+03  0.11259922632E+04  0.11620050776E+04  0.12500000000E+03 0.  0.
</event>
<event>
 4    0  0.2253506E-002  0.2690599E+03  0.7546771E-02  0.1101819E+00
         21   -1    0    0  502  501  0.00000000000E+00  0.00000000000E+00  0.41083919728E+03  0.41083919728E+03  0.00000000000E+00 0. -1.
         21   -1    0    0  501  502 -0.00000000000E+00 -0.00000000000E+00 -0.17620814766E+03  0.17620814766E+03  0.00000000000E+00 0. -1.
         25    1    1    2    0    0 -0.23540863562E+03 -0.35782071667E+02  0.10814712349E+03  0.28985924635E+03  0.12500000000E+03 0.  0.
         25    1    1    2    0    0  0.23540863562E+03  0.35782071667E+02  0.12648392613E+03  0.29718809859E+03  0.12500000000E+03 0.  0.
</event>
<event>
 4    0  0.2253506E-002  0.2093566E+03  0.7546771E-02  0.1142077E+00
         21   -1    0    0  502  501  0.00000000000E+00  0.00000000000E+00  0.10129286414E+03  0.10129286414E+03  0.00000000000E+00 0. -1.
         21   -1    0    0  501  502 -0.00000000000E+00 -0.00000000000E+00 -0.43270754386E+03  0.43270754386E+03  0.00000000000E+00 0. -1.
         25    1    1    2    0    0  0.19087672050E+01 -0.15867516154E+03 -0.95578463294E+02  0.22347638114E+03  0.12500000000E+03 0.  0.
         25    1    1    2    0    0 -0.19087672050E+01  0.15867516154E+03 -0.23583621643E+03  0.31052402686E+03  0.12500000000E+03 0.  0.
</event>
<event>
 4    0  0.2253506E-002  0.1837050E+03  0.7546771E-02  0.1164265E+00
         21   -1    0    0  502  501  0.00000000000E+00  0.00000000000E+00  0.15384009523E+03  0.15384009523E+03  0.00000000000E+00 0. -1.
         21   -1    0    0  501  502 -0.00000000000E+00 -0.00000000000E+00 -0.21936765847E+03  0.21936765847E+03  0.00000000000E+00 0. -1.
         25    1    1    2    0    0  0.80460438616E+02  0.10304143798E+03 -0.65381567774E+02  0.19233088553E+03  0.12500000000E+03 0.  0.
         25    1    1    2    0    0 -0.80460438616E+02 -0.10304143798E+03 -0.14599546945E+00  0.18087686817E+03  0.12500000000E+03 0.  0.
</event>
<event>
 4    0  0.2253506E-002  0.2754826E+03  0.7546771E-02  0.1098182E+00
         21   -1    0    0  502  501  0.00000000000E+00  0.00000000000E+00  0.72098142421E+02  0.72098142421E+02  0.00000000000E+00 0. -1.
         21   -1    0    0  501  502 -0.00000000000E+00 -0.00000000000E+00 -0.10526021722E+04  0.10526021722E+04  0.00000000000E+00 0. -1.
         25    1    1    2    0    0  0.18408679257E+03  0.70519867096E+02 -0.78890498910E+03  0.82271324329E+03  0.12500000000E+03 0.  0.
         25    1    1    2    0    0 -0.18408679257E+03 -0.70519867096E+02 -0.19159904064E+03  0.30198707129E+03  0.12500000000E+03 0.  0.
</event>
<event>
 4    0  0.2253506E-002  0.1818733E+03  0.7546771E-02  0.1166002E+00
         21   -1    0    0  502  501  0.00000000000E+00  0.00000000000E+00  0.29381726480E+03  0.29381726480E+03  0.00000000000E+00 0.  1.
         21   -1    0    0  501  502 -0.00000000000E+00 -0.00000000000E+00 -0.11257978603E+03  0.11257978603E+03  0.00000000000E+00 0.  1.
         25    1    1    2    0    0 -0.92648528665E+02 -0.85142728706E+02  0.45652229686E+02  0.18314518883E+03  0.12500000000E+03 0.  0.
         25    1    1    2    0    0  0.92648528665E+02  0.85142728706E+02  0.13558524908E+03  0.22325186199E+03  0.12500000000E+03 0.  0.
</event>
<event>
 4    0  0.2253506E-002  0.1838923E+03  0.7546771E-02  0.1164088E+00
         21   -1    0    0  502  501  0.00000000000E+00  0.00000000000E+00  0.95866477098E+03  0.95866477098E+03  0.00000000000E+00 0.  1.
         21   -1    0    0  501  502 -0.00000000000E+00 -0.00000000000E+00 -0.35274463728E+02  0.35274463728E+02  0.00000000000E+00 0.  1.
         25    1    1    2    0    0 -0.78833707637E+02  0.64972833987E+02  0.69968679913E+03  0.71806882643E+03  0.12500000000E+03 0.  0.
         25    1    1    2    0    0  0.78833707637E+02 -0.64972833987E+02  0.22370350812E+03  0.27587040828E+03  0.12500000000E+03 0.  0.
</event>
<event>
 4    0  0.2253506E-002  0.2130447E+03  0.7546771E-02  0.1139177E+00
         21   -1    0    0  502  501  0.00000000000E+00  0.00000000000E+00  0.66004286118E+03  0.66004286118E+03  0.00000000000E+00 0.  1.
         21   -1    0    0  501  502 -0.00000000000E+00 -0.00000000000E+00 -0.68765267256E+02  0.68765267256E+02  0.00000000000E+00 0.  1.
         25    1    1    2    0    0 -0.98496107720E+02 -0.88068672520E+02  0.10589774005E+03  0.21046830085E+03  0.12500000000E+03 0.  0.
         25    1    1    2    0    0  0.98496107720E+02  0.88068672520E+02  0.48537985387E+03  0.51833982758E+03  0.12500000000E+03 0.  0.
</event>
<event>
 4    0  0.2253506E-002  0.1778787E+03  0.7546771E-02  0.1169872E+00
         21   -1    0    0  502  501  0.00000000000E+00  0.00000000000E+00  0.13355449346E+03  0.13355449346E+03  0.00000000000E+00 0.  1.
         21   -1    0    0  501  502 -0.00000000000E+00 -0.00000000000E+00 -0.23691325615E+03  0.23691325615E+03  0.00000000000E+00 0.  1.
         25    1    1    2    0    0 -0.75794146194E+02  0.23958953501E+02 -0.15422478606E+03  0.21384356124E+03  0.12500000000E+03 0.  0.
         25    1    1    2    0    0  0.75794146194E+02 -0.23958953501E+02  0.50866023369E+02  0.15662418837E+03  0.12500000000E+03 0.  0.
</event>
<event>
 4    0  0.2253506E-002  0.1942876E+03  0.7546771E-02  0.1154650E+00
         21   -1    0    0  502  501  0.00000000000E+00  0.00000000000E+00  0.10117050072E+04  0.10117050072E+04  0.00000000000E+00 0. -1.
         21   -1    0    0  501  502 -0.00000000000E+00 -0.00000000000E+00 -0.37310928973E+02  0.37310928973E+02  0.00000000000E+00 0. -1.
         25    1    1    2    0    0 -0.10009950057E+03  0.66091448585E+02  0.72462279956E+03  0.74504442232E+03  0.12500000000E+03 0.  0.
         25    1    1    2    0    0  0.10009950057E+03 -0.66091448585E+02  0.24977127869E+03  0.30397151388E+03  0.12500000000E+03 0.  0.
</event>
<event>
 4    0  0.2253506E-002  0.2266281E+03  0.7546771E-02  0.1129036E+00
         21   -1    0    0  502  501  0.00000000000E+00  0.00000000000E+00  0.10295334141E+03  0.10295334141E+03  0.00000000000E+00 0. -1.
         21   -1    0    0  501  502 -0.00000000000E+00 -0.00000000000E+00 -0.49886943974E+03  0.49886943974E+03  0.00000000000E+00 0.  1.
         25    1    1    2    0    0 -0.12459428547E+03 -0.83908879942E+02 -0.45576745290E+02  0.20066558204E+03  0.12500000000E+03 0.  0.
         25    1    1    2    0    0  0.12459428547E+03  0.83908879942E+02 -0.35033935304E+03  0.40115719911E+03  0.12500000000E+03 0.  0.
</event>
<event>
 4    0  0.2253506E-002  0.2087235E+03  0.7546771E-02  0.1142581E+00
         21   -1    0    0  502  501  0.00000000000E+00  0.00000000000E+00  0.34361652417E+03  0.34361652417E+03  0.00000000000E+00 0.  1.
         21   -1    0    0  501  502 -0.00000000000E+00 -0.00000000000E+00 -0.12678528065E+03  0.12678528065E+03  0.00000000000E+00 0.  1.
         25    1    1    2    0    0  0.10654974009E+02  0.15384111983E+03  0.18109461948E+03  0.26870221403E+03  0.12500000000E+03 0.  0.
         25    1    1    2    0    0 -0.10654974009E+02 -0.15384111983E+03  0.35736624044E+02  0.20169959078E+03  0.12500000000E+03 0.  0.
</event>
<event>
 4    0  0.2253506E-002  0.2173781E+03  0.7546771E-02  0.1135853E+00
         21   -1    0    0  502  501  0.00000000000E+00  0.00000000000E+00  0.42608160916E+03  0.42608160916E+03  0.00000000000E+00 0. -1.
         21   -1    0    0  501  502 -0.00000000000E+00 -0.00000000000E+00 -0.11090186519E+03  0.11090186519E+03  0.00000000000E+00 0. -1.
         25    1    1    2    0    0  0.42945298133E+02  0.16584363417E+02 -0.54583879538E+02  0.14395742304E+03  0.12500000000E+03 0.  0.
         25    1    1    2    0    0 -0.42945298133E+02 -0.16584363417E+02  0.36976362350E+03  0.39302605131E+03  0.12500000000E+03 0.  0.
</event>
<event>
 4    0  0.2253506E-002  0.2300880E+03  0.7546771E-02  0.1126578E+00
         21   -1    0    0  502  501  0.00000000000E+00  0.00000000000E+00  0.25445279745E+03  0.25445279745E+03  0.00000000000E+00 0.  1.
         21   -1    0    0  501  502 -0.00000000000E+00 -0.00000000000E+00 -0.20805618421E+03  0.20805618421E+03  0.00000000000E+00 0.  1.
         25    1    1    2    0    0 -0.18658550192E+03  0.47396804077E+02  0.39243941696E+02  0.23286410957E+03  0.12500000000E+03 0.  0.
         25    1    1    2    0    0  0.18658550192E+03 -0.47396804077E+02  0.71526715437E+01  0.22964487209E+03  0.12500000000E+03 0.  0.
</event>
<event>
 4    0  0.2253506E-002  0.2143890E+03  0.7546771E-02  0.1138137E+00
         21   -1    0    0  502  501  0.00000000000E+00  0.00000000000E+00  0.45574288596E+03  0.45574288596E+03  0.00000000000E+00 0.  1.
         21   -1    0    0  501  502 -0.00000000000E+00 -0.00000000000E+00 -0.10085214630E+03  0.10085214630E+03  0.00000000000E+00 0.  1.
         25    1    1    2    0    0  0.14507333561E+03 -0.96065211060E+02  0.16715426560E+03  0.27173580181E+03  0.12500000000E+03 0.  0.
         25    1    1    2    0    0 -0.14507333561E+03  0.96065211060E+02  0.18773647406E+03  0.28485923045E+03  0.12500000000E+03 0.  0.
</event>
<event>
 4    0  0.2253506E-002  0.2144372E+03  0.7546771E-02  0.1138100E+00
         21   -1    0    0  502  501  0.00000000000E+00  0.00000000000E+00  0.84242623195E+03  0.84242623195E+03  0.00000000000E+00 0.  1.
         21   -1    0    0  501  502 -0.00000000000E+00 -0.00000000000E+00 -0.54584371582E+02  0.54584371582E+02  0.00000000000E+00 0.  1.
         25    1    1    2    0    0  0.13542576496E+03  0.97474672087E+02  0.28899163631E+03  0.35634620157E+03  0.12500000000E+03 0.  0.
         25    1    1    2    0    0 -0.13542576496E+03 -0.97474672087E+02  0.49885022406E+03  0.54066440197E+03  0.12500000000E+03 0.  0.
</event>
<event>
 4    0  0.2253506E-002  0.2538822E+03  0.7546771E-02  0.1110876E+00
         21   -1    0    0  502  501  0.00000000000E+00  0.00000000000E+00  0.11857195302E+03  0.11857195302E+03  0.00000000000E+00 0. -1.
         21   -1    0    0  501  502 -0.00000000000E+00 -0.00000000000E+00 -0.54360390047E+03  0.54360390047E+03  0.00000000000E+00 0. -1.
         25    1    1    2    0    0 -0.87843581032E+02  0.17551218077E+03 -0.80098990315E+02  0.24609321116E+03  0.12500000000E+03 0.  0.
         25    1    1    2    0    0  0.87843581032E+02 -0.17551218077E+03 -0.34493295714E+03  0.41608264233E+03  0.12500000000E+03 0.  0.
</event>
<event>
 4    0  0.2253506E-002  0.2244397E+03  0.7546771E-02  0.1130616E+00
         21   -1    0    0  502  501  0.00000000000E+00  0.00000000000E+00  0.26155492671E+03  0.26155492671E+03  0.00000000000E+00 0.  1.
         21   -1    0    0  501  502 -0.00000000000E+00 -0.00000000000E+00 -0.19259112984E+03  0.19259112984E+03  0.00000000000E+00 0. -1.
         25    1    1    2    0    0 -0.12127456104E+03 -0.14125450025E+03  0.43962320901E+02  0.22851266629E+03  0.12500000000E+03 0.  0.
         25    1    1    2    0    0  0.12127456104E+03  0.14125450025E+03  0.25001475974E+02  0.22563339026E+03  0.12500000000E+03 0.  0.
</event>
<event>
 4    0  0.2253506E-002  0.2450380E+03  0.7546771E-02  0.1116481E+00
         21   -1    0    0  502  501  0.00000000000E+00  0.00000000000E+00  0.41288049665E+03  0.41288049665E+03  0.00000000000E+00 0. -1.
         21   -1    0    0  501  502 -0.00000000000E+00 -0.00000000000E+00 -0.14542613302E+03  0.14542613302E+03  0.00000000000E+00 0. -1.
         25    1    1    2    0    0  0.15300210159E+03  0.13188787826E+03  0.65235629998E+02  0.24634273471E+03  0.12500000000E+03 0.  0.
         25    1    1    2    0    0 -0.15300210159E+03 -0.13188787826E+03  0.20221873363E+03  0.31196389495E+03  0.12500000000E+03 0.  0.
</event>
<event>
 4    0  0.2253506E-002  0.2547925E+03  0.7546771E-02  0.1110313E+00
         21   -1    0    0  502  501  0.00000000000E+00  0.00000000000E+00  0.21222510813E+03  0.21222510813E+03  0.00000000000E+00 0. -1.
         21   -1    0    0  501  502 -0.00000000000E+00 -0.00000000000E+00 -0.30589800042E+03  0.30589800042E+03  0.00000000000E+00 0. -1.
         25    1    1    2    0    0 -0.20764345945E+03 -0.54325443492E+02  0.10923609349E+02  0.24861895604E+03  0.12500000000E+03 0.  0.
         25    1    1    2    0    0  0.20764345945E+03  0.54325443492E+02 -0.10459650165E+03  0.26950415251E+03  0.12500000000E+03 0.  0.
</event>
<event>
 4    0  0.2253506E-002  0.2869205E+03  0.7546771E-02  0.1091968E+00
         21   -1    0    0  502  501  0.00000000000E+00  0.00000000000E+00  0.13672004705E+03  0.13672004705E+03  0.00000000000E+00 0.  1.
         21   -1    0    0  501  502 -0.00000000000E+00 -0.00000000000E+00 -0.60213098498E+03  0.60213098498E+03  0.00000000000E+00 0.  1.
         25    1    1    2    0    0  0.11098708481E+03  0.91088099218E+02  0.43693630507E+02  0.19531847880E+03  0.12500000000E+03 0.  0.
         25    1    1    2    0    0 -0.11098708481E+03 -0.91088099218E+02 -0.50910456844E+03  0.54353255323E+03  0.12500000000E+03 0.  0.
</event>
<event>
 4    0  0.2253506E-002  0.1990662E+03  0.7546771E-02  0.1150529E+00
         21   -1    0    0  502  501  0.00000000000E+00  0.00000000000E+00  0.16161008180E+03  0.16161008180E+03  0.00000000000E+00 0. -1.
         21   -1    0    0  501  502 -0.00000000000E+00 -0.00000000000E+00 -0.24520342519E+03  0.24520342519E+03  0.00000000000E+00 0. -1.
         25    1    1    2    0    0 -0.13550340216E+02 -0.14364543697E+03  0.15867181983E+02  0.19155780001E+03  0.12500000000E+03 0.  0.
         25    1    1    2    0    0  0.13550340216E+02  0.14364543697E+03 -0.99460525369E+02  0.21525570698E+03  0.12500000000E+03 0.  0.
</event>
<event>
 4    0  0.2253506E-002  0.2673587E+03  0.7546771E-02  0.1102801E+00
         21   -1    0    0  502  501  0.00000000000E+00  0.00000000000E+00  0.57819511101E+03  0.57819511101E+03  0.00000000000E+00 0. -1.
         21   -1    0    0  501  502 -0.00000000000E+00 -0.00000000000E+00 -0.12362724568E+03  0.12362724568E+03  0.00000000000E+00 0. -1.
         25    1    1    2    0    0 -0.13280361426E+03  0.10336830844E+03  0.94946705694E+01  0.20984984136E+03  0.12500000000E+03 0.  0.
         25    1    1    2    0    0  0.13280361426E+03 -0.10336830844E+03  0.44507319476E+03  0.49197251534E+03  0.12500000000E+03 0.  0.
</event>
<event>
 4    0  0.2253506E-002  0.1998637E+03  0.7546771E-02  0.1149854E+00
         21   -1    0    0  502  501  0.00000000000E+00  0.00000000000E+00  0.50159906922E+03  0.50159906922E+03  0.00000000000E+00 0.  1.
         21   -1    0    0  501  502 -0.00000000000E+00 -0.00000000000E+00 -0.79636331355E+02  0.79636331355E+02  0.00000000000E+00 0.  1.
         25    1    1    2    0    0 -0.13801351907E+03 -0.67351323891E+02  0.25044502117E+03  0.31926735021E+03  0.12500000000E+03 0.  0.
         25    1    1    2    0    0  0.13801351907E+03  0.67351323891E+02  0.17151771669E+03  0.26196805037E+03  0.12500000000E+03 0.  0.
</event>
<event>
 4    0  0.2253506E-002  0.1495123E+03  0.7546771E-02  0.1201074E+00
         21   -1    0    0  502  501  0.00000000000E+00  0.00000000000E+00  0.43348423411E+02  0.43348423411E+02  0.00000000000E+00 0. -1.
         21   -1    0    0  501  502 -0.00000000000E+00 -0.00000000000E+00 -0.51568014960E+03  0.51568014960E+03  0.00000000000E+00 0. -1.
         25    1    1    2    0    0 -0.75722002429E+02  0.11101833480E+02 -0.29136697358E+03  0.32615454259E+03  0.12500000000E+03 0.  0.
         25    1    1    2    0    0  0.75722002429E+02 -0.11101833480E+02 -0.18096475261E+03  0.23287403042E+03  0.12500000000E+03 0.  0.
</event>
<event>
 4    0  0.2253506E-002  0.1897371E+03  0.7546771E-02  0.1158699E+00
         21   -1    0    0  502  501  0.00000000000E+00  0.00000000000E+00  0.45632847201E+02  0.45632847201E+02  0.00000000000E+00 0. -1.
         21   -1    0    0  501  502 -0.00000000000E+00 -0.00000000000E+00 -0.78890940485E+03  0.78890940485E+03  0.00000000000E+00 0. -1.
         25    1    1    2    0    0 -0.33015377262E+02 -0.13100679395E+03 -0.27032222048E+03  0.32703501049E+03  0.12500000000E+03 0.  0.
         25    1    1    2    0    0  0.33015377262E+02  0.13100679395E+03 -0.47295433716E+03  0.50750724156E+03  0.12500000000E+03 0.  0.
</event>
<event>
 4    0  0.2253506E-002  0.1866365E+03  0.7546771E-02  0.1161530E+00
         21   -1    0    0  502  501  0.00000000000E+00  0.00000000000E+00  0.17357757777E+03  0.17357757777E+03  0.00000000000E+00 0.  1.
         21   -1    0    0  501  502 -0.00000000000E+00 -0.00000000000E+00 -0.20067797715E+03  0.20067797715E+03  0.00000000000E+00 0.  1.
         25    1    1    2    0    0 -0.73701059478E+02  0.10955057009E+03  0.28691721067E+02  0.18406897738E+03  0.12500000000E+03 0.  0.
         25    1    1    2    0    0  0.73701059478E+02 -0.10955057009E+03 -0.55792120447E+02  0.19018657755E+03  0.12500000000E+03 0.  0.
</event>
<event>
 4    0  0.2253506E-002  0.2558977E+03  0.7546771E-02  0.1109633E+00
         21   -1    0    0  502  501  0.00000000000E+00  0.00000000000E+00  0.46268075082E+03  0.46268075082E+03  0.00000000000E+00 0.  1.
         21   -1    0    0  501  502 -0.00000000000E+00 -0.00000000000E+00 -0.14153088135E+03  0.14153088135E+03  0.00000000000E+00 0.  1.
         25    1    1    2    0    0 -0.20647666250E+03  0.83247062677E+02  0.18088383538E+03  0.31290037952E+03  0.12500000000E+03 0.  0.
         25    1    1    2    0    0  0.20647666250E+03 -0.83247062677E+02  0.14026603409E+03  0.29131125265E+03  0.12500000000E+03 0.  0.
</event>
<event>
 4    0  0.2253506E-002  0.2069142E+03  0.7546771E-02  0.1144033E+00
         21   -1    0    0  502  501  0.00000000000E+00  0.00000000000E+00  0.98468702507E+02  0.98468702507E+02  0.00000000000E+00 0. -1.
         21   -1    0    0  501  502 -0.00000000000E+00 -0.00000000000E+00 -0.43479280620E+03  0.43479280620E+03  0.00000000000E+00 0. -1.
         25    1    1    2    0    0 -0.72892723055E+02 -0.89725094795E+02 -0.16650644820E+02  0.17107362650E+03  0.12500000000E+03 0.  0.
         25    1    1    2    0    0  0.72892723055E+02  0.89725094795E+02 -0.31967345887E+03  0.36218788220E+03  0.12500000000E+03 0.  0.
</event>
<event>
 4    0  0.2253506E-002  0.2329464E+03  0.7546771E-02  0.1124583E+00
         21   -1    0    0  502  501  0.00000000000E+00  0.00000000000E+00  0.49722769925E+02  0.49722769925E+02  0.00000000000E+00 0. -1.
         21   -1    0    0  501  502 -0.00000000000E+00 -0.00000000000E+00 -0.10913316418E+04  0.10913316418E+04  0.00000000000E+00 0. -1.
         25    1    1    2    0    0  0.42872900736E+01  0.16132123543E+03 -0.79568153284E+03  0.82144812591E+03  0.12500000000E+03 0.  0.
         25    1    1    2    0    0 -0.42872900736E+01 -0.16132123543E+03 -0.24592733908E+03  0.31960628586E+03  0.12500000000E+03 0.  0.
</event>
<event>
 4    0  0.2253506E-002  0.3070833E+03  0.7546771E-02  0.1081752E+00
         21   -1    0    0  502  501  0.00000000000E+00  0.00000000000E+00  0.18461867503E+04  0.18461867503E+04  0.00000000000E+00 0. -1.
         21   -1    0    0  501  502 -0.00000000000E+00 -0.00000000000E+00 -0.51078338896E+02  0.51078338896E+02  0.00000000000E+00 0. -1.
         25    1    1    2    0    0  0.43926435968E+02  0.21143841827E+03  0.14505019847E+04  0.14718073053E+04  0.12500000000E+03 0.  0.
         25    1    1    2    0    0 -0.43926435968E+02 -0.21143841827E+03  0.34460642670E+03  0.42545778383E+03  0.12500000000E+03 0.  0.
</event>
<event>
 4    0  0.2253506E-002  0.2938868E+03  0.7546771E-02  0.1088337E+00
         21   -1    0    0  502  501  0.00000000000E+00  0.00000000000E+00  0.15322121988E+03  0.15322121988E+03  0.00000000000E+00 0.  1.
         21   -1    0    0  501  502 -0.00000000000E+00 -0.00000000000E+00 -0.56369106860E+03  0.56369106860E+03  0.00000000000E+00 0.  1.
         25    1    1    2    0    0  0.44447857335E+02 -0.10024121546E+03  0.90328670546E+02  0.18923049971E+03  0.12500000000E+03 0.  0.
         25    1    1    2    0    0 -0.44447857335E+02  0.10024121546E+03 -0.50079851927E+03  0.52768178877E+03  0.12500000000E+03 0.  0.
</event>
<event>
 4    0  0.2253506E-002  0.3751771E+03  0.7546771E-02  0.1052731E+00
         21   -1    0    0  502  501  0.00000000000E+00  0.00000000000E+00  0.17548404577E+03  0.17548404577E+03  0.00000000000E+00 0.  1.
         21   -1    0    0  501  502 -0.00000000000E+00 -0.00000000000E+00 -0.80211183565E+03  0.80211183565E+03  0.00000000000E+00 0.  1.
         25    1    1    2    0    0  0.35244223949E+03  0.15218216185E+02 -0.27919763918E+03  0.46692981058E+03  0.12500000000E+03 0.  0.
         25    1    1    2    0    0 -0.35244223949E+03 -0.15218216185E+02 -0.34743015070E+03  0.51066607083E+03  0.12500000000E+03 0.  0.
</event>
<event>
 4    0  0.2253506E-002  0.2053726E+03  0.7546771E-02  0.1145284E+00
         21   -1    0    0  502  501  0.00000000000E+00  0.00000000000E+00  0.12999122250E+04  0.12999122250E+04  0.00000000000E+00 0.  1.
         21   -1    0    0  501  502 -0.00000000000E+00 -0.00000000000E+00 -0.32446744136E+02  0.32446744136E+02  0.00000000000E+00 0.  1.
         25    1    1    2    0    0  0.57777561276E+02 -0.15229323684E+03  0.64875341056E+03  0.68046856230E+03  0.12500000000E+03 0.  0.
         25    1    1    2    0    0 -0.57777561276E+02  0.15229323684E+03  0.61871207027E+03  0.65189040679E+03  0.12500000000E+03 0.  0.
</event>
<event>
 4    0  0.2253506E-002  0.2430588E+03  0.7546771E-02  0.1117772E+00
         21   -1    0    0  502  501  0.00000000000E+00  0.00000000000E+00  0.20856855964E+04  0.20856855964E+04  0.00000000000E+00 0. -1.
         21   -1    0    0  501  502 -0.00000000000E+00 -0.00000000000E+00 -0.28325251481E+02  0.28325251481E+02  0.00000000000E+00 0. -1.
         25    1    1    2    0    0 -0.28098048944E+02  0.11807323444E+03  0.29167322256E+03  0.33974852141E+03  0.12500000000E+03 0.  0.
         25    1    1    2    0    0  0.28098048944E+02 -0.11807323444E+03  0.17656871223E+04  0.17742623264E+04  0.12500000000E+03 0.  0.
</event>
<event>
 4    0  0.2253506E-002  0.2025895E+03  0.7546771E-02  0.1147572E+00
         21   -1    0    0  502  501  0.00000000000E+00  0.00000000000E+00  0.10531105740E+04  0.10531105740E+04  0.00000000000E+00 0.  1.
         21   -1    0    0  501  502 -0.00000000000E+00 -0.00000000000E+00 -0.38972639157E+02  0.38972639157E+02  0.00000000000E+00 0.  1.
         25    1    1    2    0    0  0.55017538709E+02 -0.14705631507E+03  0.58161801864E+03  0.61526986679E+03  0.12500000000E+03 0.  0.
         25    1    1    2    0    0 -0.55017538709E+02  0.14705631507E+03  0.43251991621E+03  0.47681334638E+03  0.12500000000E+03 0.  0.
</event>
<event>
 4    0  0.2253506E-002  0.2405887E+03  0.7546771E-02  0.1119401E+00
         21   -1    0    0  502  501  0.00000000000E+00  0.00000000000E+00  0.52346292629E+02  0.52346292629E+02  0.00000000000E+00 0.  1.
         21   -1    0    0  501  502 -0.00000000000E+00 -0.00000000000E+00 -0.11057696063E+04  0.11057696063E+04  0.00000000000E+00 0.  1.
         25    1    1    2    0    0  0.10816638998E+02 -0.11114676621E+03 -0.94210790735E+03  0.95690277062E+03  0.12500000000E+03 0.  0.
         25    1    1    2    0    0 -0.10816638998E+02  0.11114676621E+03 -0.11131540631E+03  0.20121312830E+03  0.12500000000E+03 0.  0.
</event>
<event>
 4    0  0.2253506E-002  0.2607799E+03  0.7546771E-02  0.1106676E+00
         21   -1    0    0  502  501  0.00000000000E+00  0.00000000000E+00  0.95979263248E+02  0.95979263248E+02  0.00000000000E+00 0. -1.
         21   -1    0    0  501  502 -0.00000000000E+00 -0.00000000000E+00 -0.70855044994E+03  0.70855044994E+03  0.00000000000E+00 0. -1.
         25    1    1    2    0    0  0.59799492559E+02 -0.21921822641E+03 -0.34848880692E+03  0.43439850212E+03  0.12500000000E+03 0.  0.
         25    1    1    2    0    0 -0.59799492559E+02  0.21921822641E+03 -0.26408237978E+03  0.37013121107E+03  0.12500000000E+03 0.  0.
</event>
<event>
 4    0  0.2253506E-002  0.1811441E+03  0.7546771E-02  0.1166700E+00
         21   -1    0    0  502  501  0.00000000000E+00  0.00000000000E+00  0.77516207842E+02  0.77516207842E+02  0.00000000000E+00 0. -1.
         21   -1    0    0  501  502 -0.00000000000E+00 -0.00000000000E+00 -0.42330734900E+03  0.42330734900E+03  0.00000000000E+00 0. -1.
         25    1    1    2    0    0 -0.12052728669E+03  0.47801395579E+02 -0.14607648490E+03  0.23189467371E+03  0.12500000000E+03 0.  0.
         25    1    1    2    0    0  0.12052728669E+03 -0.47801395579E+02 -0.19971465626E+03  0.26892888313E+03  0.12500000000E+03 0.  0.
</event>
<event>
 4    0  0.2253506E-002  0.2875456E+03  0.7546771E-02  0.1091638E+00
         21   -1    0    0  502  501  0.00000000000E+00  0.00000000000E+00  0.85748647904E+02  0.85748647904E+02  0.00000000000E+00 0. -1.
         21   -1    0    0  501  502 -0.00000000000E+00 -0.00000000000E+00 -0.96424231456E+03  0.96424231456E+03  0.00000000000E+00 0.  1.
         25    1    1    2    0    0  0.70316820196E+02 -0.21682655722E+03 -0.21489650184E+03  0.33728877482E+03  0.12500000000E+03 0.  0.
         25    1    1    2    0    0 -0.70316820196E+02  0.21682655722E+03 -0.66359716482E+03  0.71270218765E+03  0.12500000000E+03 0.  0.
</event>
<event>
 4    0  0.2253506E-002  0.3316767E+03  0.7546771E-02  0.1070397E+00
         21   -1    0    0  502  501  0.00000000000E+00  0.00000000000E+00  0.20431827376E+03  0.20431827376E+03  0.00000000000E+00 0.  1.
         21   -1    0    0  501  502 -0.00000000000E+00 -0.00000000000E+00 -0.53842190952E+03  0.53842190952E+03  0.00000000000E+00 0.  1.
         25    1    1    2    0    0 -0.23706200372E+03  0.60973174327E+02 -0.37492668029E+03  0.46487755074E+03  0.12500000000E+03 0.  0.
         25    1    1    2    0    0  0.23706200372E+03 -0.60973174327E+02  0.40823044531E+02  0.27786263253E+03  0.12500000000E+03 0.  0.
</event>
<event>
 4    0  0.2253506E-002  0.3741829E+03  0.7546771E-02  0.1053105E+00
         21   -1    0    0  502  501  0.00000000000E+00  0.00000000000E+00  0.26859825623E+03  0.26859825623E+03  0.00000000000E+00 0.  1.
         21   -1    0    0  501  502 -0.00000000000E+00 -0.00000000000E+00 -0.52127239817E+03  0.52127239817E+03  0.00000000000E+00 0.  1.
         25    1    1    2    0    0  0.90335196375E+02  0.37357253741E+02  0.23132525435E+03  0.28052163091E+03  0.12500000000E+03 0.  0.
         25    1    1    2    0    0 -0.90335196375E+02 -0.37357253741E+02 -0.48399939629E+03  0.50934902348E+03  0.12500000000E+03 0.  0.
</event>
<event>
 4    0  0.2253506E-002  0.2111718E+03  0.7546771E-02  0.1140641E+00
         21   -1    0    0  502  501  0.00000000000E+00  0.00000000000E+00  0.82708850858E+03  0.82708850858E+03  0.00000000000E+00 0.  1.
         21   -1    0    0  501  502 -0.00000000000E+00 -0.00000000000E+00 -0.53916269484E+02  0.53916269484E+02  0.00000000000E+00 0.  1.
         25    1    1    2    0    0 -0.14824157987E+03  0.37984715653E+02  0.23118160421E+03  0.30411895493E+03  0.12500000000E+03 0.  0.
         25    1    1    2    0    0  0.14824157987E+03 -0.37984715653E+02  0.54199063488E+03  0.57688582313E+03  0.12500000000E+03 0.  0.
</event>
<event>
 4    0  0.2253506E-002  0.4349505E+03  0.7546771E-02  0.1032307E+00
         21   -1    0    0  502  501  0.00000000000E+00  0.00000000000E+00  0.15150584857E+03  0.15150584857E+03  0.00000000000E+00 0.  1.
         21   -1    0    0  501  502 -0.00000000000E+00 -0.00000000000E+00 -0.12486773009E+04  0.12486773009E+04  0.00000000000E+00 0.  1.
         25    1    1    2    0    0 -0.85015591157E+02  0.23915970029E+03 -0.10803154081E+04  0.11167503722E+04  0.12500000000E+03 0.  0.
         25    1    1    2    0    0  0.85015591157E+02 -0.23915970029E+03 -0.16856044260E+02  0.28343277723E+03  0.12500000000E+03 0.  0.
</event>
<event>
 4    0  0.2253506E-002  0.1815929E+03  0.7546771E-02  0.1166270E+00
         21   -1    0    0  502  501  0.00000000000E+00  0.00000000000E+00  0.35223524015E+03  0.35223524015E+03  0.00000000000E+00 0.  1.
         21   -1    0    0  501  502 -0.00000000000E+00 -0.00000000000E+00 -0.93619230783E+02  0.93619230783E+02  0.00000000000E+00 0.  1.
         25    1    1    2    0    0  0.95417898406E+02 -0.62503637913E+02  0.48436661520E+02  0.17601815323E+03  0.12500000000E+03 0.  0.
         25    1    1    2    0    0 -0.95417898406E+02  0.62503637913E+02  0.21017934785E+03  0.26983631770E+03  0.12500000000E+03 0.  0.
</event>
<event>
 4    0  0.2253506E-002  0.2171597E+03  0.7546771E-02  0.1136019E+00
         21   -1    0    0  502  501  0.00000000000E+00  0.00000000000E+00  0.32252331810E+03  0.32252331810E+03  0.00000000000E+00 0.  1.
         21   -1    0    0  501  502 -0.00000000000E+00 -0.00000000000E+00 -0.14621676988E+03  0.14621676988E+03  0.00000000000E+00 0.  1.
         25    1    1    2    0    0 -0.31720682075E+02  0.11394507566E+02  0.27631891348E+03  0.30514452055E+03  0.12500000000E+03 0.  0.
         25    1    1    2    0    0  0.31720682075E+02 -0.11394507566E+02 -0.10001236527E+03  0.16359556742E+03  0.12500000000E+03 0.  0.
</event>
<event>
 4    0  0.2253506E-002  0.1817114E+03  0.7546771E-02  0.1166157E+00
         21   -1    0    0  502  501  0.00000000000E+00  0.00000000000E+00  0.37082761532E+03  0.37082761532E+03  0.00000000000E+00 0. -1.
         21   -1    0    0  501  502 -0.00000000000E+00 -0.00000000000E+00 -0.89041457470E+02  0.89041457470E+02  0.00000000000E+00 0. -1.
         25    1    1    2    0    0  0.52351422758E+02 -0.58240016173E+02  0.66105844615E+01  0.14765253393E+03  0.12500000000E+03 0.  0.
         25    1    1    2    0    0 -0.52351422758E+02  0.58240016173E+02  0.27517557339E+03  0.31221653886E+03  0.12500000000E+03 0.  0.
</event>
<event>
 4    0  0.2253506E-002  0.1550537E+03  0.7546771E-02  0.1194397E+00
         21   -1    0    0  502  501  0.00000000000E+00  0.00000000000E+00  0.54663420780E+03  0.54663420780E+03  0.00000000000E+00 0. -1.
         21   -1    0    0  501  502 -0.00000000000E+00 -0.00000000000E+00 -0.43981231217E+02  0.43981231217E+02  0.00000000000E+00 0. -1.
         25    1    1    2    0    0 -0.52098047404E+01  0.73060081988E+02  0.14611440862E+03  0.20576524987E+03  0.12500000000E+03 0.  0.
         25    1    1    2    0    0  0.52098047404E+01 -0.73060081988E+02  0.35653856796E+03  0.38485018915E+03  0.12500000000E+03 0.  0.
</event>
<event>
 4    0  0.2253506E-002  0.2075082E+03  0.7546771E-02  0.1143555E+00
         21   -1    0    0  502  501  0.00000000000E+00  0.00000000000E+00  0.10519597466E+04  0.10519597466E+04  0.00000000000E+00 0. -1.
         21   -1    0    0  501  502 -0.00000000000E+00 -0.00000000000E+00 -0.40932784314E+02  0.40932784314E+02  0.00000000000E+00 0. -1.
         25    1    1    2    0    0  0.12180074712E+03 -0.64610568273E+02  0.74722053370E+03  0.77004770860E+03  0.12500000000E+03 0.  0.
         25    1    1    2    0    0 -0.12180074712E+03  0.64610568273E+02  0.26380642857E+03  0.32284482230E+03  0.12500000000E+03 0.  0.
</event>
<event>
 4    0  0.2253506E-002  0.1688172E+03  0.7546771E-02  0.1179087E+00
         21   -1    0    0  502  501  0.00000000000E+00  0.00000000000E+00  0.82934954057E+03  0.82934954057E+03  0.00000000000E+00 0. -1.
         21   -1    0    0  501  502 -0.00000000000E+00 -0.00000000000E+00 -0.34363362355E+02  0.34363362355E+02  0.00000000000E+00 0. -1.
         25    1    1    2    0    0  0.81729603130E+02  0.55783569366E+02  0.25546027076E+03  0.30112536355E+03  0.12500000000E+03 0.  0.
         25    1    1    2    0    0 -0.81729603130E+02 -0.55783569366E+02  0.53952590746E+03  0.56258753937E+03  0.12500000000E+03 0.  0.
</event>
<event>
 4    0  0.2253506E-002  0.2113644E+03  0.7546771E-02  0.1140490E+00
         21   -1    0    0  502  501  0.00000000000E+00  0.00000000000E+00  0.67949554468E+02  0.67949554468E+02  0.00000000000E+00 0.  1.
         21   -1    0    0  501  502 -0.00000000000E+00 -0.00000000000E+00 -0.65747147663E+03  0.65747147663E+03  0.00000000000E+00 0.  1.
         25    1    1    2    0    0  0.12778708588E+03 -0.27636588205E+01 -0.48824607950E+03  0.51994846983E+03  0.12500000000E+03 0.  0.
         25    1    1    2    0    0 -0.12778708588E+03  0.27636588205E+01 -0.10127584266E+03  0.20547256127E+03  0.12500000000E+03 0.  0.
</event>
<event>
 4    0  0.2253506E-002  0.2450750E+03  0.7546771E-02  0.1116457E+00
         21   -1    0    0  502  501  0.00000000000E+00  0.00000000000E+00  0.10980428769E+03  0.10980428769E+03  0.00000000000E+00 0. -1.
         21   -1    0    0  501  502 -0.00000000000E+00 -0.00000000000E+00 -0.54698913500E+03  0.54698913500E+03  0.00000000000E+00 0. -1.
         25    1    1    2    0    0  0.11554915227E+02  0.20348728899E+02  0.62130877035E+02  0.14153738981E+03  0.12500000000E+03 0.  0.
         25    1    1    2    0    0 -0.11554915227E+02 -0.20348728899E+02 -0.49931572434E+03  0.51525603287E+03  0.12500000000E+03 0.  0.
</event>
<event>
 4    0  0.2253506E-002  0.2899141E+03  0.7546771E-02  0.1090394E+00
         21   -1    0    0  502  501  0.00000000000E+00  0.00000000000E+00  0.20113422455E+04  0.20113422455E+04  0.00000000000E+00 0.  1.
         21   -1    0    0  501  502 -0.00000000000E+00 -0.00000000000E+00 -0.41788099760E+02  0.41788099760E+02  0.00000000000E+00 0.  1.
         25    1    1    2    0    0 -0.13232740603E+03 -0.12217830106E+02  0.18696439960E+03  0.26122883546E+03  0.12500000000E+03 0.  0.
         25    1    1    2    0    0  0.13232740603E+03  0.12217830106E+02  0.17825897462E+04  0.17919015098E+04  0.12500000000E+03 0.  0.
</event>
<event>
 4    0  0.2253506E-002  0.1905613E+03  0.7546771E-02  0.1157956E+00
         21   -1    0    0  502  501  0.00000000000E+00  0.00000000000E+00  0.29748924275E+02  0.29748924275E+02  0.00000000000E+00 0.  1.
         21   -1    0    0  501  502 -0.00000000000E+00 -0.00000000000E+00 -0.12206701313E+04  0.12206701313E+04  0.00000000000E+00 0.  1.
         25    1    1    2    0    0  0.51782909153E+02 -0.43280951286E+02 -0.10121962490E+04  0.10221159214E+04  0.12500000000E+03 0.  0.
         25    1    1    2    0    0 -0.51782909153E+02  0.43280951286E+02 -0.17872495804E+03  0.22830313413E+03  0.12500000000E+03 0.  0.
</event>
<event>
 4    0  0.2253506E-002  0.1956539E+03  0.7546771E-02  0.1153458E+00
         21   -1    0    0  502  501  0.00000000000E+00  0.00000000000E+00  0.12363480523E+03  0.12363480523E+03  0.00000000000E+00 0.  1.
         21   -1    0    0  501  502 -0.00000000000E+00 -0.00000000000E+00 -0.30962531437E+03  0.30962531437E+03  0.00000000000E+00 0.  1.
         25    1    1    2    0    0  0.43658139161E+02  0.64591466501E+02 -0.23555207253E+03  0.27782704968E+03  0.12500000000E+03 0.  0.
         25    1    1    2    0    0 -0.43658139161E+02 -0.64591466501E+02  0.49561563383E+02  0.15543306992E+03  0.12500000000E+03 0.  0.
</event>
<event>
 4    0  0.2253506E-002  0.2179093E+03  0.7546771E-02  0.1135451E+00
         21   -1    0    0  502  501  0.00000000000E+00  0.00000000000E+00  0.23035771077E+04  0.23035771077E+04  0.00000000000E+00 0.  1.
         21   -1    0    0  501  502 -0.00000000000E+00 -0.00000000000E+00 -0.20613351495E+02  0.20613351495E+02  0.00000000000E+00 0.  1.
         25    1    1    2    0    0 -0.12419763162E+03 -0.32563050699E+02  0.18027232975E+04  0.18116074882E+04  0.12500000000E+03 0.  0.
         25    1    1    2    0    0  0.12419763162E+03  0.32563050699E+02  0.48024045867E+03  0.51258297096E+03  0.12500000000E+03 0.  0.
</event>
<event>
 4    0  0.2253506E-002  0.2313569E+03  0.7546771E-02  0.1125688E+00
         21   -1    0    0  502  501  0.00000000000E+00  0.00000000000E+00  0.79807126968E+03  0.79807126968E+03  0.00000000000E+00 0. -1.
         21   -1    0    0  501  502 -0.00000000000E+00 -0.00000000000E+00 -0.67069228359E+02  0.67069228359E+02  0.00000000000E+00 0. -1.
         25    1    1    2    0    0  0.60698360819E+02 -0.18378254321E+03  0.32625002973E+03  0.39940505266E+03  0.12500000000E+03 0.  0.
         25    1    1    2    0    0 -0.60698360819E+02  0.18378254321E+03  0.40475201159E+03  0.46573544538E+03  0.12500000000E+03 0.  0.
</event>
<event>
 4    0  0.2253506E-002  0.2380993E+03  0.7546771E-02  0.1121066E+00
         21   -1    0    0  502  501  0.00000000000E+00  0.00000000000E+00  0.13459981769E+03  0.13459981769E+03  0.00000000000E+00 0. -1.
         21   -1    0    0  501  502 -0.00000000000E+00 -0.00000000000E+00 -0.42118400592E+03  0.42118400592E+03  0.00000000000E+00 0. -1.
         25    1    1    2    0    0  0.29300770452E+02  0.17952704172E+03 -0.39046138762E+02  0.22413856163E+03  0.12500000000E+03 0.  0.
         25    1    1    2    0    0 -0.29300770452E+02 -0.17952704172E+03 -0.24753804947E+03  0.33164526198E+03  0.12500000000E+03 0.  0.
</event>
<event>
 4    0  0.2253506E-002  0.3140745E+03  0.7546771E-02  0.1078409E+00
         21   -1    0    0  502  501  0.00000000000E+00  0.00000000000E+00  0.29524029454E+03  0.29524029454E+03  0.00000000000E+00 0. -1.
         21   -1    0    0  501  502 -0.00000000000E+00 -0.00000000000E+00 -0.33411013990E+03  0.33411013990E+03  0.00000000000E+00 0. -1.
         25    1    1    2    0    0  0.18249103027E+03  0.22136884172E+03  0.72738215354E+01  0.31302563584E+03  0.12500000000E+03 0.  0.
         25    1    1    2    0    0 -0.18249103027E+03 -0.22136884172E+03 -0.46143666887E+02  0.31632479860E+03  0.12500000000E+03 0.  0.
</event>
<event>
 4    0  0.2253506E-002  0.1985781E+03  0.7546771E-02  0.1150944E+00
         21   -1    0    0  502  501  0.00000000000E+00  0.00000000000E+00  0.10378874414E+03  0.10378874414E+03  0.00000000000E+00 0. -1.
         21   -1    0    0  501  502 -0.00000000000E+00 -0.00000000000E+00 -0.37993757792E+03  0.37993757792E+03  0.00000000000E+00 0. -1.
         25    1    1    2    0    0  0.13046329171E+03 -0.58693095071E+02 -0.20849292068E+03  0.28206355289E+03  0.12500000000E+03 0.  0.
         25    1    1    2    0    0 -0.13046329171E+03  0.58693095071E+02 -0.67655913105E+02  0.20166276918E+03  0.12500000000E+03 0.  0.
</event>
<event>
 4    0  0.2253506E-002  0.2916431E+03  0.7546771E-02  0.1089494E+00
         21   -1    0    0  502  501  0.00000000000E+00  0.00000000000E+00  0.10045354561E+04  0.10045354561E+04  0.00000000000E+00 0. -1.
         21   -1    0    0  501  502 -0.00000000000E+00 -0.00000000000E+00 -0.84671681364E+02  0.84671681364E+02  0.00000000000E+00 0. -1.
         25    1    1    2    0    0  0.63968715394E+02 -0.16258239521E+03  0.91603468162E+02  0.23354063279E+03  0.12500000000E+03 0.  0.
         25    1    1    2    0    0 -0.63968715394E+02  0.16258239521E+03  0.82826030658E+03  0.85566650469E+03  0.12500000000E+03 0.  0.
</event>
<event>
 4    0  0.2253506E-002  0.2331345E+03  0.7546771E-02  0.1124453E+00
         21   -1    0    0  502  501  0.00000000000E+00  0.00000000000E+00  0.11101857180E+04  0.11101857180E+04  0.00000000000E+00 0. -1.
         21   -1    0    0  501  502 -0.00000000000E+00 -0.00000000000E+00 -0.48957319876E+02  0.48957319876E+02  0.00000000000E+00 0. -1.
         25    1    1    2    0    0 -0.44925465071E+02 -0.85949173028E+02  0.10492662746E+03  0.18984244759E+03  0.12500000000E+03 0.  0.
         25    1    1    2    0    0  0.44925465071E+02  0.85949173028E+02  0.95630177068E+03  0.96930059030E+03  0.12500000000E+03 0.  0.
</event>
<event>
 4    0  0.2253506E-002  0.2178066E+03  0.7546771E-02  0.1135529E+00
         21   -1    0    0  502  501  0.00000000000E+00  0.00000000000E+00  0.47613142524E+02  0.47613142524E+02  0.00000000000E+00 0. -1.
         21   -1    0    0  501  502 -0.00000000000E+00 -0.00000000000E+00 -0.99635725921E+03  0.99635725921E+03  0.00000000000E+00 0. -1.
         25    1    1    2    0    0  0.74440862733E+02  0.58961690170E+02 -0.83621820330E+03  0.85082536780E+03  0.12500000000E+03 0.  0.
         25    1    1    2    0    0 -0.74440862733E+02 -0.58961690170E+02 -0.11252591338E+03  0.19314503394E+03  0.12500000000E+03 0.  0.
</event>
<event>
 4    0  0.2253506E-002  0.1807326E+03  0.7546771E-02  0.1167096E+00
         21   -1    0    0  502  501  0.00000000000E+00  0.00000000000E+00  0.13724305539E+03  0.13724305539E+03  0.00000000000E+00 0.  1.
         21   -1    0    0  501  502 -0.00000000000E+00 -0.00000000000E+00 -0.23800318330E+03  0.23800318330E+03  0.00000000000E+00 0.  1.
         25    1    1    2    0    0 -0.12514669747E+02 -0.86162850193E+02 -0.15134344993E+03  0.21473354081E+03  0.12500000000E+03 0.  0.
         25    1    1    2    0    0  0.12514669747E+02  0.86162850193E+02  0.50583322022E+02  0.16051269788E+03  0.12500000000E+03 0.  0.
</event>
<event>
 4    0  0.2253506E-002  0.2991134E+03  0.7546771E-02  0.1085685E+00
         21   -1    0    0  502  501  0.00000000000E+00  0.00000000000E+00  0.15952718788E+04  0.15952718788E+04  0.00000000000E+00 0. -1.
         21   -1    0    0  501  502 -0.00000000000E+00 -0.00000000000E+00 -0.56083743113E+02  0.56083743113E+02  0.00000000000E+00 0. -1.
         25    1    1    2    0    0  0.66392207738E+02 -0.26202999899E+02  0.45810214825E+02  0.15105660606E+03  0.12500000000E+03 0.  0.
         25    1    1    2    0    0 -0.66392207738E+02  0.26202999899E+02  0.14933779209E+04  0.15002990159E+04  0.12500000000E+03 0.  0.
</event>
<event>
 4    0  0.2253506E-002  0.2947090E+03  0.7546771E-02  0.1087916E+00
         21   -1    0    0  502  501  0.00000000000E+00  0.00000000000E+00  0.12338634884E+04  0.12338634884E+04  0.00000000000E+00 0.  1.
         21   -1    0    0  501  502 -0.00000000000E+00 -0.00000000000E+00 -0.70391422456E+02  0.70391422456E+02  0.00000000000E+00 0.  1.
         25    1    1    2    0    0 -0.17106323777E+03  0.19942319214E+03  0.68543431450E+03  0.74463241963E+03  0.12500000000E+03 0.  0.
         25    1    1    2    0    0  0.17106323777E+03 -0.19942319214E+03  0.47803775146E+03  0.55962249124E+03  0.12500000000E+03 0.  0.
</event>
<event>
 4    0  0.2253506E-002  0.1832468E+03  0.7546771E-02  0.1164697E+00
         21   -1    0    0  502  501  0.00000000000E+00  0.00000000000E+00  0.17150554366E+02  0.17150554366E+02  0.00000000000E+00 0. -1.
         21   -1    0    0  501  502 -0.00000000000E+00 -0.00000000000E+00 -0.19579179440E+04  0.19579179440E+04  0.00000000000E+00 0. -1.
         25    1    1    2    0    0  0.52059262440E+02  0.12341751288E+03 -0.95146125498E+03  0.96894043626E+03  0.12500000000E+03 0.  0.
         25    1    1    2    0    0 -0.52059262440E+02 -0.12341751288E+03 -0.98930613469E+03  0.10061280621E+04  0.12500000000E+03 0.  0.
</event>
<event>
 4    0  0.2253506E-002  0.2113442E+03  0.7546771E-02  0.1140506E+00
         21   -1    0    0  502  501  0.00000000000E+00  0.00000000000E+00  0.46891684364E+03  0.46891684364E+03  0.00000000000E+00 0.  1.
         21   -1    0    0  501  502 -0.00000000000E+00 -0.00000000000E+00 -0.95254316539E+02  0.95254316539E+02  0.00000000000E+00 0.  1.
         25    1    1    2    0    0  0.13384123754E+03 -0.96387948320E+02  0.24404147908E+03  0.31997711943E+03  0.12500000000E+03 0.  0.
         25    1    1    2    0    0 -0.13384123754E+03  0.96387948320E+02  0.12962104803E+03  0.24419404076E+03  0.12500000000E+03 0.  0.
</event>
<event>
 4    0  0.2253506E-002  0.4487706E+03  0.7546771E-02  0.1028089E+00
         21   -1    0    0  502  501  0.00000000000E+00  0.00000000000E+00  0.15408197775E+03  0.15408197775E+03  0.00000000000E+00 0.  1.
         21   -1    0    0  501  502 -0.00000000000E+00 -0.00000000000E+00 -0.13070640789E+04  0.13070640789E+04  0.00000000000E+00 0. -1.
         25    1    1    2    0    0 -0.35978574573E+03 -0.23625883206E+03 -0.61311072095E+03  0.75946940340E+03  0.12500000000E+03 0.  0.
         25    1    1    2    0    0  0.35978574573E+03  0.23625883206E+03 -0.53987138020E+03  0.70167665325E+03  0.12500000000E+03 0.  0.
</event>
<event>
 4    0  0.2253506E-002  0.2241003E+03  0.7546771E-02  0.1130863E+00
         21   -1    0    0  502  501  0.00000000000E+00  0.00000000000E+00  0.13875981474E+03  0.13875981474E+03  0.00000000000E+00 0.  1.
         21   -1    0    0  501  502 -0.00000000000E+00 -0.00000000000E+00 -0.36192705441E+03  0.36192705441E+03  0.00000000000E+00 0.  1.
         25    1    1    2    0    0  0.75300851477E+02 -0.31956208356E+02  0.75024722193E+02  0.16716795873E+03  0.12500000000E+03 0.  0.
         25    1    1    2    0    0 -0.75300851477E+02  0.31956208356E+02 -0.29819196186E+03  0.33351891041E+03  0.12500000000E+03 0.  0.
</event>
<event>
 4    0  0.2253506E-002  0.1758694E+03  0.7546771E-02  0.1171862E+00
         21   -1    0    0  502  501  0.00000000000E+00  0.00000000000E+00  0.33322844899E+03  0.33322844899E+03  0.00000000000E+00 0. -1.
         21   -1    0    0  501  502 -0.00000000000E+00 -0.00000000000E+00 -0.92819395844E+02  0.92819395844E+02  0.00000000000E+00 0. -1.
         25    1    1    2    0    0 -0.12336474455E+03  0.66858077397E+01  0.11240122854E+03  0.20862069984E+03  0.12500000000E+03 0.  0.
         25    1    1    2    0    0  0.12336474455E+03 -0.66858077397E+01  0.12800782460E+03  0.21742714500E+03  0.12500000000E+03 0.  0.
</event>
<event>
 4    0  0.2253506E-002  0.3060732E+03  0.7546771E-02  0.1082243E+00
         21   -1    0    0  502  501  0.00000000000E+00  0.00000000000E+00  0.29859968015E+04  0.29859968015E+04  0.00000000000E+00 0. -1.
         21   -1    0    0  501  502 -0.00000000000E+00 -0.00000000000E+00 -0.31373371697E+02  0.31373371697E+02  0.00000000000E+00 0. -1.
         25    1    1    2    0    0 -0.26062663071E+03 -0.99239550203E+02  0.15599481847E+04  0.15896031165E+04  0.12500000000E+03 0.  0.
         25    1    1    2    0    0  0.26062663071E+03  0.99239550203E+02  0.13946752451E+04  0.14277670567E+04  0.12500000000E+03 0.  0.
</event>
<event>
 4    0  0.2253506E-002  0.2604052E+03  0.7546771E-02  0.1106900E+00
         21   -1    0    0  502  501  0.00000000000E+00  0.00000000000E+00  0.41564648112E+02  0.41564648112E+02  0.00000000000E+00 0. -1.
         21   -1    0    0  501  502 -0.00000000000E+00 -0.00000000000E+00 -0.16314549268E+04  0.16314549268E+04  0.00000000000E+00 0. -1.
         25    1    1    2    0    0  0.16651619848E+03  0.13505375476E+03 -0.54162434060E+03  0.59577603792E+03  0.12500000000E+03 0.  0.
         25    1    1    2    0    0 -0.16651619848E+03 -0.13505375476E+03 -0.10482659381E+04  0.10772435370E+04  0.12500000000E+03 0.  0.
</event>
<event>
 4    0  0.2253506E-002  0.2326670E+03  0.7546771E-02  0.1124777E+00
         21   -1    0    0  502  501  0.00000000000E+00  0.00000000000E+00  0.43643772866E+03  0.43643772866E+03  0.00000000000E+00 0. -1.
         21   -1    0    0  501  502 -0.00000000000E+00 -0.00000000000E+00 -0.12403585318E+03  0.12403585318E+03  0.00000000000E+00 0. -1.
         25    1    1    2    0    0  0.28894772282E+02  0.18711511853E+03  0.21834367560E+03  0.31487447677E+03  0.12500000000E+03 0.  0.
         25    1    1    2    0    0 -0.28894772282E+02 -0.18711511853E+03  0.94058199884E+02  0.24559910508E+03  0.12500000000E+03 0.  0.
</event>
<event>
 4    0  0.2253506E-002  0.2215934E+03  0.7546771E-02  0.1132701E+00
         21   -1    0    0  502  501  0.00000000000E+00  0.00000000000E+00  0.71666508468E+03  0.71666508468E+03  0.00000000000E+00 0. -1.
         21   -1    0    0  501  502 -0.00000000000E+00 -0.00000000000E+00 -0.68516863481E+02  0.68516863481E+02  0.00000000000E+00 0. -1.
         25    1    1    2    0    0 -0.20929673605E+02 -0.13297740052E+03  0.10451817851E+03  0.21135299839E+03  0.12500000000E+03 0.  0.
         25    1    1    2    0    0  0.20929673605E+02  0.13297740052E+03  0.54363004268E+03  0.57382894977E+03  0.12500000000E+03 0.  0.
</event>
<event>
 4    0  0.2253506E-002  0.2181819E+03  0.7546771E-02  0.1135246E+00
         21   -1    0    0  502  501  0.00000000000E+00  0.00000000000E+00  0.53149979727E+02  0.53149979727E+02  0.00000000000E+00 0.  1.
         21   -1    0    0  501  502 -0.00000000000E+00 -0.00000000000E+00 -0.89564148372E+03  0.89564148372E+03  0.00000000000E+00 0.  1.
         25    1    1    2    0    0  0.14682704053E+02 -0.22016919458E+02 -0.36705674309E+02  0.13293845594E+03  0.12500000000E+03 0.  0.
         25    1    1    2    0    0 -0.14682704053E+02  0.22016919458E+02 -0.80578582968E+03  0.81585300750E+03  0.12500000000E+03 0.  0.
</event>
<event>
 4    0  0.2253506E-002  0.2946550E+03  0.7546771E-02  0.1087943E+00
         21   -1    0    0  502  501  0.00000000000E+00  0.00000000000E+00  0.21002235352E+03  0.21002235352E+03  0.00000000000E+00 0. -1.
         21   -1    0    0  501  502 -0.00000000000E+00 -0.00000000000E+00 -0.41339194477E+03  0.41339194477E+03  0.00000000000E+00 0. -1.
         25    1    1    2    0    0  0.15377142219E+03  0.10218845906E+03  0.10209879780E+03  0.24522906834E+03  0.12500000000E+03 0.  0.
         25    1    1    2    0    0 -0.15377142219E+03 -0.10218845906E+03 -0.30546838904E+03  0.37818522995E+03  0.12500000000E+03 0.  0.
</event>
<event>
 4    0  0.2253506E-002  0.2791008E+03  0.7546771E-02  0.1096181E+00
         21   -1    0    0  502  501  0.00000000000E+00  0.00000000000E+00  0.15478576193E+04  0.15478576193E+04  0.00000000000E+00 0. -1.
         21   -1    0    0  501  502 -0.00000000000E+00 -0.00000000000E+00 -0.50325852314E+02  0.50325852314E+02  0.00000000000E+00 0. -1.
         25    1    1    2    0    0 -0.12524679731E+03 -0.19091253441E+03  0.10370425704E+04  0.10692130980E+04  0.12500000000E+03 0.  0.
         25    1    1    2    0    0  0.12524679731E+03  0.19091253441E+03  0.46048919659E+03  0.52897037366E+03  0.12500000000E+03 0.  0.
</event>
<event>
 4    0  0.2253506E-002  0.3422293E+03  0.7546771E-02  0.1065850E+00
         21   -1    0    0  502  501  0.00000000000E+00  0.00000000000E+00  0.20286999502E+03  0.20286999502E+03  0.00000000000E+00 0. -1.
         21   -1    0    0  501  502 -0.00000000000E+00 -0.00000000000E+00 -0.57731978317E+03  0.57731978317E+03  0.00000000000E+00 0. -1.
         25    1    1    2    0    0 -0.18915984795E+03 -0.19095151421E+03  0.77283264072E+01  0.29652766462E+03  0.12500000000E+03 0.  0.
         25    1    1    2    0    0  0.18915984795E+03  0.19095151421E+03 -0.38217811455E+03  0.48366211357E+03  0.12500000000E+03 0.  0.
</event>
<event>
 4    0  0.2253506E-002  0.2436580E+03  0.7546771E-02  0.1117380E+00
         21   -1    0    0  502  501  0.00000000000E+00  0.00000000000E+00  0.12001739386E+03  0.12001739386E+03  0.00000000000E+00 0. -1.
         21   -1    0    0  501  502 -0.00000000000E+00 -0.00000000000E+00 -0.49467198272E+03  0.49467198272E+03  0.00000000000E+00 0. -1.
         25    1    1    2    0    0 -0.11694740957E+03  0.10081099801E+03 -0.93671911332E+01  0.19887759601E+03  0.12500000000E+03 0.  0.
         25    1    1    2    0    0  0.11694740957E+03 -0.10081099801E+03 -0.36528739772E+03  0.41581178057E+03  0.12500000000E+03 0.  0.
</event>
<event>
 4    0  0.2253506E-002  0.2265990E+03  0.7546771E-02  0.1129057E+00
         21   -1    0    0  502  501  0.00000000000E+00  0.00000000000E+00  0.62418506548E+03  0.62418506548E+03  0.00000000000E+00 0. -1.
         21   -1    0    0  501  502 -0.00000000000E+00 -0.00000000000E+00 -0.82262611806E+02  0.82262611806E+02  0.00000000000E+00 0. -1.
         25    1    1    2    0    0 -0.12305186266E+03 -0.94717475793E+02  0.43891440148E+03  0.48206225008E+03  0.12500000000E+03 0.  0.
         25    1    1    2    0    0  0.12305186266E+03  0.94717475793E+02  0.10300805220E+03  0.22438542721E+03  0.12500000000E+03 0.  0.
</event>
<event>
 4    0  0.2253506E-002  0.2007520E+03  0.7546771E-02  0.1149106E+00
         21   -1    0    0  502  501  0.00000000000E+00  0.00000000000E+00  0.60009669193E+02  0.60009669193E+02  0.00000000000E+00 0. -1.
         21   -1    0    0  501  502 -0.00000000000E+00 -0.00000000000E+00 -0.67158128146E+03  0.67158128146E+03  0.00000000000E+00 0.  1.
         25    1    1    2    0    0 -0.15606290175E+03 -0.11920850769E+02 -0.33013929317E+03  0.38615371147E+03  0.12500000000E+03 0.  0.
         25    1    1    2    0    0  0.15606290175E+03  0.11920850769E+02 -0.28143231909E+03  0.34543723918E+03  0.12500000000E+03 0.  0.
</event>
<event>
 4    0  0.2253506E-002  0.2078870E+03  0.7546771E-02  0.1143250E+00
         21   -1    0    0  502  501  0.00000000000E+00  0.00000000000E+00  0.11157973772E+04  0.11157973772E+04  0.00000000000E+00 0. -1.
         21   -1    0    0  501  502 -0.00000000000E+00 -0.00000000000E+00 -0.38731937843E+02  0.38731937843E+02  0.00000000000E+00 0. -1.
         25    1    1    2    0    0 -0.11967796683E+03 -0.11180961879E+03  0.46158985263E+03  0.50548432087E+03  0.12500000000E+03 0.  0.
         25    1    1    2    0    0  0.11967796683E+03  0.11180961879E+03  0.61547558677E+03  0.64904499421E+03  0.12500000000E+03 0.  0.
</event>
<event>
 4    0  0.2253506E-002  0.2128239E+03  0.7546771E-02  0.1139349E+00
         21   -1    0    0  502  501  0.00000000000E+00  0.00000000000E+00  0.13471296458E+03  0.13471296458E+03  0.00000000000E+00 0.  1.
         21   -1    0    0  501  502 -0.00000000000E+00 -0.00000000000E+00 -0.33622611675E+03  0.33622611675E+03  0.00000000000E+00 0.  1.
         25    1    1    2    0    0  0.10019218359E+03  0.11746495983E+03 -0.18525384622E+03  0.27162562100E+03  0.12500000000E+03 0.  0.
         25    1    1    2    0    0 -0.10019218359E+03 -0.11746495983E+03 -0.16259305955E+02  0.19931346034E+03  0.12500000000E+03 0.  0.
</event>
<event>
 4    0  0.2253506E-002  0.3350195E+03  0.7546771E-02  0.1068937E+00
         21   -1    0    0  502  501  0.00000000000E+00  0.00000000000E+00  0.34973150854E+03  0.34973150854E+03  0.00000000000E+00 0.  1.
         21   -1    0    0  501  502 -0.00000000000E+00 -0.00000000000E+00 -0.32092634382E+03  0.32092634382E+03  0.00000000000E+00 0.  1.
         25    1    1    2    0    0 -0.20953947466E+03  0.17857849593E+03  0.15881329895E+03  0.34153145473E+03  0.12500000000E+03 0.  0.
         25    1    1    2    0    0  0.20953947466E+03 -0.17857849593E+03 -0.13000813424E+03  0.32912639763E+03  0.12500000000E+03 0.  0.
</event>
<event>
 4    0  0.2253506E-002  0.1981616E+03  0.7546771E-02  0.1151299E+00
         21   -1    0    0  502  501  0.00000000000E+00  0.00000000000E+00  0.33710902501E+02  0.33710902501E+02  0.00000000000E+00 0. -1.
         21   -1    0    0  501  502 -0.00000000000E+00 -0.00000000000E+00 -0.11648468031E+04  0.11648468031E+04  0.00000000000E+00 0. -1.
         25    1    1    2    0    0  0.11038735255E+03 -0.48654154317E+02 -0.27722995605E+03  0.32716057658E+03  0.12500000000E+03 0.  0.
         25    1    1    2    0    0 -0.11038735255E+03  0.48654154317E+02 -0.85390594451E+03  0.87139712898E+03  0.12500000000E+03 0.  0.
</event>
<event>
 4    0  0.2253506E-002  0.1966815E+03  0.7546771E-02  0.1152569E+00
         21   -1    0    0  502  501  0.00000000000E+00  0.00000000000E+00  0.24946653195E+03  0.24946653195E+03  0.00000000000E+00 0. -1.
         21   -1    0    0  501  502 -0.00000000000E+00 -0.00000000000E+00 -0.15506537920E+03  0.15506537920E+03  0.00000000000E+00 0. -1.
         25    1    1    2    0    0 -0.59538970324E+02 -0.11109365610E+03  0.13429238983E+03  0.22258961202E+03  0.12500000000E+03 0.  0.
         25    1    1    2    0    0  0.59538970324E+02  0.11109365610E+03 -0.39891237086E+02  0.18194229912E+03  0.12500000000E+03 0.  0.
</event>
<event>
 4    0  0.2253506E-002  0.3245627E+03  0.7546771E-02  0.1073568E+00
         21   -1    0    0  502  501  0.00000000000E+00  0.00000000000E+00  0.10702941775E+04  0.10702941775E+04  0.00000000000E+00 0. -1.
         21   -1    0    0  501  502 -0.00000000000E+00 -0.00000000000E+00 -0.98422416833E+02  0.98422416833E+02  0.00000000000E+00 0. -1.
         25    1    1    2    0    0  0.10302621444E+03  0.76606106837E+02  0.97316603808E+03  0.98952515589E+03  0.12500000000E+03 0.  0.
         25    1    1    2    0    0 -0.10302621444E+03 -0.76606106837E+02 -0.12942773901E+01  0.17919143847E+03  0.12500000000E+03 0.  0.
</event>
<event>
 4    0  0.2253506E-002  0.2338376E+03  0.7546771E-02  0.1123967E+00
         21   -1    0    0  502  501  0.00000000000E+00  0.00000000000E+00  0.52522300258E+03  0.52522300258E+03  0.00000000000E+00 0.  1.
         21   -1    0    0  501  502 -0.00000000000E+00 -0.00000000000E+00 -0.10410818104E+03  0.10410818104E+03  0.00000000000E+00 0.  1.
         25    1    1    2    0    0  0.10162010713E+02 -0.19404686804E+03  0.25903023720E+03  0.34710101879E+03  0.12500000000E+03 0.  0.
         25    1    1    2    0    0 -0.10162010713E+02  0.19404686804E+03  0.16208458434E+03  0.28223016483E+03  0.12500000000E+03 0.  0.
</event>
<event>
 4    0  0.2253506E-002  0.1935447E+03  0.7546771E-02  0.1155303E+00
         21   -1    0    0  502  501  0.00000000000E+00  0.00000000000E+00  0.45255859260E+03  0.45255859260E+03  0.00000000000E+00 0.  1.
         21   -1    0    0  501  502 -0.00000000000E+00 -0.00000000000E+00 -0.82772793533E+02  0.82772793533E+02  0.00000000000E+00 0.  1.
         25    1    1    2    0    0 -0.18401364066E+02  0.53357166138E+02 -0.39664941561E+01  0.13720907570E+03  0.12500000000E+03 0.  0.
         25    1    1    2    0    0  0.18401364066E+02 -0.53357166138E+02  0.37375229322E+03  0.39812231044E+03  0.12500000000E+03 0.  0.
</event>
<event>
 4    0  0.2253506E-002  0.1699560E+03  0.7546771E-02  0.1177894E+00
         21   -1    0    0  502  501  0.00000000000E+00  0.00000000000E+00  0.44103015855E+02  0.44103015855E+02  0.00000000000E+00 0.  1.
         21   -1    0    0  501  502 -0.00000000000E+00 -0.00000000000E+00 -0.65494511379E+03  0.65494511379E+03  0.00000000000E+00 0.  1.
         25    1    1    2    0    0  0.94124599105E+02  0.62899631420E+02 -0.26207448602E+03  0.31164697979E+03  0.12500000000E+03 0.  0.
         25    1    1    2    0    0 -0.94124599105E+02 -0.62899631420E+02 -0.34876761191E+03  0.38740114986E+03  0.12500000000E+03 0.  0.
</event>
<event>
 4    0  0.2253506E-002  0.2058108E+03  0.7546771E-02  0.1144927E+00
         21   -1    0    0  502  501  0.00000000000E+00  0.00000000000E+00  0.29521225880E+03  0.29521225880E+03  0.00000000000E+00 0. -1.
         21   -1    0    0  501  502 -0.00000000000E+00 -0.00000000000E+00 -0.14348342453E+03  0.14348342453E+03  0.00000000000E+00 0. -1.
         25    1    1    2    0    0 -0.88872833223E+02  0.13624077765E+03  0.58250551534E+02  0.21325584806E+03  0.12500000000E+03 0.  0.
         25    1    1    2    0    0  0.88872833223E+02 -0.13624077765E+03  0.93478282739E+02  0.22543983526E+03  0.12500000000E+03 0.  0.
</event>
<event>
 4    0  0.2253506E-002  0.2441219E+03  0.7546771E-02  0.1117077E+00
         21   -1    0    0  502  501  0.00000000000E+00  0.00000000000E+00  0.11075382324E+04  0.11075382324E+04  0.00000000000E+00 0. -1.
         21   -1    0    0  501  502 -0.00000000000E+00 -0.00000000000E+00 -0.53808965727E+02  0.53808965727E+02  0.00000000000E+00 0. -1.
         25    1    1    2    0    0  0.30294469741E+02 -0.11661200570E+03  0.11863899298E+03  0.21027678290E+03  0.12500000000E+03 0.  0.
         25    1    1    2    0    0 -0.30294469741E+02  0.11661200570E+03  0.93509027369E+03  0.95107041522E+03  0.12500000000E+03 0.  0.
</event>
<event>
 4    0  0.2253506E-002  0.1616074E+03  0.7546771E-02  0.1186894E+00
         21   -1    0    0  502  501  0.00000000000E+00  0.00000000000E+00  0.22314217322E+03  0.22314217322E+03  0.00000000000E+00 0. -1.
         21   -1    0    0  501  502 -0.00000000000E+00 -0.00000000000E+00 -0.11704179301E+03  0.11704179301E+03  0.00000000000E+00 0. -1.
         25    1    1    2    0    0 -0.76491677905E+02  0.30204094894E+01 -0.18580685935E+02  0.14775094434E+03  0.12500000000E+03 0.  0.
         25    1    1    2    0    0  0.76491677905E+02 -0.30204094894E+01  0.12468106614E+03  0.19243302189E+03  0.12500000000E+03 0.  0.
</event>
<event>
 4    0  0.2253506E-002  0.2821058E+03  0.7546771E-02  0.1094544E+00
         21   -1    0    0  502  501  0.00000000000E+00  0.00000000000E+00  0.14128701294E+03  0.14128701294E+03  0.00000000000E+00 0. -1.
         21   -1    0    0  501  502 -0.00000000000E+00 -0.00000000000E+00 -0.56327677544E+03  0.56327677544E+03  0.00000000000E+00 0. -1.
         25    1    1    2    0    0  0.92044787361E+00 -0.85765179145E+02  0.86099786483E+02  0.17434071931E+03  0.12500000000E+03 0.  0.
         25    1    1    2    0    0 -0.92044787361E+00  0.85765179145E+02 -0.50808954899E+03  0.53022306907E+03  0.12500000000E+03 0.  0.
</event>
<event>
 4    0  0.2253506E-002  0.2624100E+03  0.7546771E-02  0.1105704E+00
         21   -1    0    0  502  501  0.00000000000E+00  0.00000000000E+00  0.40156617116E+03  0.40156617116E+03  0.00000000000E+00 0. -1.
         21   -1    0    0  501  502 -0.00000000000E+00 -0.00000000000E+00 -0.17147612810E+03  0.17147612810E+03  0.00000000000E+00 0. -1.
         25    1    1    2    0    0 -0.11098070703E+03  0.20105532918E+03  0.13931455988E+03  0.29626594357E+03  0.12500000000E+03 0.  0.
         25    1    1    2    0    0  0.11098070703E+03 -0.20105532918E+03  0.90775483169E+02  0.27677635569E+03  0.12500000000E+03 0.  0.
</event>
<event>
 4    0  0.2253506E-002  0.3390800E+03  0.7546771E-02  0.1067188E+00
         21   -1    0    0  502  501  0.00000000000E+00  0.00000000000E+00  0.25480599332E+03  0.25480599332E+03  0.00000000000E+00 0. -1.
         21   -1    0    0  501  502 -0.00000000000E+00 -0.00000000000E+00 -0.45122671747E+03  0.45122671747E+03  0.00000000000E+00 0. -1.
         25    1    1    2    0    0  0.21882308113E+02  0.31183581478E+03 -0.14024118673E+03  0.36470947512E+03  0.12500000000E+03 0.  0.
         25    1    1    2    0    0 -0.21882308113E+02 -0.31183581478E+03 -0.56179537413E+02  0.34132323567E+03  0.12500000000E+03 0.  0.
</event>
<event>
 4    0  0.2253506E-002  0.2312605E+03  0.7546771E-02  0.1125756E+00
         21   -1    0    0  502  501  0.00000000000E+00  0.00000000000E+00  0.80844021396E+03  0.80844021396E+03  0.00000000000E+00 0. -1.
         21   -1    0    0  501  502 -0.00000000000E+00 -0.00000000000E+00 -0.66153806461E+02  0.66153806461E+02  0.00000000000E+00 0. -1.
         25    1    1    2    0    0  0.15278657055E+03 -0.11342755955E+03  0.44787973477E+03  0.50242492397E+03  0.12500000000E+03 0.  0.
         25    1    1    2    0    0 -0.15278657055E+03  0.11342755955E+03  0.29440667272E+03  0.37216909645E+03  0.12500000000E+03 0.  0.
</event>
<event>
 4    0  0.2253506E-002  0.3049580E+03  0.7546771E-02  0.1082788E+00
         21   -1    0    0  502  501  0.00000000000E+00  0.00000000000E+00  0.36484258494E+03  0.36484258494E+03  0.00000000000E+00 0. -1.
         21   -1    0    0  501  502 -0.00000000000E+00 -0.00000000000E+00 -0.25490275664E+03  0.25490275664E+03  0.00000000000E+00 0. -1.
         25    1    1    2    0    0  0.19659016081E+02 -0.96583132391E+02  0.31927648945E+03  0.35675937983E+03  0.12500000000E+03 0.  0.
         25    1    1    2    0    0 -0.19659016081E+02  0.96583132391E+02 -0.20933666115E+03  0.26298596175E+03  0.12500000000E+03 0.  0.
</event>
<event>
 4    0  0.2253506E-002  0.2054047E+03  0.7546771E-02  0.1145258E+00
         21   -1    0    0  502  501  0.00000000000E+00  0.00000000000E+00  0.10981295519E+03  0.10981295519E+03  0.00000000000E+00 0. -1.
         21   -1    0    0  501  502 -0.00000000000E+00 -0.00000000000E+00 -0.38420850608E+03  0.38420850608E+03  0.00000000000E+00 0. -1.
         25    1    1    2    0    0 -0.10651410255E+03 -0.10992503624E+03 -0.20455494555E+03  0.28442308870E+03  0.12500000000E+03 0.  0.
         25    1    1    2    0    0  0.10651410255E+03  0.10992503624E+03 -0.69840605335E+02  0.20959837258E+03  0.12500000000E+03 0.  0.
</event>
<event>
 4    0  0.2253506E-002  0.3529016E+03  0.7546771E-02  0.1061430E+00
         21   -1    0    0  502  501  0.00000000000E+00  0.00000000000E+00  0.49563800751E+03  0.49563800751E+03  0.00000000000E+00 0.  1.
         21   -1    0    0  501  502 -0.00000000000E+00 -0.00000000000E+00 -0.25127121046E+03  0.25127121046E+03  0.00000000000E+00 0.  1.
         25    1    1    2    0    0 -0.28514561141E+03  0.13602375183E+03  0.21211105084E+02  0.34041943503E+03  0.12500000000E+03 0.  0.
         25    1    1    2    0    0  0.28514561141E+03 -0.13602375183E+03  0.22315569196E+03  0.40648978293E+03  0.12500000000E+03 0.  0.
</event>
<event>
 4    0  0.2253506E-002  0.1969851E+03  0.7546771E-02  0.1152308E+00
         21   -1    0    0  502  501  0.00000000000E+00  0.00000000000E+00  0.28824191403E+03  0.28824191403E+03  0.00000000000E+00 0.  1.
         21   -1    0    0  501  502 -0.00000000000E+00 -0.00000000000E+00 -0.13462007584E+03  0.13462007584E+03  0.00000000000E+00 0.  1.
         25    1    1    2    0    0  0.15098862908E+03 -0.97633541506E+01  0.58682708049E+02  0.20484518403E+03  0.12500000000E+03 0.  0.
         25    1    1    2    0    0 -0.15098862908E+03  0.97633541506E+01  0.94939130138E+02  0.21801680584E+03  0.12500000000E+03 0.  0.
</event>
<event>
 4    0  0.2253506E-002  0.2361455E+03  0.7546771E-02  0.1122388E+00
         21   -1    0    0  502  501  0.00000000000E+00  0.00000000000E+00  0.17548842543E+03  0.17548842543E+03  0.00000000000E+00 0. -1.
         21   -1    0    0  501  502 -0.00000000000E+00 -0.00000000000E+00 -0.31776840282E+03  0.31776840282E+03  0.00000000000E+00 0. -1.
         25    1    1    2    0    0 -0.12160198520E+03  0.85144363324E+02 -0.21166047577E+03  0.28716156152E+03  0.12500000000E+03 0.  0.
         25    1    1    2    0    0  0.12160198520E+03 -0.85144363324E+02  0.69380498383E+02  0.20609526673E+03  0.12500000000E+03 0.  0.
</event>
<event>
 4    0  0.2253506E-002  0.2051866E+03  0.7546771E-02  0.1145435E+00
         21   -1    0    0  502  501  0.00000000000E+00  0.00000000000E+00  0.11572554685E+03  0.11572554685E+03  0.00000000000E+00 0. -1.
         21   -1    0    0  501  502 -0.00000000000E+00 -0.00000000000E+00 -0.36380506088E+03  0.36380506088E+03  0.00000000000E+00 0. -1.
         25    1    1    2    0    0 -0.72466037122E+02  0.96650986888E+02 -0.25142379508E+03  0.30566593617E+03  0.12500000000E+03 0.  0.
         25    1    1    2    0    0  0.72466037122E+02 -0.96650986888E+02  0.33442810514E+01  0.17386467156E+03  0.12500000000E+03 0.  0.
</event>
<event>
 4    0  0.2253506E-002  0.2437012E+03  0.7546771E-02  0.1117351E+00
         21   -1    0    0  502  501  0.00000000000E+00  0.00000000000E+00  0.14429610550E+03  0.14429610550E+03  0.00000000000E+00 0. -1.
         21   -1    0    0  501  502 -0.00000000000E+00 -0.00000000000E+00 -0.41158609205E+03  0.41158609205E+03  0.00000000000E+00 0. -1.
         25    1    1    2    0    0  0.45561927398E+02 -0.92080428973E+02 -0.34148699699E+03  0.37787969480E+03  0.12500000000E+03 0.  0.
         25    1    1    2    0    0 -0.45561927398E+02  0.92080428973E+02  0.74197010445E+02  0.17800250275E+03  0.12500000000E+03 0.  0.
</event>
<event>
 4    0  0.2253506E-002  0.2061818E+03  0.7546771E-02  0.1144626E+00
         21   -1    0    0  502  501  0.00000000000E+00  0.00000000000E+00  0.34976804165E+03  0.34976804165E+03  0.00000000000E+00 0. -1.
         21   -1    0    0  501  502 -0.00000000000E+00 -0.00000000000E+00 -0.12154039714E+03  0.12154039714E+03  0.00000000000E+00 0. -1.
         25    1    1    2    0    0  0.11982653750E+03 -0.33995292479E+01 -0.13752875572E+02  0.17373571157E+03  0.12500000000E+03 0.  0.
         25    1    1    2    0    0 -0.11982653750E+03  0.33995292479E+01  0.24198052009E+03  0.29757272723E+03  0.12500000000E+03 0.  0.
</event>
<event>
 4    0  0.2253506E-002  0.1706297E+03  0.7546771E-02  0.1177193E+00
         21   -1    0    0  502  501  0.00000000000E+00  0.00000000000E+00  0.15247603845E+04  0.15247603845E+04  0.00000000000E+00 0. -1.
         21   -1    0    0  501  502 -0.00000000000E+00 -0.00000000000E+00 -0.19094464026E+02  0.19094464026E+02  0.00000000000E+00 0. -1.
         25    1    1    2    0    0 -0.53519846856E+02 -0.96881831533E+02  0.59358975111E+03  0.61662326903E+03  0.12500000000E+03 0.  0.
         25    1    1    2    0    0  0.53519846856E+02  0.96881831533E+02  0.91207616932E+03  0.92723157945E+03  0.12500000000E+03 0.  0.
</event>
<event>
 4    0  0.2253506E-002  0.2182727E+03  0.7546771E-02  0.1135177E+00
         21   -1    0    0  502  501  0.00000000000E+00  0.00000000000E+00  0.35450438628E+03  0.35450438628E+03  0.00000000000E+00 0.  1.
         21   -1    0    0  501  502 -0.00000000000E+00 -0.00000000000E+00 -0.13439317313E+03  0.13439317313E+03  0.00000000000E+00 0.  1.
         25    1    1    2    0    0 -0.26090703666E+02 -0.17108009068E+03  0.16099487017E+03  0.26738262933E+03  0.12500000000E+03 0.  0.
         25    1    1    2    0    0  0.26090703666E+02  0.17108009068E+03  0.59116342982E+02  0.22151493009E+03  0.12500000000E+03 0.  0.
</event>
<event>
 4    0  0.2253506E-002  0.2120325E+03  0.7546771E-02  0.1139967E+00
         21   -1    0    0  502  501  0.00000000000E+00  0.00000000000E+00  0.14168636804E+03  0.14168636804E+03  0.00000000000E+00 0.  1.
         21   -1    0    0  501  502 -0.00000000000E+00 -0.00000000000E+00 -0.31730486793E+03  0.31730486793E+03  0.00000000000E+00 0.  1.
         25    1    1    2    0    0 -0.15244650126E+03 -0.78052875405E+02 -0.86979854724E+02  0.22917827610E+03  0.12500000000E+03 0.  0.
         25    1    1    2    0    0  0.15244650126E+03  0.78052875405E+02 -0.88638645170E+02  0.22981295987E+03  0.12500000000E+03 0.  0.
</event>
<event>
 4    0  0.2253506E-002  0.1969445E+03  0.7546771E-02  0.1152343E+00
         21   -1    0    0  502  501  0.00000000000E+00  0.00000000000E+00  0.16874339104E+03  0.16874339104E+03  0.00000000000E+00 0. -1.
         21   -1    0    0  501  502 -0.00000000000E+00 -0.00000000000E+00 -0.22985877045E+03  0.22985877045E+03  0.00000000000E+00 0. -1.
         25    1    1    2    0    0  0.14045324635E+03  0.49867704556E+02 -0.61719755588E+02  0.20407898128E+03  0.12500000000E+03 0.  0.
         25    1    1    2    0    0 -0.14045324635E+03 -0.49867704556E+02  0.60437617827E+00  0.19452318021E+03  0.12500000000E+03 0.  0.
</event>
<event>
 4    0  0.2253506E-002  0.2122020E+03  0.7546771E-02  0.1139834E+00
         21   -1    0    0  502  501  0.00000000000E+00  0.00000000000E+00  0.14886411139E+04  0.14886411139E+04  0.00000000000E+00 0. -1.
         21   -1    0    0  501  502 -0.00000000000E+00 -0.00000000000E+00 -0.30248849252E+02  0.30248849252E+02  0.00000000000E+00 0. -1.
         25    1    1    2    0    0 -0.16568998569E+03  0.40392975037E+02  0.66518353580E+03  0.69798201989E+03  0.12500000000E+03 0.  0.
         25    1    1    2    0    0  0.16568998569E+03 -0.40392975037E+02  0.79320872887E+03  0.82090794329E+03  0.12500000000E+03 0.  0.
</event>
<event>
 4    0  0.2253506E-002  0.2571956E+03  0.7546771E-02  0.1108840E+00
         21   -1    0    0  502  501  0.00000000000E+00  0.00000000000E+00  0.39105053936E+02  0.39105053936E+02  0.00000000000E+00 0.  1.
         21   -1    0    0  501  502 -0.00000000000E+00 -0.00000000000E+00 -0.16915868046E+04  0.16915868046E+04  0.00000000000E+00 0.  1.
         25    1    1    2    0    0 -0.20326674929E+03 -0.89916972624E+02 -0.93894856262E+03  0.97296034687E+03  0.12500000000E+03 0.  0.
         25    1    1    2    0    0  0.20326674929E+03  0.89916972624E+02 -0.71353318804E+03  0.75773151166E+03  0.12500000000E+03 0.  0.
</event>
<event>
 4    0  0.2253506E-002  0.2004906E+03  0.7546771E-02  0.1149326E+00
         21   -1    0    0  502  501  0.00000000000E+00  0.00000000000E+00  0.13855078285E+02  0.13855078285E+02  0.00000000000E+00 0. -1.
         21   -1    0    0  501  502 -0.00000000000E+00 -0.00000000000E+00 -0.29012090826E+04  0.29012090826E+04  0.00000000000E+00 0. -1.
         25    1    1    2    0    0 -0.15202621956E+03 -0.27525133220E+02 -0.12510780724E+04  0.12667639668E+04  0.12500000000E+03 0.  0.
         25    1    1    2    0    0  0.15202621956E+03  0.27525133220E+02 -0.16362759319E+04  0.16483001940E+04  0.12500000000E+03 0.  0.
</event>
<event>
 4    0  0.2253506E-002  0.1789853E+03  0.7546771E-02  0.1168789E+00
         21   -1    0    0  502  501  0.00000000000E+00  0.00000000000E+00  0.10654694149E+04  0.10654694149E+04  0.00000000000E+00 0. -1.
         21   -1    0    0  501  502 -0.00000000000E+00 -0.00000000000E+00 -0.30067246956E+02  0.30067246956E+02  0.00000000000E+00 0. -1.
         25    1    1    2    0    0  0.88838025662E+02 -0.91258269426E+02  0.55993756553E+03  0.58768643325E+03  0.12500000000E+03 0.  0.
         25    1    1    2    0    0 -0.88838025662E+02  0.91258269426E+02  0.47546460244E+03  0.50785022862E+03  0.12500000000E+03 0.  0.
</event>
<event>
 4    0  0.2253506E-002  0.2240491E+03  0.7546771E-02  0.1130900E+00
         21   -1    0    0  502  501  0.00000000000E+00  0.00000000000E+00  0.31480334612E+03  0.31480334612E+03  0.00000000000E+00 0. -1.
         21   -1    0    0  501  502 -0.00000000000E+00 -0.00000000000E+00 -0.15945829826E+03  0.15945829826E+03  0.00000000000E+00 0. -1.
         25    1    1    2    0    0  0.17014899873E+03 -0.48345329456E+02  0.17010628114E+02  0.21726093556E+03  0.12500000000E+03 0.  0.
         25    1    1    2    0    0 -0.17014899873E+03  0.48345329456E+02  0.13833441975E+03  0.25700070883E+03  0.12500000000E+03 0.  0.
</event>
<event>
 4    0  0.2253506E-002  0.2049468E+03  0.7546771E-02  0.1145631E+00
         21   -1    0    0  502  501  0.00000000000E+00  0.00000000000E+00  0.16259479075E+04  0.16259479075E+04  0.00000000000E+00 0.  1.
         21   -1    0    0  501  502 -0.00000000000E+00 -0.00000000000E+00 -0.25833059347E+02  0.25833059347E+02  0.00000000000E+00 0.  1.
         25    1    1    2    0    0 -0.13590780240E+03  0.12247328384E+02  0.11549819318E+04  0.11697132942E+04  0.12500000000E+03 0.  0.
         25    1    1    2    0    0  0.13590780240E+03 -0.12247328384E+02  0.44513291637E+03  0.48206767268E+03  0.12500000000E+03 0.  0.
</event>
<event>
 4    0  0.2253506E-002  0.2813926E+03  0.7546771E-02  0.1094931E+00
         21   -1    0    0  502  501  0.00000000000E+00  0.00000000000E+00  0.25779338847E+04  0.25779338847E+04  0.00000000000E+00 0. -1.
         21   -1    0    0  501  502 -0.00000000000E+00 -0.00000000000E+00 -0.30715225642E+02  0.30715225642E+02  0.00000000000E+00 0. -1.
         25    1    1    2    0    0 -0.19704916508E+03  0.14962367655E+03  0.10493283439E+04  0.10853251086E+04  0.12500000000E+03 0.  0.
         25    1    1    2    0    0  0.19704916508E+03 -0.14962367655E+03  0.14978903151E+04  0.15233240017E+04  0.12500000000E+03 0.  0.
</event>
<event>
 4    0  0.2253506E-002  0.2478497E+03  0.7546771E-02  0.1114671E+00
         21   -1    0    0  502  501  0.00000000000E+00  0.00000000000E+00  0.27108826204E+03  0.27108826204E+03  0.00000000000E+00 0. -1.
         21   -1    0    0  501  502 -0.00000000000E+00 -0.00000000000E+00 -0.22660326595E+03  0.22660326595E+03  0.00000000000E+00 0. -1.
         25    1    1    2    0    0 -0.29985180235E+00 -0.68484740391E+02 -0.18133882162E+03  0.23064912271E+03  0.12500000000E+03 0.  0.
         25    1    1    2    0    0  0.29985180235E+00  0.68484740391E+02  0.22582381771E+03  0.26704240529E+03  0.12500000000E+03 0.  0.
</event>
<event>
 4    0  0.2253506E-002  0.1915612E+03  0.7546771E-02  0.1157061E+00
         21   -1    0    0  502  501  0.00000000000E+00  0.00000000000E+00  0.18687487810E+03  0.18687487810E+03  0.00000000000E+00 0.  1.
         21   -1    0    0  501  502 -0.00000000000E+00 -0.00000000000E+00 -0.19636509139E+03  0.19636509139E+03  0.00000000000E+00 0.  1.
         25    1    1    2    0    0 -0.12199698381E+03  0.24450895935E+02  0.70041401855E+02  0.18976803826E+03  0.12500000000E+03 0.  0.
         25    1    1    2    0    0  0.12199698381E+03 -0.24450895935E+02 -0.79531615143E+02  0.19347193124E+03  0.12500000000E+03 0.  0.
</event>
<event>
 4    0  0.2253506E-002  0.2536969E+03  0.7546771E-02  0.1110990E+00
         21   -1    0    0  502  501  0.00000000000E+00  0.00000000000E+00  0.41083206902E+03  0.41083206902E+03  0.00000000000E+00 0.  1.
         21   -1    0    0  501  502 -0.00000000000E+00 -0.00000000000E+00 -0.15666286314E+03  0.15666286314E+03  0.00000000000E+00 0.  1.
         25    1    1    2    0    0 -0.24498122024E+02 -0.66432542536E+02 -0.10678575737E+03  0.17900178398E+03  0.12500000000E+03 0.  0.
         25    1    1    2    0    0  0.24498122024E+02  0.66432542536E+02  0.36095496325E+03  0.38849314818E+03  0.12500000000E+03 0.  0.
</event>
<event>
 4    0  0.2253506E-002  0.2547056E+03  0.7546771E-02  0.1110367E+00
         21   -1    0    0  502  501  0.00000000000E+00  0.00000000000E+00  0.46767565915E+03  0.46767565915E+03  0.00000000000E+00 0.  1.
         21   -1    0    0  501  502 -0.00000000000E+00 -0.00000000000E+00 -0.13871786184E+03  0.13871786184E+03  0.00000000000E+00 0.  1.
         25    1    1    2    0    0 -0.60019771426E+02 -0.15450038497E+03  0.34014471362E+03  0.39849236896E+03  0.12500000000E+03 0.  0.
         25    1    1    2    0    0  0.60019771426E+02  0.15450038497E+03 -0.11186916303E+02  0.20790115203E+03  0.12500000000E+03 0.  0.
</event>
<event>
 4    0  0.2253506E-002  0.2457082E+03  0.7546771E-02  0.1116048E+00
         21   -1    0    0  502  501  0.00000000000E+00  0.00000000000E+00  0.28729289484E+03  0.28729289484E+03  0.00000000000E+00 0. -1.
         21   -1    0    0  501  502 -0.00000000000E+00 -0.00000000000E+00 -0.21014271892E+03  0.21014271892E+03  0.00000000000E+00 0. -1.
         25    1    1    2    0    0 -0.19621459684E+03  0.67916369366E+02  0.79501857356E+02  0.25506537704E+03  0.12500000000E+03 0.  0.
         25    1    1    2    0    0  0.19621459684E+03 -0.67916369366E+02 -0.23516814438E+01  0.24237023672E+03  0.12500000000E+03 0.  0.
</event>
<event>
 4    0  0.2253506E-002  0.2328814E+03  0.7546771E-02  0.1124628E+00
         21   -1    0    0  502  501  0.00000000000E+00  0.00000000000E+00  0.13457125832E+03  0.13457125832E+03  0.00000000000E+00 0. -1.
         21   -1    0    0  501  502 -0.00000000000E+00 -0.00000000000E+00 -0.40301148627E+03  0.40301148627E+03  0.00000000000E+00 0. -1.
         25    1    1    2    0    0  0.12324245014E+03  0.83507208096E+02  0.13799279347E+02  0.19487836060E+03  0.12500000000E+03 0.  0.
         25    1    1    2    0    0 -0.12324245014E+03 -0.83507208096E+02 -0.28223950730E+03  0.34270438399E+03  0.12500000000E+03 0.  0.
</event>
<event>
 4    0  0.2253506E-002  0.2119154E+03  0.7546771E-02  0.1140058E+00
         21   -1    0    0  502  501  0.00000000000E+00  0.00000000000E+00  0.80615384697E+02  0.80615384697E+02  0.00000000000E+00 0.  1.
         21   -1    0    0  501  502 -0.00000000000E+00 -0.00000000000E+00 -0.55706649726E+03  0.55706649726E+03  0.00000000000E+00 0.  1.
         25    1    1    2    0    0  0.61929196909E+02 -0.72655009494E+02 -0.24549706778E+02  0.15919065279E+03  0.12500000000E+03 0.  0.
         25    1    1    2    0    0 -0.61929196909E+02  0.72655009494E+02 -0.45190140579E+03  0.47849122916E+03  0.12500000000E+03 0.  0.
</event>
<event>
 4    0  0.2253506E-002  0.1540549E+03  0.7546771E-02  0.1195577E+00
         21   -1    0    0  502  501  0.00000000000E+00  0.00000000000E+00  0.21141012997E+03  0.21141012997E+03  0.00000000000E+00 0. -1.
         21   -1    0    0  501  502 -0.00000000000E+00 -0.00000000000E+00 -0.11226011902E+03  0.11226011902E+03  0.00000000000E+00 0. -1.
         25    1    1    2    0    0 -0.83243492673E+02  0.34328476996E+02  0.49517981343E+02  0.16181765627E+03  0.12500000000E+03 0.  0.
         25    1    1    2    0    0  0.83243492673E+02 -0.34328476996E+02  0.49632029606E+02  0.16185259271E+03  0.12500000000E+03 0.  0.
</event>
<event>
 4    0  0.2253506E-002  0.2950349E+03  0.7546771E-02  0.1087749E+00
         21   -1    0    0  502  501  0.00000000000E+00  0.00000000000E+00  0.30529512406E+03  0.30529512406E+03  0.00000000000E+00 0.  1.
         21   -1    0    0  501  502 -0.00000000000E+00 -0.00000000000E+00 -0.28511940536E+03  0.28511940536E+03  0.00000000000E+00 0.  1.
         25    1    1    2    0    0 -0.50511797360E+02  0.16907806831E+02 -0.25194921676E+03  0.28625290117E+03  0.12500000000E+03 0.  0.
         25    1    1    2    0    0  0.50511797360E+02 -0.16907806831E+02  0.27212493545E+03  0.30416162825E+03  0.12500000000E+03 0.  0.
</event>
<event>
 4    0  0.2253506E-002  0.1534416E+03  0.7546771E-02  0.1196307E+00
         21   -1    0    0  502  501  0.00000000000E+00  0.00000000000E+00  0.39605524534E+03  0.39605524534E+03  0.00000000000E+00 0. -1.
         21   -1    0    0  501  502 -0.00000000000E+00 -0.00000000000E+00 -0.59447045164E+02  0.59447045164E+02  0.00000000000E+00 0. -1.
         25    1    1    2    0    0  0.26482374609E+02 -0.58023778222E+02  0.76191766090E+02  0.15968174668E+03  0.12500000000E+03 0.  0.
         25    1    1    2    0    0 -0.26482374609E+02  0.58023778222E+02  0.26041643409E+03  0.29582054382E+03  0.12500000000E+03 0.  0.
</event>
<event>
 4    0  0.2253506E-002  0.3097150E+03  0.7546771E-02  0.1080483E+00
         21   -1    0    0  502  501  0.00000000000E+00  0.00000000000E+00  0.30443989304E+03  0.30443989304E+03  0.00000000000E+00 0. -1.
         21   -1    0    0  501  502 -0.00000000000E+00 -0.00000000000E+00 -0.31508154055E+03  0.31508154055E+03  0.00000000000E+00 0. -1.
         25    1    1    2    0    0  0.23403062665E+03  0.80428134545E+02  0.13275523035E+03  0.30738895592E+03  0.12500000000E+03 0.  0.
         25    1    1    2    0    0 -0.23403062665E+03 -0.80428134545E+02 -0.14339687786E+03  0.31213247767E+03  0.12500000000E+03 0.  0.
</event>
<event>
 4    0  0.2253506E-002  0.2326100E+03  0.7546771E-02  0.1124816E+00
         21   -1    0    0  502  501  0.00000000000E+00  0.00000000000E+00  0.15321668650E+03  0.15321668650E+03  0.00000000000E+00 0. -1.
         21   -1    0    0  501  502 -0.00000000000E+00 -0.00000000000E+00 -0.35314304033E+03  0.35314304033E+03  0.00000000000E+00 0. -1.
         25    1    1    2    0    0  0.13767082575E+03 -0.13748495928E+03 -0.72708118760E+02  0.24241873035E+03  0.12500000000E+03 0.  0.
         25    1    1    2    0    0 -0.13767082575E+03  0.13748495928E+03 -0.12721823507E+03  0.26394099648E+03  0.12500000000E+03 0.  0.
</event>
<event>
 4    0  0.2253506E-002  0.1734209E+03  0.7546771E-02  0.1174327E+00
         21   -1    0    0  502  501  0.00000000000E+00  0.00000000000E+00  0.57031347790E+02  0.57031347790E+02  0.00000000000E+00 0.  1.
         21   -1    0    0  501  502 -0.00000000000E+00 -0.00000000000E+00 -0.52733840105E+03  0.52733840105E+03  0.00000000000E+00 0.  1.
         25    1    1    2    0    0  0.14978038882E+02 -0.13035169963E+02 -0.35406497855E+02  0.13142631926E+03  0.12500000000E+03 0.  0.
         25    1    1    2    0    0 -0.14978038882E+02  0.13035169963E+02 -0.43490055541E+03  0.45294342958E+03  0.12500000000E+03 0.  0.
</event>
<event>
 4    0  0.2253506E-002  0.1902427E+03  0.7546771E-02  0.1158243E+00
         21   -1    0    0  502  501  0.00000000000E+00  0.00000000000E+00  0.24469534463E+04  0.24469534463E+04  0.00000000000E+00 0. -1.
         21   -1    0    0  501  502 -0.00000000000E+00 -0.00000000000E+00 -0.14790760184E+02  0.14790760184E+02  0.00000000000E+00 0. -1.
         25    1    1    2    0    0 -0.90177208227E+02  0.82571348452E+02  0.73116102446E+03  0.75177882396E+03  0.12500000000E+03 0.  0.
         25    1    1    2    0    0  0.90177208227E+02 -0.82571348452E+02  0.17010016616E+04  0.17099653825E+04  0.12500000000E+03 0.  0.
</event>
<event>
 4    0  0.2253506E-002  0.2832044E+03  0.7546771E-02  0.1093952E+00
         21   -1    0    0  502  501  0.00000000000E+00  0.00000000000E+00  0.25806802094E+03  0.25806802094E+03  0.00000000000E+00 0.  1.
         21   -1    0    0  501  502 -0.00000000000E+00 -0.00000000000E+00 -0.31078901293E+03  0.31078901293E+03  0.00000000000E+00 0.  1.
         25    1    1    2    0    0 -0.19209397623E+03 -0.61142780397E+02  0.12903767382E+03  0.27002639975E+03  0.12500000000E+03 0.  0.
         25    1    1    2    0    0  0.19209397623E+03  0.61142780397E+02 -0.18175866580E+03  0.29883063413E+03  0.12500000000E+03 0.  0.
</event>
<event>
 4    0  0.2253506E-002  0.2491907E+03  0.7546771E-02  0.1113817E+00
         21   -1    0    0  502  501  0.00000000000E+00  0.00000000000E+00  0.41684158692E+02  0.41684158692E+02  0.00000000000E+00 0.  1.
         21   -1    0    0  501  502 -0.00000000000E+00 -0.00000000000E+00 -0.14896786336E+04  0.14896786336E+04  0.00000000000E+00 0.  1.
         25    1    1    2    0    0 -0.21036855167E+03 -0.27745306211E+02 -0.84085057522E+03  0.87617316747E+03  0.12500000000E+03 0.  0.
         25    1    1    2    0    0  0.21036855167E+03  0.27745306211E+02 -0.60714389972E+03  0.65518962486E+03  0.12500000000E+03 0.  0.
</event>
<event>
 4    0  0.2253506E-002  0.2200218E+03  0.7546771E-02  0.1133867E+00
         21   -1    0    0  502  501  0.00000000000E+00  0.00000000000E+00  0.17206630994E+03  0.17206630994E+03  0.00000000000E+00 0.  1.
         21   -1    0    0  501  502 -0.00000000000E+00 -0.00000000000E+00 -0.28134257849E+03  0.28134257849E+03  0.00000000000E+00 0.  1.
         25    1    1    2    0    0  0.10547575814E+03  0.71713287250E+01 -0.20609948448E+03  0.26320820848E+03  0.12500000000E+03 0.  0.
         25    1    1    2    0    0 -0.10547575814E+03 -0.71713287250E+01  0.96823215923E+02  0.19020067995E+03  0.12500000000E+03 0.  0.
</event>
<event>
 4    0  0.2253506E-002  0.2616194E+03  0.7546771E-02  0.1106174E+00
         21   -1    0    0  502  501  0.00000000000E+00  0.00000000000E+00  0.11398979337E+03  0.11398979337E+03  0.00000000000E+00 0. -1.
         21   -1    0    0  501  502 -0.00000000000E+00 -0.00000000000E+00 -0.60044607449E+03  0.60044607449E+03  0.00000000000E+00 0. -1.
         25    1    1    2    0    0 -0.84418963586E+02  0.14194373233E+03 -0.24996657213E+02  0.20862506425E+03  0.12500000000E+03 0.  0.
         25    1    1    2    0    0  0.84418963586E+02 -0.14194373233E+03 -0.46145962390E+03  0.50581080361E+03  0.12500000000E+03 0.  0.
</event>
<event>
 4    0  0.2253506E-002  0.2234806E+03  0.7546771E-02  0.1131314E+00
         21   -1    0    0  502  501  0.00000000000E+00  0.00000000000E+00  0.10284582208E+03  0.10284582208E+03  0.00000000000E+00 0.  1.
         21   -1    0    0  501  502 -0.00000000000E+00 -0.00000000000E+00 -0.48561595104E+03  0.48561595104E+03  0.00000000000E+00 0.  1.
         25    1    1    2    0    0  0.11054658246E+03 -0.67748436368E+02 -0.17176745206E+02  0.18091555516E+03  0.12500000000E+03 0.  0.
         25    1    1    2    0    0 -0.11054658246E+03  0.67748436368E+02 -0.36559338376E+03  0.40754621796E+03  0.12500000000E+03 0.  0.
</event>
<event>
 4    0  0.2253506E-002  0.1426141E+03  0.7546771E-02  0.1209854E+00
         21   -1    0    0  502  501  0.00000000000E+00  0.00000000000E+00  0.34099939582E+03  0.34099939582E+03  0.00000000000E+00 0. -1.
         21   -1    0    0  501  502 -0.00000000000E+00 -0.00000000000E+00 -0.59644610081E+02  0.59644610081E+02  0.00000000000E+00 0. -1.
         25    1    1    2    0    0 -0.67949955713E+02  0.98232741700E+01  0.14108159084E+03  0.20060585353E+03  0.12500000000E+03 0.  0.
         25    1    1    2    0    0  0.67949955713E+02 -0.98232741700E+01  0.14027319490E+03  0.20003815237E+03  0.12500000000E+03 0.  0.
</event>
<event>
 4    0  0.2253506E-002  0.1474704E+03  0.7546771E-02  0.1203616E+00
         21   -1    0    0  502  501  0.00000000000E+00  0.00000000000E+00  0.10921105686E+04  0.10921105686E+04  0.00000000000E+00 0. -1.
         21   -1    0    0  501  502 -0.00000000000E+00 -0.00000000000E+00 -0.19913305154E+02  0.19913305154E+02  0.00000000000E+00 0. -1.
         25    1    1    2    0    0 -0.33919463524E+02 -0.12524745494E+02  0.79772603082E+03  0.80826927413E+03  0.12500000000E+03 0.  0.
         25    1    1    2    0    0  0.33919463524E+02  0.12524745494E+02  0.27447123266E+03  0.30375459965E+03  0.12500000000E+03 0.  0.
</event>
<event>
 4    0  0.2253506E-002  0.2589547E+03  0.7546771E-02  0.1107773E+00
         21   -1    0    0  502  501  0.00000000000E+00  0.00000000000E+00  0.14786216765E+03  0.14786216765E+03  0.00000000000E+00 0.  1.
         21   -1    0    0  501  502 -0.00000000000E+00 -0.00000000000E+00 -0.45351369342E+03  0.45351369342E+03  0.00000000000E+00 0.  1.
         25    1    1    2    0    0 -0.16723014033E+03 -0.92018110517E+02 -0.29503481851E+03  0.37296621379E+03  0.12500000000E+03 0.  0.
         25    1    1    2    0    0  0.16723014033E+03  0.92018110517E+02 -0.10616707265E+02  0.22840964728E+03  0.12500000000E+03 0.  0.
</event>
<event>
 4    0  0.2253506E-002  0.2254951E+03  0.7546771E-02  0.1129851E+00
         21   -1    0    0  502  501  0.00000000000E+00  0.00000000000E+00  0.15761470155E+03  0.15761470155E+03  0.00000000000E+00 0.  1.
         21   -1    0    0  501  502 -0.00000000000E+00 -0.00000000000E+00 -0.32260982137E+03  0.32260982137E+03  0.00000000000E+00 0.  1.
         25    1    1    2    0    0  0.87903301882E+02 -0.16297860861E+03 -0.11504061932E+03  0.25129337723E+03  0.12500000000E+03 0.  0.
         25    1    1    2    0    0 -0.87903301882E+02  0.16297860861E+03 -0.49954500502E+02  0.22893114569E+03  0.12500000000E+03 0.  0.
</event>
<event>
 4    0  0.2253506E-002  0.2342523E+03  0.7546771E-02  0.1123682E+00
         21   -1    0    0  502  501  0.00000000000E+00  0.00000000000E+00  0.31065368470E+03  0.31065368470E+03  0.00000000000E+00 0.  1.
         21   -1    0    0  501  502 -0.00000000000E+00 -0.00000000000E+00 -0.17664082213E+03  0.17664082213E+03  0.00000000000E+00 0.  1.
         25    1    1    2    0    0 -0.39405063850E+02 -0.13923291083E+03  0.20774999296E+03  0.28235371804E+03  0.12500000000E+03 0.  0.
         25    1    1    2    0    0  0.39405063850E+02  0.13923291083E+03 -0.73737130378E+02  0.20494078880E+03  0.12500000000E+03 0.  0.
</event>
<event>
 4    0  0.2253506E-002  0.2777240E+03  0.7546771E-02  0.1096939E+00
         21   -1    0    0  502  501  0.00000000000E+00  0.00000000000E+00  0.29242038830E+02  0.29242038830E+02  0.00000000000E+00 0.  1.
         21   -1    0    0  501  502 -0.00000000000E+00 -0.00000000000E+00 -0.26376620957E+04  0.26376620957E+04  0.00000000000E+00 0.  1.
         25    1    1    2    0    0  0.14333950612E+03  0.44677604040E+02 -0.35646403869E+03  0.40648974550E+03  0.12500000000E+03 0.  0.
         25    1    1    2    0    0 -0.14333950612E+03 -0.44677604040E+02 -0.22519560181E+04  0.22604143890E+04  0.12500000000E+03 0.  0.
</event>
<event>
 4    0  0.2253506E-002  0.1978708E+03  0.7546771E-02  0.1151548E+00
         21   -1    0    0  502  501  0.00000000000E+00  0.00000000000E+00  0.21197002913E+04  0.21197002913E+04  0.00000000000E+00 0. -1.
         21   -1    0    0  501  502 -0.00000000000E+00 -0.00000000000E+00 -0.18470935370E+02  0.18470935370E+02  0.00000000000E+00 0. -1.
         25    1    1    2    0    0  0.96589809026E+02 -0.36782727254E+02  0.16629688974E+04  0.16708599924E+04  0.12500000000E+03 0.  0.
         25    1    1    2    0    0 -0.96589809026E+02  0.36782727254E+02  0.43826045849E+03  0.46731123431E+03  0.12500000000E+03 0.  0.
</event>
<event>
 4    0  0.2253506E-002  0.1646412E+03  0.7546771E-02  0.1183554E+00
         21   -1    0    0  502  501  0.00000000000E+00  0.00000000000E+00  0.23768921568E+02  0.23768921568E+02  0.00000000000E+00 0.  1.
         21   -1    0    0  501  502 -0.00000000000E+00 -0.00000000000E+00 -0.11404272944E+04  0.11404272944E+04  0.00000000000E+00 0.  1.
         25    1    1    2    0    0  0.88542554202E+02 -0.24638071208E+01 -0.77151680573E+03  0.78658059713E+03  0.12500000000E+03 0.  0.
         25    1    1    2    0    0 -0.88542554202E+02  0.24638071208E+01 -0.34514156706E+03  0.37761561880E+03  0.12500000000E+03 0.  0.
</event>
<event>
 4    0  0.2253506E-002  0.2291469E+03  0.7546771E-02  0.1127242E+00
         21   -1    0    0  502  501  0.00000000000E+00  0.00000000000E+00  0.24372513805E+03  0.24372513805E+03  0.00000000000E+00 0.  1.
         21   -1    0    0  501  502 -0.00000000000E+00 -0.00000000000E+00 -0.21544060125E+03  0.21544060125E+03  0.00000000000E+00 0.  1.
         25    1    1    2    0    0  0.17030597385E+03 -0.49005956061E+02  0.88293774785E+02  0.23415059070E+03  0.12500000000E+03 0.  0.
         25    1    1    2    0    0 -0.17030597385E+03  0.49005956061E+02 -0.60009237990E+02  0.22501514861E+03  0.12500000000E+03 0.  0.
</event>
<event>
 4    0  0.2253506E-002  0.2105673E+03  0.7546771E-02  0.1141118E+00
         21   -1    0    0  502  501  0.00000000000E+00  0.00000000000E+00  0.10672909884E+03  0.10672909884E+03  0.00000000000E+00 0. -1.
         21   -1    0    0  501  502 -0.00000000000E+00 -0.00000000000E+00 -0.41543092477E+03  0.41543092477E+03  0.00000000000E+00 0. -1.
         25    1    1    2    0    0  0.10805270377E+03  0.12990744744E+03 -0.17014364003E+03  0.27041669684E+03  0.12500000000E+03 0.  0.
         25    1    1    2    0    0 -0.10805270377E+03 -0.12990744744E+03 -0.13855818590E+03  0.25174332677E+03  0.12500000000E+03 0.  0.
</event>
<event>
 4    0  0.2253506E-002  0.2729292E+03  0.7546771E-02  0.1099615E+00
         21   -1    0    0  502  501  0.00000000000E+00  0.00000000000E+00  0.50849286321E+03  0.50849286321E+03  0.00000000000E+00 0. -1.
         21   -1    0    0  501  502 -0.00000000000E+00 -0.00000000000E+00 -0.14649240071E+03  0.14649240071E+03  0.00000000000E+00 0. -1.
         25    1    1    2    0    0  0.47427779497E+01  0.61249525856E+02 -0.10063905172E+03  0.17183485412E+03  0.12500000000E+03 0.  0.
         25    1    1    2    0    0 -0.47427779497E+01 -0.61249525856E+02  0.46263951423E+03  0.48315040979E+03  0.12500000000E+03 0.  0.
</event>
<event>
 4    0  0.2253506E-002  0.3244692E+03  0.7546771E-02  0.1073611E+00
         21   -1    0    0  502  501  0.00000000000E+00  0.00000000000E+00  0.49154493591E+03  0.49154493591E+03  0.00000000000E+00 0. -1.
         21   -1    0    0  501  502 -0.00000000000E+00 -0.00000000000E+00 -0.21418233550E+03  0.21418233550E+03  0.00000000000E+00 0. -1.
         25    1    1    2    0    0 -0.29388937701E+03 -0.56243475154E+02  0.12672125724E+03  0.34816313914E+03  0.12500000000E+03 0.  0.
         25    1    1    2    0    0  0.29388937701E+03  0.56243475154E+02  0.15064134316E+03  0.35756413227E+03  0.12500000000E+03 0.  0.
</event>
<event>
 4    0  0.2253506E-002  0.1925007E+03  0.7546771E-02  0.1156225E+00
         21   -1    0    0  502  501  0.00000000000E+00  0.00000000000E+00  0.91739783237E+03  0.91739783237E+03  0.00000000000E+00 0.  1.
         21   -1    0    0  501  502 -0.00000000000E+00 -0.00000000000E+00 -0.40393058916E+02  0.40393058916E+02  0.00000000000E+00 0.  1.
         25    1    1    2    0    0  0.11249168430E+03  0.69868066710E+02  0.59377486457E+03  0.62107126450E+03  0.12500000000E+03 0.  0.
         25    1    1    2    0    0 -0.11249168430E+03 -0.69868066710E+02  0.28322990888E+03  0.33671962679E+03  0.12500000000E+03 0.  0.
</event>
<event>
 4    0  0.2253506E-002  0.1859953E+03  0.7546771E-02  0.1162124E+00
         21   -1    0    0  502  501  0.00000000000E+00  0.00000000000E+00  0.58578575201E+02  0.58578575201E+02  0.00000000000E+00 0. -1.
         21   -1    0    0  501  502 -0.00000000000E+00 -0.00000000000E+00 -0.59056164541E+03  0.59056164541E+03  0.00000000000E+00 0. -1.
         25    1    1    2    0    0 -0.75048321689E+02 -0.42513011696E+02 -0.78615251663E+02  0.17101159185E+03  0.12500000000E+03 0.  0.
         25    1    1    2    0    0  0.75048321689E+02  0.42513011696E+02 -0.45336781854E+03  0.47812862876E+03  0.12500000000E+03 0.  0.
</event>
<event>
 4    0  0.2253506E-002  0.2991034E+03  0.7546771E-02  0.1085690E+00
         21   -1    0    0  502  501  0.00000000000E+00  0.00000000000E+00  0.54736639900E+02  0.54736639900E+02  0.00000000000E+00 0. -1.
         21   -1    0    0  501  502 -0.00000000000E+00 -0.00000000000E+00 -0.16344230235E+04  0.16344230235E+04  0.00000000000E+00 0. -1.
         25    1    1    2    0    0  0.26522855483E+03  0.42602186439E+02 -0.67421971191E+03  0.73644983028E+03  0.12500000000E+03 0.  0.
         25    1    1    2    0    0 -0.26522855483E+03 -0.42602186439E+02 -0.90546667173E+03  0.95270983316E+03  0.12500000000E+03 0.  0.
</event>
<event>
 4    0  0.2253506E-002  0.4471113E+03  0.7546771E-02  0.1028587E+00
         21   -1    0    0  502  501  0.00000000000E+00  0.00000000000E+00  0.66076519130E+03  0.66076519130E+03  0.00000000000E+00 0.  1.
         21   -1    0    0  501  502 -0.00000000000E+00 -0.00000000000E+00 -0.30254097320E+03  0.30254097320E+03  0.00000000000E+00 0.  1.
         25    1    1    2    0    0  0.25442532452E+03 -0.54534484116E+01  0.55153964950E+03  0.62014753956E+03  0.12500000000E+03 0.  0.
         25    1    1    2    0    0 -0.25442532452E+03  0.54534484116E+01 -0.19331543140E+03  0.34315862494E+03  0.12500000000E+03 0.  0.
</event>
<event>
 4    0  0.2253506E-002  0.2465052E+03  0.7546771E-02  0.1115534E+00
         21   -1    0    0  502  501  0.00000000000E+00  0.00000000000E+00  0.92975367910E+03  0.92975367910E+03  0.00000000000E+00 0.  1.
         21   -1    0    0  501  502 -0.00000000000E+00 -0.00000000000E+00 -0.65355813575E+02  0.65355813575E+02  0.00000000000E+00 0.  1.
         25    1    1    2    0    0 -0.12758679398E+03 -0.16975015521E+03  0.44593362860E+03  0.50948533473E+03  0.12500000000E+03 0.  0.
         25    1    1    2    0    0  0.12758679398E+03  0.16975015521E+03  0.41846423693E+03  0.48562415795E+03  0.12500000000E+03 0.  0.
</event>
<event>
 4    0  0.2253506E-002  0.2054577E+03  0.7546771E-02  0.1145214E+00
         21   -1    0    0  502  501  0.00000000000E+00  0.00000000000E+00  0.10363676102E+04  0.10363676102E+04  0.00000000000E+00 0.  1.
         21   -1    0    0  501  502 -0.00000000000E+00 -0.00000000000E+00 -0.40731573046E+02  0.40731573046E+02  0.00000000000E+00 0.  1.
         25    1    1    2    0    0 -0.93064457547E+01 -0.16183716440E+03  0.54396972423E+03  0.58121075231E+03  0.12500000000E+03 0.  0.
         25    1    1    2    0    0  0.93064457547E+01  0.16183716440E+03  0.45166631297E+03  0.49588843098E+03  0.12500000000E+03 0.  0.
</event>
<event>
 4    0  0.2253506E-002  0.1717209E+03  0.7546771E-02  0.1176065E+00
         21   -1    0    0  502  501  0.00000000000E+00  0.00000000000E+00  0.61267380185E+02  0.61267380185E+02  0.00000000000E+00 0.  1.
         21   -1    0    0  501  502 -0.00000000000E+00 -0.00000000000E+00 -0.48130121112E+03  0.48130121112E+03  0.00000000000E+00 0.  1.
         25    1    1    2    0    0 -0.47232003689E+02  0.72977970819E+02 -0.84560494426E+02  0.17416120009E+03  0.12500000000E+03 0.  0.
         25    1    1    2    0    0  0.47232003689E+02 -0.72977970819E+02 -0.33547333651E+03  0.36840739122E+03  0.12500000000E+03 0.  0.
</event>
<event>
 4    0  0.2253506E-002  0.2016734E+03  0.7546771E-02  0.1148335E+00
         21   -1    0    0  502  501  0.00000000000E+00  0.00000000000E+00  0.48914409542E+02  0.48914409542E+02  0.00000000000E+00 0. -1.
         21   -1    0    0  501  502 -0.00000000000E+00 -0.00000000000E+00 -0.83149672072E+03  0.83149672072E+03  0.00000000000E+00 0. -1.
         25    1    1    2    0    0  0.11829861175E+03  0.33336963982E+02 -0.60892552857E+03  0.63365701610E+03  0.12500000000E+03 0.  0.
         25    1    1    2    0    0 -0.11829861175E+03 -0.33336963982E+02 -0.17365678260E+03  0.24675411415E+03  0.12500000000E+03 0.  0.
</event>
<event>
 4    0  0.2253506E-002  0.2222072E+03  0.7546771E-02  0.1132248E+00
         21   -1    0    0  502  501  0.00000000000E+00  0.00000000000E+00  0.18051528463E+03  0.18051528463E+03  0.00000000000E+00 0.  1.
         21   -1    0    0  501  502 -0.00000000000E+00 -0.00000000000E+00 -0.27352830237E+03  0.27352830237E+03  0.00000000000E+00 0.  1.
         25    1    1    2    0    0  0.87123060136E+02  0.88454060343E+02 -0.18485280592E+03  0.25536269942E+03  0.12500000000E+03 0.  0.
         25    1    1    2    0    0 -0.87123060136E+02 -0.88454060343E+02  0.91839788169E+02  0.19868088758E+03  0.12500000000E+03 0.  0.
</event>
<event>
 4    0  0.2253506E-002  0.2001981E+03  0.7546771E-02  0.1149572E+00
         21   -1    0    0  502  501  0.00000000000E+00  0.00000000000E+00  0.37053451888E+03  0.37053451888E+03  0.00000000000E+00 0.  1.
         21   -1    0    0  501  502 -0.00000000000E+00 -0.00000000000E+00 -0.10816615829E+03  0.10816615829E+03  0.00000000000E+00 0.  1.
         25    1    1    2    0    0 -0.12511315161E+03  0.40585832451E+02  0.23230531783E+03  0.29477325387E+03  0.12500000000E+03 0.  0.
         25    1    1    2    0    0  0.12511315161E+03 -0.40585832451E+02  0.30063042759E+02  0.18392742330E+03  0.12500000000E+03 0.  0.
</event>
<event>
 4    0  0.2253506E-002  0.1744978E+03  0.7546771E-02  0.1173237E+00
         21   -1    0    0  502  501  0.00000000000E+00  0.00000000000E+00  0.27981567820E+03  0.27981567820E+03  0.00000000000E+00 0. -1.
         21   -1    0    0  501  502 -0.00000000000E+00 -0.00000000000E+00 -0.10881978765E+03  0.10881978765E+03  0.00000000000E+00 0. -1.
         25    1    1    2    0    0  0.87832628849E+02 -0.34764182780E+02 -0.47848809904E-01  0.15667840114E+03  0.12500000000E+03 0.  0.
         25    1    1    2    0    0 -0.87832628849E+02  0.34764182780E+02  0.17104373936E+03  0.23195706471E+03  0.12500000000E+03 0.  0.
</event>
<event>
 4    0  0.2253506E-002  0.1668724E+03  0.7546771E-02  0.1181149E+00
         21   -1    0    0  502  501  0.00000000000E+00  0.00000000000E+00  0.20682896643E+03  0.20682896643E+03  0.00000000000E+00 0.  1.
         21   -1    0    0  501  502 -0.00000000000E+00 -0.00000000000E+00 -0.13463496309E+03  0.13463496309E+03  0.00000000000E+00 0.  1.
         25    1    1    2    0    0  0.40668906477E+02 -0.10233433542E+03  0.46076261769E+02  0.17284182959E+03  0.12500000000E+03 0.  0.
         25    1    1    2    0    0 -0.40668906477E+02  0.10233433542E+03  0.26117741563E+02  0.16862209993E+03  0.12500000000E+03 0.  0.
</event>
<event>
 4    0  0.2253506E-002  0.2146966E+03  0.7546771E-02  0.1137900E+00
         21   -1    0    0  502  501  0.00000000000E+00  0.00000000000E+00  0.36476306668E+03  0.36476306668E+03  0.00000000000E+00 0. -1.
         21   -1    0    0  501  502 -0.00000000000E+00 -0.00000000000E+00 -0.12636863444E+03  0.12636863444E+03  0.00000000000E+00 0. -1.
         25    1    1    2    0    0 -0.14571393031E+03 -0.69647652945E+02  0.19494856289E+03  0.28233541616E+03  0.12500000000E+03 0.  0.
         25    1    1    2    0    0  0.14571393031E+03  0.69647652945E+02  0.43445869358E+02  0.20879628496E+03  0.12500000000E+03 0.  0.
</event>
<event>
 4    0  0.2253506E-002  0.2062193E+03  0.7546771E-02  0.1144595E+00
         21   -1    0    0  502  501  0.00000000000E+00  0.00000000000E+00  0.24551469117E+03  0.24551469117E+03  0.00000000000E+00 0.  1.
         21   -1    0    0  501  502 -0.00000000000E+00 -0.00000000000E+00 -0.17321319806E+03  0.17321319806E+03  0.00000000000E+00 0.  1.
         25    1    1    2    0    0 -0.58288852400E+02  0.33506821976E+02  0.18803517503E+03  0.23558973764E+03  0.12500000000E+03 0.  0.
         25    1    1    2    0    0  0.58288852400E+02 -0.33506821976E+02 -0.11573368192E+03  0.18313815158E+03  0.12500000000E+03 0.  0.
</event>
<event>
 4    0  0.2253506E-002  0.2283711E+03  0.7546771E-02  0.1127792E+00
         21   -1    0    0  502  501  0.00000000000E+00  0.00000000000E+00  0.97195908713E+02  0.97195908713E+02  0.00000000000E+00 0.  1.
         21   -1    0    0  501  502 -0.00000000000E+00 -0.00000000000E+00 -0.53657972421E+03  0.53657972421E+03  0.00000000000E+00 0.  1.
         25    1    1    2    0    0 -0.37612868728E+02  0.27328564719E+01 -0.47968156364E+03  0.49713338139E+03  0.12500000000E+03 0.  0.
         25    1    1    2    0    0  0.37612868728E+02 -0.27328564719E+01  0.40297748142E+02  0.13664225153E+03  0.12500000000E+03 0.  0.
</event>
<event>
 4    0  0.2253506E-002  0.2560627E+03  0.7546771E-02  0.1109532E+00
         21   -1    0    0  502  501  0.00000000000E+00  0.00000000000E+00  0.60775245908E+03  0.60775245908E+03  0.00000000000E+00 0. -1.
         21   -1    0    0  501  502 -0.00000000000E+00 -0.00000000000E+00 -0.10788616751E+03  0.10788616751E+03  0.00000000000E+00 0. -1.
         25    1    1    2    0    0 -0.21070777954E+02  0.59936343309E+02 -0.49469588616E+02  0.14868955286E+03  0.12500000000E+03 0.  0.
         25    1    1    2    0    0  0.21070777954E+02 -0.59936343309E+02  0.54933588018E+03  0.56694907372E+03  0.12500000000E+03 0.  0.
</event>
<event>
 4    0  0.2253506E-002  0.3238961E+03  0.7546771E-02  0.1073870E+00
         21   -1    0    0  502  501  0.00000000000E+00  0.00000000000E+00  0.82223026019E+03  0.82223026019E+03  0.00000000000E+00 0. -1.
         21   -1    0    0  501  502 -0.00000000000E+00 -0.00000000000E+00 -0.12759036236E+03  0.12759036236E+03  0.00000000000E+00 0. -1.
         25    1    1    2    0    0  0.20644961199E+03  0.14853985090E+03  0.11735748266E+03  0.30673002516E+03  0.12500000000E+03 0.  0.
         25    1    1    2    0    0 -0.20644961199E+03 -0.14853985090E+03  0.57728241517E+03  0.64309059739E+03  0.12500000000E+03 0.  0.
</event>
<event>
 4    0  0.2253506E-002  0.1715780E+03  0.7546771E-02  0.1176212E+00
         21   -1    0    0  502  501  0.00000000000E+00  0.00000000000E+00  0.26540973130E+03  0.26540973130E+03  0.00000000000E+00 0.  1.
         21   -1    0    0  501  502 -0.00000000000E+00 -0.00000000000E+00 -0.11091907127E+03  0.11091907127E+03  0.00000000000E+00 0.  1.
         25    1    1    2    0    0  0.92024360314E+02  0.71803523405E+02  0.62137849609E+02  0.18196247201E+03  0.12500000000E+03 0.  0.
         25    1    1    2    0    0 -0.92024360314E+02 -0.71803523405E+02  0.92352810427E+02  0.19436633057E+03  0.12500000000E+03 0.  0.
</event>
<event>
 4    0  0.2253506E-002  0.2265134E+03  0.7546771E-02  0.1129118E+00
         21   -1    0    0  502  501  0.00000000000E+00  0.00000000000E+00  0.15529538101E+04  0.15529538101E+04  0.00000000000E+00 0. -1.
         21   -1    0    0  501  502 -0.00000000000E+00 -0.00000000000E+00 -0.33039188956E+02  0.33039188956E+02  0.00000000000E+00 0. -1.
         25    1    1    2    0    0  0.10715787053E+03 -0.15380093420E+03  0.67816863032E+03  0.71461544045E+03  0.12500000000E+03 0.  0.
         25    1    1    2    0    0 -0.10715787053E+03  0.15380093420E+03  0.84174599086E+03  0.87137755864E+03  0.12500000000E+03 0.  0.
</event>
<event>
 4    0  0.2253506E-002  0.1929548E+03  0.7546771E-02  0.1155823E+00
         21   -1    0    0  502  501  0.00000000000E+00  0.00000000000E+00  0.82161862943E+02  0.82161862943E+02  0.00000000000E+00 0. -1.
         21   -1    0    0  501  502 -0.00000000000E+00 -0.00000000000E+00 -0.45314868195E+03  0.45314868195E+03  0.00000000000E+00 0. -1.
         25    1    1    2    0    0 -0.11637131352E+03  0.82597282355E+02 -0.13660885058E+03  0.23377675616E+03  0.12500000000E+03 0.  0.
         25    1    1    2    0    0  0.11637131352E+03 -0.82597282355E+02 -0.23437796842E+03  0.30153378873E+03  0.12500000000E+03 0.  0.
</event>
<event>
 4    0  0.2253506E-002  0.2282655E+03  0.7546771E-02  0.1127867E+00
         21   -1    0    0  502  501  0.00000000000E+00  0.00000000000E+00  0.14060932348E+04  0.14060932348E+04  0.00000000000E+00 0. -1.
         21   -1    0    0  501  502 -0.00000000000E+00 -0.00000000000E+00 -0.37056684270E+02  0.37056684270E+02  0.00000000000E+00 0. -1.
         25    1    1    2    0    0 -0.71219820660E+02  0.38372552329E+02  0.12314510134E+04  0.12404198136E+04  0.12500000000E+03 0.  0.
         25    1    1    2    0    0  0.71219820660E+02 -0.38372552329E+02  0.13758553714E+03  0.20273010545E+03  0.12500000000E+03 0.  0.
</event>
<event>
 4    0  0.2253506E-002  0.3074113E+03  0.7546771E-02  0.1081593E+00
         21   -1    0    0  502  501  0.00000000000E+00  0.00000000000E+00  0.10813986635E+03  0.10813986635E+03  0.00000000000E+00 0.  1.
         21   -1    0    0  501  502 -0.00000000000E+00 -0.00000000000E+00 -0.87388399490E+03  0.87388399490E+03  0.00000000000E+00 0.  1.
         25    1    1    2    0    0 -0.25412931436E+03  0.78441389727E+02 -0.23874811858E+03  0.37862966625E+03  0.12500000000E+03 0.  0.
         25    1    1    2    0    0  0.25412931436E+03 -0.78441389727E+02 -0.52699600997E+03  0.60339419501E+03  0.12500000000E+03 0.  0.
</event>
<event>
 4    0  0.2253506E-002  0.1689180E+03  0.7546771E-02  0.1178981E+00
         21   -1    0    0  502  501  0.00000000000E+00  0.00000000000E+00  0.23913439609E+03  0.23913439609E+03  0.00000000000E+00 0.  1.
         21   -1    0    0  501  502 -0.00000000000E+00 -0.00000000000E+00 -0.11931910135E+03  0.11931910135E+03  0.00000000000E+00 0.  1.
         25    1    1    2    0    0  0.36784952634E+01  0.98243986362E+02 -0.51404166717E+00  0.15903042609E+03  0.12500000000E+03 0.  0.
         25    1    1    2    0    0 -0.36784952634E+01 -0.98243986362E+02  0.12032933641E+03  0.19942307134E+03  0.12500000000E+03 0.  0.
</event>
<event>
 4    0  0.2253506E-002  0.2100556E+03  0.7546771E-02  0.1141522E+00
         21   -1    0    0  502  501  0.00000000000E+00  0.00000000000E+00  0.11431875018E+04  0.11431875018E+04  0.00000000000E+00 0.  1.
         21   -1    0    0  501  502 -0.00000000000E+00 -0.00000000000E+00 -0.38596786548E+02  0.38596786548E+02  0.00000000000E+00 0.  1.
         25    1    1    2    0    0  0.11595330149E+03  0.12264612275E+03  0.56167773617E+03  0.59966167033E+03  0.12500000000E+03 0.  0.
         25    1    1    2    0    0 -0.11595330149E+03 -0.12264612275E+03  0.54291297904E+03  0.58212261798E+03  0.12500000000E+03 0.  0.
</event>
<event>
 4    0  0.2253506E-002  0.2307521E+03  0.7546771E-02  0.1126112E+00
         21   -1    0    0  502  501  0.00000000000E+00  0.00000000000E+00  0.34708094582E+03  0.34708094582E+03  0.00000000000E+00 0.  1.
         21   -1    0    0  501  502 -0.00000000000E+00 -0.00000000000E+00 -0.15341239096E+03  0.15341239096E+03  0.00000000000E+00 0.  1.
         25    1    1    2    0    0 -0.11183430191E+03 -0.14125070065E+02  0.26801463172E+03  0.31648581565E+03  0.12500000000E+03 0.  0.
         25    1    1    2    0    0  0.11183430191E+03  0.14125070065E+02 -0.74346076860E+02  0.18400752113E+03  0.12500000000E+03 0.  0.
</event>
<event>
 4    0  0.2253506E-002  0.2788878E+03  0.7546771E-02  0.1096298E+00
         21   -1    0    0  502  501  0.00000000000E+00  0.00000000000E+00  0.65454856973E+03  0.65454856973E+03  0.00000000000E+00 0. -1.
         21   -1    0    0  501  502 -0.00000000000E+00 -0.00000000000E+00 -0.11882758956E+03  0.11882758956E+03  0.00000000000E+00 0. -1.
         25    1    1    2    0    0  0.11898356535E+03  0.21155457593E+03  0.34679570740E+03  0.44136684299E+03  0.12500000000E+03 0.  0.
         25    1    1    2    0    0 -0.11898356535E+03 -0.21155457593E+03  0.18892527278E+03  0.33200931630E+03  0.12500000000E+03 0.  0.
</event>
<event>
 4    0  0.2253506E-002  0.3055751E+03  0.7546771E-02  0.1082486E+00
         21   -1    0    0  502  501  0.00000000000E+00  0.00000000000E+00  0.11235170605E+03  0.11235170605E+03  0.00000000000E+00 0.  1.
         21   -1    0    0  501  502 -0.00000000000E+00 -0.00000000000E+00 -0.83110543845E+03  0.83110543845E+03  0.00000000000E+00 0.  1.
         25    1    1    2    0    0 -0.91859094336E+02 -0.39409415936E+02  0.42470126003E+02  0.16558957358E+03  0.12500000000E+03 0.  0.
         25    1    1    2    0    0  0.91859094336E+02  0.39409415936E+02 -0.76122385840E+03  0.77786757091E+03  0.12500000000E+03 0.  0.
</event>
<event>
 4    0  0.2277704E-002  0.2086653E+03  0.7546771E-02  0.1142627E+00
         21   -1    0    0  502  501  0.00000000000E+00  0.00000000000E+00  0.52370767198E+03  0.52370767198E+03  0.00000000000E+00 0. -1.
         21   -1    0    0  501  502 -0.00000000000E+00 -0.00000000000E+00 -0.83140278466E+02  0.83140278466E+02  0.00000000000E+00 0. -1.
         25    1    1    2    0    0  0.26489600847E+02  0.19327654906E+02  0.45851486767E+03  0.47637814924E+03  0.12500000000E+03 0.  0.
         25    1    1    2    0    0 -0.26489600847E+02 -0.19327654906E+02 -0.17947474161E+02  0.13046980120E+03  0.12500000000E+03 0.  0.
</event>
<event>
 4    0  0.2253506E-002  0.2752281E+03  0.7546771E-02  0.1098324E+00
         21   -1    0    0  502  501  0.00000000000E+00  0.00000000000E+00  0.28070080251E+02  0.28070080251E+02  0.00000000000E+00 0.  1.
         21   -1    0    0  501  502 -0.00000000000E+00 -0.00000000000E+00 -0.26986206929E+04  0.26986206929E+04  0.00000000000E+00 0.  1.
         25    1    1    2    0    0 -0.20733409762E+02  0.19895834121E+03 -0.20377524108E+04  0.20513591064E+04  0.12500000000E+03 0.  0.
         25    1    1    2    0    0  0.20733409762E+02 -0.19895834121E+03 -0.63279820192E+03  0.67533166679E+03  0.12500000000E+03 0.  0.
</event>
<event>
 4    0  0.2253506E-002  0.3492615E+03  0.7546771E-02  0.1062919E+00
         21   -1    0    0  502  501  0.00000000000E+00  0.00000000000E+00  0.40018838999E+03  0.40018838999E+03  0.00000000000E+00 0.  1.
         21   -1    0    0  501  502 -0.00000000000E+00 -0.00000000000E+00 -0.30481548814E+03  0.30481548814E+03  0.00000000000E+00 0.  1.
         25    1    1    2    0    0  0.11667164321E+03  0.11499647056E+03  0.33229951677E+03  0.39100438541E+03  0.12500000000E+03 0.  0.
         25    1    1    2    0    0 -0.11667164321E+03 -0.11499647056E+03 -0.23692661492E+03  0.31399949272E+03  0.12500000000E+03 0.  0.
</event>
<event>
 4    0  0.2253506E-002  0.1717743E+03  0.7546771E-02  0.1176010E+00
         21   -1    0    0  502  501  0.00000000000E+00  0.00000000000E+00  0.73821148889E+03  0.73821148889E+03  0.00000000000E+00 0.  1.
         21   -1    0    0  501  502 -0.00000000000E+00 -0.00000000000E+00 -0.39970117982E+02  0.39970117982E+02  0.00000000000E+00 0.  1.
         25    1    1    2    0    0  0.59681343069E+02  0.73100642134E+02  0.50890192283E+03  0.53245819897E+03  0.12500000000E+03 0.  0.
         25    1    1    2    0    0 -0.59681343069E+02 -0.73100642134E+02  0.18933944807E+03  0.24572340789E+03  0.12500000000E+03 0.  0.
</event>
<event>
 4    0  0.2253506E-002  0.1789021E+03  0.7546771E-02  0.1168870E+00
         21   -1    0    0  502  501  0.00000000000E+00  0.00000000000E+00  0.53681753153E+02  0.53681753153E+02  0.00000000000E+00 0.  1.
         21   -1    0    0  501  502 -0.00000000000E+00 -0.00000000000E+00 -0.59621651961E+03  0.59621651961E+03  0.00000000000E+00 0.  1.
         25    1    1    2    0    0 -0.68541356315E+02 -0.72779354853E+02 -0.12611600583E+03  0.20377683614E+03  0.12500000000E+03 0.  0.
         25    1    1    2    0    0  0.68541356315E+02  0.72779354853E+02 -0.41641876063E+03  0.44612143663E+03  0.12500000000E+03 0.  0.
</event>
<event>
 4    0  0.2253506E-002  0.3483302E+03  0.7546771E-02  0.1063302E+00
         21   -1    0    0  502  501  0.00000000000E+00  0.00000000000E+00  0.39555109809E+03  0.39555109809E+03  0.00000000000E+00 0.  1.
         21   -1    0    0  501  502 -0.00000000000E+00 -0.00000000000E+00 -0.30674657971E+03  0.30674657971E+03  0.00000000000E+00 0. -1.
         25    1    1    2    0    0 -0.23217149469E+03  0.20298318573E+03 -0.59402659671E+02  0.33802285812E+03  0.12500000000E+03 0.  0.
         25    1    1    2    0    0  0.23217149469E+03 -0.20298318573E+03  0.14820717805E+03  0.36427481969E+03  0.12500000000E+03 0.  0.
</event>
<event>
 4    0  0.2253506E-002  0.1787194E+03  0.7546771E-02  0.1169048E+00
         21   -1    0    0  502  501  0.00000000000E+00  0.00000000000E+00  0.74232439883E+02  0.74232439883E+02  0.00000000000E+00 0.  1.
         21   -1    0    0  501  502 -0.00000000000E+00 -0.00000000000E+00 -0.43027838571E+03  0.43027838571E+03  0.00000000000E+00 0.  1.
         25    1    1    2    0    0 -0.10075452750E+03  0.17048149489E+01 -0.28881351422E+03  0.33044307710E+03  0.12500000000E+03 0.  0.
         25    1    1    2    0    0  0.10075452750E+03 -0.17048149489E+01 -0.67232431606E+02  0.17406774849E+03  0.12500000000E+03 0.  0.
</event>
<event>
 4    0  0.2253506E-002  0.2682942E+03  0.7546771E-02  0.1102260E+00
         21   -1    0    0  502  501  0.00000000000E+00  0.00000000000E+00  0.18874330443E+03  0.18874330443E+03  0.00000000000E+00 0. -1.
         21   -1    0    0  501  502 -0.00000000000E+00 -0.00000000000E+00 -0.38137398377E+03  0.38137398377E+03  0.00000000000E+00 0. -1.
         25    1    1    2    0    0  0.82955985369E+02  0.21609483421E+03 -0.15231660795E+03  0.30398029860E+03  0.12500000000E+03 0.  0.
         25    1    1    2    0    0 -0.82955985369E+02 -0.21609483421E+03 -0.40314071388E+02  0.26613698960E+03  0.12500000000E+03 0.  0.
</event>
<event>
 4    0  0.2253506E-002  0.2039758E+03  0.7546771E-02  0.1146427E+00
         21   -1    0    0  502  501  0.00000000000E+00  0.00000000000E+00  0.44177022876E+02  0.44177022876E+02  0.00000000000E+00 0.  1.
         21   -1    0    0  501  502 -0.00000000000E+00 -0.00000000000E+00 -0.94180456496E+03  0.94180456496E+03  0.00000000000E+00 0.  1.
         25    1    1    2    0    0 -0.27238617609E+02  0.15835623252E+03 -0.41800571120E+03  0.46494345169E+03  0.12500000000E+03 0.  0.
         25    1    1    2    0    0  0.27238617609E+02 -0.15835623252E+03 -0.47962183088E+03  0.52103813615E+03  0.12500000000E+03 0.  0.
</event>
<event>
 4    0  0.2253506E-002  0.2295482E+03  0.7546771E-02  0.1126958E+00
         21   -1    0    0  502  501  0.00000000000E+00  0.00000000000E+00  0.23635116426E+03  0.23635116426E+03  0.00000000000E+00 0.  1.
         21   -1    0    0  501  502 -0.00000000000E+00 -0.00000000000E+00 -0.22294105255E+03  0.22294105255E+03  0.00000000000E+00 0.  1.
         25    1    1    2    0    0  0.15318935616E+02  0.12147878359E+03 -0.14193695658E+03  0.22530615680E+03  0.12500000000E+03 0.  0.
         25    1    1    2    0    0 -0.15318935616E+02 -0.12147878359E+03  0.15534706829E+03  0.23398606001E+03  0.12500000000E+03 0.  0.
</event>
<event>
 4    0  0.2253506E-002  0.1938254E+03  0.7546771E-02  0.1155056E+00
         21   -1    0    0  502  501  0.00000000000E+00  0.00000000000E+00  0.23512066518E+03  0.23512066518E+03  0.00000000000E+00 0. -1.
         21   -1    0    0  501  502 -0.00000000000E+00 -0.00000000000E+00 -0.15978293260E+03  0.15978293260E+03  0.00000000000E+00 0. -1.
         25    1    1    2    0    0  0.73866733855E+02  0.56106541638E+02  0.15532447663E+03  0.21989754757E+03  0.12500000000E+03 0.  0.
         25    1    1    2    0    0 -0.73866733855E+02 -0.56106541638E+02 -0.79986744056E+02  0.17500605021E+03  0.12500000000E+03 0.  0.
</event>
<event>
 4    0  0.2253506E-002  0.2170174E+03  0.7546771E-02  0.1136126E+00
         21   -1    0    0  502  501  0.00000000000E+00  0.00000000000E+00  0.63353774545E+02  0.63353774545E+02  0.00000000000E+00 0.  1.
         21   -1    0    0  501  502 -0.00000000000E+00 -0.00000000000E+00 -0.74338996575E+03  0.74338996575E+03  0.00000000000E+00 0.  1.
         25    1    1    2    0    0  0.44646838319E+02  0.95860441671E+01 -0.65864590214E+03  0.67195584440E+03  0.12500000000E+03 0.  0.
         25    1    1    2    0    0 -0.44646838319E+02 -0.95860441671E+01 -0.21390289068E+02  0.13478789590E+03  0.12500000000E+03 0.  0.
</event>
<event>
 4    0  0.2253506E-002  0.2135910E+03  0.7546771E-02  0.1138753E+00
         21   -1    0    0  502  501  0.00000000000E+00  0.00000000000E+00  0.45083374072E+03  0.45083374072E+03  0.00000000000E+00 0. -1.
         21   -1    0    0  501  502 -0.00000000000E+00 -0.00000000000E+00 -0.10119274112E+03  0.10119274112E+03  0.00000000000E+00 0. -1.
         25    1    1    2    0    0  0.12048148838E+03 -0.11690566005E+03  0.22984947128E+03  0.31086733802E+03  0.12500000000E+03 0.  0.
         25    1    1    2    0    0 -0.12048148838E+03  0.11690566005E+03  0.11979152831E+03  0.24115914382E+03  0.12500000000E+03 0.  0.
</event>
<event>
 4    0  0.2253506E-002  0.2528382E+03  0.7546771E-02  0.1111524E+00
         21   -1    0    0  502  501  0.00000000000E+00  0.00000000000E+00  0.17614450193E+03  0.17614450193E+03  0.00000000000E+00 0.  1.
         21   -1    0    0  501  502 -0.00000000000E+00 -0.00000000000E+00 -0.36292435864E+03  0.36292435864E+03  0.00000000000E+00 0.  1.
         25    1    1    2    0    0  0.98557260085E+02  0.18449726613E+03 -0.21486997956E+02  0.24462106575E+03  0.12500000000E+03 0.  0.
         25    1    1    2    0    0 -0.98557260085E+02 -0.18449726613E+03 -0.16529285876E+03  0.29444779483E+03  0.12500000000E+03 0.  0.
</event>
<event>
 4    0  0.2253506E-002  0.2694516E+03  0.7546771E-02  0.1101594E+00
         21   -1    0    0  502  501  0.00000000000E+00  0.00000000000E+00  0.16749132233E+03  0.16749132233E+03  0.00000000000E+00 0.  1.
         21   -1    0    0  501  502 -0.00000000000E+00 -0.00000000000E+00 -0.43348024433E+03  0.43348024433E+03  0.00000000000E+00 0.  1.
         25    1    1    2    0    0  0.12926223382E+03 -0.50379456911E+02 -0.34961524827E+03  0.39636174966E+03  0.12500000000E+03 0.  0.
         25    1    1    2    0    0 -0.12926223382E+03  0.50379456911E+02  0.83626326262E+02  0.20460981700E+03  0.12500000000E+03 0.  0.
</event>
<event>
 4    0  0.2253506E-002  0.1963275E+03  0.7546771E-02  0.1152875E+00
         21   -1    0    0  502  501  0.00000000000E+00  0.00000000000E+00  0.10040107314E+03  0.10040107314E+03  0.00000000000E+00 0. -1.
         21   -1    0    0  501  502 -0.00000000000E+00 -0.00000000000E+00 -0.38390526133E+03  0.38390526133E+03  0.00000000000E+00 0. -1.
         25    1    1    2    0    0  0.58238146353E+02  0.13276093903E+03 -0.19554863333E+03  0.27364469047E+03  0.12500000000E+03 0.  0.
         25    1    1    2    0    0 -0.58238146353E+02 -0.13276093903E+03 -0.87955554856E+02  0.21066164400E+03  0.12500000000E+03 0.  0.
</event>
<event>
 4    0  0.2253506E-002  0.2984888E+03  0.7546771E-02  0.1085998E+00
         21   -1    0    0  502  501  0.00000000000E+00  0.00000000000E+00  0.10050423327E+03  0.10050423327E+03  0.00000000000E+00 0. -1.
         21   -1    0    0  501  502 -0.00000000000E+00 -0.00000000000E+00 -0.88648594697E+03  0.88648594697E+03  0.00000000000E+00 0. -1.
         25    1    1    2    0    0  0.16160118051E+03  0.16287335088E+03 -0.63159483820E+03  0.68350545690E+03  0.12500000000E+03 0.  0.
         25    1    1    2    0    0 -0.16160118051E+03 -0.16287335088E+03 -0.15438687550E+03  0.30348472334E+03  0.12500000000E+03 0.  0.
</event>
<event>
 4    0  0.2253506E-002  0.1961510E+03  0.7546771E-02  0.1153028E+00
         21   -1    0    0  502  501  0.00000000000E+00  0.00000000000E+00  0.15044168536E+04  0.15044168536E+04  0.00000000000E+00 0.  1.
         21   -1    0    0  501  502 -0.00000000000E+00 -0.00000000000E+00 -0.25574827198E+02  0.25574827198E+02  0.00000000000E+00 0.  1.
         25    1    1    2    0    0  0.50093126756E+02 -0.13997414794E+03  0.63274824439E+03  0.66188928395E+03  0.12500000000E+03 0.  0.
         25    1    1    2    0    0 -0.50093126756E+02  0.13997414794E+03  0.84609378203E+03  0.86810239686E+03  0.12500000000E+03 0.  0.
</event>
<event>
 4    0  0.2253506E-002  0.1890098E+03  0.7546771E-02  0.1159357E+00
         21   -1    0    0  502  501  0.00000000000E+00  0.00000000000E+00  0.38665012856E+03  0.38665012856E+03  0.00000000000E+00 0. -1.
         21   -1    0    0  501  502 -0.00000000000E+00 -0.00000000000E+00 -0.92395436794E+02  0.92395436794E+02  0.00000000000E+00 0. -1.
         25    1    1    2    0    0  0.11721613570E+02  0.57370206782E+02  0.31074981093E+03  0.34002820742E+03  0.12500000000E+03 0.  0.
         25    1    1    2    0    0 -0.11721613570E+02 -0.57370206782E+02 -0.16495119160E+02  0.13901735793E+03  0.12500000000E+03 0.  0.
</event>
<event>
 4    0  0.2253506E-002  0.1389142E+03  0.7546771E-02  0.1214797E+00
         21   -1    0    0  502  501  0.00000000000E+00  0.00000000000E+00  0.11219588072E+03  0.11219588072E+03  0.00000000000E+00 0. -1.
         21   -1    0    0  501  502 -0.00000000000E+00 -0.00000000000E+00 -0.17199529821E+03  0.17199529821E+03  0.00000000000E+00 0. -1.
         25    1    1    2    0    0 -0.36517195313E+02  0.48263565205E+02 -0.26782512432E+02  0.14143967001E+03  0.12500000000E+03 0.  0.
         25    1    1    2    0    0  0.36517195313E+02 -0.48263565205E+02 -0.33016905066E+02  0.14275150892E+03  0.12500000000E+03 0.  0.
</event>
<event>
 4    0  0.2253506E-002  0.2869678E+03  0.7546771E-02  0.1091943E+00
         21   -1    0    0  502  501  0.00000000000E+00  0.00000000000E+00  0.43875409346E+02  0.43875409346E+02  0.00000000000E+00 0.  1.
         21   -1    0    0  501  502 -0.00000000000E+00 -0.00000000000E+00 -0.18769169066E+04  0.18769169066E+04  0.00000000000E+00 0.  1.
         25    1    1    2    0    0 -0.15650744514E+03 -0.15064075061E+03 -0.44872046481E+03  0.51396718929E+03  0.12500000000E+03 0.  0.
         25    1    1    2    0    0  0.15650744514E+03  0.15064075061E+03 -0.13843210325E+04  0.14068251267E+04  0.12500000000E+03 0.  0.
</event>
<event>
 4    0  0.2253506E-002  0.3376141E+03  0.7546771E-02  0.1067817E+00
         21   -1    0    0  502  501  0.00000000000E+00  0.00000000000E+00  0.12575541665E+03  0.12575541665E+03  0.00000000000E+00 0.  1.
         21   -1    0    0  501  502 -0.00000000000E+00 -0.00000000000E+00 -0.90638876948E+03  0.90638876948E+03  0.00000000000E+00 0.  1.
         25    1    1    2    0    0  0.11988632113E+03  0.93479553314E+02  0.28992886434E+02  0.19893904681E+03  0.12500000000E+03 0.  0.
         25    1    1    2    0    0 -0.11988632113E+03 -0.93479553314E+02 -0.80962623927E+03  0.83320513932E+03  0.12500000000E+03 0.  0.
</event>
<event>
 4    0  0.2253506E-002  0.1891928E+03  0.7546771E-02  0.1159191E+00
         21   -1    0    0  502  501  0.00000000000E+00  0.00000000000E+00  0.10032559170E+04  0.10032559170E+04  0.00000000000E+00 0. -1.
         21   -1    0    0  501  502 -0.00000000000E+00 -0.00000000000E+00 -0.35677734686E+02  0.35677734686E+02  0.00000000000E+00 0. -1.
         25    1    1    2    0    0  0.12425295434E+03  0.86838580835E+01  0.29646276780E+03  0.34500634595E+03  0.12500000000E+03 0.  0.
         25    1    1    2    0    0 -0.12425295434E+03 -0.86838580835E+01  0.67111541452E+03  0.69392730575E+03  0.12500000000E+03 0.  0.
</event>
<event>
 4    0  0.2253506E-002  0.2236201E+03  0.7546771E-02  0.1131213E+00
         21   -1    0    0  502  501  0.00000000000E+00  0.00000000000E+00  0.11787924551E+03  0.11787924551E+03  0.00000000000E+00 0.  1.
         21   -1    0    0  501  502 -0.00000000000E+00 -0.00000000000E+00 -0.42421345251E+03  0.42421345251E+03  0.00000000000E+00 0.  1.
         25    1    1    2    0    0  0.31610630587E+02 -0.65182412790E+02  0.53716058820E+02  0.15413758101E+03  0.12500000000E+03 0.  0.
         25    1    1    2    0    0 -0.31610630587E+02  0.65182412790E+02 -0.36005026582E+03  0.38795511702E+03  0.12500000000E+03 0.  0.
</event>
<event>
 4    0  0.2253506E-002  0.2298832E+03  0.7546771E-02  0.1126722E+00
         21   -1    0    0  502  501  0.00000000000E+00  0.00000000000E+00  0.75636517347E+03  0.75636517347E+03  0.00000000000E+00 0.  1.
         21   -1    0    0  501  502 -0.00000000000E+00 -0.00000000000E+00 -0.69868739849E+02  0.69868739849E+02  0.00000000000E+00 0.  1.
         25    1    1    2    0    0  0.13387790216E+03 -0.89098136208E+02  0.15171433002E+03  0.25397639358E+03  0.12500000000E+03 0.  0.
         25    1    1    2    0    0 -0.13387790216E+03  0.89098136208E+02  0.53478210360E+03  0.57225751974E+03  0.12500000000E+03 0.  0.
</event>
<event>
 4    0  0.2253506E-002  0.2171974E+03  0.7546771E-02  0.1135990E+00
         21   -1    0    0  502  501  0.00000000000E+00  0.00000000000E+00  0.14185418695E+04  0.14185418695E+04  0.00000000000E+00 0. -1.
         21   -1    0    0  501  502 -0.00000000000E+00 -0.00000000000E+00 -0.33255769547E+02  0.33255769547E+02  0.00000000000E+00 0. -1.
         25    1    1    2    0    0 -0.13528608042E+03  0.12558389876E+02  0.31027132326E+03  0.36104477666E+03  0.12500000000E+03 0.  0.
         25    1    1    2    0    0  0.13528608042E+03 -0.12558389876E+02  0.10750147767E+04  0.10907528624E+04  0.12500000000E+03 0.  0.
</event>
<event>
 4    0  0.2253506E-002  0.2220833E+03  0.7546771E-02  0.1132339E+00
         21   -1    0    0  502  501  0.00000000000E+00  0.00000000000E+00  0.15459420867E+03  0.15459420867E+03  0.00000000000E+00 0.  1.
         21   -1    0    0  501  502 -0.00000000000E+00 -0.00000000000E+00 -0.31903520752E+03  0.31903520752E+03  0.00000000000E+00 0.  1.
         25    1    1    2    0    0 -0.15696619749E+02 -0.17946849286E+03 -0.44660880000E+02  0.22377425680E+03  0.12500000000E+03 0.  0.
         25    1    1    2    0    0  0.15696619749E+02  0.17946849286E+03 -0.11978011885E+03  0.24985515939E+03  0.12500000000E+03 0.  0.
</event>
<event>
 4    0  0.2253506E-002  0.2534302E+03  0.7546771E-02  0.1111156E+00
         21   -1    0    0  502  501  0.00000000000E+00  0.00000000000E+00  0.29081776103E+02  0.29081776103E+02  0.00000000000E+00 0.  1.
         21   -1    0    0  501  502 -0.00000000000E+00 -0.00000000000E+00 -0.22084926206E+04  0.22084926206E+04  0.00000000000E+00 0.  1.
         25    1    1    2    0    0  0.92695851974E+02  0.20000070286E+03 -0.10763987130E+04  0.11058263839E+04  0.12500000000E+03 0.  0.
         25    1    1    2    0    0 -0.92695851974E+02 -0.20000070286E+03 -0.11030121315E+04  0.11317480127E+04  0.12500000000E+03 0.  0.
</event>
<event>
 4    0  0.2253506E-002  0.2862048E+03  0.7546771E-02  0.1092347E+00
         21   -1    0    0  502  501  0.00000000000E+00  0.00000000000E+00  0.19835189836E+04  0.19835189836E+04  0.00000000000E+00 0. -1.
         21   -1    0    0  501  502 -0.00000000000E+00 -0.00000000000E+00 -0.41296899147E+02  0.41296899147E+02  0.00000000000E+00 0. -1.
         25    1    1    2    0    0 -0.35027385591E+02 -0.24432099868E+03  0.71192850449E+03  0.76379765884E+03  0.12500000000E+03 0.  0.
         25    1    1    2    0    0  0.35027385591E+02  0.24432099868E+03  0.12302935799E+04  0.12610182239E+04  0.12500000000E+03 0.  0.
</event>
<event>
 4    0  0.2253506E-002  0.1800231E+03  0.7546771E-02  0.1167781E+00
         21   -1    0    0  502  501  0.00000000000E+00  0.00000000000E+00  0.17224497025E+03  0.17224497025E+03  0.00000000000E+00 0. -1.
         21   -1    0    0  501  502 -0.00000000000E+00 -0.00000000000E+00 -0.18815244609E+03  0.18815244609E+03  0.00000000000E+00 0. -1.
         25    1    1    2    0    0  0.86397326253E+01  0.56966949439E+01 -0.13721613621E+03  0.18590418325E+03  0.12500000000E+03 0.  0.
         25    1    1    2    0    0 -0.86397326253E+01 -0.56966949439E+01  0.12130866038E+03  0.17449323309E+03  0.12500000000E+03 0.  0.
</event>
<event>
 4    0  0.2253506E-002  0.2116681E+03  0.7546771E-02  0.1140252E+00
         21   -1    0    0  502  501  0.00000000000E+00  0.00000000000E+00  0.17167610557E+04  0.17167610557E+04  0.00000000000E+00 0.  1.
         21   -1    0    0  501  502 -0.00000000000E+00 -0.00000000000E+00 -0.26097625456E+02  0.26097625456E+02  0.00000000000E+00 0.  1.
         25    1    1    2    0    0  0.17215580040E+02  0.12423829412E+03  0.36792650994E+03  0.40832149912E+03  0.12500000000E+03 0.  0.
         25    1    1    2    0    0 -0.17215580040E+02 -0.12423829412E+03  0.13227369203E+04  0.13345371821E+04  0.12500000000E+03 0.  0.
</event>
<event>
 4    0  0.2253506E-002  0.1868634E+03  0.7546771E-02  0.1161321E+00
         21   -1    0    0  502  501  0.00000000000E+00  0.00000000000E+00  0.75720755273E+03  0.75720755273E+03  0.00000000000E+00 0. -1.
         21   -1    0    0  501  502 -0.00000000000E+00 -0.00000000000E+00 -0.46114103430E+02  0.46114103430E+02  0.00000000000E+00 0. -1.
         25    1    1    2    0    0  0.63367449268E+02  0.12185006770E+03  0.31097010685E+03  0.36220198782E+03  0.12500000000E+03 0.  0.
         25    1    1    2    0    0 -0.63367449268E+02 -0.12185006770E+03  0.40012334246E+03  0.44111966835E+03  0.12500000000E+03 0.  0.
</event>
<event>
 4    0  0.2253506E-002  0.3198089E+03  0.7546771E-02  0.1075737E+00
         21   -1    0    0  502  501  0.00000000000E+00  0.00000000000E+00  0.13131515003E+04  0.13131515003E+04  0.00000000000E+00 0.  1.
         21   -1    0    0  501  502 -0.00000000000E+00 -0.00000000000E+00 -0.77887238249E+02  0.77887238249E+02  0.00000000000E+00 0.  1.
         25    1    1    2    0    0  0.18102098812E+03  0.13196468321E+03  0.20231162585E+03  0.32670823330E+03  0.12500000000E+03 0.  0.
         25    1    1    2    0    0 -0.18102098812E+03 -0.13196468321E+03  0.10329526362E+04  0.10643305053E+04  0.12500000000E+03 0.  0.
</event>
<event>
 4    0  0.2253506E-002  0.2024075E+03  0.7546771E-02  0.1147724E+00
         21   -1    0    0  502  501  0.00000000000E+00  0.00000000000E+00  0.11873283910E+03  0.11873283910E+03  0.00000000000E+00 0. -1.
         21   -1    0    0  501  502 -0.00000000000E+00 -0.00000000000E+00 -0.34505020426E+03  0.34505020426E+03  0.00000000000E+00 0. -1.
         25    1    1    2    0    0  0.67856121186E+02 -0.13766321798E+03 -0.64712073600E+02  0.20825049156E+03  0.12500000000E+03 0.  0.
         25    1    1    2    0    0 -0.67856121186E+02  0.13766321798E+03 -0.16160529156E+03  0.25553255179E+03  0.12500000000E+03 0.  0.
</event>
<event>
 4    0  0.2253506E-002  0.2026307E+03  0.7546771E-02  0.1147538E+00
         21   -1    0    0  502  501  0.00000000000E+00  0.00000000000E+00  0.13335300589E+03  0.13335300589E+03  0.00000000000E+00 0. -1.
         21   -1    0    0  501  502 -0.00000000000E+00 -0.00000000000E+00 -0.30789845054E+03  0.30789845054E+03  0.00000000000E+00 0. -1.
         25    1    1    2    0    0 -0.18091295715E+02 -0.57956737104E+02  0.73295544158E+02  0.15710988241E+03  0.12500000000E+03 0.  0.
         25    1    1    2    0    0  0.18091295715E+02  0.57956737104E+02 -0.24784098880E+03  0.28414157402E+03  0.12500000000E+03 0.  0.
</event>
<event>
 4    0  0.2253506E-002  0.2300380E+03  0.7546771E-02  0.1126613E+00
         21   -1    0    0  502  501  0.00000000000E+00  0.00000000000E+00  0.55347892177E+02  0.55347892177E+02  0.00000000000E+00 0. -1.
         21   -1    0    0  501  502 -0.00000000000E+00 -0.00000000000E+00 -0.95608833719E+03  0.95608833719E+03  0.00000000000E+00 0. -1.
         25    1    1    2    0    0  0.13511185842E+03 -0.11896126178E+03 -0.60403081118E+03  0.64256144993E+03  0.12500000000E+03 0.  0.
         25    1    1    2    0    0 -0.13511185842E+03  0.11896126178E+03 -0.29670963383E+03  0.36887477943E+03  0.12500000000E+03 0.  0.
</event>
<event>
 4    0  0.2253506E-002  0.1720892E+03  0.7546771E-02  0.1175687E+00
         21   -1    0    0  502  501  0.00000000000E+00  0.00000000000E+00  0.13535055113E+03  0.13535055113E+03  0.00000000000E+00 0. -1.
         21   -1    0    0  501  502 -0.00000000000E+00 -0.00000000000E+00 -0.21879983738E+03  0.21879983738E+03  0.00000000000E+00 0. -1.
         25    1    1    2    0    0 -0.44129461485E+02 -0.92380290620E+02 -0.10267038405E+03  0.19143598206E+03  0.12500000000E+03 0.  0.
         25    1    1    2    0    0  0.44129461485E+02  0.92380290620E+02  0.19221097793E+02  0.16271440645E+03  0.12500000000E+03 0.  0.
</event>
<event>
 4    0  0.2253506E-002  0.2503159E+03  0.7546771E-02  0.1113105E+00
         21   -1    0    0  502  501  0.00000000000E+00  0.00000000000E+00  0.43673868331E+03  0.43673868331E+03  0.00000000000E+00 0.  1.
         21   -1    0    0  501  502 -0.00000000000E+00 -0.00000000000E+00 -0.14346800498E+03  0.14346800498E+03  0.00000000000E+00 0.  1.
         25    1    1    2    0    0 -0.71135121157E+02  0.17155767472E+03  0.16849664115E+02  0.22450200978E+03  0.12500000000E+03 0.  0.
         25    1    1    2    0    0  0.71135121157E+02 -0.17155767472E+03  0.27642101421E+03  0.35570467851E+03  0.12500000000E+03 0.  0.
</event>
<event>
 4    0  0.2253506E-002  0.2709296E+03  0.7546771E-02  0.1100749E+00
         21   -1    0    0  502  501  0.00000000000E+00  0.00000000000E+00  0.42430815848E+02  0.42430815848E+02  0.00000000000E+00 0. -1.
         21   -1    0    0  501  502 -0.00000000000E+00 -0.00000000000E+00 -0.17299422123E+04  0.17299422123E+04  0.00000000000E+00 0. -1.
         25    1    1    2    0    0 -0.19918956159E+03  0.31708528112E+02 -0.12714320452E+04  0.12933856184E+04  0.12500000000E+03 0.  0.
         25    1    1    2    0    0  0.19918956159E+03 -0.31708528112E+02 -0.41607935125E+03  0.47898740979E+03  0.12500000000E+03 0.  0.
</event>
<event>
 4    0  0.2253506E-002  0.3307742E+03  0.7546771E-02  0.1070795E+00
         21   -1    0    0  502  501  0.00000000000E+00  0.00000000000E+00  0.84038320871E+02  0.84038320871E+02  0.00000000000E+00 0. -1.
         21   -1    0    0  501  502 -0.00000000000E+00 -0.00000000000E+00 -0.13019246924E+04  0.13019246924E+04  0.00000000000E+00 0. -1.
         25    1    1    2    0    0  0.19538752110E+03  0.49394217783E+02 -0.12585616105E+03  0.26847876160E+03  0.12500000000E+03 0.  0.
         25    1    1    2    0    0 -0.19538752110E+03 -0.49394217783E+02 -0.10920302104E+04  0.11174842516E+04  0.12500000000E+03 0.  0.
</event>
<event>
 4    0  0.2253506E-002  0.1545860E+03  0.7546771E-02  0.1194948E+00
         21   -1    0    0  502  501  0.00000000000E+00  0.00000000000E+00  0.20523950139E+03  0.20523950139E+03  0.00000000000E+00 0.  1.
         21   -1    0    0  501  502 -0.00000000000E+00 -0.00000000000E+00 -0.11643392053E+03  0.11643392053E+03  0.00000000000E+00 0.  1.
         25    1    1    2    0    0  0.89551073704E+02  0.14379949943E+02  0.51433393223E+02  0.16277767568E+03  0.12500000000E+03 0.  0.
         25    1    1    2    0    0 -0.89551073704E+02 -0.14379949943E+02  0.37372187639E+02  0.15889574623E+03  0.12500000000E+03 0.  0.
</event>
<event>
 4    0  0.2253506E-002  0.2220932E+03  0.7546771E-02  0.1132332E+00
         21   -1    0    0  502  501  0.00000000000E+00  0.00000000000E+00  0.46490794583E+03  0.46490794583E+03  0.00000000000E+00 0. -1.
         21   -1    0    0  501  502 -0.00000000000E+00 -0.00000000000E+00 -0.10609707152E+03  0.10609707152E+03  0.00000000000E+00 0. -1.
         25    1    1    2    0    0 -0.14461729905E+03  0.14824847138E+02  0.35299875031E+02  0.19494876366E+03  0.12500000000E+03 0.  0.
         25    1    1    2    0    0  0.14461729905E+03 -0.14824847138E+02  0.32351099928E+03  0.37605625368E+03  0.12500000000E+03 0.  0.
</event>
<event>
 4    0  0.2253506E-002  0.2764598E+03  0.7546771E-02  0.1097638E+00
         21   -1    0    0  502  501  0.00000000000E+00  0.00000000000E+00  0.73138059519E+02  0.73138059519E+02  0.00000000000E+00 0.  1.
         21   -1    0    0  501  502 -0.00000000000E+00 -0.00000000000E+00 -0.10450101826E+04  0.10450101826E+04  0.00000000000E+00 0.  1.
         25    1    1    2    0    0 -0.17811155706E+03  0.11999152071E+03 -0.24088893204E+03  0.34608404959E+03  0.12500000000E+03 0.  0.
         25    1    1    2    0    0  0.17811155706E+03 -0.11999152071E+03 -0.73098319101E+03  0.77206419250E+03  0.12500000000E+03 0.  0.
</event>
<event>
 4    0  0.2253506E-002  0.2479643E+03  0.7546771E-02  0.1114598E+00
         21   -1    0    0  502  501  0.00000000000E+00  0.00000000000E+00  0.24951488091E+03  0.24951488091E+03  0.00000000000E+00 0. -1.
         21   -1    0    0  501  502 -0.00000000000E+00 -0.00000000000E+00 -0.24642331764E+03  0.24642331764E+03  0.00000000000E+00 0. -1.
         25    1    1    2    0    0 -0.14038843705E+03  0.16047829931E+03 -0.18431767212E+02  0.24784456389E+03  0.12500000000E+03 0.  0.
         25    1    1    2    0    0  0.14038843705E+03 -0.16047829931E+03  0.21523330479E+02  0.24809363467E+03  0.12500000000E+03 0.  0.
</event>
<event>
 4    0  0.2253506E-002  0.1812759E+03  0.7546771E-02  0.1166574E+00
         21   -1    0    0  502  501  0.00000000000E+00  0.00000000000E+00  0.77642567803E+02  0.77642567803E+02  0.00000000000E+00 0.  1.
         21   -1    0    0  501  502 -0.00000000000E+00 -0.00000000000E+00 -0.42323380018E+03  0.42323380018E+03  0.00000000000E+00 0.  1.
         25    1    1    2    0    0 -0.11924629831E+03  0.54759095057E+02 -0.16697990237E+03  0.24642549776E+03  0.12500000000E+03 0.  0.
         25    1    1    2    0    0  0.11924629831E+03 -0.54759095057E+02 -0.17861133001E+03  0.25445087023E+03  0.12500000000E+03 0.  0.
</event>
<event>
 4    0  0.2253506E-002  0.2015498E+03  0.7546771E-02  0.1148438E+00
         21   -1    0    0  502  501  0.00000000000E+00  0.00000000000E+00  0.45355582522E+03  0.45355582522E+03  0.00000000000E+00 0. -1.
         21   -1    0    0  501  502 -0.00000000000E+00 -0.00000000000E+00 -0.89564123782E+02  0.89564123782E+02  0.00000000000E+00 0. -1.
         25    1    1    2    0    0  0.12342613563E+03 -0.37602995664E+02  0.30511036523E+03  0.35406966999E+03  0.12500000000E+03 0.  0.
         25    1    1    2    0    0 -0.12342613563E+03  0.37602995664E+02  0.58881336207E+02  0.18905027901E+03  0.12500000000E+03 0.  0.
</event>
<event>
 4    0  0.2253506E-002  0.1343685E+03  0.7546771E-02  0.1221114E+00
         21   -1    0    0  502  501  0.00000000000E+00  0.00000000000E+00  0.66908755493E+02  0.66908755493E+02  0.00000000000E+00 0.  1.
         21   -1    0    0  501  502 -0.00000000000E+00 -0.00000000000E+00 -0.26984337904E+03  0.26984337904E+03  0.00000000000E+00 0.  1.
         25    1    1    2    0    0  0.33054724863E+02  0.89513769859E+01 -0.14589720694E+03  0.19515054952E+03  0.12500000000E+03 0.  0.
         25    1    1    2    0    0 -0.33054724863E+02 -0.89513769859E+01 -0.57037416614E+02  0.14160158502E+03  0.12500000000E+03 0.  0.
</event>
<event>
 4    0  0.2253506E-002  0.3612386E+03  0.7546771E-02  0.1058095E+00
         21   -1    0    0  502  501  0.00000000000E+00  0.00000000000E+00  0.30733331715E+03  0.30733331715E+03  0.00000000000E+00 0. -1.
         21   -1    0    0  501  502 -0.00000000000E+00 -0.00000000000E+00 -0.42459864947E+03  0.42459864947E+03  0.00000000000E+00 0.  1.
         25    1    1    2    0    0 -0.27365560664E+03  0.46049353305E+02  0.13849113400E+03  0.33438410277E+03  0.12500000000E+03 0.  0.
         25    1    1    2    0    0  0.27365560664E+03 -0.46049353305E+02 -0.25575646632E+03  0.39754786385E+03  0.12500000000E+03 0.  0.
</event>
<event>
 4    0  0.2253506E-002  0.2279372E+03  0.7546771E-02  0.1128100E+00
         21   -1    0    0  502  501  0.00000000000E+00  0.00000000000E+00  0.23096937377E+03  0.23096937377E+03  0.00000000000E+00 0. -1.
         21   -1    0    0  501  502 -0.00000000000E+00 -0.00000000000E+00 -0.22494480904E+03  0.22494480904E+03  0.00000000000E+00 0. -1.
         25    1    1    2    0    0 -0.16388173479E+02 -0.10960537262E+03  0.15810145583E+03  0.23000647876E+03  0.12500000000E+03 0.  0.
         25    1    1    2    0    0  0.16388173479E+02  0.10960537262E+03 -0.15207689110E+03  0.22590770404E+03  0.12500000000E+03 0.  0.
</event>
<event>
 4    0  0.2253506E-002  0.1651046E+03  0.7546771E-02  0.1183051E+00
         21   -1    0    0  502  501  0.00000000000E+00  0.00000000000E+00  0.79640390926E+03  0.79640390926E+03  0.00000000000E+00 0. -1.
         21   -1    0    0  501  502 -0.00000000000E+00 -0.00000000000E+00 -0.34228257804E+02  0.34228257804E+02  0.00000000000E+00 0. -1.
         25    1    1    2    0    0  0.57906995755E+02  0.85944423219E+02  0.45633597475E+03  0.48436265948E+03  0.12500000000E+03 0.  0.
         25    1    1    2    0    0 -0.57906995755E+02 -0.85944423219E+02  0.30583967670E+03  0.34626950759E+03  0.12500000000E+03 0.  0.
</event>
<event>
 4    0  0.2253506E-002  0.3084819E+03  0.7546771E-02  0.1081076E+00
         21   -1    0    0  502  501  0.00000000000E+00  0.00000000000E+00  0.37858433792E+03  0.37858433792E+03  0.00000000000E+00 0.  1.
         21   -1    0    0  501  502 -0.00000000000E+00 -0.00000000000E+00 -0.25136035006E+03  0.25136035006E+03  0.00000000000E+00 0.  1.
         25    1    1    2    0    0 -0.13752933338E+02  0.15628174873E+03  0.30289931965E+03  0.36329894853E+03  0.12500000000E+03 0.  0.
         25    1    1    2    0    0  0.13752933338E+02 -0.15628174873E+03 -0.17567533179E+03  0.26664573944E+03  0.12500000000E+03 0.  0.
</event>
<event>
 4    0  0.2253506E-002  0.2256089E+03  0.7546771E-02  0.1129769E+00
         21   -1    0    0  502  501  0.00000000000E+00  0.00000000000E+00  0.14177165399E+03  0.14177165399E+03  0.00000000000E+00 0.  1.
         21   -1    0    0  501  502 -0.00000000000E+00 -0.00000000000E+00 -0.35902352893E+03  0.35902352893E+03  0.00000000000E+00 0.  1.
         25    1    1    2    0    0 -0.14774704577E+03 -0.32253799630E+02 -0.23224059326E+03  0.30402333838E+03  0.12500000000E+03 0.  0.
         25    1    1    2    0    0  0.14774704577E+03  0.32253799630E+02  0.14988718325E+02  0.19677184454E+03  0.12500000000E+03 0.  0.
</event>
<event>
 4    0  0.2253506E-002  0.3601268E+03  0.7546771E-02  0.1058534E+00
         21   -1    0    0  502  501  0.00000000000E+00  0.00000000000E+00  0.10871063151E+04  0.10871063151E+04  0.00000000000E+00 0. -1.
         21   -1    0    0  501  502 -0.00000000000E+00 -0.00000000000E+00 -0.11929956645E+03  0.11929956645E+03  0.00000000000E+00 0. -1.
         25    1    1    2    0    0  0.23902995124E+03 -0.79281673586E+02  0.10695831361E+03  0.30080887986E+03  0.12500000000E+03 0.  0.
         25    1    1    2    0    0 -0.23902995124E+03  0.79281673586E+02  0.86084843501E+03  0.90559700166E+03  0.12500000000E+03 0.  0.
</event>
<event>
 4    0  0.2253506E-002  0.1910479E+03  0.7546771E-02  0.1157520E+00
         21   -1    0    0  502  501  0.00000000000E+00  0.00000000000E+00  0.11827680625E+03  0.11827680625E+03  0.00000000000E+00 0.  1.
         21   -1    0    0  501  502 -0.00000000000E+00 -0.00000000000E+00 -0.30859216502E+03  0.30859216502E+03  0.00000000000E+00 0.  1.
         25    1    1    2    0    0 -0.48960372199E+02  0.54428744641E+02 -0.23431110199E+03  0.27547467907E+03  0.12500000000E+03 0.  0.
         25    1    1    2    0    0  0.48960372199E+02 -0.54428744641E+02  0.43995743224E+02  0.15139429220E+03  0.12500000000E+03 0.  0.
</event>
<event>
 4    0  0.2253506E-002  0.1700204E+03  0.7546771E-02  0.1177827E+00
         21   -1    0    0  502  501  0.00000000000E+00  0.00000000000E+00  0.16586321051E+03  0.16586321051E+03  0.00000000000E+00 0. -1.
         21   -1    0    0  501  502 -0.00000000000E+00 -0.00000000000E+00 -0.17428172130E+03  0.17428172130E+03  0.00000000000E+00 0. -1.
         25    1    1    2    0    0 -0.36301715331E+02 -0.10095054291E+03  0.37911831471E+02  0.16902997845E+03  0.12500000000E+03 0.  0.
         25    1    1    2    0    0  0.36301715331E+02  0.10095054291E+03 -0.46330342261E+02  0.17111495336E+03  0.12500000000E+03 0.  0.
</event>
<event>
 4    0  0.2253506E-002  0.1847961E+03  0.7546771E-02  0.1163240E+00
         21   -1    0    0  502  501  0.00000000000E+00  0.00000000000E+00  0.11977538929E+03  0.11977538929E+03  0.00000000000E+00 0. -1.
         21   -1    0    0  501  502 -0.00000000000E+00 -0.00000000000E+00 -0.28511353637E+03  0.28511353637E+03  0.00000000000E+00 0. -1.
         25    1    1    2    0    0 -0.51460255499E+02  0.55792784296E+02 -0.20643458689E+03  0.25298464645E+03  0.12500000000E+03 0.  0.
         25    1    1    2    0    0  0.51460255499E+02 -0.55792784296E+02  0.41096439806E+02  0.15190427920E+03  0.12500000000E+03 0.  0.
</event>
<event>
 4    0  0.2253506E-002  0.1984576E+03  0.7546771E-02  0.1151047E+00
         21   -1    0    0  502  501  0.00000000000E+00  0.00000000000E+00  0.17993075795E+03  0.17993075795E+03  0.00000000000E+00 0.  1.
         21   -1    0    0  501  502 -0.00000000000E+00 -0.00000000000E+00 -0.21889210904E+03  0.21889210904E+03  0.00000000000E+00 0.  1.
         25    1    1    2    0    0 -0.13595012220E+03  0.61220334189E+02  0.19823279204E+02  0.19557179614E+03  0.12500000000E+03 0.  0.
         25    1    1    2    0    0  0.13595012220E+03 -0.61220334189E+02 -0.58784630288E+02  0.20325107085E+03  0.12500000000E+03 0.  0.
</event>
<event>
 4    0  0.2253506E-002  0.3792855E+03  0.7546771E-02  0.1051198E+00
         21   -1    0    0  502  501  0.00000000000E+00  0.00000000000E+00  0.53111207041E+02  0.53111207041E+02  0.00000000000E+00 0. -1.
         21   -1    0    0  501  502 -0.00000000000E+00 -0.00000000000E+00 -0.27086096353E+04  0.27086096353E+04  0.00000000000E+00 0. -1.
         25    1    1    2    0    0  0.17313128655E+03 -0.21852309637E+03 -0.50955979171E+03  0.59414052829E+03  0.12500000000E+03 0.  0.
         25    1    1    2    0    0 -0.17313128655E+03  0.21852309637E+03 -0.21459386365E+04  0.21675803140E+04  0.12500000000E+03 0.  0.
</event>
<event>
 4    0  0.2253506E-002  0.1838254E+03  0.7546771E-02  0.1164151E+00
         21   -1    0    0  502  501  0.00000000000E+00  0.00000000000E+00  0.76307340474E+02  0.76307340474E+02  0.00000000000E+00 0. -1.
         21   -1    0    0  501  502 -0.00000000000E+00 -0.00000000000E+00 -0.44283772774E+03  0.44283772774E+03  0.00000000000E+00 0. -1.
         25    1    1    2    0    0  0.68005172826E+02  0.18621411848E+02 -0.34546975010E+03  0.37409331556E+03  0.12500000000E+03 0.  0.
         25    1    1    2    0    0 -0.68005172826E+02 -0.18621411848E+02 -0.21060637161E+02  0.14505175265E+03  0.12500000000E+03 0.  0.
</event>
<event>
 4    0  0.2253506E-002  0.1668383E+03  0.7546771E-02  0.1181186E+00
         21   -1    0    0  502  501  0.00000000000E+00  0.00000000000E+00  0.13559628377E+02  0.13559628377E+02  0.00000000000E+00 0.  1.
         21   -1    0    0  501  502 -0.00000000000E+00 -0.00000000000E+00 -0.20527851272E+04  0.20527851272E+04  0.00000000000E+00 0.  1.
         25    1    1    2    0    0  0.30287106311E+02  0.10623814887E+03 -0.10042549829E+04  0.10180161707E+04  0.12500000000E+03 0.  0.
         25    1    1    2    0    0 -0.30287106311E+02 -0.10623814887E+03 -0.10349705160E+04  0.10483285850E+04  0.12500000000E+03 0.  0.
</event>
<event>
 4    0  0.2253506E-002  0.2109613E+03  0.7546771E-02  0.1140807E+00
         21   -1    0    0  502  501  0.00000000000E+00  0.00000000000E+00  0.10595737523E+03  0.10595737523E+03  0.00000000000E+00 0.  1.
         21   -1    0    0  501  502 -0.00000000000E+00 -0.00000000000E+00 -0.42002420885E+03  0.42002420885E+03  0.00000000000E+00 0.  1.
         25    1    1    2    0    0  0.15891569584E+03 -0.51709423476E+02 -0.11857734088E+03  0.24002843297E+03  0.12500000000E+03 0.  0.
         25    1    1    2    0    0 -0.15891569584E+03  0.51709423476E+02 -0.19548949274E+03  0.28595315112E+03  0.12500000000E+03 0.  0.
</event>
<event>
 4    0  0.2253506E-002  0.1887637E+03  0.7546771E-02  0.1159581E+00
         21   -1    0    0  502  501  0.00000000000E+00  0.00000000000E+00  0.56809097054E+02  0.56809097054E+02  0.00000000000E+00 0.  1.
         21   -1    0    0  501  502 -0.00000000000E+00 -0.00000000000E+00 -0.62721894065E+03  0.62721894065E+03  0.00000000000E+00 0.  1.
         25    1    1    2    0    0  0.11274686212E+03  0.84588449368E+02 -0.26379110742E+03  0.32415707464E+03  0.12500000000E+03 0.  0.
         25    1    1    2    0    0 -0.11274686212E+03 -0.84588449368E+02 -0.30661873618E+03  0.35987096307E+03  0.12500000000E+03 0.  0.
</event>
<event>
 4    0  0.2253506E-002  0.1987309E+03  0.7546771E-02  0.1150814E+00
         21   -1    0    0  502  501  0.00000000000E+00  0.00000000000E+00  0.38971315626E+03  0.38971315626E+03  0.00000000000E+00 0. -1.
         21   -1    0    0  501  502 -0.00000000000E+00 -0.00000000000E+00 -0.10134108420E+03  0.10134108420E+03  0.00000000000E+00 0. -1.
         25    1    1    2    0    0 -0.40054055693E+01 -0.69828828429E+02 -0.26008718577E+02  0.14558008791E+03  0.12500000000E+03 0.  0.
         25    1    1    2    0    0  0.40054055693E+01  0.69828828429E+02  0.31438079064E+03  0.34547415254E+03  0.12500000000E+03 0.  0.
</event>
<event>
 4    0  0.2253506E-002  0.1798435E+03  0.7546771E-02  0.1167955E+00
         21   -1    0    0  502  501  0.00000000000E+00  0.00000000000E+00  0.58317165250E+02  0.58317165250E+02  0.00000000000E+00 0.  1.
         21   -1    0    0  501  502 -0.00000000000E+00 -0.00000000000E+00 -0.55461670942E+03  0.55461670942E+03  0.00000000000E+00 0.  1.
         25    1    1    2    0    0 -0.99201463019E+02 -0.98246658301E+01 -0.10782224661E+03  0.19284214059E+03  0.12500000000E+03 0.  0.
         25    1    1    2    0    0  0.99201463019E+02  0.98246658301E+01 -0.38847729756E+03  0.42009173408E+03  0.12500000000E+03 0.  0.
</event>
<event>
 4    0  0.2253506E-002  0.1742738E+03  0.7546771E-02  0.1173463E+00
         21   -1    0    0  502  501  0.00000000000E+00  0.00000000000E+00  0.24641243151E+03  0.24641243151E+03  0.00000000000E+00 0.  1.
         21   -1    0    0  501  502 -0.00000000000E+00 -0.00000000000E+00 -0.12325411089E+03  0.12325411089E+03  0.00000000000E+00 0.  1.
         25    1    1    2    0    0  0.11758435142E+03  0.26340981815E+02  0.45620231398E+02  0.17951638514E+03  0.12500000000E+03 0.  0.
         25    1    1    2    0    0 -0.11758435142E+03 -0.26340981815E+02  0.77538089223E+02  0.19015015725E+03  0.12500000000E+03 0.  0.
</event>
<event>
 4    0  0.2253506E-002  0.2246379E+03  0.7546771E-02  0.1130472E+00
         21   -1    0    0  502  501  0.00000000000E+00  0.00000000000E+00  0.12016672774E+04  0.12016672774E+04  0.00000000000E+00 0. -1.
         21   -1    0    0  501  502 -0.00000000000E+00 -0.00000000000E+00 -0.41993464974E+02  0.41993464974E+02  0.00000000000E+00 0. -1.
         25    1    1    2    0    0  0.72585849951E+02  0.75409600323E+02  0.15205439601E+03  0.22293688071E+03  0.12500000000E+03 0.  0.
         25    1    1    2    0    0 -0.72585849951E+02 -0.75409600323E+02  0.10076194164E+04  0.10207238617E+04  0.12500000000E+03 0.  0.
</event>
<event>
 4    0  0.2253506E-002  0.1782908E+03  0.7546771E-02  0.1169468E+00
         21   -1    0    0  502  501  0.00000000000E+00  0.00000000000E+00  0.19545221502E+03  0.19545221502E+03  0.00000000000E+00 0.  1.
         21   -1    0    0  501  502 -0.00000000000E+00 -0.00000000000E+00 -0.16263616850E+03  0.16263616850E+03  0.00000000000E+00 0.  1.
         25    1    1    2    0    0  0.10801269308E+03 -0.29010769365E+02  0.77113723840E+02  0.18460740237E+03  0.12500000000E+03 0.  0.
         25    1    1    2    0    0 -0.10801269308E+03  0.29010769365E+02 -0.44297677316E+02  0.17348098115E+03  0.12500000000E+03 0.  0.
</event>
<event>
 4    0  0.2253506E-002  0.4415329E+03  0.7546771E-02  0.1030278E+00
         21   -1    0    0  502  501  0.00000000000E+00  0.00000000000E+00  0.20874500951E+04  0.20874500951E+04  0.00000000000E+00 0.  1.
         21   -1    0    0  501  502 -0.00000000000E+00 -0.00000000000E+00 -0.93392090229E+02  0.93392090229E+02  0.00000000000E+00 0.  1.
         25    1    1    2    0    0 -0.20695740826E+03  0.24902281299E+03  0.16710269155E+04  0.17066926151E+04  0.12500000000E+03 0.  0.
         25    1    1    2    0    0  0.20695740826E+03 -0.24902281299E+03  0.32303108939E+03  0.47414957022E+03  0.12500000000E+03 0.  0.
</event>
<event>
 4    0  0.2253506E-002  0.2163353E+03  0.7546771E-02  0.1136645E+00
         21   -1    0    0  502  501  0.00000000000E+00  0.00000000000E+00  0.25600352081E+03  0.25600352081E+03  0.00000000000E+00 0. -1.
         21   -1    0    0  501  502 -0.00000000000E+00 -0.00000000000E+00 -0.18281379948E+03  0.18281379948E+03  0.00000000000E+00 0. -1.
         25    1    1    2    0    0 -0.13223468292E+03  0.98277070249E+02  0.10099162996E+03  0.23014930638E+03  0.12500000000E+03 0.  0.
         25    1    1    2    0    0  0.13223468292E+03 -0.98277070249E+02 -0.27801908640E+02  0.20866801391E+03  0.12500000000E+03 0.  0.
</event>
<event>
 4    0  0.2253506E-002  0.1933607E+03  0.7546771E-02  0.1155465E+00
         21   -1    0    0  502  501  0.00000000000E+00  0.00000000000E+00  0.31856519890E+03  0.31856519890E+03  0.00000000000E+00 0. -1.
         21   -1    0    0  501  502 -0.00000000000E+00 -0.00000000000E+00 -0.11736480255E+03  0.11736480255E+03  0.00000000000E+00 0. -1.
         25    1    1    2    0    0  0.26270699559E+02  0.29173267086E+02  0.26089960784E+03  0.29195005487E+03  0.12500000000E+03 0.  0.
         25    1    1    2    0    0 -0.26270699559E+02 -0.29173267086E+02 -0.59699211488E+02  0.14397994659E+03  0.12500000000E+03 0.  0.
</event>
<event>
 4    0  0.2253506E-002  0.1814151E+03  0.7546771E-02  0.1166441E+00
         21   -1    0    0  502  501  0.00000000000E+00  0.00000000000E+00  0.31172522342E+02  0.31172522342E+02  0.00000000000E+00 0. -1.
         21   -1    0    0  501  502 -0.00000000000E+00 -0.00000000000E+00 -0.10557833912E+04  0.10557833912E+04  0.00000000000E+00 0. -1.
         25    1    1    2    0    0  0.59129935228E+02 -0.45702676148E+02 -0.83636622508E+03  0.84895143930E+03  0.12500000000E+03 0.  0.
         25    1    1    2    0    0 -0.59129935228E+02  0.45702676148E+02 -0.18824464380E+03  0.23800447426E+03  0.12500000000E+03 0.  0.
</event>
<event>
 4    0  0.2253506E-002  0.1584213E+03  0.7546771E-02  0.1190491E+00
         21   -1    0    0  502  501  0.00000000000E+00  0.00000000000E+00  0.58496059702E+03  0.58496059702E+03  0.00000000000E+00 0. -1.
         21   -1    0    0  501  502 -0.00000000000E+00 -0.00000000000E+00 -0.42904268497E+02  0.42904268497E+02  0.00000000000E+00 0. -1.
         25    1    1    2    0    0 -0.78452696870E+02  0.19289237018E+02  0.16348192539E+03  0.22108423788E+03  0.12500000000E+03 0.  0.
         25    1    1    2    0    0  0.78452696870E+02 -0.19289237018E+02  0.37857440313E+03  0.40678062763E+03  0.12500000000E+03 0.  0.
</event>
<event>
 4    0  0.2253506E-002  0.2173033E+03  0.7546771E-02  0.1135910E+00
         21   -1    0    0  502  501  0.00000000000E+00  0.00000000000E+00  0.13658888443E+03  0.13658888443E+03  0.00000000000E+00 0.  1.
         21   -1    0    0  501  502 -0.00000000000E+00 -0.00000000000E+00 -0.34571414986E+03  0.34571414986E+03  0.00000000000E+00 0.  1.
         25    1    1    2    0    0  0.61557533711E+02 -0.47036237519E+02 -0.28210115103E+03  0.31813172902E+03  0.12500000000E+03 0.  0.
         25    1    1    2    0    0 -0.61557533711E+02  0.47036237519E+02  0.72975885597E+02  0.16417130527E+03  0.12500000000E+03 0.  0.
</event>
<event>
 4    0  0.2253506E-002  0.2765683E+03  0.7546771E-02  0.1097578E+00
         21   -1    0    0  502  501  0.00000000000E+00  0.00000000000E+00  0.78050119327E+02  0.78050119327E+02  0.00000000000E+00 0.  1.
         21   -1    0    0  501  502 -0.00000000000E+00 -0.00000000000E+00 -0.98001146449E+03  0.98001146449E+03  0.00000000000E+00 0.  1.
         25    1    1    2    0    0  0.24215227557E+03 -0.29619763831E+02 -0.52126176735E+03  0.58894302362E+03  0.12500000000E+03 0.  0.
         25    1    1    2    0    0 -0.24215227557E+03  0.29619763831E+02 -0.38069957781E+03  0.46911856019E+03  0.12500000000E+03 0.  0.
</event>
<event>
 4    0  0.2253506E-002  0.2298669E+03  0.7546771E-02  0.1126733E+00
         21   -1    0    0  502  501  0.00000000000E+00  0.00000000000E+00  0.15816862868E+04  0.15816862868E+04  0.00000000000E+00 0. -1.
         21   -1    0    0  501  502 -0.00000000000E+00 -0.00000000000E+00 -0.33406632451E+02  0.33406632451E+02  0.00000000000E+00 0. -1.
         25    1    1    2    0    0 -0.53962982774E+02  0.17343478177E+03  0.10024155061E+04  0.10263788160E+04  0.12500000000E+03 0.  0.
         25    1    1    2    0    0  0.53962982774E+02 -0.17343478177E+03  0.54586414823E+03  0.58871410324E+03  0.12500000000E+03 0.  0.
</event>
<event>
 4    0  0.2253506E-002  0.2428760E+03  0.7546771E-02  0.1117892E+00
         21   -1    0    0  502  501  0.00000000000E+00  0.00000000000E+00  0.72721060321E+02  0.72721060321E+02  0.00000000000E+00 0. -1.
         21   -1    0    0  501  502 -0.00000000000E+00 -0.00000000000E+00 -0.81116438773E+03  0.81116438773E+03  0.00000000000E+00 0. -1.
         25    1    1    2    0    0 -0.20552379608E+03  0.17715913144E+02 -0.42100425175E+03  0.48520455926E+03  0.12500000000E+03 0.  0.
         25    1    1    2    0    0  0.20552379608E+03 -0.17715913144E+02 -0.31743907565E+03  0.39868088879E+03  0.12500000000E+03 0.  0.
</event>
<event>
 4    0  0.2253506E-002  0.3582246E+03  0.7546771E-02  0.1059289E+00
         21   -1    0    0  502  501  0.00000000000E+00  0.00000000000E+00  0.85915819580E+03  0.85915819580E+03  0.00000000000E+00 0.  1.
         21   -1    0    0  501  502 -0.00000000000E+00 -0.00000000000E+00 -0.14936112012E+03  0.14936112012E+03  0.00000000000E+00 0.  1.
         25    1    1    2    0    0  0.15040984095E+03 -0.94188716717E+01  0.77716944696E+03  0.80145441834E+03  0.12500000000E+03 0.  0.
         25    1    1    2    0    0 -0.15040984095E+03  0.94188716717E+01 -0.67372371272E+02  0.20706489758E+03  0.12500000000E+03 0.  0.
</event>
<event>
 4    0  0.2253506E-002  0.1286668E+03  0.7546771E-02  0.1229447E+00
         21   -1    0    0  502  501  0.00000000000E+00  0.00000000000E+00  0.13534368250E+03  0.13534368250E+03  0.00000000000E+00 0. -1.
         21   -1    0    0  501  502 -0.00000000000E+00 -0.00000000000E+00 -0.12231928371E+03  0.12231928371E+03  0.00000000000E+00 0. -1.
         25    1    1    2    0    0 -0.24257056224E+02  0.18031530833E+02  0.10591898542E+02  0.12903770455E+03  0.12500000000E+03 0.  0.
         25    1    1    2    0    0  0.24257056224E+02 -0.18031530833E+02  0.24325002454E+01  0.12862526166E+03  0.12500000000E+03 0.  0.
</event>
<event>
 4    0  0.2253506E-002  0.2889894E+03  0.7546771E-02  0.1090878E+00
         21   -1    0    0  502  501  0.00000000000E+00  0.00000000000E+00  0.47484098988E+03  0.47484098988E+03  0.00000000000E+00 0. -1.
         21   -1    0    0  501  502 -0.00000000000E+00 -0.00000000000E+00 -0.17587963882E+03  0.17587963882E+03  0.00000000000E+00 0. -1.
         25    1    1    2    0    0 -0.16911840162E+03 -0.19176622935E+03  0.93024418334E+02  0.29942254907E+03  0.12500000000E+03 0.  0.
         25    1    1    2    0    0  0.16911840162E+03  0.19176622935E+03  0.20593693273E+03  0.35129807963E+03  0.12500000000E+03 0.  0.
</event>
<event>
 4    0  0.2253506E-002  0.2241862E+03  0.7546771E-02  0.1130800E+00
         21   -1    0    0  502  501  0.00000000000E+00  0.00000000000E+00  0.22551555198E+03  0.22551555198E+03  0.00000000000E+00 0.  1.
         21   -1    0    0  501  502 -0.00000000000E+00 -0.00000000000E+00 -0.22286463416E+03  0.22286463416E+03  0.00000000000E+00 0.  1.
         25    1    1    2    0    0 -0.16926654981E+03 -0.53825583460E+02 -0.54228033754E+02  0.22386164916E+03  0.12500000000E+03 0.  0.
         25    1    1    2    0    0  0.16926654981E+03  0.53825583460E+02  0.56878951569E+02  0.22451853698E+03  0.12500000000E+03 0.  0.
</event>
<event>
 4    0  0.2253506E-002  0.2267293E+03  0.7546771E-02  0.1128963E+00
         21   -1    0    0  502  501  0.00000000000E+00  0.00000000000E+00  0.95853400102E+03  0.95853400102E+03  0.00000000000E+00 0.  1.
         21   -1    0    0  501  502 -0.00000000000E+00 -0.00000000000E+00 -0.53629996051E+02  0.53629996051E+02  0.00000000000E+00 0.  1.
         25    1    1    2    0    0 -0.15739209719E+03 -0.96748570309E+01  0.21925064428E+03  0.29759321252E+03  0.12500000000E+03 0.  0.
         25    1    1    2    0    0  0.15739209719E+03  0.96748570309E+01  0.68565336068E+03  0.71457078455E+03  0.12500000000E+03 0.  0.
</event>
<event>
 4    0  0.2253506E-002  0.1895407E+03  0.7546771E-02  0.1158876E+00
         21   -1    0    0  502  501  0.00000000000E+00  0.00000000000E+00  0.31935533303E+03  0.31935533303E+03  0.00000000000E+00 0. -1.
         21   -1    0    0  501  502 -0.00000000000E+00 -0.00000000000E+00 -0.11249431228E+03  0.11249431228E+03  0.00000000000E+00 0. -1.
         25    1    1    2    0    0  0.12956330908E+03 -0.52505277613E+02  0.13477826642E+03  0.23094076370E+03  0.12500000000E+03 0.  0.
         25    1    1    2    0    0 -0.12956330908E+03  0.52505277613E+02  0.72082754333E+02  0.20090888161E+03  0.12500000000E+03 0.  0.
</event>
<event>
 4    0  0.2253506E-002  0.2699107E+03  0.7546771E-02  0.1101331E+00
         21   -1    0    0  502  501  0.00000000000E+00  0.00000000000E+00  0.83614572255E+03  0.83614572255E+03  0.00000000000E+00 0. -1.
         21   -1    0    0  501  502 -0.00000000000E+00 -0.00000000000E+00 -0.87128105129E+02  0.87128105129E+02  0.00000000000E+00 0. -1.
         25    1    1    2    0    0 -0.15373976001E+03  0.16251873373E+03  0.22959877267E+03  0.34407680688E+03  0.12500000000E+03 0.  0.
         25    1    1    2    0    0  0.15373976001E+03 -0.16251873373E+03  0.51941884475E+03  0.57919702080E+03  0.12500000000E+03 0.  0.
</event>
<event>
 4    0  0.2253506E-002  0.1974747E+03  0.7546771E-02  0.1151887E+00
         21   -1    0    0  502  501  0.00000000000E+00  0.00000000000E+00  0.31577802729E+03  0.31577802729E+03  0.00000000000E+00 0.  1.
         21   -1    0    0  501  502 -0.00000000000E+00 -0.00000000000E+00 -0.12349262015E+03  0.12349262015E+03  0.00000000000E+00 0.  1.
         25    1    1    2    0    0 -0.94007873224E+02 -0.92219942205E+02  0.18250469867E+03  0.25743924139E+03  0.12500000000E+03 0.  0.
         25    1    1    2    0    0  0.94007873224E+02  0.92219942205E+02  0.97807084600E+01  0.18183140605E+03  0.12500000000E+03 0.  0.
</event>
<event>
 4    0  0.2253506E-002  0.2005946E+03  0.7546771E-02  0.1149238E+00
         21   -1    0    0  502  501  0.00000000000E+00  0.00000000000E+00  0.11021733289E+04  0.11021733289E+04  0.00000000000E+00 0. -1.
         21   -1    0    0  501  502 -0.00000000000E+00 -0.00000000000E+00 -0.36508042373E+02  0.36508042373E+02  0.00000000000E+00 0. -1.
         25    1    1    2    0    0 -0.78039715264E+02 -0.13515637563E+03  0.57822249348E+03  0.61181998578E+03  0.12500000000E+03 0.  0.
         25    1    1    2    0    0  0.78039715264E+02  0.13515637563E+03  0.48744279304E+03  0.52686138548E+03  0.12500000000E+03 0.  0.
</event>
<event>
 4    0  0.2253506E-002  0.1959395E+03  0.7546771E-02  0.1153211E+00
         21   -1    0    0  502  501  0.00000000000E+00  0.00000000000E+00  0.85017144393E+02  0.85017144393E+02  0.00000000000E+00 0.  1.
         21   -1    0    0  501  502 -0.00000000000E+00 -0.00000000000E+00 -0.45158303619E+03  0.45158303619E+03  0.00000000000E+00 0.  1.
         25    1    1    2    0    0  0.11363209472E+03  0.80217587812E+02 -0.26336286124E+03  0.32300481579E+03  0.12500000000E+03 0.  0.
         25    1    1    2    0    0 -0.11363209472E+03 -0.80217587812E+02 -0.10320303056E+03  0.21359536479E+03  0.12500000000E+03 0.  0.
</event>
<event>
 4    0  0.2253506E-002  0.3434271E+03  0.7546771E-02  0.1065346E+00
         21   -1    0    0  502  501  0.00000000000E+00  0.00000000000E+00  0.10091346977E+04  0.10091346977E+04  0.00000000000E+00 0.  1.
         21   -1    0    0  501  502 -0.00000000000E+00 -0.00000000000E+00 -0.11687455548E+03  0.11687455548E+03  0.00000000000E+00 0.  1.
         25    1    1    2    0    0  0.71836388301E+02  0.22447488126E+03  0.91602059802E+02  0.28207335280E+03  0.12500000000E+03 0.  0.
         25    1    1    2    0    0 -0.71836388301E+02 -0.22447488126E+03  0.80065808239E+03  0.84393590035E+03  0.12500000000E+03 0.  0.
</event>
<event>
 4    0  0.2253506E-002  0.1635303E+03  0.7546771E-02  0.1184768E+00
         21   -1    0    0  502  501  0.00000000000E+00  0.00000000000E+00  0.26436965980E+02  0.26436965980E+02  0.00000000000E+00 0. -1.
         21   -1    0    0  501  502 -0.00000000000E+00 -0.00000000000E+00 -0.10115444584E+04  0.10115444584E+04  0.00000000000E+00 0. -1.
         25    1    1    2    0    0 -0.34205520729E+02  0.99725248674E+02 -0.48803914147E+03  0.51470607776E+03  0.12500000000E+03 0.  0.
         25    1    1    2    0    0  0.34205520729E+02 -0.99725248674E+02 -0.49706835100E+03  0.52327534667E+03  0.12500000000E+03 0.  0.
</event>
<event>
 4    0  0.2253506E-002  0.2026110E+03  0.7546771E-02  0.1147555E+00
         21   -1    0    0  502  501  0.00000000000E+00  0.00000000000E+00  0.11768308324E+04  0.11768308324E+04  0.00000000000E+00 0. -1.
         21   -1    0    0  501  502 -0.00000000000E+00 -0.00000000000E+00 -0.34882856701E+02  0.34882856701E+02  0.00000000000E+00 0. -1.
         25    1    1    2    0    0 -0.53327002405E+02 -0.44261724916E+02  0.10003982743E+04  0.10105565678E+04  0.12500000000E+03 0.  0.
         25    1    1    2    0    0  0.53327002405E+02  0.44261724916E+02  0.14154970131E+03  0.20115712123E+03  0.12500000000E+03 0.  0.
</event>
<event>
 4    0  0.2253506E-002  0.1988024E+03  0.7546771E-02  0.1150753E+00
         21   -1    0    0  502  501  0.00000000000E+00  0.00000000000E+00  0.41128783275E+02  0.41128783275E+02  0.00000000000E+00 0.  1.
         21   -1    0    0  501  502 -0.00000000000E+00 -0.00000000000E+00 -0.96094228136E+03  0.96094228136E+03  0.00000000000E+00 0.  1.
         25    1    1    2    0    0  0.13719980081E+03 -0.39317962147E+02 -0.60959672749E+03  0.63843782599E+03  0.12500000000E+03 0.  0.
         25    1    1    2    0    0 -0.13719980081E+03  0.39317962147E+02 -0.31021677060E+03  0.36363323864E+03  0.12500000000E+03 0.  0.
</event>
<event>
 4    0  0.2253506E-002  0.2233252E+03  0.7546771E-02  0.1131428E+00
         21   -1    0    0  502  501  0.00000000000E+00  0.00000000000E+00  0.10938429354E+03  0.10938429354E+03  0.00000000000E+00 0. -1.
         21   -1    0    0  501  502 -0.00000000000E+00 -0.00000000000E+00 -0.45595346288E+03  0.45595346288E+03  0.00000000000E+00 0. -1.
         25    1    1    2    0    0 -0.86265414474E+02 -0.37358894601E+02 -0.37505497929E+03  0.40636024194E+03  0.12500000000E+03 0.  0.
         25    1    1    2    0    0  0.86265414474E+02  0.37358894601E+02  0.28485809947E+02  0.15897751447E+03  0.12500000000E+03 0.  0.
</event>
<event>
 4    0  0.2253506E-002  0.2897283E+03  0.7546771E-02  0.1090491E+00
         21   -1    0    0  502  501  0.00000000000E+00  0.00000000000E+00  0.10369607347E+04  0.10369607347E+04  0.00000000000E+00 0. -1.
         21   -1    0    0  501  502 -0.00000000000E+00 -0.00000000000E+00 -0.80950520705E+02  0.80950520705E+02  0.00000000000E+00 0. -1.
         25    1    1    2    0    0  0.19666275080E+03 -0.32300546757E+02  0.80425756634E+03  0.83795870775E+03  0.12500000000E+03 0.  0.
         25    1    1    2    0    0 -0.19666275080E+03  0.32300546757E+02  0.15175264766E+03  0.27995254766E+03  0.12500000000E+03 0.  0.
</event>
<event>
 4    0  0.2253506E-002  0.2257567E+03  0.7546771E-02  0.1129663E+00
         21   -1    0    0  502  501  0.00000000000E+00  0.00000000000E+00  0.18758970767E+03  0.18758970767E+03  0.00000000000E+00 0. -1.
         21   -1    0    0  501  502 -0.00000000000E+00 -0.00000000000E+00 -0.27168917191E+03  0.27168917191E+03  0.00000000000E+00 0. -1.
         25    1    1    2    0    0 -0.18169222081E+02  0.13785802330E+03 -0.17074099918E+03  0.25320435230E+03  0.12500000000E+03 0.  0.
         25    1    1    2    0    0  0.18169222081E+02 -0.13785802330E+03  0.86641534940E+02  0.20607452728E+03  0.12500000000E+03 0.  0.
</event>
<event>
 4    0  0.2253506E-002  0.2639055E+03  0.7546771E-02  0.1104819E+00
         21   -1    0    0  502  501  0.00000000000E+00  0.00000000000E+00  0.14807502685E+03  0.14807502685E+03  0.00000000000E+00 0. -1.
         21   -1    0    0  501  502 -0.00000000000E+00 -0.00000000000E+00 -0.47034324679E+03  0.47034324679E+03  0.00000000000E+00 0. -1.
         25    1    1    2    0    0 -0.10100508892E+03  0.63863538662E+02  0.72437829251E+02  0.18749084955E+03  0.12500000000E+03 0.  0.
         25    1    1    2    0    0  0.10100508892E+03 -0.63863538662E+02 -0.39470604920E+03  0.43092742409E+03  0.12500000000E+03 0.  0.
</event>
<event>
 4    0  0.2253506E-002  0.1797504E+03  0.7546771E-02  0.1168045E+00
         21   -1    0    0  502  501  0.00000000000E+00  0.00000000000E+00  0.12383085176E+03  0.12383085176E+03  0.00000000000E+00 0.  1.
         21   -1    0    0  501  502 -0.00000000000E+00 -0.00000000000E+00 -0.26092200667E+03  0.26092200667E+03  0.00000000000E+00 0.  1.
         25    1    1    2    0    0  0.30163281070E+02 -0.71634897736E+02 -0.17896123842E+03  0.23171859433E+03  0.12500000000E+03 0.  0.
         25    1    1    2    0    0 -0.30163281070E+02  0.71634897736E+02  0.41870083510E+02  0.15303426411E+03  0.12500000000E+03 0.  0.
</event>
<event>
 4    0  0.2253506E-002  0.2011313E+03  0.7546771E-02  0.1148788E+00
         21   -1    0    0  502  501  0.00000000000E+00  0.00000000000E+00  0.40031778112E+03  0.40031778112E+03  0.00000000000E+00 0. -1.
         21   -1    0    0  501  502 -0.00000000000E+00 -0.00000000000E+00 -0.10105420097E+03  0.10105420097E+03  0.00000000000E+00 0. -1.
         25    1    1    2    0    0  0.92057625482E+02 -0.70737198296E+02  0.28241914140E+03  0.32994534254E+03  0.12500000000E+03 0.  0.
         25    1    1    2    0    0 -0.92057625482E+02  0.70737198296E+02  0.16844438742E+02  0.17142663955E+03  0.12500000000E+03 0.  0.
</event>
<event>
 4    0  0.2253506E-002  0.3224839E+03  0.7546771E-02  0.1074512E+00
         21   -1    0    0  502  501  0.00000000000E+00  0.00000000000E+00  0.17221381722E+03  0.17221381722E+03  0.00000000000E+00 0. -1.
         21   -1    0    0  501  502 -0.00000000000E+00 -0.00000000000E+00 -0.60387643864E+03  0.60387643864E+03  0.00000000000E+00 0. -1.
         25    1    1    2    0    0 -0.11992530581E+03  0.25552282891E+03 -0.10361506780E+03  0.32563027706E+03  0.12500000000E+03 0.  0.
         25    1    1    2    0    0  0.11992530581E+03 -0.25552282891E+03 -0.32804755362E+03  0.45045997880E+03  0.12500000000E+03 0.  0.
</event>
<event>
 4    0  0.2253506E-002  0.1968224E+03  0.7546771E-02  0.1152448E+00
         21   -1    0    0  502  501  0.00000000000E+00  0.00000000000E+00  0.81895555548E+03  0.81895555548E+03  0.00000000000E+00 0.  1.
         21   -1    0    0  501  502 -0.00000000000E+00 -0.00000000000E+00 -0.47302991030E+02  0.47302991030E+02  0.00000000000E+00 0.  1.
         25    1    1    2    0    0 -0.98293389671E+02 -0.11576882009E+03  0.37025984241E+03  0.41926287822E+03  0.12500000000E+03 0.  0.
         25    1    1    2    0    0  0.98293389671E+02  0.11576882009E+03  0.40139272204E+03  0.44699566828E+03  0.12500000000E+03 0.  0.
</event>
<event>
 4    0  0.2253506E-002  0.2002936E+03  0.7546771E-02  0.1149492E+00
         21   -1    0    0  502  501  0.00000000000E+00  0.00000000000E+00  0.12405258257E+03  0.12405258257E+03  0.00000000000E+00 0.  1.
         21   -1    0    0  501  502 -0.00000000000E+00 -0.00000000000E+00 -0.32339141773E+03  0.32339141773E+03  0.00000000000E+00 0.  1.
         25    1    1    2    0    0 -0.28139719117E+02  0.11159368341E+03 -0.21812906714E+03  0.27649644464E+03  0.12500000000E+03 0.  0.
         25    1    1    2    0    0  0.28139719117E+02 -0.11159368341E+03  0.18790231975E+02  0.17094755566E+03  0.12500000000E+03 0.  0.
</event>
<event>
 4    0  0.2253506E-002  0.1863127E+03  0.7546771E-02  0.1161830E+00
         21   -1    0    0  502  501  0.00000000000E+00  0.00000000000E+00  0.49420734530E+02  0.49420734530E+02  0.00000000000E+00 0. -1.
         21   -1    0    0  501  502 -0.00000000000E+00 -0.00000000000E+00 -0.70238559935E+03  0.70238559935E+03  0.00000000000E+00 0. -1.
         25    1    1    2    0    0  0.10692058572E+03 -0.62938563052E+02 -0.20385429344E+03  0.26939719249E+03  0.12500000000E+03 0.  0.
         25    1    1    2    0    0 -0.10692058572E+03  0.62938563052E+02 -0.44911057138E+03  0.48240914139E+03  0.12500000000E+03 0.  0.
</event>
<event>
 4    0  0.2253506E-002  0.1565365E+03  0.7546771E-02  0.1192663E+00
         21   -1    0    0  502  501  0.00000000000E+00  0.00000000000E+00  0.43618279890E+02  0.43618279890E+02  0.00000000000E+00 0. -1.
         21   -1    0    0  501  502 -0.00000000000E+00 -0.00000000000E+00 -0.56177559099E+03  0.56177559099E+03  0.00000000000E+00 0. -1.
         25    1    1    2    0    0 -0.50478619299E+02 -0.20892657362E+02 -0.40753567461E+03  0.42976146898E+03  0.12500000000E+03 0.  0.
         25    1    1    2    0    0  0.50478619299E+02  0.20892657362E+02 -0.11062163649E+03  0.17563240190E+03  0.12500000000E+03 0.  0.
</event>
<event>
 4    0  0.2253506E-002  0.3040156E+03  0.7546771E-02  0.1083250E+00
         21   -1    0    0  502  501  0.00000000000E+00  0.00000000000E+00  0.26726633240E+03  0.26726633240E+03  0.00000000000E+00 0.  1.
         21   -1    0    0  501  502 -0.00000000000E+00 -0.00000000000E+00 -0.34581792734E+03  0.34581792734E+03  0.00000000000E+00 0.  1.
         25    1    1    2    0    0  0.23123311805E+03 -0.10655646068E+03 -0.14962687147E+03  0.32068089257E+03  0.12500000000E+03 0.  0.
         25    1    1    2    0    0 -0.23123311805E+03  0.10655646068E+03  0.71075276531E+02  0.29240336716E+03  0.12500000000E+03 0.  0.
</event>
<event>
 4    0  0.2253506E-002  0.2022497E+03  0.7546771E-02  0.1147855E+00
         21   -1    0    0  502  501  0.00000000000E+00  0.00000000000E+00  0.35602842470E+03  0.35602842470E+03  0.00000000000E+00 0.  1.
         21   -1    0    0  501  502 -0.00000000000E+00 -0.00000000000E+00 -0.11489236557E+03  0.11489236557E+03  0.00000000000E+00 0.  1.
         25    1    1    2    0    0  0.70114320810E+01 -0.73156497197E+02 -0.43576449923E+02  0.15140984198E+03  0.12500000000E+03 0.  0.
         25    1    1    2    0    0 -0.70114320810E+01  0.73156497197E+02  0.28471250906E+03  0.31951094829E+03  0.12500000000E+03 0.  0.
</event>
<event>
 4    0  0.2253506E-002  0.2598014E+03  0.7546771E-02  0.1107263E+00
         21   -1    0    0  502  501  0.00000000000E+00  0.00000000000E+00  0.18704417123E+03  0.18704417123E+03  0.00000000000E+00 0. -1.
         21   -1    0    0  501  502 -0.00000000000E+00 -0.00000000000E+00 -0.36086016936E+03  0.36086016936E+03  0.00000000000E+00 0. -1.
         25    1    1    2    0    0  0.17417577209E+03 -0.14442106834E+03 -0.59468601054E+02  0.26524735451E+03  0.12500000000E+03 0.  0.
         25    1    1    2    0    0 -0.17417577209E+03  0.14442106834E+03 -0.11434739707E+03  0.28265698608E+03  0.12500000000E+03 0.  0.
</event>
<event>
 4    0  0.2253506E-002  0.2766977E+03  0.7546771E-02  0.1097506E+00
         21   -1    0    0  502  501  0.00000000000E+00  0.00000000000E+00  0.50724017291E+02  0.50724017291E+02  0.00000000000E+00 0. -1.
         21   -1    0    0  501  502 -0.00000000000E+00 -0.00000000000E+00 -0.15093755377E+04  0.15093755377E+04  0.00000000000E+00 0. -1.
         25    1    1    2    0    0 -0.23185813362E+03  0.70302771300E+02 -0.86263022358E+03  0.90468589931E+03  0.12500000000E+03 0.  0.
         25    1    1    2    0    0  0.23185813362E+03 -0.70302771300E+02 -0.59602129681E+03  0.65541365566E+03  0.12500000000E+03 0.  0.
</event>
<event>
 4    0  0.2253506E-002  0.5351337E+03  0.7546771E-02  0.1004995E+00
         21   -1    0    0  502  501  0.00000000000E+00  0.00000000000E+00  0.37265266161E+03  0.37265266161E+03  0.00000000000E+00 0. -1.
         21   -1    0    0  501  502 -0.00000000000E+00 -0.00000000000E+00 -0.76845856219E+03  0.76845856219E+03  0.00000000000E+00 0. -1.
         25    1    1    2    0    0  0.96373706994E+02 -0.45020199403E+03  0.60576519744E+02  0.48089940899E+03  0.12500000000E+03 0.  0.
         25    1    1    2    0    0 -0.96373706994E+02  0.45020199403E+03 -0.45638242033E+03  0.66021181481E+03  0.12500000000E+03 0.  0.
</event>
<event>
 4    0  0.2253506E-002  0.1886878E+03  0.7546771E-02  0.1159650E+00
         21   -1    0    0  502  501  0.00000000000E+00  0.00000000000E+00  0.82149983806E+02  0.82149983806E+02  0.00000000000E+00 0.  1.
         21   -1    0    0  501  502 -0.00000000000E+00 -0.00000000000E+00 -0.43339139146E+03  0.43339139146E+03  0.00000000000E+00 0.  1.
         25    1    1    2    0    0 -0.31825898866E+02  0.26787381308E+02  0.89203729334E+01  0.13204175358E+03  0.12500000000E+03 0.  0.
         25    1    1    2    0    0  0.31825898866E+02 -0.26787381308E+02 -0.36016178059E+03  0.38349962169E+03  0.12500000000E+03 0.  0.
</event>
<event>
 4    0  0.2253506E-002  0.2472949E+03  0.7546771E-02  0.1115026E+00
         21   -1    0    0  502  501  0.00000000000E+00  0.00000000000E+00  0.23252306679E+03  0.23252306679E+03  0.00000000000E+00 0. -1.
         21   -1    0    0  501  502 -0.00000000000E+00 -0.00000000000E+00 -0.26300520135E+03  0.26300520135E+03  0.00000000000E+00 0. -1.
         25    1    1    2    0    0 -0.19036169977E+03 -0.55448260718E+02 -0.94243009643E+02  0.25262389282E+03  0.12500000000E+03 0.  0.
         25    1    1    2    0    0  0.19036169977E+03  0.55448260718E+02  0.63760875092E+02  0.24290437532E+03  0.12500000000E+03 0.  0.
</event>
<event>
 4    0  0.2253506E-002  0.2645510E+03  0.7546771E-02  0.1104439E+00
         21   -1    0    0  502  501  0.00000000000E+00  0.00000000000E+00  0.45287268427E+03  0.45287268427E+03  0.00000000000E+00 0.  1.
         21   -1    0    0  501  502 -0.00000000000E+00 -0.00000000000E+00 -0.15454062754E+03  0.15454062754E+03  0.00000000000E+00 0.  1.
         25    1    1    2    0    0  0.12136415652E+03  0.17137333492E+01 -0.79371291749E+02  0.19146017164E+03  0.12500000000E+03 0.  0.
         25    1    1    2    0    0 -0.12136415652E+03 -0.17137333492E+01  0.37770334848E+03  0.41595314018E+03  0.12500000000E+03 0.  0.
</event>
<event>
 4    0  0.2253506E-002  0.2457100E+03  0.7546771E-02  0.1116046E+00
         21   -1    0    0  502  501  0.00000000000E+00  0.00000000000E+00  0.48828149066E+03  0.48828149066E+03  0.00000000000E+00 0.  1.
         21   -1    0    0  501  502 -0.00000000000E+00 -0.00000000000E+00 -0.12364469530E+03  0.12364469530E+03  0.00000000000E+00 0.  1.
         25    1    1    2    0    0 -0.15613885101E+03  0.14266588516E+03  0.18722408341E+03  0.30888631079E+03  0.12500000000E+03 0.  0.
         25    1    1    2    0    0  0.15613885101E+03 -0.14266588516E+03  0.17741271195E+03  0.30303987517E+03  0.12500000000E+03 0.  0.
</event>
<event>
 4    0  0.2253506E-002  0.1808176E+03  0.7546771E-02  0.1167014E+00
         21   -1    0    0  502  501  0.00000000000E+00  0.00000000000E+00  0.61408022479E+03  0.61408022479E+03  0.00000000000E+00 0. -1.
         21   -1    0    0  501  502 -0.00000000000E+00 -0.00000000000E+00 -0.53242233970E+02  0.53242233970E+02  0.00000000000E+00 0. -1.
         25    1    1    2    0    0  0.11431027044E+03 -0.62653325334E+02  0.26415047940E+03  0.31998867616E+03  0.12500000000E+03 0.  0.
         25    1    1    2    0    0 -0.11431027044E+03  0.62653325334E+02  0.29668751142E+03  0.34733378260E+03  0.12500000000E+03 0.  0.
</event>
<event>
 4    0  0.2253506E-002  0.2145370E+03  0.7546771E-02  0.1138023E+00
         21   -1    0    0  502  501  0.00000000000E+00  0.00000000000E+00  0.14841953407E+04  0.14841953407E+04  0.00000000000E+00 0. -1.
         21   -1    0    0  501  502 -0.00000000000E+00 -0.00000000000E+00 -0.31010812228E+02  0.31010812228E+02  0.00000000000E+00 0. -1.
         25    1    1    2    0    0  0.29731414716E+02 -0.15893696112E+03  0.49620946631E+03  0.53665049062E+03  0.12500000000E+03 0.  0.
         25    1    1    2    0    0 -0.29731414716E+02  0.15893696112E+03  0.95697506215E+03  0.97855566229E+03  0.12500000000E+03 0.  0.
</event>
<event>
 4    0  0.2253506E-002  0.1757648E+03  0.7546771E-02  0.1171966E+00
         21   -1    0    0  502  501  0.00000000000E+00  0.00000000000E+00  0.19529306038E+03  0.19529306038E+03  0.00000000000E+00 0.  1.
         21   -1    0    0  501  502 -0.00000000000E+00 -0.00000000000E+00 -0.15818922658E+03  0.15818922658E+03  0.00000000000E+00 0.  1.
         25    1    1    2    0    0 -0.16114760644E+02 -0.11319860426E+03 -0.28555393149E+02  0.17179644931E+03  0.12500000000E+03 0.  0.
         25    1    1    2    0    0  0.16114760644E+02  0.11319860426E+03  0.65659226949E+02  0.18168583764E+03  0.12500000000E+03 0.  0.
</event>
<event>
 4    0  0.2253506E-002  0.1941028E+03  0.7546771E-02  0.1154812E+00
         21   -1    0    0  502  501  0.00000000000E+00  0.00000000000E+00  0.20090511021E+03  0.20090511021E+03  0.00000000000E+00 0.  1.
         21   -1    0    0  501  502 -0.00000000000E+00 -0.00000000000E+00 -0.18753082610E+03  0.18753082610E+03  0.00000000000E+00 0.  1.
         25    1    1    2    0    0 -0.13963395855E+03  0.52492765409E+01 -0.43599056681E+02  0.19248655804E+03  0.12500000000E+03 0.  0.
         25    1    1    2    0    0  0.13963395855E+03 -0.52492765409E+01  0.56973340795E+02  0.19594937827E+03  0.12500000000E+03 0.  0.
</event>
<event>
 4    0  0.2253506E-002  0.2545436E+03  0.7546771E-02  0.1110467E+00
         21   -1    0    0  502  501  0.00000000000E+00  0.00000000000E+00  0.94967201931E+03  0.94967201931E+03  0.00000000000E+00 0. -1.
         21   -1    0    0  501  502 -0.00000000000E+00 -0.00000000000E+00 -0.68226142345E+02  0.68226142345E+02  0.00000000000E+00 0. -1.
         25    1    1    2    0    0 -0.17163236445E+03  0.59926316523E+02  0.18687355076E+03  0.28912896069E+03  0.12500000000E+03 0.  0.
         25    1    1    2    0    0  0.17163236445E+03 -0.59926316523E+02  0.69457232621E+03  0.72876920096E+03  0.12500000000E+03 0.  0.
</event>
<event>
 4    0  0.2253506E-002  0.1968696E+03  0.7546771E-02  0.1152407E+00
         21   -1    0    0  502  501  0.00000000000E+00  0.00000000000E+00  0.33324530602E+03  0.33324530602E+03  0.00000000000E+00 0. -1.
         21   -1    0    0  501  502 -0.00000000000E+00 -0.00000000000E+00 -0.11630358798E+03  0.11630358798E+03  0.00000000000E+00 0. -1.
         25    1    1    2    0    0 -0.82368138874E+02  0.41464211524E+02  0.24656435087E+03  0.29141511673E+03  0.12500000000E+03 0.  0.
         25    1    1    2    0    0  0.82368138874E+02 -0.41464211524E+02 -0.29622632835E+02  0.15813377727E+03  0.12500000000E+03 0.  0.
</event>
<event>
 4    0  0.2253506E-002  0.1869093E+03  0.7546771E-02  0.1161279E+00
         21   -1    0    0  502  501  0.00000000000E+00  0.00000000000E+00  0.85334604273E+02  0.85334604273E+02  0.00000000000E+00 0. -1.
         21   -1    0    0  501  502 -0.00000000000E+00 -0.00000000000E+00 -0.40938941737E+03  0.40938941737E+03  0.00000000000E+00 0. -1.
         25    1    1    2    0    0 -0.99800451415E+02  0.96029150326E+02 -0.14703365257E+03  0.23754078135E+03  0.12500000000E+03 0.  0.
         25    1    1    2    0    0  0.99800451415E+02 -0.96029150326E+02 -0.17702116052E+03  0.25718324029E+03  0.12500000000E+03 0.  0.
</event>
<event>
 4    0  0.2253506E-002  0.2285874E+03  0.7546771E-02  0.1127638E+00
         21   -1    0    0  502  501  0.00000000000E+00  0.00000000000E+00  0.18304178529E+03  0.18304178529E+03  0.00000000000E+00 0.  1.
         21   -1    0    0  501  502 -0.00000000000E+00 -0.00000000000E+00 -0.28546589470E+03  0.28546589470E+03  0.00000000000E+00 0.  1.
         25    1    1    2    0    0  0.11952237077E+03 -0.72893097743E+02 -0.18493892409E+03  0.26348891145E+03  0.12500000000E+03 0.  0.
         25    1    1    2    0    0 -0.11952237077E+03  0.72893097743E+02  0.82514814681E+02  0.20501876854E+03  0.12500000000E+03 0.  0.
</event>
<event>
 4    0  0.2253506E-002  0.3100495E+03  0.7546771E-02  0.1080322E+00
         21   -1    0    0  502  501  0.00000000000E+00  0.00000000000E+00  0.14331464472E+03  0.14331464472E+03  0.00000000000E+00 0.  1.
         21   -1    0    0  501  502 -0.00000000000E+00 -0.00000000000E+00 -0.67076687804E+03  0.67076687804E+03  0.00000000000E+00 0.  1.
         25    1    1    2    0    0 -0.17661107776E+03 -0.19028352069E+03 -0.11342958870E+03  0.30966201354E+03  0.12500000000E+03 0.  0.
         25    1    1    2    0    0  0.17661107776E+03  0.19028352069E+03 -0.41402264461E+03  0.50441950922E+03  0.12500000000E+03 0.  0.
</event>
<event>
 4    0  0.2253506E-002  0.1826221E+03  0.7546771E-02  0.1165289E+00
         21   -1    0    0  502  501  0.00000000000E+00  0.00000000000E+00  0.92775528086E+02  0.92775528086E+02  0.00000000000E+00 0. -1.
         21   -1    0    0  501  502 -0.00000000000E+00 -0.00000000000E+00 -0.35947884638E+03  0.35947884638E+03  0.00000000000E+00 0. -1.
         25    1    1    2    0    0  0.96376462274E+02  0.16644278848E+02 -0.21496833257E+02  0.16016419181E+03  0.12500000000E+03 0.  0.
         25    1    1    2    0    0 -0.96376462274E+02 -0.16644278848E+02 -0.24520648504E+03  0.29209018266E+03  0.12500000000E+03 0.  0.
</event>
<event>
 4    0  0.2253506E-002  0.2182929E+03  0.7546771E-02  0.1135162E+00
         21   -1    0    0  502  501  0.00000000000E+00  0.00000000000E+00  0.47811992089E+03  0.47811992089E+03  0.00000000000E+00 0. -1.
         21   -1    0    0  501  502 -0.00000000000E+00 -0.00000000000E+00 -0.99664959735E+02  0.99664959735E+02  0.00000000000E+00 0. -1.
         25    1    1    2    0    0  0.17352249168E+03 -0.50950525341E+00  0.24716362051E+03  0.32684120000E+03  0.12500000000E+03 0.  0.
         25    1    1    2    0    0 -0.17352249168E+03  0.50950525341E+00  0.13129134065E+03  0.25094368062E+03  0.12500000000E+03 0.  0.
</event>
<event>
 4    0  0.2253506E-002  0.1518370E+03  0.7546771E-02  0.1198234E+00
         21   -1    0    0  502  501  0.00000000000E+00  0.00000000000E+00  0.83788420403E+03  0.83788420403E+03  0.00000000000E+00 0.  1.
         21   -1    0    0  501  502 -0.00000000000E+00 -0.00000000000E+00 -0.27515099444E+02  0.27515099444E+02  0.00000000000E+00 0.  1.
         25    1    1    2    0    0 -0.12762078120E+02  0.77942122975E+02  0.30681102098E+03  0.34058163158E+03  0.12500000000E+03 0.  0.
         25    1    1    2    0    0  0.12762078120E+02 -0.77942122975E+02  0.50355808360E+03  0.52481767190E+03  0.12500000000E+03 0.  0.
</event>
<event>
 4    0  0.2253506E-002  0.2440247E+03  0.7546771E-02  0.1117140E+00
         21   -1    0    0  502  501  0.00000000000E+00  0.00000000000E+00  0.16277760157E+04  0.16277760157E+04  0.00000000000E+00 0. -1.
         21   -1    0    0  501  502 -0.00000000000E+00 -0.00000000000E+00 -0.36582456173E+02  0.36582456173E+02  0.00000000000E+00 0. -1.
         25    1    1    2    0    0 -0.13148103623E+03  0.13011253543E+03  0.11315777464E+04  0.11533905370E+04  0.12500000000E+03 0.  0.
         25    1    1    2    0    0  0.13148103623E+03 -0.13011253543E+03  0.45961581315E+03  0.51096793487E+03  0.12500000000E+03 0.  0.
</event>
<event>
 4    0  0.2253506E-002  0.2386674E+03  0.7546771E-02  0.1120684E+00
         21   -1    0    0  502  501  0.00000000000E+00  0.00000000000E+00  0.24123899559E+03  0.24123899559E+03  0.00000000000E+00 0.  1.
         21   -1    0    0  501  502 -0.00000000000E+00 -0.00000000000E+00 -0.23612316721E+03  0.23612316721E+03  0.00000000000E+00 0.  1.
         25    1    1    2    0    0 -0.58067206376E+02 -0.18244001412E+03  0.70979359359E+02  0.23941434515E+03  0.12500000000E+03 0.  0.
         25    1    1    2    0    0  0.58067206376E+02  0.18244001412E+03 -0.65863530978E+02  0.23794781764E+03  0.12500000000E+03 0.  0.
</event>
<event>
 4    0  0.2253506E-002  0.2269235E+03  0.7546771E-02  0.1128824E+00
         21   -1    0    0  502  501  0.00000000000E+00  0.00000000000E+00  0.21046359326E+03  0.21046359326E+03  0.00000000000E+00 0. -1.
         21   -1    0    0  501  502 -0.00000000000E+00 -0.00000000000E+00 -0.24467080081E+03  0.24467080081E+03  0.00000000000E+00 0. -1.
         25    1    1    2    0    0  0.11622388525E+03 -0.70642679192E+02  0.11506900491E+03  0.21763330516E+03  0.12500000000E+03 0.  0.
         25    1    1    2    0    0 -0.11622388525E+03  0.70642679192E+02 -0.14927621246E+03  0.23750108891E+03  0.12500000000E+03 0.  0.
</event>
<event>
 4    0  0.2253506E-002  0.2482117E+03  0.7546771E-02  0.1114440E+00
         21   -1    0    0  502  501  0.00000000000E+00  0.00000000000E+00  0.33456854213E+03  0.33456854213E+03  0.00000000000E+00 0.  1.
         21   -1    0    0  501  502 -0.00000000000E+00 -0.00000000000E+00 -0.18414482294E+03  0.18414482294E+03  0.00000000000E+00 0.  1.
         25    1    1    2    0    0 -0.21332912738E+03  0.91510242217E+01  0.95873626880E+02  0.26534846931E+03  0.12500000000E+03 0.  0.
         25    1    1    2    0    0  0.21332912738E+03 -0.91510242217E+01  0.54550092312E+02  0.25336489576E+03  0.12500000000E+03 0.  0.
</event>
<event>
 4    0  0.2253506E-002  0.2034942E+03  0.7546771E-02  0.1146824E+00
         21   -1    0    0  502  501  0.00000000000E+00  0.00000000000E+00  0.29212863993E+03  0.29212863993E+03  0.00000000000E+00 0. -1.
         21   -1    0    0  501  502 -0.00000000000E+00 -0.00000000000E+00 -0.14175228096E+03  0.14175228096E+03  0.00000000000E+00 0. -1.
         25    1    1    2    0    0 -0.10837645127E+03 -0.11470539139E+03  0.10685117940E+03  0.22791436230E+03  0.12500000000E+03 0.  0.
         25    1    1    2    0    0  0.10837645127E+03  0.11470539139E+03  0.43525179571E+02  0.20596655860E+03  0.12500000000E+03 0.  0.
</event>
<event>
 4    0  0.2253506E-002  0.2303369E+03  0.7546771E-02  0.1126403E+00
         21   -1    0    0  502  501  0.00000000000E+00  0.00000000000E+00  0.10128272208E+04  0.10128272208E+04  0.00000000000E+00 0.  1.
         21   -1    0    0  501  502 -0.00000000000E+00 -0.00000000000E+00 -0.52383170922E+02  0.52383170922E+02  0.00000000000E+00 0.  1.
         25    1    1    2    0    0  0.11876362857E+03  0.23191643478E+02  0.82927366684E+03  0.84732665856E+03  0.12500000000E+03 0.  0.
         25    1    1    2    0    0 -0.11876362857E+03 -0.23191643478E+02  0.13117038309E+03  0.21788373321E+03  0.12500000000E+03 0.  0.
</event>
<event>
 4    0  0.2253506E-002  0.6848347E+03  0.7546771E-02  0.9743524E-01
         21   -1    0    0  502  501  0.00000000000E+00  0.00000000000E+00  0.31786546993E+03  0.31786546993E+03  0.00000000000E+00 0. -1.
         21   -1    0    0  501  502 -0.00000000000E+00 -0.00000000000E+00 -0.14754626523E+04  0.14754626523E+04  0.00000000000E+00 0. -1.
         25    1    1    2    0    0 -0.62308384638E+03 -0.64920012788E+01 -0.24473602598E+03  0.68102595260E+03  0.12500000000E+03 0.  0.
         25    1    1    2    0    0  0.62308384638E+03  0.64920012788E+01 -0.91286115636E+03  0.11123021696E+04  0.12500000000E+03 0.  0.
</event>
<event>
 4    0  0.2253506E-002  0.3703481E+03  0.7546771E-02  0.1054560E+00
         21   -1    0    0  502  501  0.00000000000E+00  0.00000000000E+00  0.67747786761E+03  0.67747786761E+03  0.00000000000E+00 0. -1.
         21   -1    0    0  501  502 -0.00000000000E+00 -0.00000000000E+00 -0.20245342843E+03  0.20245342843E+03  0.00000000000E+00 0. -1.
         25    1    1    2    0    0  0.27491550060E+01  0.23533495567E+03  0.54303903581E+03  0.60490205292E+03  0.12500000000E+03 0.  0.
         25    1    1    2    0    0 -0.27491550060E+01 -0.23533495567E+03 -0.68014596628E+02  0.27502924311E+03  0.12500000000E+03 0.  0.
</event>
<event>
 4    0  0.2253506E-002  0.1781038E+03  0.7546771E-02  0.1169651E+00
         21   -1    0    0  502  501  0.00000000000E+00  0.00000000000E+00  0.25739121841E+02  0.25739121841E+02  0.00000000000E+00 0. -1.
         21   -1    0    0  501  502 -0.00000000000E+00 -0.00000000000E+00 -0.12324021681E+04  0.12324021681E+04  0.00000000000E+00 0. -1.
         25    1    1    2    0    0 -0.63858213702E+02 -0.25326232204E+02 -0.22659847384E+03  0.26775204544E+03  0.12500000000E+03 0.  0.
         25    1    1    2    0    0  0.63858213702E+02  0.25326232204E+02 -0.98006457245E+03  0.99038924452E+03  0.12500000000E+03 0.  0.
</event>
<event>
 4    0  0.2253506E-002  0.2455549E+03  0.7546771E-02  0.1116147E+00
         21   -1    0    0  502  501  0.00000000000E+00  0.00000000000E+00  0.32826834869E+03  0.32826834869E+03  0.00000000000E+00 0. -1.
         21   -1    0    0  501  502 -0.00000000000E+00 -0.00000000000E+00 -0.18368271432E+03  0.18368271432E+03  0.00000000000E+00 0. -1.
         25    1    1    2    0    0 -0.16003919081E+03  0.83760516386E+02 -0.42108903382E+02  0.22366610482E+03  0.12500000000E+03 0.  0.
         25    1    1    2    0    0  0.16003919081E+03 -0.83760516386E+02  0.18669453775E+03  0.28828495820E+03  0.12500000000E+03 0.  0.
</event>
<event>
 4    0  0.2253506E-002  0.2334383E+03  0.7546771E-02  0.1124243E+00
         21   -1    0    0  502  501  0.00000000000E+00  0.00000000000E+00  0.19405380698E+03  0.19405380698E+03  0.00000000000E+00 0. -1.
         21   -1    0    0  501  502 -0.00000000000E+00 -0.00000000000E+00 -0.28081620952E+03  0.28081620952E+03  0.00000000000E+00 0. -1.
         25    1    1    2    0    0  0.12493072132E+03  0.96273037322E+02  0.76932946066E+02  0.21545268862E+03  0.12500000000E+03 0.  0.
         25    1    1    2    0    0 -0.12493072132E+03 -0.96273037322E+02 -0.16369534861E+03  0.25941732787E+03  0.12500000000E+03 0.  0.
</event>
<event>
 4    0  0.2253506E-002  0.3945533E+03  0.7546771E-02  0.1045682E+00
         21   -1    0    0  502  501  0.00000000000E+00  0.00000000000E+00  0.22474734759E+03  0.22474734759E+03  0.00000000000E+00 0.  1.
         21   -1    0    0  501  502 -0.00000000000E+00 -0.00000000000E+00 -0.69265463089E+03  0.69265463089E+03  0.00000000000E+00 0.  1.
         25    1    1    2    0    0 -0.33351779944E+03 -0.15981143947E+03 -0.30046998358E+03  0.49262666368E+03  0.12500000000E+03 0.  0.
         25    1    1    2    0    0  0.33351779944E+03  0.15981143947E+03 -0.16743729971E+03  0.42477531480E+03  0.12500000000E+03 0.  0.
</event>
<event>
 4    0  0.2253506E-002  0.2358618E+03  0.7546771E-02  0.1122581E+00
         21   -1    0    0  502  501  0.00000000000E+00  0.00000000000E+00  0.78315858263E+03  0.78315858263E+03  0.00000000000E+00 0. -1.
         21   -1    0    0  501  502 -0.00000000000E+00 -0.00000000000E+00 -0.71033875190E+02  0.71033875190E+02  0.00000000000E+00 0. -1.
         25    1    1    2    0    0  0.17140172303E+03 -0.84542925218E+01  0.54210518854E+03  0.58219675468E+03  0.12500000000E+03 0.  0.
         25    1    1    2    0    0 -0.17140172303E+03  0.84542925218E+01  0.17001951891E+03  0.27199570314E+03  0.12500000000E+03 0.  0.
</event>
<event>
 4    0  0.2253506E-002  0.2013370E+03  0.7546771E-02  0.1148616E+00
         21   -1    0    0  502  501  0.00000000000E+00  0.00000000000E+00  0.58877822156E+02  0.58877822156E+02  0.00000000000E+00 0.  1.
         21   -1    0    0  501  502 -0.00000000000E+00 -0.00000000000E+00 -0.68848620901E+03  0.68848620901E+03  0.00000000000E+00 0.  1.
         25    1    1    2    0    0  0.74988916280E+02 -0.13692358297E+03 -0.27166805185E+03  0.33734246032E+03  0.12500000000E+03 0.  0.
         25    1    1    2    0    0 -0.74988916280E+02  0.13692358297E+03 -0.35794033501E+03  0.41002157085E+03  0.12500000000E+03 0.  0.
</event>
<event>
 4    0  0.2253506E-002  0.1725047E+03  0.7546771E-02  0.1175261E+00
         21   -1    0    0  502  501  0.00000000000E+00  0.00000000000E+00  0.32712183215E+03  0.32712183215E+03  0.00000000000E+00 0.  1.
         21   -1    0    0  501  502 -0.00000000000E+00 -0.00000000000E+00 -0.90968758524E+02  0.90968758524E+02  0.00000000000E+00 0.  1.
         25    1    1    2    0    0  0.97309761895E+02  0.12976008627E+02  0.19932569284E+03  0.25493783239E+03  0.12500000000E+03 0.  0.
         25    1    1    2    0    0 -0.97309761895E+02 -0.12976008627E+02  0.36827380790E+02  0.16315275828E+03  0.12500000000E+03 0.  0.
</event>
<event>
 4    0  0.2253506E-002  0.1799033E+03  0.7546771E-02  0.1167897E+00
         21   -1    0    0  502  501  0.00000000000E+00  0.00000000000E+00  0.97113589898E+03  0.97113589898E+03  0.00000000000E+00 0. -1.
         21   -1    0    0  501  502 -0.00000000000E+00 -0.00000000000E+00 -0.33327164361E+02  0.33327164361E+02  0.00000000000E+00 0. -1.
         25    1    1    2    0    0  0.17391009701E+01  0.12069507395E+03  0.33886265315E+03  0.38081914742E+03  0.12500000000E+03 0.  0.
         25    1    1    2    0    0 -0.17391009701E+01 -0.12069507395E+03  0.59894608148E+03  0.62364391592E+03  0.12500000000E+03 0.  0.
</event>
<event>
 4    0  0.2253506E-002  0.1712252E+03  0.7546771E-02  0.1176576E+00
         21   -1    0    0  502  501  0.00000000000E+00  0.00000000000E+00  0.33309684127E+02  0.33309684127E+02  0.00000000000E+00 0.  1.
         21   -1    0    0  501  502 -0.00000000000E+00 -0.00000000000E+00 -0.88016667560E+03  0.88016667560E+03  0.00000000000E+00 0.  1.
         25    1    1    2    0    0 -0.73160282554E+02 -0.82979905800E+02 -0.52517709615E+03  0.55106630638E+03  0.12500000000E+03 0.  0.
         25    1    1    2    0    0  0.73160282554E+02  0.82979905800E+02 -0.32167989533E+03  0.36241005335E+03  0.12500000000E+03 0.  0.
</event>
<event>
 4    0  0.2253506E-002  0.1810357E+03  0.7546771E-02  0.1166804E+00
         21   -1    0    0  502  501  0.00000000000E+00  0.00000000000E+00  0.14193051080E+03  0.14193051080E+03  0.00000000000E+00 0.  1.
         21   -1    0    0  501  502 -0.00000000000E+00 -0.00000000000E+00 -0.23091518013E+03  0.23091518013E+03  0.00000000000E+00 0.  1.
         25    1    1    2    0    0  0.98976964852E+02  0.41458193098E+02 -0.12178377636E+03  0.20486949390E+03  0.12500000000E+03 0.  0.
         25    1    1    2    0    0 -0.98976964852E+02 -0.41458193098E+02  0.32799107029E+02  0.16797619703E+03  0.12500000000E+03 0.  0.
</event>
<event>
 4    0  0.2253506E-002  0.2681085E+03  0.7546771E-02  0.1102367E+00
         21   -1    0    0  502  501  0.00000000000E+00  0.00000000000E+00  0.11936492681E+04  0.11936492681E+04  0.00000000000E+00 0. -1.
         21   -1    0    0  501  502 -0.00000000000E+00 -0.00000000000E+00 -0.60220511544E+02  0.60220511544E+02  0.00000000000E+00 0. -1.
         25    1    1    2    0    0 -0.14271141240E+03  0.11856944953E+03  0.91222205171E+03  0.93925466898E+03  0.12500000000E+03 0.  0.
         25    1    1    2    0    0  0.14271141240E+03 -0.11856944953E+03  0.22120670489E+03  0.31461511069E+03  0.12500000000E+03 0.  0.
</event>
<event>
 4    0  0.2253506E-002  0.2168457E+03  0.7546771E-02  0.1136257E+00
         21   -1    0    0  502  501  0.00000000000E+00  0.00000000000E+00  0.20488475769E+03  0.20488475769E+03  0.00000000000E+00 0.  1.
         21   -1    0    0  501  502 -0.00000000000E+00 -0.00000000000E+00 -0.22950492772E+03  0.22950492772E+03  0.00000000000E+00 0.  1.
         25    1    1    2    0    0 -0.93116052018E+01 -0.17185937035E+03  0.29885077165E+02  0.21480332168E+03  0.12500000000E+03 0.  0.
         25    1    1    2    0    0  0.93116052018E+01  0.17185937035E+03 -0.54505247190E+02  0.21958636373E+03  0.12500000000E+03 0.  0.
</event>
<event>
 4    0  0.2253506E-002  0.2316768E+03  0.7546771E-02  0.1125465E+00
         21   -1    0    0  502  501  0.00000000000E+00  0.00000000000E+00  0.18656147720E+03  0.18656147720E+03  0.00000000000E+00 0.  1.
         21   -1    0    0  501  502 -0.00000000000E+00 -0.00000000000E+00 -0.28770210021E+03  0.28770210021E+03  0.00000000000E+00 0.  1.
         25    1    1    2    0    0 -0.60894698522E+02 -0.10159246162E+03 -0.20920318835E+03  0.27096155924E+03  0.12500000000E+03 0.  0.
         25    1    1    2    0    0  0.60894698522E+02  0.10159246162E+03  0.10806256534E+03  0.20330201818E+03  0.12500000000E+03 0.  0.
</event>
<event>
 4    0  0.2253506E-002  0.3052019E+03  0.7546771E-02  0.1082669E+00
         21   -1    0    0  502  501  0.00000000000E+00  0.00000000000E+00  0.92006512536E+03  0.92006512536E+03  0.00000000000E+00 0. -1.
         21   -1    0    0  501  502 -0.00000000000E+00 -0.00000000000E+00 -0.10124089266E+03  0.10124089266E+03  0.00000000000E+00 0. -1.
         25    1    1    2    0    0 -0.19701338066E+03  0.19000032528E+03  0.49487166371E+03  0.57916954280E+03  0.12500000000E+03 0.  0.
         25    1    1    2    0    0  0.19701338066E+03 -0.19000032528E+03  0.32395256899E+03  0.44213647522E+03  0.12500000000E+03 0.  0.
</event>
<event>
 4    0  0.2253506E-002  0.2256657E+03  0.7546771E-02  0.1129728E+00
         21   -1    0    0  502  501  0.00000000000E+00  0.00000000000E+00  0.90739181262E+02  0.90739181262E+02  0.00000000000E+00 0. -1.
         21   -1    0    0  501  502 -0.00000000000E+00 -0.00000000000E+00 -0.56122384662E+03  0.56122384662E+03  0.00000000000E+00 0. -1.
         25    1    1    2    0    0 -0.52449032684E+02 -0.17747138912E+03 -0.18836734917E+03  0.29215450230E+03  0.12500000000E+03 0.  0.
         25    1    1    2    0    0  0.52449032684E+02  0.17747138912E+03 -0.28211731619E+03  0.35980852558E+03  0.12500000000E+03 0.  0.
</event>
<event>
 4    0  0.2253506E-002  0.2475159E+03  0.7546771E-02  0.1114885E+00
         21   -1    0    0  502  501  0.00000000000E+00  0.00000000000E+00  0.80587357896E+02  0.80587357896E+02  0.00000000000E+00 0. -1.
         21   -1    0    0  501  502 -0.00000000000E+00 -0.00000000000E+00 -0.76022025954E+03  0.76022025954E+03  0.00000000000E+00 0. -1.
         25    1    1    2    0    0 -0.10714699844E+03 -0.16854639960E+03 -0.21101326187E+03  0.31629094957E+03  0.12500000000E+03 0.  0.
         25    1    1    2    0    0  0.10714699844E+03  0.16854639960E+03 -0.46861963977E+03  0.52451666787E+03  0.12500000000E+03 0.  0.
</event>
<event>
 4    0  0.2253506E-002  0.3087898E+03  0.7546771E-02  0.1080927E+00
         21   -1    0    0  502  501  0.00000000000E+00  0.00000000000E+00  0.44333328691E+03  0.44333328691E+03  0.00000000000E+00 0. -1.
         21   -1    0    0  501  502 -0.00000000000E+00 -0.00000000000E+00 -0.21507775010E+03  0.21507775010E+03  0.00000000000E+00 0. -1.
         25    1    1    2    0    0 -0.24329216705E+03 -0.32062113346E+02  0.26302965335E+03  0.38082628087E+03  0.12500000000E+03 0.  0.
         25    1    1    2    0    0  0.24329216705E+03  0.32062113346E+02 -0.34774116537E+02  0.27758475614E+03  0.12500000000E+03 0.  0.
</event>
<event>
 4    0  0.2253506E-002  0.2053729E+03  0.7546771E-02  0.1145283E+00
         21   -1    0    0  502  501  0.00000000000E+00  0.00000000000E+00  0.52211286828E+02  0.52211286828E+02  0.00000000000E+00 0. -1.
         21   -1    0    0  501  502 -0.00000000000E+00 -0.00000000000E+00 -0.80783364265E+03  0.80783364265E+03  0.00000000000E+00 0. -1.
         25    1    1    2    0    0 -0.21779549052E+02 -0.37137039584E+02 -0.48738153061E+02  0.14090392482E+03  0.12500000000E+03 0.  0.
         25    1    1    2    0    0  0.21779549052E+02  0.37137039584E+02 -0.70688420276E+03  0.71914100466E+03  0.12500000000E+03 0.  0.
</event>
<event>
 4    0  0.2253506E-002  0.1819091E+03  0.7546771E-02  0.1165968E+00
         21   -1    0    0  502  501  0.00000000000E+00  0.00000000000E+00  0.66573901710E+03  0.66573901710E+03  0.00000000000E+00 0. -1.
         21   -1    0    0  501  502 -0.00000000000E+00 -0.00000000000E+00 -0.49705547402E+02  0.49705547402E+02  0.00000000000E+00 0. -1.
         25    1    1    2    0    0 -0.29828636626E+01  0.13090967901E+03  0.27285665999E+03  0.32744770336E+03  0.12500000000E+03 0.  0.
         25    1    1    2    0    0  0.29828636626E+01 -0.13090967901E+03  0.34317680971E+03  0.38799686115E+03  0.12500000000E+03 0.  0.
</event>
<event>
 4    0  0.2253506E-002  0.2481049E+03  0.7546771E-02  0.1114508E+00
         21   -1    0    0  502  501  0.00000000000E+00  0.00000000000E+00  0.94316107040E+03  0.94316107040E+03  0.00000000000E+00 0. -1.
         21   -1    0    0  501  502 -0.00000000000E+00 -0.00000000000E+00 -0.65265669586E+02  0.65265669586E+02  0.00000000000E+00 0. -1.
         25    1    1    2    0    0 -0.20497696578E+03  0.29032039986E+02  0.32629706138E+03  0.40614429469E+03  0.12500000000E+03 0.  0.
         25    1    1    2    0    0  0.20497696578E+03 -0.29032039986E+02  0.55159833944E+03  0.60228244530E+03  0.12500000000E+03 0.  0.
</event>
<event>
 4    0  0.2253506E-002  0.1838107E+03  0.7546771E-02  0.1164165E+00
         21   -1    0    0  502  501  0.00000000000E+00  0.00000000000E+00  0.77723693197E+02  0.77723693197E+02  0.00000000000E+00 0.  1.
         21   -1    0    0  501  502 -0.00000000000E+00 -0.00000000000E+00 -0.43469860426E+03  0.43469860426E+03  0.00000000000E+00 0.  1.
         25    1    1    2    0    0 -0.13404562687E+03 -0.10489878695E+02 -0.16577988646E+03  0.24735852198E+03  0.12500000000E+03 0.  0.
         25    1    1    2    0    0  0.13404562687E+03  0.10489878695E+02 -0.19119502460E+03  0.26506377548E+03  0.12500000000E+03 0.  0.
</event>
<event>
 4    0  0.2253506E-002  0.2110049E+03  0.7546771E-02  0.1140773E+00
         21   -1    0    0  502  501  0.00000000000E+00  0.00000000000E+00  0.12263647617E+03  0.12263647617E+03  0.00000000000E+00 0. -1.
         21   -1    0    0  501  502 -0.00000000000E+00 -0.00000000000E+00 -0.36304922749E+03  0.36304922749E+03  0.00000000000E+00 0. -1.
         25    1    1    2    0    0  0.20304837896E+02  0.14476177238E+03 -0.20338674451E+02  0.19340868352E+03  0.12500000000E+03 0.  0.
         25    1    1    2    0    0 -0.20304837896E+02 -0.14476177238E+03 -0.22007407687E+03  0.29227702013E+03  0.12500000000E+03 0.  0.
</event>
<event>
 4    0  0.2253506E-002  0.2244503E+03  0.7546771E-02  0.1130608E+00
         21   -1    0    0  502  501  0.00000000000E+00  0.00000000000E+00  0.57437860608E+03  0.57437860608E+03  0.00000000000E+00 0.  1.
         21   -1    0    0  501  502 -0.00000000000E+00 -0.00000000000E+00 -0.87708574405E+02  0.87708574405E+02  0.00000000000E+00 0.  1.
         25    1    1    2    0    0 -0.17933692486E+03 -0.50891604950E+02  0.24497782551E+03  0.33225114456E+03  0.12500000000E+03 0.  0.
         25    1    1    2    0    0  0.17933692486E+03  0.50891604950E+02  0.24169220617E+03  0.32983603593E+03  0.12500000000E+03 0.  0.
</event>
<event>
 4    0  0.2253506E-002  0.2397102E+03  0.7546771E-02  0.1119986E+00
         21   -1    0    0  502  501  0.00000000000E+00  0.00000000000E+00  0.79471872158E+02  0.79471872158E+02  0.00000000000E+00 0. -1.
         21   -1    0    0  501  502 -0.00000000000E+00 -0.00000000000E+00 -0.72303568951E+03  0.72303568951E+03  0.00000000000E+00 0. -1.
         25    1    1    2    0    0 -0.43968001412E+02 -0.12847403743E+03 -0.57782604238E+03  0.60658610164E+03  0.12500000000E+03 0.  0.
         25    1    1    2    0    0  0.43968001412E+02  0.12847403743E+03 -0.65737774970E+02  0.19592146003E+03  0.12500000000E+03 0.  0.
</event>
<event>
 4    0  0.2253506E-002  0.1977931E+03  0.7546771E-02  0.1151614E+00
         21   -1    0    0  502  501  0.00000000000E+00  0.00000000000E+00  0.11179066115E+04  0.11179066115E+04  0.00000000000E+00 0.  1.
         21   -1    0    0  501  502 -0.00000000000E+00 -0.00000000000E+00 -0.34995871859E+02  0.34995871859E+02  0.00000000000E+00 0.  1.
         25    1    1    2    0    0 -0.79833244938E+02 -0.95889600861E+02  0.80096851206E+03  0.82020955851E+03  0.12500000000E+03 0.  0.
         25    1    1    2    0    0  0.79833244938E+02  0.95889600861E+02  0.28194222753E+03  0.33269292481E+03  0.12500000000E+03 0.  0.
</event>
<event>
 4    0  0.2253506E-002  0.1918640E+03  0.7546771E-02  0.1156791E+00
         21   -1    0    0  502  501  0.00000000000E+00  0.00000000000E+00  0.11994498507E+04  0.11994498507E+04  0.00000000000E+00 0. -1.
         21   -1    0    0  501  502 -0.00000000000E+00 -0.00000000000E+00 -0.30690550941E+02  0.30690550941E+02  0.00000000000E+00 0. -1.
         25    1    1    2    0    0  0.80040452798E+02 -0.99698249622E+02  0.80741781118E+03  0.82697928442E+03  0.12500000000E+03 0.  0.
         25    1    1    2    0    0 -0.80040452798E+02  0.99698249622E+02  0.36134148855E+03  0.40316111718E+03  0.12500000000E+03 0.  0.
</event>
<event>
 4    0  0.2253506E-002  0.1920156E+03  0.7546771E-02  0.1156656E+00
         21   -1    0    0  502  501  0.00000000000E+00  0.00000000000E+00  0.10406139324E+03  0.10406139324E+03  0.00000000000E+00 0.  1.
         21   -1    0    0  501  502 -0.00000000000E+00 -0.00000000000E+00 -0.35431000468E+03  0.35431000468E+03  0.00000000000E+00 0.  1.
         25    1    1    2    0    0  0.11636585706E+02  0.16852022919E+02  0.47121900634E+02  0.13514760199E+03  0.12500000000E+03 0.  0.
         25    1    1    2    0    0 -0.11636585706E+02 -0.16852022919E+02 -0.29737051208E+03  0.32322379593E+03  0.12500000000E+03 0.  0.
</event>
<event>
 4    0  0.2253506E-002  0.2220782E+03  0.7546771E-02  0.1132343E+00
         21   -1    0    0  502  501  0.00000000000E+00  0.00000000000E+00  0.11065588899E+03  0.11065588899E+03  0.00000000000E+00 0.  1.
         21   -1    0    0  501  502 -0.00000000000E+00 -0.00000000000E+00 -0.44569439695E+03  0.44569439695E+03  0.00000000000E+00 0.  1.
         25    1    1    2    0    0 -0.18294607602E+03  0.12762383183E+02 -0.15769096677E+03  0.27225647129E+03  0.12500000000E+03 0.  0.
         25    1    1    2    0    0  0.18294607602E+03 -0.12762383183E+02 -0.17734754119E+03  0.28409381465E+03  0.12500000000E+03 0.  0.
</event>
<event>
 4    0  0.2253506E-002  0.1610125E+03  0.7546771E-02  0.1187558E+00
         21   -1    0    0  502  501  0.00000000000E+00  0.00000000000E+00  0.73554222392E+02  0.73554222392E+02  0.00000000000E+00 0. -1.
         21   -1    0    0  501  502 -0.00000000000E+00 -0.00000000000E+00 -0.35246144829E+03  0.35246144829E+03  0.00000000000E+00 0. -1.
         25    1    1    2    0    0 -0.80586727605E+02  0.60916697655E+02 -0.12656182208E+03  0.20456773824E+03  0.12500000000E+03 0.  0.
         25    1    1    2    0    0  0.80586727605E+02 -0.60916697655E+02 -0.15234540381E+03  0.22144793244E+03  0.12500000000E+03 0.  0.
</event>
<event>
 4    0  0.2253506E-002  0.2727904E+03  0.7546771E-02  0.1099693E+00
         21   -1    0    0  502  501  0.00000000000E+00  0.00000000000E+00  0.60554513432E+02  0.60554513432E+02  0.00000000000E+00 0.  1.
         21   -1    0    0  501  502 -0.00000000000E+00 -0.00000000000E+00 -0.12288860900E+04  0.12288860900E+04  0.00000000000E+00 0.  1.
         25    1    1    2    0    0 -0.18584923689E+03 -0.12993258760E+03 -0.38130738472E+03  0.46091510912E+03  0.12500000000E+03 0.  0.
         25    1    1    2    0    0  0.18584923689E+03  0.12993258760E+03 -0.78702419185E+03  0.82852549431E+03  0.12500000000E+03 0.  0.
</event>
<event>
 4    0  0.2253506E-002  0.2276876E+03  0.7546771E-02  0.1128278E+00
         21   -1    0    0  502  501  0.00000000000E+00  0.00000000000E+00  0.51720107878E+03  0.51720107878E+03  0.00000000000E+00 0. -1.
         21   -1    0    0  501  502 -0.00000000000E+00 -0.00000000000E+00 -0.10023495165E+03  0.10023495165E+03  0.00000000000E+00 0. -1.
         25    1    1    2    0    0 -0.29734961852E+02  0.11102808693E+03  0.28296723458E+01  0.16983642451E+03  0.12500000000E+03 0.  0.
         25    1    1    2    0    0  0.29734961852E+02 -0.11102808693E+03  0.41413645478E+03  0.44759960592E+03  0.12500000000E+03 0.  0.
</event>
<event>
 4    0  0.2253506E-002  0.2516853E+03  0.7546771E-02  0.1112244E+00
         21   -1    0    0  502  501  0.00000000000E+00  0.00000000000E+00  0.65272892051E+02  0.65272892051E+02  0.00000000000E+00 0. -1.
         21   -1    0    0  501  502 -0.00000000000E+00 -0.00000000000E+00 -0.97047172099E+03  0.97047172099E+03  0.00000000000E+00 0. -1.
         25    1    1    2    0    0 -0.75068479898E+02  0.20194936163E+03 -0.37836316481E+03  0.45299283198E+03  0.12500000000E+03 0.  0.
         25    1    1    2    0    0  0.75068479898E+02 -0.20194936163E+03 -0.52683566412E+03  0.58275178106E+03  0.12500000000E+03 0.  0.
</event>
<event>
 4    0  0.2253506E-002  0.2734503E+03  0.7546771E-02  0.1099321E+00
         21   -1    0    0  502  501  0.00000000000E+00  0.00000000000E+00  0.96245885934E+02  0.96245885934E+02  0.00000000000E+00 0. -1.
         21   -1    0    0  501  502 -0.00000000000E+00 -0.00000000000E+00 -0.77691712790E+03  0.77691712790E+03  0.00000000000E+00 0. -1.
         25    1    1    2    0    0  0.52667168500E+02  0.17419106902E+03 -0.82730199203E+02  0.23576608116E+03  0.12500000000E+03 0.  0.
         25    1    1    2    0    0 -0.52667168500E+02 -0.17419106902E+03 -0.59794104276E+03  0.63739693268E+03  0.12500000000E+03 0.  0.
</event>
<event>
 4    0  0.2253506E-002  0.2619488E+03  0.7546771E-02  0.1105978E+00
         21   -1    0    0  502  501  0.00000000000E+00  0.00000000000E+00  0.26233522094E+03  0.26233522094E+03  0.00000000000E+00 0. -1.
         21   -1    0    0  501  502 -0.00000000000E+00 -0.00000000000E+00 -0.26156302078E+03  0.26156302078E+03  0.00000000000E+00 0. -1.
         25    1    1    2    0    0  0.47344125398E+02  0.52169959620E+02 -0.21876938421E+03  0.26162609649E+03  0.12500000000E+03 0.  0.
         25    1    1    2    0    0 -0.47344125398E+02 -0.52169959620E+02  0.21954158437E+03  0.26227214523E+03  0.12500000000E+03 0.  0.
</event>
<event>
 4    0  0.2253506E-002  0.2047579E+03  0.7546771E-02  0.1145786E+00
         21   -1    0    0  502  501  0.00000000000E+00  0.00000000000E+00  0.95315007459E+03  0.95315007459E+03  0.00000000000E+00 0.  1.
         21   -1    0    0  501  502 -0.00000000000E+00 -0.00000000000E+00 -0.43986548994E+02  0.43986548994E+02  0.00000000000E+00 0.  1.
         25    1    1    2    0    0 -0.13510990906E+03 -0.65568752481E+02  0.60362637738E+03  0.63446335773E+03  0.12500000000E+03 0.  0.
         25    1    1    2    0    0  0.13510990906E+03  0.65568752481E+02  0.30553714821E+03  0.36267326585E+03  0.12500000000E+03 0.  0.
</event>
<event>
 4    0  0.2253506E-002  0.2045232E+03  0.7546771E-02  0.1145978E+00
         21   -1    0    0  502  501  0.00000000000E+00  0.00000000000E+00  0.28090318039E+03  0.28090318039E+03  0.00000000000E+00 0.  1.
         21   -1    0    0  501  502 -0.00000000000E+00 -0.00000000000E+00 -0.14891165658E+03  0.14891165658E+03  0.00000000000E+00 0.  1.
         25    1    1    2    0    0  0.46465929259E+02  0.86044184158E+02 -0.69558273980E+02  0.17328022879E+03  0.12500000000E+03 0.  0.
         25    1    1    2    0    0 -0.46465929259E+02 -0.86044184158E+02  0.20154979779E+03  0.25653460819E+03  0.12500000000E+03 0.  0.
</event>
<event>
 4    0  0.2253506E-002  0.2157319E+03  0.7546771E-02  0.1137106E+00
         21   -1    0    0  502  501  0.00000000000E+00  0.00000000000E+00  0.35969797961E+02  0.35969797961E+02  0.00000000000E+00 0.  1.
         21   -1    0    0  501  502 -0.00000000000E+00 -0.00000000000E+00 -0.12938706573E+04  0.12938706573E+04  0.00000000000E+00 0.  1.
         25    1    1    2    0    0 -0.31447740491E+02  0.17252536594E+03 -0.66809553708E+03  0.70194772522E+03  0.12500000000E+03 0.  0.
         25    1    1    2    0    0  0.31447740491E+02 -0.17252536594E+03 -0.58980532225E+03  0.62789273004E+03  0.12500000000E+03 0.  0.
</event>
<event>
 4    0  0.2253506E-002  0.3086978E+03  0.7546771E-02  0.1080972E+00
         21   -1    0    0  502  501  0.00000000000E+00  0.00000000000E+00  0.10819179053E+04  0.10819179053E+04  0.00000000000E+00 0.  1.
         21   -1    0    0  501  502 -0.00000000000E+00 -0.00000000000E+00 -0.88079064548E+02  0.88079064548E+02  0.00000000000E+00 0.  1.
         25    1    1    2    0    0  0.30780006098E+02 -0.11341177149E+03  0.98324940076E+03  0.99810521629E+03  0.12500000000E+03 0.  0.
         25    1    1    2    0    0 -0.30780006098E+02  0.11341177149E+03  0.10589439951E+02  0.17189175352E+03  0.12500000000E+03 0.  0.
</event>
<event>
 4    0  0.2253506E-002  0.2005697E+03  0.7546771E-02  0.1149259E+00
         21   -1    0    0  502  501  0.00000000000E+00  0.00000000000E+00  0.58458261697E+02  0.58458261697E+02  0.00000000000E+00 0.  1.
         21   -1    0    0  501  502 -0.00000000000E+00 -0.00000000000E+00 -0.68815238593E+03  0.68815238593E+03  0.00000000000E+00 0.  1.
         25    1    1    2    0    0  0.71475749961E+02 -0.57719710700E+02 -0.55147053351E+03  0.57287441657E+03  0.12500000000E+03 0.  0.
         25    1    1    2    0    0 -0.71475749961E+02  0.57719710700E+02 -0.78223590728E+02  0.17373623106E+03  0.12500000000E+03 0.  0.
</event>
<event>
 4    0  0.2253506E-002  0.1718354E+03  0.7546771E-02  0.1175947E+00
         21   -1    0    0  502  501  0.00000000000E+00  0.00000000000E+00  0.20779896413E+03  0.20779896413E+03  0.00000000000E+00 0. -1.
         21   -1    0    0  501  502 -0.00000000000E+00 -0.00000000000E+00 -0.14209604319E+03  0.14209604319E+03  0.00000000000E+00 0. -1.
         25    1    1    2    0    0  0.93437660344E+02 -0.12666946122E+02 -0.39221603623E+02  0.16141369857E+03  0.12500000000E+03 0.  0.
         25    1    1    2    0    0 -0.93437660344E+02  0.12666946122E+02  0.10492452457E+03  0.18848130876E+03  0.12500000000E+03 0.  0.
</event>
<event>
 4    0  0.2253506E-002  0.2642985E+03  0.7546771E-02  0.1104588E+00
         21   -1    0    0  502  501  0.00000000000E+00  0.00000000000E+00  0.86611256227E+03  0.86611256227E+03  0.00000000000E+00 0. -1.
         21   -1    0    0  501  502 -0.00000000000E+00 -0.00000000000E+00 -0.80651993490E+02  0.80651993490E+02  0.00000000000E+00 0. -1.
         25    1    1    2    0    0  0.11189473194E+02 -0.51606399508E+01 -0.23777419906E+02  0.12783662313E+03  0.12500000000E+03 0.  0.
         25    1    1    2    0    0 -0.11189473194E+02  0.51606399508E+01  0.80923798868E+03  0.81892793263E+03  0.12500000000E+03 0.  0.
</event>
<event>
 4    0  0.2253506E-002  0.1819784E+03  0.7546771E-02  0.1165902E+00
         21   -1    0    0  502  501  0.00000000000E+00  0.00000000000E+00  0.53371606998E+02  0.53371606998E+02  0.00000000000E+00 0. -1.
         21   -1    0    0  501  502 -0.00000000000E+00 -0.00000000000E+00 -0.62048241015E+03  0.62048241015E+03  0.00000000000E+00 0. -1.
         25    1    1    2    0    0 -0.10845880309E+03 -0.25995958178E+02 -0.15195736632E+03  0.22617502733E+03  0.12500000000E+03 0.  0.
         25    1    1    2    0    0  0.10845880309E+03  0.25995958178E+02 -0.41515343684E+03  0.44767898982E+03  0.12500000000E+03 0.  0.
</event>
<event>
 4    0  0.2253506E-002  0.1880836E+03  0.7546771E-02  0.1160201E+00
         21   -1    0    0  502  501  0.00000000000E+00  0.00000000000E+00  0.51220010152E+03  0.51220010152E+03  0.00000000000E+00 0. -1.
         21   -1    0    0  501  502 -0.00000000000E+00 -0.00000000000E+00 -0.69065680073E+02  0.69065680073E+02  0.00000000000E+00 0. -1.
         25    1    1    2    0    0  0.18711619946E+02  0.49999785875E+02  0.20684957578E+02  0.13748807504E+03  0.12500000000E+03 0.  0.
         25    1    1    2    0    0 -0.18711619946E+02 -0.49999785875E+02  0.42244946387E+03  0.44377770655E+03  0.12500000000E+03 0.  0.
</event>
<event>
 4    0  0.2253506E-002  0.3298319E+03  0.7546771E-02  0.1071211E+00
         21   -1    0    0  502  501  0.00000000000E+00  0.00000000000E+00  0.17143279468E+03  0.17143279468E+03  0.00000000000E+00 0. -1.
         21   -1    0    0  501  502 -0.00000000000E+00 -0.00000000000E+00 -0.63458748448E+03  0.63458748448E+03  0.00000000000E+00 0. -1.
         25    1    1    2    0    0 -0.17989227751E+03 -0.18292751878E+03 -0.43361191125E+03  0.51910307090E+03  0.12500000000E+03 0.  0.
         25    1    1    2    0    0  0.17989227751E+03  0.18292751878E+03 -0.29542778537E+02  0.28691720826E+03  0.12500000000E+03 0.  0.
</event>
<event>
 4    0  0.2253506E-002  0.2182447E+03  0.7546771E-02  0.1135198E+00
         21   -1    0    0  502  501  0.00000000000E+00  0.00000000000E+00  0.17188924900E+03  0.17188924900E+03  0.00000000000E+00 0. -1.
         21   -1    0    0  501  502 -0.00000000000E+00 -0.00000000000E+00 -0.27710139221E+03  0.27710139221E+03  0.00000000000E+00 0. -1.
         25    1    1    2    0    0  0.14449813556E+02  0.14113890041E+02 -0.23545468430E+03  0.26734230373E+03  0.12500000000E+03 0.  0.
         25    1    1    2    0    0 -0.14449813556E+02 -0.14113890041E+02  0.13024254109E+03  0.18164833749E+03  0.12500000000E+03 0.  0.
</event>
<event>
 4    0  0.2253506E-002  0.1664142E+03  0.7546771E-02  0.1181640E+00
         21   -1    0    0  502  501  0.00000000000E+00  0.00000000000E+00  0.25470426011E+03  0.25470426011E+03  0.00000000000E+00 0. -1.
         21   -1    0    0  501  502 -0.00000000000E+00 -0.00000000000E+00 -0.10872874704E+03  0.10872874704E+03  0.00000000000E+00 0. -1.
         25    1    1    2    0    0 -0.45185387376E+02 -0.97601476164E+02  0.48548785142E+02  0.17190041280E+03  0.12500000000E+03 0.  0.
         25    1    1    2    0    0  0.45185387376E+02  0.97601476164E+02  0.97426727933E+02  0.19153259435E+03  0.12500000000E+03 0.  0.
</event>
<event>
 4    0  0.2253506E-002  0.2940775E+03  0.7546771E-02  0.1088239E+00
         21   -1    0    0  502  501  0.00000000000E+00  0.00000000000E+00  0.56646622719E+03  0.56646622719E+03  0.00000000000E+00 0.  1.
         21   -1    0    0  501  502 -0.00000000000E+00 -0.00000000000E+00 -0.15266858975E+03  0.15266858975E+03  0.00000000000E+00 0.  1.
         25    1    1    2    0    0  0.11957182707E+03  0.20900131411E+03  0.68147725037E+02  0.27972858909E+03  0.12500000000E+03 0.  0.
         25    1    1    2    0    0 -0.11957182707E+03 -0.20900131411E+03  0.34564991240E+03  0.43940622784E+03  0.12500000000E+03 0.  0.
</event>
<event>
 4    0  0.2253506E-002  0.1850803E+03  0.7546771E-02  0.1162975E+00
         21   -1    0    0  502  501  0.00000000000E+00  0.00000000000E+00  0.96455074939E+02  0.96455074939E+02  0.00000000000E+00 0.  1.
         21   -1    0    0  501  502 -0.00000000000E+00 -0.00000000000E+00 -0.35513659343E+03  0.35513659343E+03  0.00000000000E+00 0.  1.
         25    1    1    2    0    0 -0.86382570327E+02 -0.77177512246E+02 -0.21741183224E+03  0.27624485814E+03  0.12500000000E+03 0.  0.
         25    1    1    2    0    0  0.86382570327E+02  0.77177512246E+02 -0.41269686250E+02  0.17534681022E+03  0.12500000000E+03 0.  0.
</event>
<event>
 4    0  0.2253506E-002  0.3473437E+03  0.7546771E-02  0.1063711E+00
         21   -1    0    0  502  501  0.00000000000E+00  0.00000000000E+00  0.71217436233E+03  0.71217436233E+03  0.00000000000E+00 0. -1.
         21   -1    0    0  501  502 -0.00000000000E+00 -0.00000000000E+00 -0.16940743150E+03  0.16940743150E+03  0.00000000000E+00 0. -1.
         25    1    1    2    0    0 -0.17750975741E+03 -0.24896069983E+03  0.13510857282E+03  0.35688999773E+03  0.12500000000E+03 0.  0.
         25    1    1    2    0    0  0.17750975741E+03  0.24896069983E+03  0.40765835801E+03  0.52469179609E+03  0.12500000000E+03 0.  0.
</event>
