<event>
 5    0  0.5713700E-005  0.4127389E+03  0.7546771E-02  0.1039456E+00
         21   -1    0    0  502  501  0.00000000000E+00  0.00000000000E+00  0.19894063073E+03  0.19894063073E+03  0.00000000000E+00 0.  1.
         21   -1    0    0  501  502 -0.00000000000E+00 -0.00000000000E+00 -0.85630272679E+03  0.85630272679E+03  0.00000000000E+00 0.  1.
         25    1    1    2    0    0  0.87066704165E+02  0.12099764947E+03 -0.21817304002E+03  0.29231065246E+03  0.12500000000E+03 0.  0.
         25    1    1    2    0    0 -0.14620013259E+02  0.39914274702E+01  0.11882061043E+03  0.17312716062E+03  0.12500000000E+03 0.  0.
         25    1    1    2    0    0 -0.72446690906E+02 -0.12498907694E+03 -0.55800966647E+03  0.58980554444E+03  0.12500000000E+03 0.  0.
</event>
<event>
 5    0  0.5713700E-005  0.2393696E+03  0.7546771E-02  0.1120213E+00
         21   -1    0    0  502  501  0.00000000000E+00  0.00000000000E+00  0.27823359975E+03  0.27823359975E+03  0.00000000000E+00 0. -1.
         21   -1    0    0  501  502 -0.00000000000E+00 -0.00000000000E+00 -0.20593416675E+03  0.20593416675E+03  0.00000000000E+00 0. -1.
         25    1    1    2    0    0  0.70310838367E+02  0.35215428889E+01  0.24435269603E+02  0.14552696539E+03  0.12500000000E+03 0.  0.
         25    1    1    2    0    0 -0.25565659210E+02  0.18278788079E+02  0.12831946709E+03  0.18187523927E+03  0.12500000000E+03 0.  0.
         25    1    1    2    0    0 -0.44745179156E+02 -0.21800330967E+02 -0.80455303687E+02  0.15676556184E+03  0.12500000000E+03 0.  0.
</event>
<event>
 5    0  0.5713700E-005  0.2283216E+03  0.7546771E-02  0.1127827E+00
         21   -1    0    0  502  501  0.00000000000E+00  0.00000000000E+00  0.63428397979E+02  0.63428397979E+02  0.00000000000E+00 0. -1.
         21   -1    0    0  501  502 -0.00000000000E+00 -0.00000000000E+00 -0.82188315777E+03  0.82188315777E+03  0.00000000000E+00 0. -1.
         25    1    1    2    0    0  0.37547701550E+02 -0.97622382846E+01 -0.20074513350E+03  0.23964294234E+03  0.12500000000E+03 0.  0.
         25    1    1    2    0    0 -0.66155077367E+02  0.79215686475E+02 -0.39611230083E+03  0.42799716601E+03  0.12500000000E+03 0.  0.
         25    1    1    2    0    0  0.28607375818E+02 -0.69453448190E+02 -0.16159732546E+03  0.21767144740E+03  0.12500000000E+03 0.  0.
</event>
<event>
 5    0  0.5713700E-005  0.2209949E+03  0.7546771E-02  0.1133143E+00
         21   -1    0    0  502  501  0.00000000000E+00  0.00000000000E+00  0.16246304669E+03  0.16246304669E+03  0.00000000000E+00 0.  1.
         21   -1    0    0  501  502 -0.00000000000E+00 -0.00000000000E+00 -0.30061456445E+03  0.30061456445E+03  0.00000000000E+00 0.  1.
         25    1    1    2    0    0 -0.27565440828E+02  0.28940766209E+02 -0.79793798871E+02  0.15358864481E+03  0.12500000000E+03 0.  0.
         25    1    1    2    0    0  0.31521486217E+01 -0.37708182844E+02  0.52161308794E+02  0.14063301614E+03  0.12500000000E+03 0.  0.
         25    1    1    2    0    0  0.24413292206E+02  0.87674166354E+01 -0.11051902769E+03  0.16885595018E+03  0.12500000000E+03 0.  0.
</event>
<event>
 5    0  0.5713700E-005  0.3027062E+03  0.7546771E-02  0.1083896E+00
         21   -1    0    0  502  501  0.00000000000E+00  0.00000000000E+00  0.83883752113E+03  0.83883752113E+03  0.00000000000E+00 0. -1.
         21   -1    0    0  501  502 -0.00000000000E+00 -0.00000000000E+00 -0.10923576408E+03  0.10923576408E+03  0.00000000000E+00 0. -1.
         25    1    1    2    0    0 -0.13602390998E+03  0.88460451633E+02  0.26099601279E+03  0.33177051449E+03  0.12500000000E+03 0.  0.
         25    1    1    2    0    0 -0.48757124342E+02 -0.71010163826E+02  0.89904688425E+02  0.17643002449E+03  0.12500000000E+03 0.  0.
         25    1    1    2    0    0  0.18478103433E+03 -0.17450287807E+02  0.37870105583E+03  0.43987274623E+03  0.12500000000E+03 0.  0.
</event>
<event>
 5    0  0.5713700E-005  0.2134178E+03  0.7546771E-02  0.1138888E+00
         21   -1    0    0  502  501  0.00000000000E+00  0.00000000000E+00  0.52147706792E+03  0.52147706792E+03  0.00000000000E+00 0. -1.
         21   -1    0    0  501  502 -0.00000000000E+00 -0.00000000000E+00 -0.87342548553E+02  0.87342548553E+02  0.00000000000E+00 0. -1.
         25    1    1    2    0    0 -0.73960717487E+02 -0.41237713121E+02  0.18555754714E+03  0.23922236521E+03  0.12500000000E+03 0.  0.
         25    1    1    2    0    0  0.12355972110E+02 -0.21221413210E+01  0.13705417416E+03  0.18591939163E+03  0.12500000000E+03 0.  0.
         25    1    1    2    0    0  0.61604745377E+02  0.43359854442E+02  0.11152279807E+03  0.18367785963E+03  0.12500000000E+03 0.  0.
</event>
<event>
 5    0  0.5713700E-005  0.3012072E+03  0.7546771E-02  0.1084639E+00
         21   -1    0    0  502  501  0.00000000000E+00  0.00000000000E+00  0.96073271007E+03  0.96073271007E+03  0.00000000000E+00 0.  1.
         21   -1    0    0  501  502 -0.00000000000E+00 -0.00000000000E+00 -0.94433947154E+02  0.94433947154E+02  0.00000000000E+00 0.  1.
         25    1    1    2    0    0  0.38736545347E+02 -0.58701111412E+02  0.67583210865E+03  0.69088376701E+03  0.12500000000E+03 0.  0.
         25    1    1    2    0    0  0.21941561768E+02 -0.45245002150E+02  0.10519009253E+03  0.17093419178E+03  0.12500000000E+03 0.  0.
         25    1    1    2    0    0 -0.60678107115E+02  0.10394611356E+03  0.85276561740E+02  0.19334869844E+03  0.12500000000E+03 0.  0.
</event>
<event>
 5    0  0.7024337E-005  0.2916715E+03  0.7546771E-02  0.1089480E+00
         21   -1    0    0  502  501  0.00000000000E+00  0.00000000000E+00  0.21084715213E+03  0.21084715213E+03  0.00000000000E+00 0. -1.
         21   -1    0    0  501  502 -0.00000000000E+00 -0.00000000000E+00 -0.40347833260E+03  0.40347833260E+03  0.00000000000E+00 0.  1.
         25    1    1    2    0    0 -0.10826469338E+03  0.26729988529E+02  0.25662247802E+02  0.16946765793E+03  0.12500000000E+03 0.  0.
         25    1    1    2    0    0  0.12163657437E+03  0.10109986306E+03 -0.15652106021E+03  0.25522633255E+03  0.12500000000E+03 0.  0.
         25    1    1    2    0    0 -0.13371880984E+02 -0.12782985159E+03 -0.61772368063E+02  0.18963149425E+03  0.12500000000E+03 0.  0.
</event>
<event>
 5    0  0.5713700E-005  0.3028628E+03  0.7546771E-02  0.1083818E+00
         21   -1    0    0  502  501  0.00000000000E+00  0.00000000000E+00  0.10256469285E+04  0.10256469285E+04  0.00000000000E+00 0. -1.
         21   -1    0    0  501  502 -0.00000000000E+00 -0.00000000000E+00 -0.89432208469E+02  0.89432208469E+02  0.00000000000E+00 0. -1.
         25    1    1    2    0    0 -0.94402383721E+02  0.72680957535E+02  0.56620607186E+03  0.59195324769E+03  0.12500000000E+03 0.  0.
         25    1    1    2    0    0 -0.64087885255E+02  0.20729799858E+02  0.18879512271E+03  0.23623204693E+03  0.12500000000E+03 0.  0.
         25    1    1    2    0    0  0.15849026898E+03 -0.93410757394E+02  0.18121352541E+03  0.28689384230E+03  0.12500000000E+03 0.  0.
</event>
<event>
 5    0  0.5713700E-005  0.2900436E+03  0.7546771E-02  0.1090326E+00
         21   -1    0    0  502  501  0.00000000000E+00  0.00000000000E+00  0.47917557028E+03  0.47917557028E+03  0.00000000000E+00 0.  1.
         21   -1    0    0  501  502 -0.00000000000E+00 -0.00000000000E+00 -0.17556259773E+03  0.17556259773E+03  0.00000000000E+00 0.  1.
         25    1    1    2    0    0 -0.36861652356E+02 -0.79445477926E+02  0.22964679673E+03  0.27574085048E+03  0.12500000000E+03 0.  0.
         25    1    1    2    0    0 -0.99765212213E+02  0.23585121911E+01 -0.12779692284E+02  0.16045865724E+03  0.12500000000E+03 0.  0.
         25    1    1    2    0    0  0.13662686457E+03  0.77086965735E+02  0.86745868115E+02  0.21853866029E+03  0.12500000000E+03 0.  0.
</event>
<event>
 5    0  0.5713700E-005  0.5277318E+03  0.7546771E-02  0.1006784E+00
         21   -1    0    0  502  501  0.00000000000E+00  0.00000000000E+00  0.20255748609E+03  0.20255748609E+03  0.00000000000E+00 0.  1.
         21   -1    0    0  501  502 -0.00000000000E+00 -0.00000000000E+00 -0.13749222842E+04  0.13749222842E+04  0.00000000000E+00 0.  1.
         25    1    1    2    0    0 -0.36593196921E+02  0.32805470899E+03 -0.67092086484E+03  0.75810207824E+03  0.12500000000E+03 0.  0.
         25    1    1    2    0    0  0.28250320536E+02 -0.28994284982E+03 -0.58406359202E+03  0.66454511983E+03  0.12500000000E+03 0.  0.
         25    1    1    2    0    0  0.83428763849E+01 -0.38111859167E+02  0.82619658777E+02  0.15483257219E+03  0.12500000000E+03 0.  0.
</event>
<event>
 5    0  0.5713700E-005  0.2824741E+03  0.7546771E-02  0.1094345E+00
         21   -1    0    0  502  501  0.00000000000E+00  0.00000000000E+00  0.21798555207E+03  0.21798555207E+03  0.00000000000E+00 0.  1.
         21   -1    0    0  501  502 -0.00000000000E+00 -0.00000000000E+00 -0.36604073759E+03  0.36604073759E+03  0.00000000000E+00 0.  1.
         25    1    1    2    0    0 -0.45371072409E+02  0.11066060355E+03  0.48430681654E+02  0.17965198110E+03  0.12500000000E+03 0.  0.
         25    1    1    2    0    0  0.63321439516E+02 -0.20083905376E+02  0.14538964936E+02  0.14230020892E+03  0.12500000000E+03 0.  0.
         25    1    1    2    0    0 -0.17950367106E+02 -0.90576698171E+02 -0.21102483211E+03  0.26207409963E+03  0.12500000000E+03 0.  0.
</event>
<event>
 5    0  0.5713700E-005  0.2871797E+03  0.7546771E-02  0.1091831E+00
         21   -1    0    0  502  501  0.00000000000E+00  0.00000000000E+00  0.94793157236E+03  0.94793157236E+03  0.00000000000E+00 0. -1.
         21   -1    0    0  501  502 -0.00000000000E+00 -0.00000000000E+00 -0.87002276389E+02  0.87002276389E+02  0.00000000000E+00 0. -1.
         25    1    1    2    0    0 -0.47528699001E+02  0.10706357352E+02  0.24729601727E+03  0.28134307078E+03  0.12500000000E+03 0.  0.
         25    1    1    2    0    0  0.16383232946E+03  0.29405869955E+02  0.14629736238E+03  0.25442809515E+03  0.12500000000E+03 0.  0.
         25    1    1    2    0    0 -0.11630363046E+03 -0.40112227306E+02  0.46733591632E+03  0.49916268282E+03  0.12500000000E+03 0.  0.
</event>
<event>
 5    0  0.5713700E-005  0.3053086E+03  0.7546771E-02  0.1082617E+00
         21   -1    0    0  502  501  0.00000000000E+00  0.00000000000E+00  0.18602558490E+04  0.18602558490E+04  0.00000000000E+00 0.  1.
         21   -1    0    0  501  502 -0.00000000000E+00 -0.00000000000E+00 -0.50107802464E+02  0.50107802464E+02  0.00000000000E+00 0.  1.
         25    1    1    2    0    0 -0.11261221607E+03  0.88502027086E+02  0.39798598812E+03  0.44105778164E+03  0.12500000000E+03 0.  0.
         25    1    1    2    0    0  0.71818856923E+02 -0.15656117605E+02  0.19558820820E+03  0.24348061405E+03  0.12500000000E+03 0.  0.
         25    1    1    2    0    0  0.40793359147E+02 -0.72845909481E+02  0.12165738502E+04  0.12258252558E+04  0.12500000000E+03 0.  0.
</event>
<event>
 5    0  0.5713700E-005  0.2625516E+03  0.7546771E-02  0.1105620E+00
         21   -1    0    0  502  501  0.00000000000E+00  0.00000000000E+00  0.10603997292E+03  0.10603997292E+03  0.00000000000E+00 0. -1.
         21   -1    0    0  501  502 -0.00000000000E+00 -0.00000000000E+00 -0.65006942850E+03  0.65006942850E+03  0.00000000000E+00 0. -1.
         25    1    1    2    0    0 -0.10396428855E+03  0.93742818013E+01 -0.19883356602E+03  0.25701408022E+03  0.12500000000E+03 0.  0.
         25    1    1    2    0    0  0.75753684140E+02  0.83113034628E+02 -0.28316486367E+03  0.32932315012E+03  0.12500000000E+03 0.  0.
         25    1    1    2    0    0  0.28210604411E+02 -0.92487316429E+02 -0.62031025892E+02  0.16977217108E+03  0.12500000000E+03 0.  0.
</event>
<event>
 5    0  0.5713700E-005  0.3143166E+03  0.7546771E-02  0.1078295E+00
         21   -1    0    0  502  501  0.00000000000E+00  0.00000000000E+00  0.12587595388E+03  0.12587595388E+03  0.00000000000E+00 0. -1.
         21   -1    0    0  501  502 -0.00000000000E+00 -0.00000000000E+00 -0.78485924317E+03  0.78485924317E+03  0.00000000000E+00 0. -1.
         25    1    1    2    0    0  0.23789587504E+02  0.13340733553E+03 -0.43783453004E+03  0.47506582422E+03  0.12500000000E+03 0.  0.
         25    1    1    2    0    0 -0.33487947753E+02  0.19751541565E+01  0.21119197566E+02  0.13113490910E+03  0.12500000000E+03 0.  0.
         25    1    1    2    0    0  0.96983602492E+01 -0.13538248968E+03 -0.24226795681E+03  0.30453446373E+03  0.12500000000E+03 0.  0.
</event>
<event>
 5    0  0.5713700E-005  0.2897688E+03  0.7546771E-02  0.1090470E+00
         21   -1    0    0  502  501  0.00000000000E+00  0.00000000000E+00  0.26853910572E+03  0.26853910572E+03  0.00000000000E+00 0. -1.
         21   -1    0    0  501  502 -0.00000000000E+00 -0.00000000000E+00 -0.31267690610E+03  0.31267690610E+03  0.00000000000E+00 0. -1.
         25    1    1    2    0    0  0.19696959255E+02 -0.11123087138E+03 -0.13519805193E+03  0.21601803211E+03  0.12500000000E+03 0.  0.
         25    1    1    2    0    0 -0.66357679572E+01  0.10922886696E+03  0.15229904035E+03  0.22537740899E+03  0.12500000000E+03 0.  0.
         25    1    1    2    0    0 -0.13061191298E+02  0.20020044245E+01 -0.61238788804E+02  0.13982057071E+03  0.12500000000E+03 0.  0.
</event>
<event>
 5    0  0.5713700E-005  0.3357853E+03  0.7546771E-02  0.1068605E+00
         21   -1    0    0  502  501  0.00000000000E+00  0.00000000000E+00  0.46398132528E+02  0.46398132528E+02  0.00000000000E+00 0. -1.
         21   -1    0    0  501  502 -0.00000000000E+00 -0.00000000000E+00 -0.24300932940E+04  0.24300932940E+04  0.00000000000E+00 0. -1.
         25    1    1    2    0    0  0.68070912448E+02 -0.10222900631E+02 -0.65432609938E+03  0.66970575714E+03  0.12500000000E+03 0.  0.
         25    1    1    2    0    0  0.69631701474E+02 -0.19638110036E+03 -0.89077317412E+03  0.92331790742E+03  0.12500000000E+03 0.  0.
         25    1    1    2    0    0 -0.13770261392E+03  0.20660400099E+03 -0.83859588794E+03  0.88346776194E+03  0.12500000000E+03 0.  0.
</event>
<event>
 5    0  0.5713700E-005  0.4565075E+03  0.7546771E-02  0.1025799E+00
         21   -1    0    0  502  501  0.00000000000E+00  0.00000000000E+00  0.16694646108E+03  0.16694646108E+03  0.00000000000E+00 0. -1.
         21   -1    0    0  501  502 -0.00000000000E+00 -0.00000000000E+00 -0.12482987324E+04  0.12482987324E+04  0.00000000000E+00 0. -1.
         25    1    1    2    0    0 -0.16885005232E+03  0.92906361447E+01 -0.23589505038E+03  0.31601919385E+03  0.12500000000E+03 0.  0.
         25    1    1    2    0    0 -0.45726339780E+02  0.24321729003E+03 -0.14167216295E+03  0.31135438020E+03  0.12500000000E+03 0.  0.
         25    1    1    2    0    0  0.21457639210E+03 -0.25250792617E+03 -0.70378505798E+03  0.78787161941E+03  0.12500000000E+03 0.  0.
</event>
<event>
 5    0  0.5713700E-005  0.3707343E+03  0.7546771E-02  0.1054413E+00
         21   -1    0    0  502  501  0.00000000000E+00  0.00000000000E+00  0.37287119101E+03  0.37287119101E+03  0.00000000000E+00 0. -1.
         21   -1    0    0  501  502 -0.00000000000E+00 -0.00000000000E+00 -0.36860970720E+03  0.36860970720E+03  0.00000000000E+00 0. -1.
         25    1    1    2    0    0 -0.17106588310E+03  0.41943088476E+02 -0.13038152358E+03  0.25228377023E+03  0.12500000000E+03 0.  0.
         25    1    1    2    0    0  0.58131562236E+02 -0.64377145142E+02 -0.11252702056E+03  0.18923801336E+03  0.12500000000E+03 0.  0.
         25    1    1    2    0    0  0.11293432086E+03  0.22434056666E+02  0.24717002795E+03  0.29995911462E+03  0.12500000000E+03 0.  0.
</event>
<event>
 5    0  0.5713700E-005  0.4125005E+03  0.7546771E-02  0.1039535E+00
         21   -1    0    0  502  501  0.00000000000E+00  0.00000000000E+00  0.29975414377E+04  0.29975414377E+04  0.00000000000E+00 0.  1.
         21   -1    0    0  501  502 -0.00000000000E+00 -0.00000000000E+00 -0.56765415901E+02  0.56765415901E+02  0.00000000000E+00 0. -1.
         25    1    1    2    0    0  0.20184593283E+03 -0.27966886608E+03  0.15978912131E+04  0.16394626510E+04  0.12500000000E+03 0.  0.
         25    1    1    2    0    0 -0.53788012876E+02  0.14272405419E+03  0.76808804349E+03  0.79299908482E+03  0.12500000000E+03 0.  0.
         25    1    1    2    0    0 -0.14805791996E+03  0.13694481189E+03  0.57479676527E+03  0.62184511780E+03  0.12500000000E+03 0.  0.
</event>
<event>
 5    0  0.5713700E-005  0.3672235E+03  0.7546771E-02  0.1055760E+00
         21   -1    0    0  502  501  0.00000000000E+00  0.00000000000E+00  0.25547168389E+03  0.25547168389E+03  0.00000000000E+00 0. -1.
         21   -1    0    0  501  502 -0.00000000000E+00 -0.00000000000E+00 -0.52785933747E+03  0.52785933747E+03  0.00000000000E+00 0. -1.
         25    1    1    2    0    0  0.59767056950E+02 -0.21015612762E+03 -0.25174482277E+03  0.35600302648E+03  0.12500000000E+03 0.  0.
         25    1    1    2    0    0 -0.46748226335E+01  0.17820535617E+03 -0.12629688656E+03  0.25170400571E+03  0.12500000000E+03 0.  0.
         25    1    1    2    0    0 -0.55092234316E+02  0.31950771448E+02  0.10565405574E+03  0.17562398917E+03  0.12500000000E+03 0.  0.
</event>
<event>
 5    0  0.5713700E-005  0.3563914E+03  0.7546771E-02  0.1060022E+00
         21   -1    0    0  502  501  0.00000000000E+00  0.00000000000E+00  0.17975627547E+04  0.17975627547E+04  0.00000000000E+00 0.  1.
         21   -1    0    0  501  502 -0.00000000000E+00 -0.00000000000E+00 -0.70659465219E+02  0.70659465219E+02  0.00000000000E+00 0.  1.
         25    1    1    2    0    0 -0.17424130466E+03 -0.46585488150E+00  0.55549713286E+03  0.59545135308E+03  0.12500000000E+03 0.  0.
         25    1    1    2    0    0 -0.71229568675E+02  0.10129513850E+03  0.66158245783E+03  0.68458067826E+03  0.12500000000E+03 0.  0.
         25    1    1    2    0    0  0.24547087333E+03 -0.10082928362E+03  0.50982369878E+03  0.58819018856E+03  0.12500000000E+03 0.  0.
</event>
<event>
 5    0  0.5713700E-005  0.4833007E+03  0.7546771E-02  0.1018232E+00
         21   -1    0    0  502  501  0.00000000000E+00  0.00000000000E+00  0.84392354043E+03  0.84392354043E+03  0.00000000000E+00 0. -1.
         21   -1    0    0  501  502 -0.00000000000E+00 -0.00000000000E+00 -0.27677816543E+03  0.27677816543E+03  0.00000000000E+00 0. -1.
         25    1    1    2    0    0 -0.34356880700E+03  0.16976100897E+03  0.40598106348E+03  0.57210484110E+03  0.12500000000E+03 0.  0.
         25    1    1    2    0    0  0.33907725025E+03 -0.14433081586E+03  0.79823842943E+02  0.39724251024E+03  0.12500000000E+03 0.  0.
         25    1    1    2    0    0  0.44915567466E+01 -0.25430193119E+02  0.81340468580E+02  0.15135435452E+03  0.12500000000E+03 0.  0.
</event>
<event>
 5    0  0.5713700E-005  0.2282314E+03  0.7546771E-02  0.1127891E+00
         21   -1    0    0  502  501  0.00000000000E+00  0.00000000000E+00  0.13896372458E+03  0.13896372458E+03  0.00000000000E+00 0.  1.
         21   -1    0    0  501  502 -0.00000000000E+00 -0.00000000000E+00 -0.37484288260E+03  0.37484288260E+03  0.00000000000E+00 0.  1.
         25    1    1    2    0    0 -0.86528185454E+01 -0.78507902199E+02 -0.52308312545E+02  0.15684234612E+03  0.12500000000E+03 0.  0.
         25    1    1    2    0    0  0.58234224435E+02  0.88715364922E+02 -0.61701717881E+02  0.17519629807E+03  0.12500000000E+03 0.  0.
         25    1    1    2    0    0 -0.49581405890E+02 -0.10207462723E+02 -0.12186912759E+03  0.18176796298E+03  0.12500000000E+03 0.  0.
</event>
<event>
 5    0  0.5713700E-005  0.2707779E+03  0.7546771E-02  0.1100835E+00
         21   -1    0    0  502  501  0.00000000000E+00  0.00000000000E+00  0.44703701944E+03  0.44703701944E+03  0.00000000000E+00 0.  1.
         21   -1    0    0  501  502 -0.00000000000E+00 -0.00000000000E+00 -0.16401481748E+03  0.16401481748E+03  0.00000000000E+00 0.  1.
         25    1    1    2    0    0  0.52994059112E+02 -0.15571620957E+03  0.16815017485E+03  0.26637452868E+03  0.12500000000E+03 0.  0.
         25    1    1    2    0    0 -0.32235867157E+02  0.15807719840E+02  0.80099035506E+02  0.15274125385E+03  0.12500000000E+03 0.  0.
         25    1    1    2    0    0 -0.20758191955E+02  0.13990848973E+03  0.34772991598E+02  0.19193605439E+03  0.12500000000E+03 0.  0.
</event>
<event>
 5    0  0.5713700E-005  0.2246153E+03  0.7546771E-02  0.1130488E+00
         21   -1    0    0  502  501  0.00000000000E+00  0.00000000000E+00  0.68025593666E+02  0.68025593666E+02  0.00000000000E+00 0.  1.
         21   -1    0    0  501  502 -0.00000000000E+00 -0.00000000000E+00 -0.74166250585E+03  0.74166250585E+03  0.00000000000E+00 0.  1.
         25    1    1    2    0    0  0.10544773939E+02  0.13607458221E+02 -0.44208154252E+03  0.45973627811E+03  0.12500000000E+03 0.  0.
         25    1    1    2    0    0  0.35509158773E+01 -0.40420986691E+02 -0.14037048006E+03  0.19228972110E+03  0.12500000000E+03 0.  0.
         25    1    1    2    0    0 -0.14095689817E+02  0.26813528470E+02 -0.91184889610E+02  0.15766210031E+03  0.12500000000E+03 0.  0.
</event>
<event>
 5    0  0.5713700E-005  0.5174368E+03  0.7546771E-02  0.1009325E+00
         21   -1    0    0  502  501  0.00000000000E+00  0.00000000000E+00  0.60931017690E+03  0.60931017690E+03  0.00000000000E+00 0.  1.
         21   -1    0    0  501  502 -0.00000000000E+00 -0.00000000000E+00 -0.43941625508E+03  0.43941625508E+03  0.00000000000E+00 0.  1.
         25    1    1    2    0    0 -0.41525180882E+02 -0.26233022207E+03 -0.20798913790E+02  0.29427721773E+03  0.12500000000E+03 0.  0.
         25    1    1    2    0    0  0.10575331945E+03 -0.96719075854E+02 -0.14821375213E+03  0.24110300813E+03  0.12500000000E+03 0.  0.
         25    1    1    2    0    0 -0.64228138570E+02  0.35904929793E+03  0.33890658773E+03  0.51334620612E+03  0.12500000000E+03 0.  0.
</event>
<event>
 5    0  0.5713700E-005  0.2956446E+03  0.7546771E-02  0.1087438E+00
         21   -1    0    0  502  501  0.00000000000E+00  0.00000000000E+00  0.74101752627E+02  0.74101752627E+02  0.00000000000E+00 0. -1.
         21   -1    0    0  501  502 -0.00000000000E+00 -0.00000000000E+00 -0.11795363907E+04  0.11795363907E+04  0.00000000000E+00 0. -1.
         25    1    1    2    0    0 -0.61226267471E+02 -0.27155239514E+02 -0.54638561299E+02  0.15197511389E+03  0.12500000000E+03 0.  0.
         25    1    1    2    0    0 -0.30889054977E+02 -0.70461123160E+02 -0.43169145334E+03  0.45596207570E+03  0.12500000000E+03 0.  0.
         25    1    1    2    0    0  0.92115322448E+02  0.97616362673E+02 -0.61910462342E+03  0.64570095372E+03  0.12500000000E+03 0.  0.
</event>
<event>
 5    0  0.5713700E-005  0.2099625E+03  0.7546771E-02  0.1141596E+00
         21   -1    0    0  502  501  0.00000000000E+00  0.00000000000E+00  0.42181075487E+03  0.42181075487E+03  0.00000000000E+00 0.  1.
         21   -1    0    0  501  502 -0.00000000000E+00 -0.00000000000E+00 -0.10451192454E+03  0.10451192454E+03  0.00000000000E+00 0.  1.
         25    1    1    2    0    0 -0.10800095032E+02  0.24772397984E+02  0.10928361516E+03  0.16822075466E+03  0.12500000000E+03 0.  0.
         25    1    1    2    0    0  0.31637677468E+02  0.40137661224E+02  0.46587039284E+02  0.14285421490E+03  0.12500000000E+03 0.  0.
         25    1    1    2    0    0 -0.20837582437E+02 -0.64910059208E+02  0.16142817589E+03  0.21524770986E+03  0.12500000000E+03 0.  0.
</event>
<event>
 5    0  0.5713700E-005  0.2664698E+03  0.7546771E-02  0.1103317E+00
         21   -1    0    0  502  501  0.00000000000E+00  0.00000000000E+00  0.26903481402E+03  0.26903481402E+03  0.00000000000E+00 0. -1.
         21   -1    0    0  501  502 -0.00000000000E+00 -0.00000000000E+00 -0.26392917903E+03  0.26392917903E+03  0.00000000000E+00 0. -1.
         25    1    1    2    0    0  0.66954939300E+02  0.41891107260E+01  0.24449888879E+02  0.14395592941E+03  0.12500000000E+03 0.  0.
         25    1    1    2    0    0  0.28036687024E+02  0.77061243964E+02  0.96241165814E+02  0.17779722478E+03  0.12500000000E+03 0.  0.
         25    1    1    2    0    0 -0.94991626325E+02 -0.81250354690E+02 -0.11558541969E+03  0.21121083887E+03  0.12500000000E+03 0.  0.
</event>
<event>
 5    0  0.5713700E-005  0.2903147E+03  0.7546771E-02  0.1090185E+00
         21   -1    0    0  502  501  0.00000000000E+00  0.00000000000E+00  0.62930695904E+02  0.62930695904E+02  0.00000000000E+00 0.  1.
         21   -1    0    0  501  502 -0.00000000000E+00 -0.00000000000E+00 -0.13392931215E+04  0.13392931215E+04  0.00000000000E+00 0.  1.
         25    1    1    2    0    0 -0.74195395113E+02 -0.42886005780E+02 -0.39361926616E+03  0.42178820851E+03  0.12500000000E+03 0.  0.
         25    1    1    2    0    0  0.10592492208E+03  0.52097438967E+02 -0.81793570638E+03  0.83580981810E+03  0.12500000000E+03 0.  0.
         25    1    1    2    0    0 -0.31729526966E+02 -0.92114331872E+01 -0.64807453010E+02  0.14462579074E+03  0.12500000000E+03 0.  0.
</event>
<event>
 5    0  0.5713700E-005  0.3235980E+03  0.7546771E-02  0.1074005E+00
         21   -1    0    0  502  501  0.00000000000E+00  0.00000000000E+00  0.35119211238E+03  0.35119211238E+03  0.00000000000E+00 0. -1.
         21   -1    0    0  501  502 -0.00000000000E+00 -0.00000000000E+00 -0.29817193956E+03  0.29817193956E+03  0.00000000000E+00 0. -1.
         25    1    1    2    0    0 -0.16571787679E+02 -0.15718159805E+03  0.18001910039E+02  0.20231101719E+03  0.12500000000E+03 0.  0.
         25    1    1    2    0    0  0.11915521389E+03  0.14932225655E+03  0.12659831561E+03  0.26105025343E+03  0.12500000000E+03 0.  0.
         25    1    1    2    0    0 -0.10258342621E+03  0.78593414996E+01 -0.91580052826E+02  0.18600278132E+03  0.12500000000E+03 0.  0.
</event>
<event>
 5    0  0.5713700E-005  0.2685718E+03  0.7546771E-02  0.1102100E+00
         21   -1    0    0  502  501  0.00000000000E+00  0.00000000000E+00  0.28665885356E+03  0.28665885356E+03  0.00000000000E+00 0. -1.
         21   -1    0    0  501  502 -0.00000000000E+00 -0.00000000000E+00 -0.25162600895E+03  0.25162600895E+03  0.00000000000E+00 0. -1.
         25    1    1    2    0    0  0.12593203858E+03 -0.59377349864E+02  0.96388855083E+02  0.21047650558E+03  0.12500000000E+03 0.  0.
         25    1    1    2    0    0 -0.43816429651E+02 -0.44612069966E+02 -0.22833197687E+02  0.14162087138E+03  0.12500000000E+03 0.  0.
         25    1    1    2    0    0 -0.82115608932E+02  0.10398941983E+03 -0.38522812790E+02  0.18618748554E+03  0.12500000000E+03 0.  0.
</event>
<event>
 5    0  0.5713700E-005  0.4327960E+03  0.7546771E-02  0.1032980E+00
         21   -1    0    0  502  501  0.00000000000E+00  0.00000000000E+00  0.13401355871E+04  0.13401355871E+04  0.00000000000E+00 0.  1.
         21   -1    0    0  501  502 -0.00000000000E+00 -0.00000000000E+00 -0.13977121624E+03  0.13977121624E+03  0.00000000000E+00 0.  1.
         25    1    1    2    0    0  0.43609851516E+02  0.25450455016E+03  0.64468644040E+03  0.70563446035E+03  0.12500000000E+03 0.  0.
         25    1    1    2    0    0 -0.54790905446E+02 -0.94800358223E+02 -0.16615519536E+02  0.16700367280E+03  0.12500000000E+03 0.  0.
         25    1    1    2    0    0  0.11181053930E+02 -0.15970419193E+03  0.57229344998E+03  0.60726867017E+03  0.12500000000E+03 0.  0.
</event>
<event>
 5    0  0.5713700E-005  0.3415532E+03  0.7546771E-02  0.1066136E+00
         21   -1    0    0  502  501  0.00000000000E+00  0.00000000000E+00  0.21987834931E+03  0.21987834931E+03  0.00000000000E+00 0. -1.
         21   -1    0    0  501  502 -0.00000000000E+00 -0.00000000000E+00 -0.53055962843E+03  0.53055962843E+03  0.00000000000E+00 0. -1.
         25    1    1    2    0    0  0.45254761185E+02 -0.44787541375E+02 -0.19613912622E+03  0.24114202062E+03  0.12500000000E+03 0.  0.
         25    1    1    2    0    0  0.16592508891E+03  0.11748637861E+03 -0.34586784087E+02  0.24115436948E+03  0.12500000000E+03 0.  0.
         25    1    1    2    0    0 -0.21117985009E+03 -0.72698837235E+02 -0.79955368812E+02  0.26814158764E+03  0.12500000000E+03 0.  0.
</event>
<event>
 5    0  0.5713700E-005  0.3446908E+03  0.7546771E-02  0.1064815E+00
         21   -1    0    0  502  501  0.00000000000E+00  0.00000000000E+00  0.22203976793E+03  0.22203976793E+03  0.00000000000E+00 0.  1.
         21   -1    0    0  501  502 -0.00000000000E+00 -0.00000000000E+00 -0.53509210538E+03  0.53509210538E+03  0.00000000000E+00 0.  1.
         25    1    1    2    0    0  0.19477029486E+03  0.87749748848E+02 -0.12384285388E+03  0.27676260339E+03  0.12500000000E+03 0.  0.
         25    1    1    2    0    0 -0.11348136297E+03  0.85452705569E+02 -0.16406945428E+03  0.25044754033E+03  0.12500000000E+03 0.  0.
         25    1    1    2    0    0 -0.81288931888E+02 -0.17320245442E+03 -0.25140029289E+02  0.22992172959E+03  0.12500000000E+03 0.  0.
</event>
<event>
 5    0  0.5713700E-005  0.2687450E+03  0.7546771E-02  0.1102000E+00
         21   -1    0    0  502  501  0.00000000000E+00  0.00000000000E+00  0.19179681947E+03  0.19179681947E+03  0.00000000000E+00 0.  1.
         21   -1    0    0  501  502 -0.00000000000E+00 -0.00000000000E+00 -0.37656459722E+03  0.37656459722E+03  0.00000000000E+00 0.  1.
         25    1    1    2    0    0  0.13037671570E+03 -0.10324315921E+02 -0.67201097050E+02  0.19299136494E+03  0.12500000000E+03 0.  0.
         25    1    1    2    0    0  0.33779110372E+02  0.36160615486E+02 -0.98290196770E+02  0.16653702649E+03  0.12500000000E+03 0.  0.
         25    1    1    2    0    0 -0.16415582608E+03 -0.25836299565E+02 -0.19276483934E+02  0.20883302527E+03  0.12500000000E+03 0.  0.
</event>
<event>
 5    0  0.5713700E-005  0.3510269E+03  0.7546771E-02  0.1062194E+00
         21   -1    0    0  502  501  0.00000000000E+00  0.00000000000E+00  0.13403322014E+03  0.13403322014E+03  0.00000000000E+00 0. -1.
         21   -1    0    0  501  502 -0.00000000000E+00 -0.00000000000E+00 -0.91932325947E+03  0.91932325947E+03  0.00000000000E+00 0. -1.
         25    1    1    2    0    0 -0.16815083012E+03 -0.94471406974E+02 -0.42359908312E+03  0.48193436444E+03  0.12500000000E+03 0.  0.
         25    1    1    2    0    0  0.82289259696E+02  0.14911628984E+02  0.21291670870E+02  0.15189540542E+03  0.12500000000E+03 0.  0.
         25    1    1    2    0    0  0.85861570423E+02  0.79559777990E+02 -0.38298262708E+03  0.41952670975E+03  0.12500000000E+03 0.  0.
</event>
<event>
 5    0  0.5713700E-005  0.4308292E+03  0.7546771E-02  0.1033598E+00
         21   -1    0    0  502  501  0.00000000000E+00  0.00000000000E+00  0.22947664135E+03  0.22947664135E+03  0.00000000000E+00 0.  1.
         21   -1    0    0  501  502 -0.00000000000E+00 -0.00000000000E+00 -0.80885691996E+03  0.80885691996E+03  0.00000000000E+00 0.  1.
         25    1    1    2    0    0  0.22996719560E+03  0.47873283562E+02 -0.32848199127E+03  0.42273180732E+03  0.12500000000E+03 0.  0.
         25    1    1    2    0    0 -0.15202899103E+03  0.19559150746E+03 -0.13008948662E+03  0.30645901265E+03  0.12500000000E+03 0.  0.
         25    1    1    2    0    0 -0.77938204569E+02 -0.24346479102E+03 -0.12080880071E+03  0.30914274135E+03  0.12500000000E+03 0.  0.
</event>
<event>
 5    0  0.5713700E-005  0.7654434E+03  0.7546771E-02  0.9611429E-01
         21   -1    0    0  502  501  0.00000000000E+00  0.00000000000E+00  0.52580697248E+03  0.52580697248E+03  0.00000000000E+00 0.  1.
         21   -1    0    0  501  502 -0.00000000000E+00 -0.00000000000E+00 -0.11142941608E+04  0.11142941608E+04  0.00000000000E+00 0.  1.
         25    1    1    2    0    0 -0.11579226137E+03 -0.24628775531E+03 -0.39608825886E+03  0.49656461314E+03  0.12500000000E+03 0.  0.
         25    1    1    2    0    0  0.10313530737E+03 -0.99957579197E+02 -0.57903352836E+03  0.60953526250E+03  0.12500000000E+03 0.  0.
         25    1    1    2    0    0  0.12656953997E+02  0.34624533451E+03  0.38663459887E+03  0.53400125767E+03  0.12500000000E+03 0.  0.
</event>
<event>
 5    0  0.5713700E-005  0.2988540E+03  0.7546771E-02  0.1085815E+00
         21   -1    0    0  502  501  0.00000000000E+00  0.00000000000E+00  0.91971614815E+02  0.91971614815E+02  0.00000000000E+00 0.  1.
         21   -1    0    0  501  502 -0.00000000000E+00 -0.00000000000E+00 -0.97110075849E+03  0.97110075849E+03  0.00000000000E+00 0.  1.
         25    1    1    2    0    0 -0.10713385481E+02 -0.43686610745E+02 -0.60593230654E+03  0.62032431574E+03  0.12500000000E+03 0.  0.
         25    1    1    2    0    0  0.25247653397E+02 -0.30883681372E+02  0.18494065848E+01  0.13122372530E+03  0.12500000000E+03 0.  0.
         25    1    1    2    0    0 -0.14534267916E+02  0.74570292117E+02 -0.27504624372E+03  0.31152433227E+03  0.12500000000E+03 0.  0.
</event>
<event>
 5    0  0.5713700E-005  0.2949938E+03  0.7546771E-02  0.1087770E+00
         21   -1    0    0  502  501  0.00000000000E+00  0.00000000000E+00  0.22442636444E+03  0.22442636444E+03  0.00000000000E+00 0. -1.
         21   -1    0    0  501  502 -0.00000000000E+00 -0.00000000000E+00 -0.38775005108E+03  0.38775005108E+03  0.00000000000E+00 0. -1.
         25    1    1    2    0    0 -0.60034153150E+02  0.57177040551E+02 -0.15438340116E+03  0.21524996647E+03  0.12500000000E+03 0.  0.
         25    1    1    2    0    0 -0.63327569632E+02 -0.10548758578E+03 -0.90486823140E+02  0.19735976538E+03  0.12500000000E+03 0.  0.
         25    1    1    2    0    0  0.12336172278E+03  0.48310545224E+02  0.81546537666E+02  0.19956668367E+03  0.12500000000E+03 0.  0.
</event>
<event>
 5    0  0.5713700E-005  0.3615777E+03  0.7546771E-02  0.1057961E+00
         21   -1    0    0  502  501  0.00000000000E+00  0.00000000000E+00  0.50239394324E+03  0.50239394324E+03  0.00000000000E+00 0.  1.
         21   -1    0    0  501  502 -0.00000000000E+00 -0.00000000000E+00 -0.26023087442E+03  0.26023087442E+03  0.00000000000E+00 0.  1.
         25    1    1    2    0    0  0.67999049621E+02  0.91451983695E+02 -0.87117220841E+02  0.19026756486E+03  0.12500000000E+03 0.  0.
         25    1    1    2    0    0 -0.44222401323E+02 -0.49139978958E+02 -0.65197780479E+02  0.15571162092E+03  0.12500000000E+03 0.  0.
         25    1    1    2    0    0 -0.23776648298E+02 -0.42312004737E+02  0.39447807013E+03  0.41664563188E+03  0.12500000000E+03 0.  0.
</event>
<event>
 5    0  0.5713700E-005  0.3140896E+03  0.7546771E-02  0.1078402E+00
         21   -1    0    0  502  501  0.00000000000E+00  0.00000000000E+00  0.11795119666E+03  0.11795119666E+03  0.00000000000E+00 0. -1.
         21   -1    0    0  501  502 -0.00000000000E+00 -0.00000000000E+00 -0.83638214217E+03  0.83638214217E+03  0.00000000000E+00 0. -1.
         25    1    1    2    0    0  0.20672786722E+03 -0.27500006103E+02 -0.30278375763E+03  0.38832417554E+03  0.12500000000E+03 0.  0.
         25    1    1    2    0    0 -0.18576264608E+03  0.10886620616E+02 -0.36535034691E+03  0.42863988985E+03  0.12500000000E+03 0.  0.
         25    1    1    2    0    0 -0.20965221142E+02  0.16613385487E+02 -0.50296840968E+02  0.13736927344E+03  0.12500000000E+03 0.  0.
</event>
<event>
 5    0  0.5713700E-005  0.3337433E+03  0.7546771E-02  0.1069492E+00
         21   -1    0    0  502  501  0.00000000000E+00  0.00000000000E+00  0.10207255485E+03  0.10207255485E+03  0.00000000000E+00 0.  1.
         21   -1    0    0  501  502 -0.00000000000E+00 -0.00000000000E+00 -0.10912298078E+04  0.10912298078E+04  0.00000000000E+00 0.  1.
         25    1    1    2    0    0 -0.12028211182E+03  0.12878778394E+02 -0.57105557937E+03  0.59696157672E+03  0.12500000000E+03 0.  0.
         25    1    1    2    0    0  0.17201197006E+03 -0.12745559575E+03 -0.24014029182E+03  0.34514548597E+03  0.12500000000E+03 0.  0.
         25    1    1    2    0    0 -0.51729858245E+02  0.11457681736E+03 -0.17796138174E+03  0.25119529992E+03  0.12500000000E+03 0.  0.
</event>
<event>
 5    0  0.5713700E-005  0.2564650E+03  0.7546771E-02  0.1109286E+00
         21   -1    0    0  502  501  0.00000000000E+00  0.00000000000E+00  0.11322820690E+03  0.11322820690E+03  0.00000000000E+00 0.  1.
         21   -1    0    0  501  502 -0.00000000000E+00 -0.00000000000E+00 -0.58090015545E+03  0.58090015545E+03  0.00000000000E+00 0.  1.
         25    1    1    2    0    0  0.19411871194E+02 -0.61542123860E+02 -0.14105269399E+03  0.19921123521E+03  0.12500000000E+03 0.  0.
         25    1    1    2    0    0 -0.51122726682E+02 -0.24994451163E+02 -0.30958420862E+03  0.33868220798E+03  0.12500000000E+03 0.  0.
         25    1    1    2    0    0  0.31710855488E+02  0.86536575023E+02 -0.17035045936E+02  0.15623491915E+03  0.12500000000E+03 0.  0.
</event>
<event>
 5    0  0.5713700E-005  0.3553470E+03  0.7546771E-02  0.1060442E+00
         21   -1    0    0  502  501  0.00000000000E+00  0.00000000000E+00  0.47580366711E+03  0.47580366711E+03  0.00000000000E+00 0. -1.
         21   -1    0    0  501  502 -0.00000000000E+00 -0.00000000000E+00 -0.26538566930E+03  0.26538566930E+03  0.00000000000E+00 0. -1.
         25    1    1    2    0    0 -0.73458711137E+02 -0.15378222029E+03  0.31656418577E+03  0.38063504467E+03  0.12500000000E+03 0.  0.
         25    1    1    2    0    0  0.71343105376E+02  0.21055359300E+02  0.75872208273E+01  0.14565621429E+03  0.12500000000E+03 0.  0.
         25    1    1    2    0    0  0.21156057603E+01  0.13272686099E+03 -0.11373340879E+03  0.21489807745E+03  0.12500000000E+03 0.  0.
</event>
<event>
 5    0  0.5713700E-005  0.4249673E+03  0.7546771E-02  0.1035462E+00
         21   -1    0    0  502  501  0.00000000000E+00  0.00000000000E+00  0.13759221714E+04  0.13759221714E+04  0.00000000000E+00 0.  1.
         21   -1    0    0  501  502 -0.00000000000E+00 -0.00000000000E+00 -0.13125542066E+03  0.13125542066E+03  0.00000000000E+00 0.  1.
         25    1    1    2    0    0 -0.27649604893E+03 -0.15577900820E+03  0.38604144559E+03  0.51514091488E+03  0.12500000000E+03 0.  0.
         25    1    1    2    0    0  0.23487820005E+03 -0.30825539988E+02  0.48792859941E+03  0.55661234346E+03  0.12500000000E+03 0.  0.
         25    1    1    2    0    0  0.41617848884E+02  0.18660454818E+03  0.37069670577E+03  0.43542433374E+03  0.12500000000E+03 0.  0.
</event>
<event>
 5    0  0.5713700E-005  0.3282713E+03  0.7546771E-02  0.1071904E+00
         21   -1    0    0  502  501  0.00000000000E+00  0.00000000000E+00  0.95502153431E+03  0.95502153431E+03  0.00000000000E+00 0. -1.
         21   -1    0    0  501  502 -0.00000000000E+00 -0.00000000000E+00 -0.11283727373E+03  0.11283727373E+03  0.00000000000E+00 0. -1.
         25    1    1    2    0    0  0.26130104958E+02 -0.98658702860E+02  0.60276068552E+03  0.62398859448E+03  0.12500000000E+03 0.  0.
         25    1    1    2    0    0 -0.13476831138E+03  0.54739931230E+02  0.73594917898E+02  0.20542679904E+03  0.12500000000E+03 0.  0.
         25    1    1    2    0    0  0.10863820642E+03  0.43918771630E+02  0.16582865716E+03  0.23844341452E+03  0.12500000000E+03 0.  0.
</event>
<event>
 5    0  0.5713700E-005  0.2176970E+03  0.7546771E-02  0.1135612E+00
         21   -1    0    0  502  501  0.00000000000E+00  0.00000000000E+00  0.15274180708E+04  0.15274180708E+04  0.00000000000E+00 0. -1.
         21   -1    0    0  501  502 -0.00000000000E+00 -0.00000000000E+00 -0.31027519723E+02  0.31027519723E+02  0.00000000000E+00 0. -1.
         25    1    1    2    0    0  0.19649763533E+02 -0.41510255056E+02  0.26369363457E+03  0.29541250379E+03  0.12500000000E+03 0.  0.
         25    1    1    2    0    0  0.34049429311E+02  0.49945383178E+02  0.62166134110E+03  0.63697859301E+03  0.12500000000E+03 0.  0.
         25    1    1    2    0    0 -0.53699192844E+02 -0.84351281227E+01  0.61103557542E+03  0.62605449373E+03  0.12500000000E+03 0.  0.
</event>
<event>
 5    0  0.5713700E-005  0.3462723E+03  0.7546771E-02  0.1064156E+00
         21   -1    0    0  502  501  0.00000000000E+00  0.00000000000E+00  0.16235139179E+03  0.16235139179E+03  0.00000000000E+00 0.  1.
         21   -1    0    0  501  502 -0.00000000000E+00 -0.00000000000E+00 -0.73854909865E+03  0.73854909865E+03  0.00000000000E+00 0.  1.
         25    1    1    2    0    0 -0.39501927621E+01 -0.13855687180E+03 -0.21193643316E+02  0.18785042258E+03  0.12500000000E+03 0.  0.
         25    1    1    2    0    0 -0.56112830167E+02  0.23467552370E+03 -0.40227085999E+03  0.48545658501E+03  0.12500000000E+03 0.  0.
         25    1    1    2    0    0  0.60063022929E+02 -0.96118651903E+02 -0.15273320356E+03  0.22759348285E+03  0.12500000000E+03 0.  0.
</event>
<event>
 5    0  0.5713700E-005  0.3348714E+03  0.7546771E-02  0.1069002E+00
         21   -1    0    0  502  501  0.00000000000E+00  0.00000000000E+00  0.12660230186E+03  0.12660230186E+03  0.00000000000E+00 0. -1.
         21   -1    0    0  501  502 -0.00000000000E+00 -0.00000000000E+00 -0.88575686341E+03  0.88575686341E+03  0.00000000000E+00 0. -1.
         25    1    1    2    0    0  0.22397765493E+02  0.18301104079E+02  0.50229796256E+02  0.13778469705E+03  0.12500000000E+03 0.  0.
         25    1    1    2    0    0  0.92430665737E+02  0.69667900657E+01 -0.45391769281E+03  0.47985230642E+03  0.12500000000E+03 0.  0.
         25    1    1    2    0    0 -0.11482843123E+03 -0.25267894144E+02 -0.35546666499E+03  0.39472216180E+03  0.12500000000E+03 0.  0.
</event>
<event>
 5    0  0.5713700E-005  0.2890284E+03  0.7546771E-02  0.1090858E+00
         21   -1    0    0  502  501  0.00000000000E+00  0.00000000000E+00  0.62882006916E+03  0.62882006916E+03  0.00000000000E+00 0. -1.
         21   -1    0    0  501  502 -0.00000000000E+00 -0.00000000000E+00 -0.13284788014E+03  0.13284788014E+03  0.00000000000E+00 0.  1.
         25    1    1    2    0    0  0.61975936313E+02 -0.12518396954E+03  0.10873514773E+03  0.21670342698E+03  0.12500000000E+03 0.  0.
         25    1    1    2    0    0 -0.30602520459E+02  0.47385578440E+01  0.10780590188E+02  0.12922921231E+03  0.12500000000E+03 0.  0.
         25    1    1    2    0    0 -0.31373415854E+02  0.12044541170E+03  0.37645645110E+03  0.41573531002E+03  0.12500000000E+03 0.  0.
</event>
<event>
 5    0  0.5713700E-005  0.2250730E+03  0.7546771E-02  0.1130156E+00
         21   -1    0    0  502  501  0.00000000000E+00  0.00000000000E+00  0.12927940042E+03  0.12927940042E+03  0.00000000000E+00 0.  1.
         21   -1    0    0  501  502 -0.00000000000E+00 -0.00000000000E+00 -0.39184775203E+03  0.39184775203E+03  0.00000000000E+00 0.  1.
         25    1    1    2    0    0  0.21340777970E+02  0.86594370367E+02 -0.11572959941E+03  0.19228196474E+03  0.12500000000E+03 0.  0.
         25    1    1    2    0    0 -0.37056797395E+02 -0.37006998257E+02 -0.13760428631E+03  0.19313897526E+03  0.12500000000E+03 0.  0.
         25    1    1    2    0    0  0.15716019425E+02 -0.49587372110E+02 -0.92344658939E+01  0.13570621246E+03  0.12500000000E+03 0.  0.
</event>
<event>
 5    0  0.5713700E-005  0.2930366E+03  0.7546771E-02  0.1088774E+00
         21   -1    0    0  502  501  0.00000000000E+00  0.00000000000E+00  0.45970868003E+02  0.45970868003E+02  0.00000000000E+00 0.  1.
         21   -1    0    0  501  502 -0.00000000000E+00 -0.00000000000E+00 -0.18679318572E+04  0.18679318572E+04  0.00000000000E+00 0.  1.
         25    1    1    2    0    0  0.26858222285E+01  0.12267434391E+03 -0.11565261908E+04  0.11697153663E+04  0.12500000000E+03 0.  0.
         25    1    1    2    0    0  0.77313580949E+02 -0.20986344313E+02 -0.23905155312E+03  0.28140444470E+03  0.12500000000E+03 0.  0.
         25    1    1    2    0    0 -0.79999403178E+02 -0.10168799959E+03 -0.42638324526E+03  0.46278291412E+03  0.12500000000E+03 0.  0.
</event>
<event>
 5    0  0.5713700E-005  0.3613957E+03  0.7546771E-02  0.1058033E+00
         21   -1    0    0  502  501  0.00000000000E+00  0.00000000000E+00  0.27649733542E+03  0.27649733542E+03  0.00000000000E+00 0. -1.
         21   -1    0    0  501  502 -0.00000000000E+00 -0.00000000000E+00 -0.47236201307E+03  0.47236201307E+03  0.00000000000E+00 0. -1.
         25    1    1    2    0    0 -0.88452741924E+02  0.11379949077E+03 -0.13769530313E+03  0.23528537599E+03  0.12500000000E+03 0.  0.
         25    1    1    2    0    0 -0.48760054253E+01  0.13274621057E+03 -0.11597474753E+03  0.21614919365E+03  0.12500000000E+03 0.  0.
         25    1    1    2    0    0  0.93328747349E+02 -0.24654570133E+03  0.57805373013E+02  0.29742477886E+03  0.12500000000E+03 0.  0.
</event>
<event>
 5    0  0.5713700E-005  0.3472164E+03  0.7546771E-02  0.1063763E+00
         21   -1    0    0  502  501  0.00000000000E+00  0.00000000000E+00  0.13635445193E+04  0.13635445193E+04  0.00000000000E+00 0. -1.
         21   -1    0    0  501  502 -0.00000000000E+00 -0.00000000000E+00 -0.88416056947E+02  0.88416056947E+02  0.00000000000E+00 0. -1.
         25    1    1    2    0    0  0.12483593645E+03  0.23809811871E+03  0.49530557221E+03  0.57725846466E+03  0.12500000000E+03 0.  0.
         25    1    1    2    0    0 -0.10526776674E+03 -0.84745314652E+02  0.26357640987E+03  0.32149742598E+03  0.12500000000E+03 0.  0.
         25    1    1    2    0    0 -0.19568169706E+02 -0.15335280406E+03  0.51624648027E+03  0.55320468560E+03  0.12500000000E+03 0.  0.
</event>
<event>
 5    0  0.7795498E-005  0.4430628E+03  0.7546771E-02  0.1029811E+00
         21   -1    0    0  502  501  0.00000000000E+00  0.00000000000E+00  0.62024005929E+03  0.62024005929E+03  0.00000000000E+00 0. -1.
         21   -1    0    0  501  502 -0.00000000000E+00 -0.00000000000E+00 -0.31649782051E+03  0.31649782051E+03  0.00000000000E+00 0. -1.
         25    1    1    2    0    0 -0.20166318129E+03  0.12597494673E+02  0.31616360133E+03  0.39548850599E+03  0.12500000000E+03 0.  0.
         25    1    1    2    0    0  0.28836410096E+03 -0.17646362657E+02  0.12256650413E+03  0.33780585662E+03  0.12500000000E+03 0.  0.
         25    1    1    2    0    0 -0.86700919665E+02  0.50488679843E+01 -0.13498786668E+03  0.20344351719E+03  0.12500000000E+03 0.  0.
</event>
<event>
 5    0  0.5713700E-005  0.2246102E+03  0.7546771E-02  0.1130492E+00
         21   -1    0    0  502  501  0.00000000000E+00  0.00000000000E+00  0.71657016622E+02  0.71657016622E+02  0.00000000000E+00 0. -1.
         21   -1    0    0  501  502 -0.00000000000E+00 -0.00000000000E+00 -0.70404491029E+03  0.70404491029E+03  0.00000000000E+00 0. -1.
         25    1    1    2    0    0  0.85774533680E+02 -0.10566861132E+02 -0.31098545945E+03  0.34612986749E+03  0.12500000000E+03 0.  0.
         25    1    1    2    0    0 -0.44754012923E+02  0.70236562944E+01 -0.81514483041E+02  0.15595468690E+03  0.12500000000E+03 0.  0.
         25    1    1    2    0    0 -0.41020520757E+02  0.35432048372E+01 -0.23988795117E+03  0.27361737252E+03  0.12500000000E+03 0.  0.
</event>
<event>
 5    0  0.5713700E-005  0.4402115E+03  0.7546771E-02  0.1030682E+00
         21   -1    0    0  502  501  0.00000000000E+00  0.00000000000E+00  0.42540402118E+03  0.42540402118E+03  0.00000000000E+00 0. -1.
         21   -1    0    0  501  502 -0.00000000000E+00 -0.00000000000E+00 -0.45553445828E+03  0.45553445828E+03  0.00000000000E+00 0. -1.
         25    1    1    2    0    0 -0.26867539697E+03 -0.79164233799E+02 -0.23598887272E+03  0.38700024922E+03  0.12500000000E+03 0.  0.
         25    1    1    2    0    0  0.16507824904E+03 -0.76003653868E+02  0.69761133546E+02  0.23134173739E+03  0.12500000000E+03 0.  0.
         25    1    1    2    0    0  0.10359714793E+03  0.15516788767E+03  0.13609730207E+03  0.26259649284E+03  0.12500000000E+03 0.  0.
</event>
<event>
 5    0  0.5713700E-005  0.3267032E+03  0.7546771E-02  0.1072605E+00
         21   -1    0    0  502  501  0.00000000000E+00  0.00000000000E+00  0.14080526680E+03  0.14080526680E+03  0.00000000000E+00 0. -1.
         21   -1    0    0  501  502 -0.00000000000E+00 -0.00000000000E+00 -0.75803260297E+03  0.75803260297E+03  0.00000000000E+00 0. -1.
         25    1    1    2    0    0 -0.11517898894E+03 -0.14379739477E+02 -0.18779373403E+03  0.25370152333E+03  0.12500000000E+03 0.  0.
         25    1    1    2    0    0 -0.55665194883E+02  0.23516318720E+02 -0.40940252136E+03  0.43230435536E+03  0.12500000000E+03 0.  0.
         25    1    1    2    0    0  0.17084418382E+03 -0.91365792425E+01 -0.20031080778E+02  0.21283199107E+03  0.12500000000E+03 0.  0.
</event>
<event>
 5    0  0.5713700E-005  0.3670936E+03  0.7546771E-02  0.1055810E+00
         21   -1    0    0  502  501  0.00000000000E+00  0.00000000000E+00  0.15010123764E+03  0.15010123764E+03  0.00000000000E+00 0. -1.
         21   -1    0    0  501  502 -0.00000000000E+00 -0.00000000000E+00 -0.89777905800E+03  0.89777905800E+03  0.00000000000E+00 0. -1.
         25    1    1    2    0    0  0.17341442362E+03  0.15078114592E+02 -0.56608358904E+02  0.22165156926E+03  0.12500000000E+03 0.  0.
         25    1    1    2    0    0  0.93639690473E+02  0.12547683950E+02 -0.23592693434E+03  0.28321785670E+03  0.12500000000E+03 0.  0.
         25    1    1    2    0    0 -0.26705411409E+03 -0.27625798542E+02 -0.45514252711E+03  0.54301086968E+03  0.12500000000E+03 0.  0.
</event>
<event>
 5    0  0.6033593E-005  0.2945044E+03  0.7546771E-02  0.1088021E+00
         21   -1    0    0  502  501  0.00000000000E+00  0.00000000000E+00  0.28426812686E+03  0.28426812686E+03  0.00000000000E+00 0. -1.
         21   -1    0    0  501  502 -0.00000000000E+00 -0.00000000000E+00 -0.30510933170E+03  0.30510933170E+03  0.00000000000E+00 0. -1.
         25    1    1    2    0    0  0.61572236394E+02  0.75953629602E+02 -0.16293545949E+03  0.22744902309E+03  0.12500000000E+03 0.  0.
         25    1    1    2    0    0  0.13899938884E+02  0.52887074063E+02  0.76639302102E+02  0.15648908438E+03  0.12500000000E+03 0.  0.
         25    1    1    2    0    0 -0.75472175279E+02 -0.12884070367E+03  0.65454952554E+02  0.20543935109E+03  0.12500000000E+03 0.  0.
</event>
<event>
 5    0  0.5713700E-005  0.2809643E+03  0.7546771E-02  0.1095163E+00
         21   -1    0    0  502  501  0.00000000000E+00  0.00000000000E+00  0.31992397595E+03  0.31992397595E+03  0.00000000000E+00 0. -1.
         21   -1    0    0  501  502 -0.00000000000E+00 -0.00000000000E+00 -0.24674908669E+03  0.24674908669E+03  0.00000000000E+00 0. -1.
         25    1    1    2    0    0 -0.10914558822E+03  0.80802817465E+02 -0.10651538767E+03  0.21310181264E+03  0.12500000000E+03 0.  0.
         25    1    1    2    0    0  0.67059657213E+02 -0.61633390506E+02  0.15317868437E+03  0.21767953922E+03  0.12500000000E+03 0.  0.
         25    1    1    2    0    0  0.42085931011E+02 -0.19169426959E+02  0.26511592551E+02  0.13589171078E+03  0.12500000000E+03 0.  0.
</event>
<event>
 5    0  0.5713700E-005  0.3355630E+03  0.7546771E-02  0.1068702E+00
         21   -1    0    0  502  501  0.00000000000E+00  0.00000000000E+00  0.29544537641E+03  0.29544537641E+03  0.00000000000E+00 0. -1.
         21   -1    0    0  501  502 -0.00000000000E+00 -0.00000000000E+00 -0.38112811746E+03  0.38112811746E+03  0.00000000000E+00 0. -1.
         25    1    1    2    0    0  0.10082858973E+03  0.12334735275E+03 -0.25739211574E+03  0.32750064914E+03  0.12500000000E+03 0.  0.
         25    1    1    2    0    0 -0.28548337900E+02 -0.86158635499E+02  0.95593654115E+02  0.18166305286E+03  0.12500000000E+03 0.  0.
         25    1    1    2    0    0 -0.72280251829E+02 -0.37188717254E+02  0.76115720582E+02  0.16740979187E+03  0.12500000000E+03 0.  0.
</event>
<event>
 5    0  0.5713700E-005  0.2664923E+03  0.7546771E-02  0.1103304E+00
         21   -1    0    0  502  501  0.00000000000E+00  0.00000000000E+00  0.55722382896E+03  0.55722382896E+03  0.00000000000E+00 0.  1.
         21   -1    0    0  501  502 -0.00000000000E+00 -0.00000000000E+00 -0.12744996754E+03  0.12744996754E+03  0.00000000000E+00 0.  1.
         25    1    1    2    0    0  0.10156857112E+03 -0.25210447810E+02  0.18132525315E+03  0.24383516717E+03  0.12500000000E+03 0.  0.
         25    1    1    2    0    0 -0.13590747130E+03 -0.40639130100E+02  0.22445552881E+03  0.29347515068E+03  0.12500000000E+03 0.  0.
         25    1    1    2    0    0  0.34338900183E+02  0.65849577910E+02  0.23993079460E+02  0.14736347865E+03  0.12500000000E+03 0.  0.
</event>
<event>
 5    0  0.5713700E-005  0.3874950E+03  0.7546771E-02  0.1048198E+00
         21   -1    0    0  502  501  0.00000000000E+00  0.00000000000E+00  0.19373524363E+03  0.19373524363E+03  0.00000000000E+00 0. -1.
         21   -1    0    0  501  502 -0.00000000000E+00 -0.00000000000E+00 -0.77503911268E+03  0.77503911268E+03  0.00000000000E+00 0. -1.
         25    1    1    2    0    0  0.23037692650E+03  0.18716747717E+02 -0.20001457970E+03  0.33023427593E+03  0.12500000000E+03 0.  0.
         25    1    1    2    0    0 -0.21236337670E+03 -0.14904974487E+03 -0.10210988107E+03  0.30555761817E+03  0.12500000000E+03 0.  0.
         25    1    1    2    0    0 -0.18013549802E+02  0.13033299715E+03 -0.27917940829E+03  0.33298246220E+03  0.12500000000E+03 0.  0.
</event>
<event>
 5    0  0.5713700E-005  0.2373112E+03  0.7546771E-02  0.1121597E+00
         21   -1    0    0  502  501  0.00000000000E+00  0.00000000000E+00  0.10285201371E+04  0.10285201371E+04  0.00000000000E+00 0.  1.
         21   -1    0    0  501  502 -0.00000000000E+00 -0.00000000000E+00 -0.54754998220E+02  0.54754998220E+02  0.00000000000E+00 0.  1.
         25    1    1    2    0    0  0.43552564403E+01  0.10102842631E+03  0.42280901808E+03  0.45234740736E+03  0.12500000000E+03 0.  0.
         25    1    1    2    0    0  0.27669509017E+02 -0.93854130352E+02  0.19030828225E+03  0.24782340851E+03  0.12500000000E+03 0.  0.
         25    1    1    2    0    0 -0.32024765457E+02 -0.71742959612E+01  0.36064783857E+03  0.38310431946E+03  0.12500000000E+03 0.  0.
</event>
<event>
 5    0  0.5713700E-005  0.3303339E+03  0.7546771E-02  0.1070989E+00
         21   -1    0    0  502  501  0.00000000000E+00  0.00000000000E+00  0.43790068986E+03  0.43790068986E+03  0.00000000000E+00 0.  1.
         21   -1    0    0  501  502 -0.00000000000E+00 -0.00000000000E+00 -0.24919010131E+03  0.24919010131E+03  0.00000000000E+00 0.  1.
         25    1    1    2    0    0 -0.91272438138E+02 -0.10902010126E+03  0.50804296476E+02  0.19601560393E+03  0.12500000000E+03 0.  0.
         25    1    1    2    0    0  0.15870175414E+02  0.43221232930E+02  0.25837535216E+03  0.29069358446E+03  0.12500000000E+03 0.  0.
         25    1    1    2    0    0  0.75402262724E+02  0.65798868329E+02 -0.12046906008E+03  0.20038160278E+03  0.12500000000E+03 0.  0.
</event>
<event>
 5    0  0.5713700E-005  0.2459036E+03  0.7546771E-02  0.1115921E+00
         21   -1    0    0  502  501  0.00000000000E+00  0.00000000000E+00  0.37371175728E+03  0.37371175728E+03  0.00000000000E+00 0.  1.
         21   -1    0    0  501  502 -0.00000000000E+00 -0.00000000000E+00 -0.16180536899E+03  0.16180536899E+03  0.00000000000E+00 0.  1.
         25    1    1    2    0    0 -0.50795083648E+02 -0.50047319585E+02  0.19872127901E+03  0.24535692665E+03  0.12500000000E+03 0.  0.
         25    1    1    2    0    0  0.68548285235E+02 -0.22128960119E+02  0.11422459007E+02  0.14472052672E+03  0.12500000000E+03 0.  0.
         25    1    1    2    0    0 -0.17753201587E+02  0.72176279704E+02  0.17626502660E+01  0.14543967290E+03  0.12500000000E+03 0.  0.
</event>
<event>
 5    0  0.5713700E-005  0.4322057E+03  0.7546771E-02  0.1033165E+00
         21   -1    0    0  502  501  0.00000000000E+00  0.00000000000E+00  0.54006838475E+02  0.54006838475E+02  0.00000000000E+00 0.  1.
         21   -1    0    0  501  502 -0.00000000000E+00 -0.00000000000E+00 -0.34588537552E+04  0.34588537552E+04  0.00000000000E+00 0.  1.
         25    1    1    2    0    0 -0.27281395069E+03 -0.80288777175E+01 -0.61606067581E+03  0.68530844943E+03  0.12500000000E+03 0.  0.
         25    1    1    2    0    0  0.43620432551E+02  0.20866752311E+02 -0.17940229479E+04  0.17990223737E+04  0.12500000000E+03 0.  0.
         25    1    1    2    0    0  0.22919351814E+03 -0.12837874594E+02 -0.99476329303E+03  0.10285297706E+04  0.12500000000E+03 0.  0.
</event>
<event>
 5    0  0.5713700E-005  0.2999556E+03  0.7546771E-02  0.1085263E+00
         21   -1    0    0  502  501  0.00000000000E+00  0.00000000000E+00  0.93091242548E+02  0.93091242548E+02  0.00000000000E+00 0.  1.
         21   -1    0    0  501  502 -0.00000000000E+00 -0.00000000000E+00 -0.96650719193E+03  0.96650719193E+03  0.00000000000E+00 0.  1.
         25    1    1    2    0    0 -0.13641197838E+03 -0.24491106773E+02 -0.11475912024E+03  0.21909517986E+03  0.12500000000E+03 0.  0.
         25    1    1    2    0    0  0.67155754155E+02  0.88500005590E+02 -0.20199967367E+03  0.26224228200E+03  0.12500000000E+03 0.  0.
         25    1    1    2    0    0  0.69256224229E+02 -0.64008898816E+02 -0.55665715547E+03  0.57826097263E+03  0.12500000000E+03 0.  0.
</event>
<event>
 5    0  0.5713700E-005  0.3121738E+03  0.7546771E-02  0.1079309E+00
         21   -1    0    0  502  501  0.00000000000E+00  0.00000000000E+00  0.72202541367E+03  0.72202541367E+03  0.00000000000E+00 0. -1.
         21   -1    0    0  501  502 -0.00000000000E+00 -0.00000000000E+00 -0.13497096442E+03  0.13497096442E+03  0.00000000000E+00 0. -1.
         25    1    1    2    0    0 -0.90005779308E+02 -0.15707598504E+03  0.40475950088E+02  0.22368998172E+03  0.12500000000E+03 0.  0.
         25    1    1    2    0    0  0.70546602959E+02  0.11667524882E+03  0.35344108955E+03  0.39891796232E+03  0.12500000000E+03 0.  0.
         25    1    1    2    0    0  0.19459176349E+02  0.40400736217E+02  0.19313740960E+03  0.23438843405E+03  0.12500000000E+03 0.  0.
</event>
<event>
 5    0  0.6999700E-005  0.2843502E+03  0.7546771E-02  0.1093336E+00
         21   -1    0    0  502  501  0.00000000000E+00  0.00000000000E+00  0.15439676012E+03  0.15439676012E+03  0.00000000000E+00 0.  1.
         21   -1    0    0  501  502 -0.00000000000E+00 -0.00000000000E+00 -0.52368357261E+03  0.52368357261E+03  0.00000000000E+00 0.  1.
         25    1    1    2    0    0 -0.24616130009E+02 -0.11444500662E+02  0.29976362835E+02  0.13137927074E+03  0.12500000000E+03 0.  0.
         25    1    1    2    0    0  0.11780947786E+03  0.60152339056E+02 -0.10492703204E+03  0.21007631713E+03  0.12500000000E+03 0.  0.
         25    1    1    2    0    0 -0.93193347851E+02 -0.48707838394E+02 -0.29433614328E+03  0.33662474485E+03  0.12500000000E+03 0.  0.
</event>
<event>
 5    0  0.5713700E-005  0.3261955E+03  0.7546771E-02  0.1072833E+00
         21   -1    0    0  502  501  0.00000000000E+00  0.00000000000E+00  0.30620406098E+03  0.30620406098E+03  0.00000000000E+00 0.  1.
         21   -1    0    0  501  502 -0.00000000000E+00 -0.00000000000E+00 -0.34749208837E+03  0.34749208837E+03  0.00000000000E+00 0.  1.
         25    1    1    2    0    0 -0.25179233073E+02  0.10324469787E+03  0.20098131054E+03  0.25944546364E+03  0.12500000000E+03 0.  0.
         25    1    1    2    0    0 -0.16817843060E+01  0.25735756811E+02 -0.12100485311E+03  0.17587589958E+03  0.12500000000E+03 0.  0.
         25    1    1    2    0    0  0.26861017378E+02 -0.12898045468E+03 -0.12126448482E+03  0.21837478614E+03  0.12500000000E+03 0.  0.
</event>
<event>
 5    0  0.5713700E-005  0.5308510E+03  0.7546771E-02  0.1006026E+00
         21   -1    0    0  502  501  0.00000000000E+00  0.00000000000E+00  0.10561513309E+04  0.10561513309E+04  0.00000000000E+00 0. -1.
         21   -1    0    0  501  502 -0.00000000000E+00 -0.00000000000E+00 -0.26682048861E+03  0.26682048861E+03  0.00000000000E+00 0. -1.
         25    1    1    2    0    0 -0.10883662363E+03  0.31677475517E+03  0.71055979117E+03  0.79543187828E+03  0.12500000000E+03 0.  0.
         25    1    1    2    0    0 -0.51845263581E+02 -0.55153342248E+02  0.12567694344E+03  0.19274209875E+03  0.12500000000E+03 0.  0.
         25    1    1    2    0    0  0.16068188721E+03 -0.26162141292E+03 -0.46905892343E+02  0.33479784245E+03  0.12500000000E+03 0.  0.
</event>
<event>
 5    0  0.5713700E-005  0.3718461E+03  0.7546771E-02  0.1053989E+00
         21   -1    0    0  502  501  0.00000000000E+00  0.00000000000E+00  0.43247161166E+03  0.43247161166E+03  0.00000000000E+00 0.  1.
         21   -1    0    0  501  502 -0.00000000000E+00 -0.00000000000E+00 -0.31971938605E+03  0.31971938605E+03  0.00000000000E+00 0.  1.
         25    1    1    2    0    0  0.10002771906E+03  0.14161056258E+02 -0.85753216118E+02  0.18216666591E+03  0.12500000000E+03 0.  0.
         25    1    1    2    0    0  0.12243583623E+03  0.15003828019E+03  0.74657389965E+02  0.24228236707E+03  0.12500000000E+03 0.  0.
         25    1    1    2    0    0 -0.22246355529E+03 -0.16419933645E+03  0.12384805176E+03  0.32774196473E+03  0.12500000000E+03 0.  0.
</event>
<event>
 5    0  0.5713700E-005  0.2890179E+03  0.7546771E-02  0.1090863E+00
         21   -1    0    0  502  501  0.00000000000E+00  0.00000000000E+00  0.10390134809E+03  0.10390134809E+03  0.00000000000E+00 0.  1.
         21   -1    0    0  501  502 -0.00000000000E+00 -0.00000000000E+00 -0.80394840646E+03  0.80394840646E+03  0.00000000000E+00 0.  1.
         25    1    1    2    0    0 -0.88373378951E+02 -0.47801157192E+02 -0.32668686490E+02  0.16366749162E+03  0.12500000000E+03 0.  0.
         25    1    1    2    0    0  0.20932416879E+02  0.62497411258E+02 -0.14431955940E+03  0.20198323622E+03  0.12500000000E+03 0.  0.
         25    1    1    2    0    0  0.67440962071E+02 -0.14696254067E+02 -0.52305881248E+03  0.54219902671E+03  0.12500000000E+03 0.  0.
</event>
<event>
 5    0  0.5713700E-005  0.2108584E+03  0.7546771E-02  0.1140888E+00
         21   -1    0    0  502  501  0.00000000000E+00  0.00000000000E+00  0.11230717604E+03  0.11230717604E+03  0.00000000000E+00 0.  1.
         21   -1    0    0  501  502 -0.00000000000E+00 -0.00000000000E+00 -0.39588968906E+03  0.39588968906E+03  0.00000000000E+00 0.  1.
         25    1    1    2    0    0  0.19036683365E+02 -0.31832627670E+02 -0.14243776696E+03  0.19310419197E+03  0.12500000000E+03 0.  0.
         25    1    1    2    0    0  0.12838925013E+02 -0.40345602447E+02 -0.48315614112E+02  0.14054182367E+03  0.12500000000E+03 0.  0.
         25    1    1    2    0    0 -0.31875608378E+02  0.72178230117E+02 -0.92829131950E+02  0.17455084947E+03  0.12500000000E+03 0.  0.
</event>
<event>
 5    0  0.5713700E-005  0.3174304E+03  0.7546771E-02  0.1076838E+00
         21   -1    0    0  502  501  0.00000000000E+00  0.00000000000E+00  0.45486796941E+03  0.45486796941E+03  0.00000000000E+00 0. -1.
         21   -1    0    0  501  502 -0.00000000000E+00 -0.00000000000E+00 -0.22151935199E+03  0.22151935199E+03  0.00000000000E+00 0. -1.
         25    1    1    2    0    0  0.63958220599E+02  0.67783708057E+02 -0.40204989221E+02  0.16101778230E+03  0.12500000000E+03 0.  0.
         25    1    1    2    0    0 -0.12586141219E+03  0.10148534233E+03  0.69691022862E+02  0.21592176466E+03  0.12500000000E+03 0.  0.
         25    1    1    2    0    0  0.61903191592E+02 -0.16926905039E+03  0.20386258378E+03  0.29944777444E+03  0.12500000000E+03 0.  0.
</event>
<event>
 5    0  0.5713700E-005  0.2804605E+03  0.7546771E-02  0.1095438E+00
         21   -1    0    0  502  501  0.00000000000E+00  0.00000000000E+00  0.40671495203E+03  0.40671495203E+03  0.00000000000E+00 0.  1.
         21   -1    0    0  501  502 -0.00000000000E+00 -0.00000000000E+00 -0.19339860998E+03  0.19339860998E+03  0.00000000000E+00 0. -1.
         25    1    1    2    0    0 -0.11678471241E+02  0.48643093782E+02  0.31433241086E+02  0.13825912595E+03  0.12500000000E+03 0.  0.
         25    1    1    2    0    0 -0.74550769371E+02  0.88969033407E+02 -0.22934279345E+02  0.17211707437E+03  0.12500000000E+03 0.  0.
         25    1    1    2    0    0  0.86229240612E+02 -0.13761212719E+03  0.20481738031E+03  0.28973736170E+03  0.12500000000E+03 0.  0.
</event>
<event>
 5    0  0.5915919E-005  0.3226283E+03  0.7546771E-02  0.1074446E+00
         21   -1    0    0  502  501  0.00000000000E+00  0.00000000000E+00  0.45853697240E+03  0.45853697240E+03  0.00000000000E+00 0. -1.
         21   -1    0    0  501  502 -0.00000000000E+00 -0.00000000000E+00 -0.22700240895E+03  0.22700240895E+03  0.00000000000E+00 0. -1.
         25    1    1    2    0    0  0.52700575390E+02  0.11670425421E+03  0.12315780070E+03  0.21723277255E+03  0.12500000000E+03 0.  0.
         25    1    1    2    0    0 -0.10729222477E+03 -0.77352417896E+02 -0.10643115384E+03  0.21082601490E+03  0.12500000000E+03 0.  0.
         25    1    1    2    0    0  0.54591649383E+02 -0.39351836315E+02  0.21480791659E+03  0.25748059390E+03  0.12500000000E+03 0.  0.
</event>
<event>
 5    0  0.5713700E-005  0.4422085E+03  0.7546771E-02  0.1030071E+00
         21   -1    0    0  502  501  0.00000000000E+00  0.00000000000E+00  0.38241840143E+03  0.38241840143E+03  0.00000000000E+00 0. -1.
         21   -1    0    0  501  502 -0.00000000000E+00 -0.00000000000E+00 -0.51134670977E+03  0.51134670977E+03  0.00000000000E+00 0. -1.
         25    1    1    2    0    0 -0.10951177059E+03  0.63937551917E+01  0.21839088800E+03  0.27450553358E+03  0.12500000000E+03 0.  0.
         25    1    1    2    0    0  0.44604839378E+02  0.13702967911E+03 -0.37068108861E+03  0.41688870710E+03  0.12500000000E+03 0.  0.
         25    1    1    2    0    0  0.64906931213E+02 -0.14342343430E+03  0.23361892255E+02  0.20237087052E+03  0.12500000000E+03 0.  0.
</event>
<event>
 5    0  0.5713700E-005  0.2586818E+03  0.7546771E-02  0.1107938E+00
         21   -1    0    0  502  501  0.00000000000E+00  0.00000000000E+00  0.91263222270E+02  0.91263222270E+02  0.00000000000E+00 0. -1.
         21   -1    0    0  501  502 -0.00000000000E+00 -0.00000000000E+00 -0.73322302475E+03  0.73322302475E+03  0.00000000000E+00 0. -1.
         25    1    1    2    0    0  0.14506170087E+03  0.26928964976E+02 -0.33212343068E+03  0.38431632729E+03  0.12500000000E+03 0.  0.
         25    1    1    2    0    0 -0.79947577725E+02  0.37850180796E+02 -0.11714192528E+03  0.19279907165E+03  0.12500000000E+03 0.  0.
         25    1    1    2    0    0 -0.65114123149E+02 -0.64779145771E+02 -0.19269444652E+03  0.24737084808E+03  0.12500000000E+03 0.  0.
</event>
<event>
 5    0  0.5713700E-005  0.2821480E+03  0.7546771E-02  0.1094521E+00
         21   -1    0    0  502  501  0.00000000000E+00  0.00000000000E+00  0.13846540829E+03  0.13846540829E+03  0.00000000000E+00 0. -1.
         21   -1    0    0  501  502 -0.00000000000E+00 -0.00000000000E+00 -0.57492713385E+03  0.57492713385E+03  0.00000000000E+00 0. -1.
         25    1    1    2    0    0  0.17134738773E+02 -0.38252673758E+02 -0.16315514635E+03  0.20976526906E+03  0.12500000000E+03 0.  0.
         25    1    1    2    0    0  0.13998557214E+02 -0.13201273566E+03 -0.38680702523E+02  0.18639881633E+03  0.12500000000E+03 0.  0.
         25    1    1    2    0    0 -0.31133295987E+02  0.17026540942E+03 -0.23462587669E+03  0.31722845675E+03  0.12500000000E+03 0.  0.
</event>
<event>
 5    0  0.5713700E-005  0.2602668E+03  0.7546771E-02  0.1106983E+00
         21   -1    0    0  502  501  0.00000000000E+00  0.00000000000E+00  0.14046537764E+04  0.14046537764E+04  0.00000000000E+00 0.  1.
         21   -1    0    0  501  502 -0.00000000000E+00 -0.00000000000E+00 -0.48224563959E+02  0.48224563959E+02  0.00000000000E+00 0.  1.
         25    1    1    2    0    0  0.10784571450E+03 -0.32935321495E+02  0.60390570388E+03  0.62693104303E+03  0.12500000000E+03 0.  0.
         25    1    1    2    0    0 -0.43565410813E+02 -0.75893258259E+02  0.44875582389E+03  0.47398789135E+03  0.12500000000E+03 0.  0.
         25    1    1    2    0    0 -0.64280303684E+02  0.10882857975E+03  0.30376768472E+03  0.35195940603E+03  0.12500000000E+03 0.  0.
</event>
<event>
 5    0  0.5713700E-005  0.3113606E+03  0.7546771E-02  0.1079696E+00
         21   -1    0    0  502  501  0.00000000000E+00  0.00000000000E+00  0.10089788281E+04  0.10089788281E+04  0.00000000000E+00 0. -1.
         21   -1    0    0  501  502 -0.00000000000E+00 -0.00000000000E+00 -0.96082712170E+02  0.96082712170E+02  0.00000000000E+00 0. -1.
         25    1    1    2    0    0  0.61688508490E+02  0.48524415883E+02  0.17376717628E+03  0.22799149670E+03  0.12500000000E+03 0.  0.
         25    1    1    2    0    0  0.70995041977E+02  0.26327192691E+02  0.41181173541E+02  0.15183644528E+03  0.12500000000E+03 0.  0.
         25    1    1    2    0    0 -0.13268355047E+03 -0.74851608574E+02  0.69794776607E+03  0.72523359825E+03  0.12500000000E+03 0.  0.
</event>
<event>
 5    0  0.5713700E-005  0.2984027E+03  0.7546771E-02  0.1086042E+00
         21   -1    0    0  502  501  0.00000000000E+00  0.00000000000E+00  0.10599046164E+03  0.10599046164E+03  0.00000000000E+00 0.  1.
         21   -1    0    0  501  502 -0.00000000000E+00 -0.00000000000E+00 -0.84011499100E+03  0.84011499100E+03  0.00000000000E+00 0. -1.
         25    1    1    2    0    0  0.44137078141E+02  0.13313844984E+02 -0.28495932123E+03  0.31456661440E+03  0.12500000000E+03 0.  0.
         25    1    1    2    0    0 -0.38652857512E+02 -0.18722672130E+03 -0.20766994111E+03  0.30870648358E+03  0.12500000000E+03 0.  0.
         25    1    1    2    0    0 -0.54842206297E+01  0.17391287631E+03 -0.24149526702E+03  0.32283235466E+03  0.12500000000E+03 0.  0.
</event>
<event>
 5    0  0.5713700E-005  0.3054530E+03  0.7546771E-02  0.1082546E+00
         21   -1    0    0  502  501  0.00000000000E+00  0.00000000000E+00  0.45112360185E+03  0.45112360185E+03  0.00000000000E+00 0. -1.
         21   -1    0    0  501  502 -0.00000000000E+00 -0.00000000000E+00 -0.20682029080E+03  0.20682029080E+03  0.00000000000E+00 0. -1.
         25    1    1    2    0    0 -0.40735601398E+02 -0.49237769281E+02  0.44071626387E+02  0.14714297604E+03  0.12500000000E+03 0.  0.
         25    1    1    2    0    0 -0.56772916400E+02  0.17906096716E+03  0.19183553245E+01  0.22564280198E+03  0.12500000000E+03 0.  0.
         25    1    1    2    0    0  0.97508517798E+02 -0.12982319788E+03  0.19831332934E+03  0.28515811464E+03  0.12500000000E+03 0.  0.
</event>
<event>
 5    0  0.5713700E-005  0.3358157E+03  0.7546771E-02  0.1068592E+00
         21   -1    0    0  502  501  0.00000000000E+00  0.00000000000E+00  0.30265240314E+03  0.30265240314E+03  0.00000000000E+00 0. -1.
         21   -1    0    0  501  502 -0.00000000000E+00 -0.00000000000E+00 -0.37261298345E+03  0.37261298345E+03  0.00000000000E+00 0. -1.
         25    1    1    2    0    0  0.19223421286E+03  0.36347081467E+02  0.17754245327E+02  0.23284182647E+03  0.12500000000E+03 0.  0.
         25    1    1    2    0    0 -0.67437570713E+02  0.78078991470E+02 -0.15216973301E+03  0.22231685158E+03  0.12500000000E+03 0.  0.
         25    1    1    2    0    0 -0.12479664215E+03 -0.11442607294E+03  0.64454907368E+02  0.22010670854E+03  0.12500000000E+03 0.  0.
</event>
<event>
 5    0  0.5713700E-005  0.3507791E+03  0.7546771E-02  0.1062296E+00
         21   -1    0    0  502  501  0.00000000000E+00  0.00000000000E+00  0.18656038166E+04  0.18656038166E+04  0.00000000000E+00 0. -1.
         21   -1    0    0  501  502 -0.00000000000E+00 -0.00000000000E+00 -0.65955052705E+02  0.65955052705E+02  0.00000000000E+00 0. -1.
         25    1    1    2    0    0  0.75044975101E+02 -0.11861360008E+03  0.59023293925E+03  0.61943591839E+03  0.12500000000E+03 0.  0.
         25    1    1    2    0    0 -0.20686426183E+03  0.15717624604E+03  0.95207141855E+03  0.99476740053E+03  0.12500000000E+03 0.  0.
         25    1    1    2    0    0  0.13181928673E+03 -0.38562645959E+02  0.25734440614E+03  0.31735555043E+03  0.12500000000E+03 0.  0.
</event>
<event>
 5    0  0.5713700E-005  0.2313863E+03  0.7546771E-02  0.1125668E+00
         21   -1    0    0  502  501  0.00000000000E+00  0.00000000000E+00  0.47169233648E+03  0.47169233648E+03  0.00000000000E+00 0.  1.
         21   -1    0    0  501  502 -0.00000000000E+00 -0.00000000000E+00 -0.11350539120E+03  0.11350539120E+03  0.00000000000E+00 0.  1.
         25    1    1    2    0    0 -0.29276801539E+02  0.46153604215E+02  0.74175609916E+02  0.15528782115E+03  0.12500000000E+03 0.  0.
         25    1    1    2    0    0 -0.36756392895E+02  0.52400853028E+02  0.75643841327E+02  0.15951135554E+03  0.12500000000E+03 0.  0.
         25    1    1    2    0    0  0.66033194434E+02 -0.98554457243E+02  0.20836749403E+03  0.27039855099E+03  0.12500000000E+03 0.  0.
</event>
<event>
 5    0  0.5713700E-005  0.3063228E+03  0.7546771E-02  0.1082122E+00
         21   -1    0    0  502  501  0.00000000000E+00  0.00000000000E+00  0.18180594015E+03  0.18180594015E+03  0.00000000000E+00 0. -1.
         21   -1    0    0  501  502 -0.00000000000E+00 -0.00000000000E+00 -0.51612000162E+03  0.51612000162E+03  0.00000000000E+00 0. -1.
         25    1    1    2    0    0 -0.53840578706E+02  0.44843079459E+02 -0.18581728623E+03  0.23465458349E+03  0.12500000000E+03 0.  0.
         25    1    1    2    0    0 -0.11974054593E+03 -0.11065513599E+03 -0.11931005578E+03  0.23757577080E+03  0.12500000000E+03 0.  0.
         25    1    1    2    0    0  0.17358112464E+03  0.65812056534E+02 -0.29186719463E+02  0.22569558748E+03  0.12500000000E+03 0.  0.
</event>
<event>
 5    0  0.5713700E-005  0.2911092E+03  0.7546771E-02  0.1089771E+00
         21   -1    0    0  502  501  0.00000000000E+00  0.00000000000E+00  0.36853794569E+03  0.36853794569E+03  0.00000000000E+00 0.  1.
         21   -1    0    0  501  502 -0.00000000000E+00 -0.00000000000E+00 -0.22994802507E+03  0.22994802507E+03  0.00000000000E+00 0.  1.
         25    1    1    2    0    0  0.14596572311E+02 -0.73559158531E+02  0.15860163259E+03  0.21541468749E+03  0.12500000000E+03 0.  0.
         25    1    1    2    0    0 -0.52332108556E+02 -0.65133536807E+02 -0.95560506668E+02  0.17815116513E+03  0.12500000000E+03 0.  0.
         25    1    1    2    0    0  0.37735536245E+02  0.13869269534E+03  0.75548794708E+02  0.20492011814E+03  0.12500000000E+03 0.  0.
</event>
<event>
 5    0  0.5713700E-005  0.3501548E+03  0.7546771E-02  0.1062552E+00
         21   -1    0    0  502  501  0.00000000000E+00  0.00000000000E+00  0.44345303952E+03  0.44345303952E+03  0.00000000000E+00 0. -1.
         21   -1    0    0  501  502 -0.00000000000E+00 -0.00000000000E+00 -0.27648557291E+03  0.27648557291E+03  0.00000000000E+00 0. -1.
         25    1    1    2    0    0 -0.17057818810E+03  0.14543534436E+03 -0.11903822905E+02  0.25693395775E+03  0.12500000000E+03 0.  0.
         25    1    1    2    0    0  0.12510828469E+03  0.56047870075E+02  0.82859122805E+02  0.20318484409E+03  0.12500000000E+03 0.  0.
         25    1    1    2    0    0  0.45469903416E+02 -0.20148321444E+03  0.96012166711E+02  0.25981981059E+03  0.12500000000E+03 0.  0.
</event>
<event>
 5    0  0.5713700E-005  0.3449297E+03  0.7546771E-02  0.1064716E+00
         21   -1    0    0  502  501  0.00000000000E+00  0.00000000000E+00  0.35240912282E+03  0.35240912282E+03  0.00000000000E+00 0. -1.
         21   -1    0    0  501  502 -0.00000000000E+00 -0.00000000000E+00 -0.33760897411E+03  0.33760897411E+03  0.00000000000E+00 0. -1.
         25    1    1    2    0    0  0.10043161454E+03  0.40610291620E+02 -0.19171915590E+03  0.25321322976E+03  0.12500000000E+03 0.  0.
         25    1    1    2    0    0  0.76012674489E+02  0.40633754678E+02  0.10427919526E+03  0.18419603488E+03  0.12500000000E+03 0.  0.
         25    1    1    2    0    0 -0.17644428903E+03 -0.81244046298E+02  0.10224010935E+03  0.25260883229E+03  0.12500000000E+03 0.  0.
</event>
<event>
 5    0  0.5713700E-005  0.2682117E+03  0.7546771E-02  0.1102307E+00
         21   -1    0    0  502  501  0.00000000000E+00  0.00000000000E+00  0.59956118093E+02  0.59956118093E+02  0.00000000000E+00 0. -1.
         21   -1    0    0  501  502 -0.00000000000E+00 -0.00000000000E+00 -0.11998364566E+04  0.11998364566E+04  0.00000000000E+00 0. -1.
         25    1    1    2    0    0  0.67070614936E+02  0.81762141862E+00 -0.35348125105E+03  0.38088466855E+03  0.12500000000E+03 0.  0.
         25    1    1    2    0    0  0.68809203742E+02  0.10678687075E+03 -0.33395981093E+03  0.37853969092E+03  0.12500000000E+03 0.  0.
         25    1    1    2    0    0 -0.13587981868E+03 -0.10760449217E+03 -0.45243927648E+03  0.50036821518E+03  0.12500000000E+03 0.  0.
</event>
<event>
 5    0  0.5713700E-005  0.2561044E+03  0.7546771E-02  0.1109507E+00
         21   -1    0    0  502  501  0.00000000000E+00  0.00000000000E+00  0.94231059911E+02  0.94231059911E+02  0.00000000000E+00 0. -1.
         21   -1    0    0  501  502 -0.00000000000E+00 -0.00000000000E+00 -0.69604925557E+03  0.69604925557E+03  0.00000000000E+00 0. -1.
         25    1    1    2    0    0  0.93401858825E+01  0.33579819670E+02 -0.11541791427E+03  0.17366962399E+03  0.12500000000E+03 0.  0.
         25    1    1    2    0    0 -0.22066889925E+02 -0.13847742419E+03 -0.14262791999E+03  0.23586154456E+03  0.12500000000E+03 0.  0.
         25    1    1    2    0    0  0.12726704042E+02  0.10489760452E+03 -0.34377236140E+03  0.38074914693E+03  0.12500000000E+03 0.  0.
</event>
<event>
 5    0  0.5863131E-005  0.3004967E+03  0.7546771E-02  0.1084993E+00
         21   -1    0    0  502  501  0.00000000000E+00  0.00000000000E+00  0.64122558520E+03  0.64122558520E+03  0.00000000000E+00 0. -1.
         21   -1    0    0  501  502 -0.00000000000E+00 -0.00000000000E+00 -0.14082140508E+03  0.14082140508E+03  0.00000000000E+00 0. -1.
         25    1    1    2    0    0 -0.83250210870E+02  0.76061047410E+02  0.17035873798E+03  0.23950569962E+03  0.12500000000E+03 0.  0.
         25    1    1    2    0    0 -0.82171833517E+02 -0.99770708564E+02  0.27176767865E+03  0.32586665320E+03  0.12500000000E+03 0.  0.
         25    1    1    2    0    0  0.16542204439E+03  0.23709661153E+02  0.58277763504E+02  0.21667463746E+03  0.12500000000E+03 0.  0.
</event>
<event>
 5    0  0.5713700E-005  0.3473048E+03  0.7546771E-02  0.1063727E+00
         21   -1    0    0  502  501  0.00000000000E+00  0.00000000000E+00  0.52631809205E+03  0.52631809205E+03  0.00000000000E+00 0. -1.
         21   -1    0    0  501  502 -0.00000000000E+00 -0.00000000000E+00 -0.22917818186E+03  0.22917818186E+03  0.00000000000E+00 0. -1.
         25    1    1    2    0    0 -0.12443375973E+03  0.99904973373E+02 -0.11684424035E+03  0.23397081179E+03  0.12500000000E+03 0.  0.
         25    1    1    2    0    0  0.36299372117E+02 -0.86913201907E+02  0.15377519919E+03  0.21941595422E+03  0.12500000000E+03 0.  0.
         25    1    1    2    0    0  0.88134387612E+02 -0.12991771466E+02  0.26020895134E+03  0.30210950790E+03  0.12500000000E+03 0.  0.
</event>
<event>
 5    0  0.5713700E-005  0.3248803E+03  0.7546771E-02  0.1073425E+00
         21   -1    0    0  502  501  0.00000000000E+00  0.00000000000E+00  0.88036016231E+03  0.88036016231E+03  0.00000000000E+00 0.  1.
         21   -1    0    0  501  502 -0.00000000000E+00 -0.00000000000E+00 -0.11989097614E+03  0.11989097614E+03  0.00000000000E+00 0.  1.
         25    1    1    2    0    0 -0.18272662710E+03 -0.80425463392E+02  0.28955485440E+03  0.37326168987E+03  0.12500000000E+03 0.  0.
         25    1    1    2    0    0  0.19050299487E+03  0.12375057846E+03  0.39999469579E+03  0.47668265480E+03  0.12500000000E+03 0.  0.
         25    1    1    2    0    0 -0.77763677732E+01 -0.43325115073E+02  0.70919635981E+02  0.15030679379E+03  0.12500000000E+03 0.  0.
</event>
<event>
 5    0  0.5713700E-005  0.3430623E+03  0.7546771E-02  0.1065499E+00
         21   -1    0    0  502  501  0.00000000000E+00  0.00000000000E+00  0.38533949330E+03  0.38533949330E+03  0.00000000000E+00 0.  1.
         21   -1    0    0  501  502 -0.00000000000E+00 -0.00000000000E+00 -0.30542358084E+03  0.30542358084E+03  0.00000000000E+00 0.  1.
         25    1    1    2    0    0  0.36018053606E+02  0.10055477211E+02 -0.20573628525E+03  0.24362026163E+03  0.12500000000E+03 0.  0.
         25    1    1    2    0    0 -0.79852081848E+02 -0.58626789665E+02  0.25807936607E+03  0.30338657622E+03  0.12500000000E+03 0.  0.
         25    1    1    2    0    0  0.43834028242E+02  0.48571312454E+02  0.27572831636E+02  0.14375623628E+03  0.12500000000E+03 0.  0.
</event>
<event>
 5    0  0.5713700E-005  0.2106007E+03  0.7546771E-02  0.1141091E+00
         21   -1    0    0  502  501  0.00000000000E+00  0.00000000000E+00  0.15322032753E+03  0.15322032753E+03  0.00000000000E+00 0.  1.
         21   -1    0    0  501  502 -0.00000000000E+00 -0.00000000000E+00 -0.28946982785E+03  0.28946982785E+03  0.00000000000E+00 0.  1.
         25    1    1    2    0    0 -0.61472367453E+02  0.79261018265E+01 -0.27826810910E+02  0.14227089111E+03  0.12500000000E+03 0.  0.
         25    1    1    2    0    0 -0.18993023652E+02 -0.76932547212E+01 -0.77753547484E+02  0.14862885071E+03  0.12500000000E+03 0.  0.
         25    1    1    2    0    0  0.80465391104E+02 -0.23284710527E+00 -0.30669141926E+02  0.15179041356E+03  0.12500000000E+03 0.  0.
</event>
<event>
 5    0  0.5713700E-005  0.3786025E+03  0.7546771E-02  0.1051451E+00
         21   -1    0    0  502  501  0.00000000000E+00  0.00000000000E+00  0.24701111920E+03  0.24701111920E+03  0.00000000000E+00 0.  1.
         21   -1    0    0  501  502 -0.00000000000E+00 -0.00000000000E+00 -0.58029730817E+03  0.58029730817E+03  0.00000000000E+00 0.  1.
         25    1    1    2    0    0  0.11308574400E+03 -0.91373251893E+01 -0.41659347026E+03  0.44949638005E+03  0.12500000000E+03 0.  0.
         25    1    1    2    0    0 -0.14195768787E+03  0.91790299515E+02  0.80638575834E+02  0.22517776121E+03  0.12500000000E+03 0.  0.
         25    1    1    2    0    0  0.28871943878E+02 -0.82652974326E+02  0.26687054528E+01  0.15263428611E+03  0.12500000000E+03 0.  0.
</event>
<event>
 5    0  0.5713700E-005  0.2031723E+03  0.7546771E-02  0.1147090E+00
         21   -1    0    0  502  501  0.00000000000E+00  0.00000000000E+00  0.24263360437E+03  0.24263360437E+03  0.00000000000E+00 0.  1.
         21   -1    0    0  501  502 -0.00000000000E+00 -0.00000000000E+00 -0.17012888280E+03  0.17012888280E+03  0.00000000000E+00 0.  1.
         25    1    1    2    0    0  0.14334827579E+02  0.14113023097E+02 -0.43790873666E+02  0.13396755323E+03  0.12500000000E+03 0.  0.
         25    1    1    2    0    0  0.59957363224E+01 -0.34369953774E+01  0.70678679316E+02  0.14376452101E+03  0.12500000000E+03 0.  0.
         25    1    1    2    0    0 -0.20330563902E+02 -0.10676027719E+02  0.45616915924E+02  0.13503041293E+03  0.12500000000E+03 0.  0.
</event>
<event>
 5    0  0.5713700E-005  0.2563646E+03  0.7546771E-02  0.1109347E+00
         21   -1    0    0  502  501  0.00000000000E+00  0.00000000000E+00  0.30734460432E+03  0.30734460432E+03  0.00000000000E+00 0. -1.
         21   -1    0    0  501  502 -0.00000000000E+00 -0.00000000000E+00 -0.21384071604E+03  0.21384071604E+03  0.00000000000E+00 0. -1.
         25    1    1    2    0    0  0.34044798150E+02  0.10980795475E+03  0.14081720633E+03  0.22061577642E+03  0.12500000000E+03 0.  0.
         25    1    1    2    0    0 -0.45548816793E+02 -0.11565484774E+02  0.25009987475E+01  0.13356537779E+03  0.12500000000E+03 0.  0.
         25    1    1    2    0    0  0.11504018643E+02 -0.98242469979E+02 -0.49814316801E+02  0.16700416615E+03  0.12500000000E+03 0.  0.
</event>
<event>
 5    0  0.5713700E-005  0.3656067E+03  0.7546771E-02  0.1056386E+00
         21   -1    0    0  502  501  0.00000000000E+00  0.00000000000E+00  0.10180228279E+03  0.10180228279E+03  0.00000000000E+00 0. -1.
         21   -1    0    0  501  502 -0.00000000000E+00 -0.00000000000E+00 -0.13130181335E+04  0.13130181335E+04  0.00000000000E+00 0. -1.
         25    1    1    2    0    0  0.66314832713E+02 -0.91167729434E+01 -0.87161474367E+03  0.88307306264E+03  0.12500000000E+03 0.  0.
         25    1    1    2    0    0 -0.12694547077E+03  0.12455552788E+03 -0.12319293578E+03  0.24986142459E+03  0.12500000000E+03 0.  0.
         25    1    1    2    0    0  0.60630638055E+02 -0.11543875493E+03 -0.21640817127E+03  0.28188592907E+03  0.12500000000E+03 0.  0.
</event>
<event>
 5    0  0.5713700E-005  0.3221113E+03  0.7546771E-02  0.1074682E+00
         21   -1    0    0  502  501  0.00000000000E+00  0.00000000000E+00  0.32336015630E+03  0.32336015630E+03  0.00000000000E+00 0.  1.
         21   -1    0    0  501  502 -0.00000000000E+00 -0.00000000000E+00 -0.32086727049E+03  0.32086727049E+03  0.00000000000E+00 0.  1.
         25    1    1    2    0    0 -0.14733102996E+03 -0.74171407252E+02  0.66096085031E+02  0.21725911373E+03  0.12500000000E+03 0.  0.
         25    1    1    2    0    0  0.21842238172E+02  0.10782742099E+03  0.90737525958E+02  0.18963684954E+03  0.12500000000E+03 0.  0.
         25    1    1    2    0    0  0.12548879179E+03 -0.33656013741E+02 -0.15434072518E+03  0.23733146351E+03  0.12500000000E+03 0.  0.
</event>
<event>
 5    0  0.5713700E-005  0.2598797E+03  0.7546771E-02  0.1107216E+00
         21   -1    0    0  502  501  0.00000000000E+00  0.00000000000E+00  0.23407573444E+03  0.23407573444E+03  0.00000000000E+00 0. -1.
         21   -1    0    0  501  502 -0.00000000000E+00 -0.00000000000E+00 -0.28852830260E+03  0.28852830260E+03  0.00000000000E+00 0. -1.
         25    1    1    2    0    0  0.91118745180E+02 -0.52460817289E+02 -0.12858492101E+03  0.20787940010E+03  0.12500000000E+03 0.  0.
         25    1    1    2    0    0 -0.11299985436E+02  0.23039555396E+02 -0.30061537153E+02  0.13109998779E+03  0.12500000000E+03 0.  0.
         25    1    1    2    0    0 -0.79818759744E+02  0.29421261893E+02  0.10419389001E+03  0.18362464914E+03  0.12500000000E+03 0.  0.
</event>
<event>
 5    0  0.5713700E-005  0.3309853E+03  0.7546771E-02  0.1070702E+00
         21   -1    0    0  502  501  0.00000000000E+00  0.00000000000E+00  0.15239233485E+04  0.15239233485E+04  0.00000000000E+00 0. -1.
         21   -1    0    0  501  502 -0.00000000000E+00 -0.00000000000E+00 -0.71887654278E+02  0.71887654278E+02  0.00000000000E+00 0. -1.
         25    1    1    2    0    0  0.10378277775E+03  0.91938192781E+02  0.11999531456E+03  0.22191748864E+03  0.12500000000E+03 0.  0.
         25    1    1    2    0    0 -0.60536383799E+02 -0.97015436474E+02  0.10339231441E+04  0.10477111800E+04  0.12500000000E+03 0.  0.
         25    1    1    2    0    0 -0.43246393955E+02  0.50772436931E+01  0.29811723550E+03  0.32618233412E+03  0.12500000000E+03 0.  0.
</event>
<event>
 5    0  0.5713700E-005  0.3079398E+03  0.7546771E-02  0.1081338E+00
         21   -1    0    0  502  501  0.00000000000E+00  0.00000000000E+00  0.52755695604E+02  0.52755695604E+02  0.00000000000E+00 0. -1.
         21   -1    0    0  501  502 -0.00000000000E+00 -0.00000000000E+00 -0.17974726446E+04  0.17974726446E+04  0.00000000000E+00 0. -1.
         25    1    1    2    0    0 -0.79958882751E+02 -0.25011410367E+02 -0.16261680055E+03  0.22155860940E+03  0.12500000000E+03 0.  0.
         25    1    1    2    0    0  0.17167223792E+03 -0.85541171697E+01 -0.11230852967E+04  0.11430179849E+04  0.12500000000E+03 0.  0.
         25    1    1    2    0    0 -0.91713355165E+02  0.33565527537E+02 -0.45901485182E+03  0.48565174595E+03  0.12500000000E+03 0.  0.
</event>
<event>
 5    0  0.5713700E-005  0.2497668E+03  0.7546771E-02  0.1113452E+00
         21   -1    0    0  502  501  0.00000000000E+00  0.00000000000E+00  0.15381863736E+03  0.15381863736E+03  0.00000000000E+00 0. -1.
         21   -1    0    0  501  502 -0.00000000000E+00 -0.00000000000E+00 -0.40556489824E+03  0.40556489824E+03  0.00000000000E+00 0. -1.
         25    1    1    2    0    0  0.23395902956E+02  0.77542678501E+01 -0.16858849434E+03  0.21131629698E+03  0.12500000000E+03 0.  0.
         25    1    1    2    0    0  0.92499364457E+02 -0.76508893557E-01  0.58533565269E+01  0.15561298166E+03  0.12500000000E+03 0.  0.
         25    1    1    2    0    0 -0.11589526741E+03 -0.76777589566E+01 -0.89011123068E+02  0.19245425696E+03  0.12500000000E+03 0.  0.
</event>
<event>
 5    0  0.5713700E-005  0.4790730E+03  0.7546771E-02  0.1019390E+00
         21   -1    0    0  502  501  0.00000000000E+00  0.00000000000E+00  0.38402865270E+03  0.38402865270E+03  0.00000000000E+00 0. -1.
         21   -1    0    0  501  502 -0.00000000000E+00 -0.00000000000E+00 -0.59764025495E+03  0.59764025495E+03  0.00000000000E+00 0. -1.
         25    1    1    2    0    0 -0.18244325756E+02  0.28287023329E+03  0.43173688984E+02  0.31278969249E+03  0.12500000000E+03 0.  0.
         25    1    1    2    0    0  0.73009204887E+02  0.51570784983E+02  0.81541354982E+02  0.17396517592E+03  0.12500000000E+03 0.  0.
         25    1    1    2    0    0 -0.54764879132E+02 -0.33444101828E+03 -0.33832664622E+03  0.49491403924E+03  0.12500000000E+03 0.  0.
</event>
<event>
 5    0  0.5713700E-005  0.2701268E+03  0.7546771E-02  0.1101207E+00
         21   -1    0    0  502  501  0.00000000000E+00  0.00000000000E+00  0.69410831512E+03  0.69410831512E+03  0.00000000000E+00 0. -1.
         21   -1    0    0  501  502 -0.00000000000E+00 -0.00000000000E+00 -0.10512550787E+03  0.10512550787E+03  0.00000000000E+00 0. -1.
         25    1    1    2    0    0 -0.19703780706E+02 -0.48537486647E+02  0.24604189895E+03  0.28090166006E+03  0.12500000000E+03 0.  0.
         25    1    1    2    0    0 -0.86627009682E+01 -0.22755785906E+02 -0.18106555075E+02  0.12863015011E+03  0.12500000000E+03 0.  0.
         25    1    1    2    0    0  0.28366481674E+02  0.71293272553E+02  0.36104746338E+03  0.38970201283E+03  0.12500000000E+03 0.  0.
</event>
<event>
 5    0  0.5713700E-005  0.2989735E+03  0.7546771E-02  0.1085755E+00
         21   -1    0    0  502  501  0.00000000000E+00  0.00000000000E+00  0.21870901060E+03  0.21870901060E+03  0.00000000000E+00 0.  1.
         21   -1    0    0  501  502 -0.00000000000E+00 -0.00000000000E+00 -0.40869435848E+03  0.40869435848E+03  0.00000000000E+00 0.  1.
         25    1    1    2    0    0  0.19122274991E+03 -0.49119394412E+02 -0.64976679203E+02  0.24254035506E+03  0.12500000000E+03 0.  0.
         25    1    1    2    0    0 -0.17545723188E+03 -0.48732684486E+01 -0.28810277332E+02  0.21740290027E+03  0.12500000000E+03 0.  0.
         25    1    1    2    0    0 -0.15765518031E+02  0.53992662861E+02 -0.96198391340E+02  0.16746011375E+03  0.12500000000E+03 0.  0.
</event>
<event>
 5    0  0.5713700E-005  0.2759252E+03  0.7546771E-02  0.1097936E+00
         21   -1    0    0  502  501  0.00000000000E+00  0.00000000000E+00  0.67946513444E+02  0.67946513444E+02  0.00000000000E+00 0. -1.
         21   -1    0    0  501  502 -0.00000000000E+00 -0.00000000000E+00 -0.11205094117E+04  0.11205094117E+04  0.00000000000E+00 0. -1.
         25    1    1    2    0    0  0.99731189481E+02  0.35537941189E+02 -0.58419863503E+03  0.60673083043E+03  0.12500000000E+03 0.  0.
         25    1    1    2    0    0  0.27860922896E+02 -0.89894961181E+02 -0.24369310421E+03  0.28960087036E+03  0.12500000000E+03 0.  0.
         25    1    1    2    0    0 -0.12759211238E+03  0.54357019992E+02 -0.22467115900E+03  0.29212422434E+03  0.12500000000E+03 0.  0.
</event>
<event>
 5    0  0.5713700E-005  0.2854127E+03  0.7546771E-02  0.1092769E+00
         21   -1    0    0  502  501  0.00000000000E+00  0.00000000000E+00  0.10768383982E+03  0.10768383982E+03  0.00000000000E+00 0.  1.
         21   -1    0    0  501  502 -0.00000000000E+00 -0.00000000000E+00 -0.75647761738E+03  0.75647761738E+03  0.00000000000E+00 0.  1.
         25    1    1    2    0    0 -0.18534048142E+02 -0.31925340972E+02 -0.26935187513E+02  0.13309110663E+03  0.12500000000E+03 0.  0.
         25    1    1    2    0    0  0.33169606980E+02 -0.12603667200E+03 -0.25806485249E+03  0.31497290932E+03  0.12500000000E+03 0.  0.
         25    1    1    2    0    0 -0.14635558838E+02  0.15796201297E+03 -0.36379373756E+03  0.41609744124E+03  0.12500000000E+03 0.  0.
</event>
<event>
 5    0  0.5713700E-005  0.4496364E+03  0.7546771E-02  0.1027831E+00
         21   -1    0    0  502  501  0.00000000000E+00  0.00000000000E+00  0.97175660226E+03  0.97175660226E+03  0.00000000000E+00 0.  1.
         21   -1    0    0  501  502 -0.00000000000E+00 -0.00000000000E+00 -0.20804888196E+03  0.20804888196E+03  0.00000000000E+00 0.  1.
         25    1    1    2    0    0 -0.73413462977E+02 -0.16236209450E+02  0.39550414893E+03  0.42154677423E+03  0.12500000000E+03 0.  0.
         25    1    1    2    0    0 -0.24432885033E+03 -0.86714071861E+02  0.25377431965E+03  0.38372167345E+03  0.12500000000E+03 0.  0.
         25    1    1    2    0    0  0.31774231331E+03  0.10295028131E+03  0.11442925174E+03  0.37453703654E+03  0.12500000000E+03 0.  0.
</event>
<event>
 5    0  0.5713700E-005  0.3674034E+03  0.7546771E-02  0.1055690E+00
         21   -1    0    0  502  501  0.00000000000E+00  0.00000000000E+00  0.74937035045E+02  0.74937035045E+02  0.00000000000E+00 0. -1.
         21   -1    0    0  501  502 -0.00000000000E+00 -0.00000000000E+00 -0.18013159613E+04  0.18013159613E+04  0.00000000000E+00 0. -1.
         25    1    1    2    0    0 -0.10926281836E+02  0.20224312321E+03 -0.39115122828E+03  0.45787110403E+03  0.12500000000E+03 0.  0.
         25    1    1    2    0    0  0.10383645635E+03 -0.26384637803E+03 -0.91271047154E+03  0.96387879203E+03  0.12500000000E+03 0.  0.
         25    1    1    2    0    0 -0.92910174512E+02  0.61603254819E+02 -0.42251722642E+03  0.45450310027E+03  0.12500000000E+03 0.  0.
</event>
<event>
 5    0  0.5713700E-005  0.3315397E+03  0.7546771E-02  0.1070458E+00
         21   -1    0    0  502  501  0.00000000000E+00  0.00000000000E+00  0.59486049029E+03  0.59486049029E+03  0.00000000000E+00 0.  1.
         21   -1    0    0  501  502 -0.00000000000E+00 -0.00000000000E+00 -0.18478036866E+03  0.18478036866E+03  0.00000000000E+00 0.  1.
         25    1    1    2    0    0 -0.10174750922E+03  0.16963419898E+03  0.65857988194E+02  0.24308556457E+03  0.12500000000E+03 0.  0.
         25    1    1    2    0    0 -0.77301669662E+02 -0.28978698299E+02  0.10065911163E+03  0.18047872407E+03  0.12500000000E+03 0.  0.
         25    1    1    2    0    0  0.17904917888E+03 -0.14065550068E+03  0.24356302180E+03  0.35607657030E+03  0.12500000000E+03 0.  0.
</event>
<event>
 5    0  0.5713700E-005  0.3708671E+03  0.7546771E-02  0.1054362E+00
         21   -1    0    0  502  501  0.00000000000E+00  0.00000000000E+00  0.24553276137E+04  0.24553276137E+04  0.00000000000E+00 0. -1.
         21   -1    0    0  501  502 -0.00000000000E+00 -0.00000000000E+00 -0.56017944257E+02  0.56017944257E+02  0.00000000000E+00 0. -1.
         25    1    1    2    0    0 -0.14300375008E+03 -0.80772751398E+02  0.21139943122E+03  0.29544716859E+03  0.12500000000E+03 0.  0.
         25    1    1    2    0    0  0.16773716338E+03  0.62512020470E+02  0.15316133889E+04  0.15470966620E+04  0.12500000000E+03 0.  0.
         25    1    1    2    0    0 -0.24733413301E+02  0.18260730928E+02  0.65629684930E+03  0.66880172729E+03  0.12500000000E+03 0.  0.
</event>
<event>
 5    0  0.5713700E-005  0.4530780E+03  0.7546771E-02  0.1026808E+00
         21   -1    0    0  502  501  0.00000000000E+00  0.00000000000E+00  0.13848921610E+04  0.13848921610E+04  0.00000000000E+00 0. -1.
         21   -1    0    0  501  502 -0.00000000000E+00 -0.00000000000E+00 -0.14822791904E+03  0.14822791904E+03  0.00000000000E+00 0. -1.
         25    1    1    2    0    0  0.27778610686E+03 -0.13736560429E+03  0.39221465596E+03  0.51525893176E+03  0.12500000000E+03 0.  0.
         25    1    1    2    0    0 -0.32640759151E+03  0.11967687953E+03  0.78983510741E+03  0.87196844449E+03  0.12500000000E+03 0.  0.
         25    1    1    2    0    0  0.48621484647E+02  0.17688724753E+02  0.54614478612E+02  0.14589270382E+03  0.12500000000E+03 0.  0.
</event>
<event>
 5    0  0.5713700E-005  0.2579646E+03  0.7546771E-02  0.1108372E+00
         21   -1    0    0  502  501  0.00000000000E+00  0.00000000000E+00  0.55303873332E+02  0.55303873332E+02  0.00000000000E+00 0. -1.
         21   -1    0    0  501  502 -0.00000000000E+00 -0.00000000000E+00 -0.12032744850E+04  0.12032744850E+04  0.00000000000E+00 0. -1.
         25    1    1    2    0    0 -0.10601731498E+03  0.68685719214E+02 -0.31705789470E+03  0.36346679036E+03  0.12500000000E+03 0.  0.
         25    1    1    2    0    0  0.32133894661E+02 -0.55239405382E+02 -0.18112450782E+03  0.22916166003E+03  0.12500000000E+03 0.  0.
         25    1    1    2    0    0  0.73883420320E+02 -0.13446313832E+02 -0.64978820918E+03  0.66594990798E+03  0.12500000000E+03 0.  0.
</event>
<event>
 5    0  0.5713700E-005  0.2741932E+03  0.7546771E-02  0.1098903E+00
         21   -1    0    0  502  501  0.00000000000E+00  0.00000000000E+00  0.38502412871E+03  0.38502412871E+03  0.00000000000E+00 0. -1.
         21   -1    0    0  501  502 -0.00000000000E+00 -0.00000000000E+00 -0.19526551539E+03  0.19526551539E+03  0.00000000000E+00 0. -1.
         25    1    1    2    0    0  0.10452979996E+03 -0.27307097730E+02  0.18310884953E+03  0.24662929153E+03  0.12500000000E+03 0.  0.
         25    1    1    2    0    0 -0.88060335712E+02 -0.63747067888E+02  0.48485133038E+02  0.17260973181E+03  0.12500000000E+03 0.  0.
         25    1    1    2    0    0 -0.16469464248E+02  0.91054165619E+02 -0.41835369244E+02  0.16105062077E+03  0.12500000000E+03 0.  0.
</event>
<event>
 5    0  0.5713700E-005  0.3486620E+03  0.7546771E-02  0.1063166E+00
         21   -1    0    0  502  501  0.00000000000E+00  0.00000000000E+00  0.11908765558E+04  0.11908765558E+04  0.00000000000E+00 0.  1.
         21   -1    0    0  501  502 -0.00000000000E+00 -0.00000000000E+00 -0.10208043047E+03  0.10208043047E+03  0.00000000000E+00 0.  1.
         25    1    1    2    0    0  0.15813410134E+03  0.12353748665E+03  0.27101697840E+03  0.35964302745E+03  0.12500000000E+03 0.  0.
         25    1    1    2    0    0  0.33350613825E+02 -0.92924454551E+02  0.58212320978E+03  0.60352269970E+03  0.12500000000E+03 0.  0.
         25    1    1    2    0    0 -0.19148471517E+03 -0.30613032095E+02  0.23565593718E+03  0.32979125914E+03  0.12500000000E+03 0.  0.
</event>
<event>
 5    0  0.5713700E-005  0.2769155E+03  0.7546771E-02  0.1097386E+00
         21   -1    0    0  502  501  0.00000000000E+00  0.00000000000E+00  0.95199285489E+03  0.95199285489E+03  0.00000000000E+00 0.  1.
         21   -1    0    0  501  502 -0.00000000000E+00 -0.00000000000E+00 -0.80549130090E+02  0.80549130090E+02  0.00000000000E+00 0.  1.
         25    1    1    2    0    0  0.62549162631E+02  0.87779310852E+02  0.53112487133E+03  0.55618003749E+03  0.12500000000E+03 0.  0.
         25    1    1    2    0    0  0.79671536222E+01  0.47351606628E+02  0.11072598313E+03  0.17375526906E+03  0.12500000000E+03 0.  0.
         25    1    1    2    0    0 -0.70516316253E+02 -0.13513091748E+03  0.22959287035E+03  0.30260667843E+03  0.12500000000E+03 0.  0.
</event>
<event>
 5    0  0.5713700E-005  0.4093111E+03  0.7546771E-02  0.1040602E+00
         21   -1    0    0  502  501  0.00000000000E+00  0.00000000000E+00  0.34127576621E+04  0.34127576621E+04  0.00000000000E+00 0.  1.
         21   -1    0    0  501  502 -0.00000000000E+00 -0.00000000000E+00 -0.49090971380E+02  0.49090971380E+02  0.00000000000E+00 0.  1.
         25    1    1    2    0    0 -0.17375212700E+03 -0.17581922698E+03  0.53427759060E+03  0.60181371372E+03  0.12500000000E+03 0.  0.
         25    1    1    2    0    0  0.95709893307E+02  0.16772943843E+03  0.22656164020E+04  0.22772650766E+04  0.12500000000E+03 0.  0.
         25    1    1    2    0    0  0.78042233693E+02  0.80897885538E+01  0.56377269821E+03  0.58276984322E+03  0.12500000000E+03 0.  0.
</event>
<event>
 5    0  0.5713700E-005  0.2208071E+03  0.7546771E-02  0.1133283E+00
         21   -1    0    0  502  501  0.00000000000E+00  0.00000000000E+00  0.22987182310E+03  0.22987182310E+03  0.00000000000E+00 0. -1.
         21   -1    0    0  501  502 -0.00000000000E+00 -0.00000000000E+00 -0.21209988303E+03  0.21209988303E+03  0.00000000000E+00 0. -1.
         25    1    1    2    0    0 -0.30978203810E+02  0.25995335189E+02 -0.30563370322E+02  0.13488708674E+03  0.12500000000E+03 0.  0.
         25    1    1    2    0    0 -0.51023085601E+02 -0.41936963977E+02 -0.18449882633E+02  0.14257440998E+03  0.12500000000E+03 0.  0.
         25    1    1    2    0    0  0.82001289411E+02  0.15941628788E+02  0.66785193022E+02  0.16451020941E+03  0.12500000000E+03 0.  0.
</event>
<event>
 5    0  0.5713700E-005  0.3973559E+03  0.7546771E-02  0.1044699E+00
         21   -1    0    0  502  501  0.00000000000E+00  0.00000000000E+00  0.14918099929E+03  0.14918099929E+03  0.00000000000E+00 0.  1.
         21   -1    0    0  501  502 -0.00000000000E+00 -0.00000000000E+00 -0.10583901185E+04  0.10583901185E+04  0.00000000000E+00 0.  1.
         25    1    1    2    0    0 -0.29047103546E+03 -0.44963218026E+02 -0.37751729958E+03  0.49450927685E+03  0.12500000000E+03 0.  0.
         25    1    1    2    0    0  0.10507347082E+03  0.11481004070E+03 -0.10319717874E+03  0.22471412376E+03  0.12500000000E+03 0.  0.
         25    1    1    2    0    0  0.18539756464E+03 -0.69846822674E+02 -0.42849464093E+03  0.48834771722E+03  0.12500000000E+03 0.  0.
</event>
<event>
 5    0  0.5713700E-005  0.3044004E+03  0.7546771E-02  0.1083061E+00
         21   -1    0    0  502  501  0.00000000000E+00  0.00000000000E+00  0.64774951521E+02  0.64774951521E+02  0.00000000000E+00 0.  1.
         21   -1    0    0  501  502 -0.00000000000E+00 -0.00000000000E+00 -0.14304851771E+04  0.14304851771E+04  0.00000000000E+00 0.  1.
         25    1    1    2    0    0  0.18660447748E+02 -0.73265941821E+02 -0.66848319942E+02  0.16065431342E+03  0.12500000000E+03 0.  0.
         25    1    1    2    0    0  0.70681936805E+02  0.44029123043E+02 -0.61187521577E+03  0.63004029993E+03  0.12500000000E+03 0.  0.
         25    1    1    2    0    0 -0.89342384553E+02  0.29236818778E+02 -0.68698668987E+03  0.70456551527E+03  0.12500000000E+03 0.  0.
</event>
<event>
 5    0  0.5713700E-005  0.2320231E+03  0.7546771E-02  0.1125224E+00
         21   -1    0    0  502  501  0.00000000000E+00  0.00000000000E+00  0.49743377379E+03  0.49743377379E+03  0.00000000000E+00 0. -1.
         21   -1    0    0  501  502 -0.00000000000E+00 -0.00000000000E+00 -0.10822486168E+03  0.10822486168E+03  0.00000000000E+00 0. -1.
         25    1    1    2    0    0  0.91688020668E+02 -0.69614589647E+02  0.13014359211E+03  0.21404494573E+03  0.12500000000E+03 0.  0.
         25    1    1    2    0    0 -0.52786366118E+01  0.26750141071E+02  0.71942535113E+02  0.14677929830E+03  0.12500000000E+03 0.  0.
         25    1    1    2    0    0 -0.86409384056E+02  0.42864448576E+02  0.18712278489E+03  0.24483439144E+03  0.12500000000E+03 0.  0.
</event>
<event>
 5    0  0.5713700E-005  0.3918663E+03  0.7546771E-02  0.1046633E+00
         21   -1    0    0  502  501  0.00000000000E+00  0.00000000000E+00  0.19780766865E+03  0.19780766865E+03  0.00000000000E+00 0.  1.
         21   -1    0    0  501  502 -0.00000000000E+00 -0.00000000000E+00 -0.77630565926E+03  0.77630565926E+03  0.00000000000E+00 0.  1.
         25    1    1    2    0    0  0.14104424412E+02 -0.20383196147E+02 -0.43374865376E+03  0.45208108134E+03  0.12500000000E+03 0.  0.
         25    1    1    2    0    0  0.30794726524E+02 -0.10099160960E+03 -0.26083568675E+03  0.30790887593E+03  0.12500000000E+03 0.  0.
         25    1    1    2    0    0 -0.44899150937E+02  0.12137480575E+03  0.11608634989E+03  0.21412337065E+03  0.12500000000E+03 0.  0.
</event>
<event>
 5    0  0.5713700E-005  0.3427877E+03  0.7546771E-02  0.1065615E+00
         21   -1    0    0  502  501  0.00000000000E+00  0.00000000000E+00  0.13562813590E+04  0.13562813590E+04  0.00000000000E+00 0.  1.
         21   -1    0    0  501  502 -0.00000000000E+00 -0.00000000000E+00 -0.86636429897E+02  0.86636429897E+02  0.00000000000E+00 0.  1.
         25    1    1    2    0    0 -0.20317956773E+02  0.63180567561E+02  0.10465758888E+03  0.17601935801E+03  0.12500000000E+03 0.  0.
         25    1    1    2    0    0  0.18426597175E+03  0.90132292378E+02  0.52951500556E+03  0.58145414229E+03  0.12500000000E+03 0.  0.
         25    1    1    2    0    0 -0.16394801498E+03 -0.15331285994E+03  0.63547233465E+03  0.68544428858E+03  0.12500000000E+03 0.  0.
</event>
<event>
 5    0  0.5713700E-005  0.3920880E+03  0.7546771E-02  0.1046554E+00
         21   -1    0    0  502  501  0.00000000000E+00  0.00000000000E+00  0.11665379151E+03  0.11665379151E+03  0.00000000000E+00 0. -1.
         21   -1    0    0  501  502 -0.00000000000E+00 -0.00000000000E+00 -0.13178568067E+04  0.13178568067E+04  0.00000000000E+00 0. -1.
         25    1    1    2    0    0  0.15337124257E+03  0.13155680609E+03 -0.49561689313E+03  0.54962808883E+03  0.12500000000E+03 0.  0.
         25    1    1    2    0    0 -0.28047123434E+03 -0.12596456504E+02 -0.31958440683E+03  0.44337566138E+03  0.12500000000E+03 0.  0.
         25    1    1    2    0    0  0.12709999177E+03 -0.11896034959E+03 -0.38600171521E+03  0.44150684799E+03  0.12500000000E+03 0.  0.
</event>
<event>
 5    0  0.5713700E-005  0.2996415E+03  0.7546771E-02  0.1085420E+00
         21   -1    0    0  502  501  0.00000000000E+00  0.00000000000E+00  0.26791007212E+03  0.26791007212E+03  0.00000000000E+00 0. -1.
         21   -1    0    0  501  502 -0.00000000000E+00 -0.00000000000E+00 -0.33513123940E+03  0.33513123940E+03  0.00000000000E+00 0. -1.
         25    1    1    2    0    0  0.11085878304E+02  0.67899070067E+02  0.14839762006E+03  0.20586411550E+03  0.12500000000E+03 0.  0.
         25    1    1    2    0    0  0.99283265470E+01 -0.18569967521E+02  0.16815098858E+02  0.12787166579E+03  0.12500000000E+03 0.  0.
         25    1    1    2    0    0 -0.21014204851E+02 -0.49329102546E+02 -0.23243388620E+03  0.26930553024E+03  0.12500000000E+03 0.  0.
</event>
<event>
 5    0  0.5713700E-005  0.3556586E+03  0.7546771E-02  0.1060316E+00
         21   -1    0    0  502  501  0.00000000000E+00  0.00000000000E+00  0.90514399410E+03  0.90514399410E+03  0.00000000000E+00 0.  1.
         21   -1    0    0  501  502 -0.00000000000E+00 -0.00000000000E+00 -0.13974908546E+03  0.13974908546E+03  0.00000000000E+00 0.  1.
         25    1    1    2    0    0  0.11126602846E+03  0.13894715735E+03  0.60235830814E+02  0.22569846464E+03  0.12500000000E+03 0.  0.
         25    1    1    2    0    0 -0.18111322733E+03 -0.12687183835E+03  0.56010467643E+03  0.61501277469E+03  0.12500000000E+03 0.  0.
         25    1    1    2    0    0  0.69847198867E+02 -0.12075318995E+02  0.14505440140E+03  0.20418184024E+03  0.12500000000E+03 0.  0.
</event>
<event>
 5    0  0.5713700E-005  0.5081543E+03  0.7546771E-02  0.1011672E+00
         21   -1    0    0  502  501  0.00000000000E+00  0.00000000000E+00  0.91934125370E+03  0.91934125370E+03  0.00000000000E+00 0. -1.
         21   -1    0    0  501  502 -0.00000000000E+00 -0.00000000000E+00 -0.28087590115E+03  0.28087590115E+03  0.00000000000E+00 0. -1.
         25    1    1    2    0    0 -0.10370811254E+02 -0.25261917496E+03  0.60729074792E+02  0.28850826991E+03  0.12500000000E+03 0.  0.
         25    1    1    2    0    0 -0.91362441579E+02 -0.73595882696E+02 -0.56510448562E+02  0.18050451650E+03  0.12500000000E+03 0.  0.
         25    1    1    2    0    0  0.10173325283E+03  0.32621505765E+03  0.63424672632E+03  0.73120436843E+03  0.12500000000E+03 0.  0.
</event>
<event>
 5    0  0.5713700E-005  0.2162678E+03  0.7546771E-02  0.1136696E+00
         21   -1    0    0  502  501  0.00000000000E+00  0.00000000000E+00  0.11760851326E+04  0.11760851326E+04  0.00000000000E+00 0. -1.
         21   -1    0    0  501  502 -0.00000000000E+00 -0.00000000000E+00 -0.39769044660E+02  0.39769044660E+02  0.00000000000E+00 0. -1.
         25    1    1    2    0    0 -0.39035027201E+01  0.91908857730E+02  0.41028092381E+03  0.43865466133E+03  0.12500000000E+03 0.  0.
         25    1    1    2    0    0 -0.33091514735E+02 -0.34173326466E+02  0.31835775690E+03  0.34531076723E+03  0.12500000000E+03 0.  0.
         25    1    1    2    0    0  0.36995017455E+02 -0.57735531264E+02  0.40767740724E+03  0.43188874871E+03  0.12500000000E+03 0.  0.
</event>
<event>
 5    0  0.5713700E-005  0.3556262E+03  0.7546771E-02  0.1060329E+00
         21   -1    0    0  502  501  0.00000000000E+00  0.00000000000E+00  0.23458016318E+03  0.23458016318E+03  0.00000000000E+00 0.  1.
         21   -1    0    0  501  502 -0.00000000000E+00 -0.00000000000E+00 -0.53913341525E+03  0.53913341525E+03  0.00000000000E+00 0.  1.
         25    1    1    2    0    0 -0.10170483621E+02  0.16732457890E+03 -0.28227336428E+03  0.35128934743E+03  0.12500000000E+03 0.  0.
         25    1    1    2    0    0  0.14276588066E+03 -0.14354836367E+03 -0.73752728998E+01  0.23804962517E+03  0.12500000000E+03 0.  0.
         25    1    1    2    0    0 -0.13259539704E+03 -0.23776215228E+02 -0.14904614899E+02  0.18437460582E+03  0.12500000000E+03 0.  0.
</event>
<event>
 5    0  0.5713700E-005  0.2962929E+03  0.7546771E-02  0.1087109E+00
         21   -1    0    0  502  501  0.00000000000E+00  0.00000000000E+00  0.27173629982E+03  0.27173629982E+03  0.00000000000E+00 0.  1.
         21   -1    0    0  501  502 -0.00000000000E+00 -0.00000000000E+00 -0.32306872527E+03  0.32306872527E+03  0.00000000000E+00 0.  1.
         25    1    1    2    0    0  0.17642164909E+02  0.12248051558E+03 -0.12770927137E+02  0.17635424366E+03  0.12500000000E+03 0.  0.
         25    1    1    2    0    0 -0.75417402157E+02 -0.17481624967E+03  0.66780452176E+02  0.23734602269E+03  0.12500000000E+03 0.  0.
         25    1    1    2    0    0  0.57775237248E+02  0.52335734091E+02 -0.10534195049E+03  0.18110475873E+03  0.12500000000E+03 0.  0.
</event>
<event>
 5    0  0.5713700E-005  0.2668960E+03  0.7546771E-02  0.1103069E+00
         21   -1    0    0  502  501  0.00000000000E+00  0.00000000000E+00  0.18114535452E+03  0.18114535452E+03  0.00000000000E+00 0. -1.
         21   -1    0    0  501  502 -0.00000000000E+00 -0.00000000000E+00 -0.39323945631E+03  0.39323945631E+03  0.00000000000E+00 0. -1.
         25    1    1    2    0    0 -0.37443755828E+01 -0.69904601962E+02 -0.50409826765E+02  0.15187766247E+03  0.12500000000E+03 0.  0.
         25    1    1    2    0    0 -0.90381070113E+02 -0.76542766407E+02 -0.42851855410E+02  0.17745087894E+03  0.12500000000E+03 0.  0.
         25    1    1    2    0    0  0.94125445696E+02  0.14644736837E+03 -0.11883241962E+03  0.24505626942E+03  0.12500000000E+03 0.  0.
</event>
<event>
 5    0  0.5713700E-005  0.3464652E+03  0.7546771E-02  0.1064075E+00
         21   -1    0    0  502  501  0.00000000000E+00  0.00000000000E+00  0.26247332221E+03  0.26247332221E+03  0.00000000000E+00 0. -1.
         21   -1    0    0  501  502 -0.00000000000E+00 -0.00000000000E+00 -0.45733465230E+03  0.45733465230E+03  0.00000000000E+00 0. -1.
         25    1    1    2    0    0  0.42229054055E+02  0.17308429694E+03 -0.14452902391E+03  0.26125678098E+03  0.12500000000E+03 0.  0.
         25    1    1    2    0    0  0.77715413155E+02  0.58117040346E+02 -0.60626679745E+02  0.16946347724E+03  0.12500000000E+03 0.  0.
         25    1    1    2    0    0 -0.11994446721E+03 -0.23120133729E+03  0.10294373570E+02  0.28908771628E+03  0.12500000000E+03 0.  0.
</event>
<event>
 5    0  0.5713700E-005  0.4192850E+03  0.7546771E-02  0.1037299E+00
         21   -1    0    0  502  501  0.00000000000E+00  0.00000000000E+00  0.41986318356E+03  0.41986318356E+03  0.00000000000E+00 0. -1.
         21   -1    0    0  501  502 -0.00000000000E+00 -0.00000000000E+00 -0.41870769741E+03  0.41870769741E+03  0.00000000000E+00 0. -1.
         25    1    1    2    0    0  0.24726029574E+02  0.14406186034E+02  0.12908402881E+03  0.18195219490E+03  0.12500000000E+03 0.  0.
         25    1    1    2    0    0 -0.18739376446E+03  0.22635899445E+03 -0.11705219309E+03  0.34011914564E+03  0.12500000000E+03 0.  0.
         25    1    1    2    0    0  0.16266773489E+03 -0.24076518048E+03 -0.10876349574E+02  0.31649954042E+03  0.12500000000E+03 0.  0.
</event>
<event>
 5    0  0.5713700E-005  0.3200600E+03  0.7546771E-02  0.1075622E+00
         21   -1    0    0  502  501  0.00000000000E+00  0.00000000000E+00  0.19500971579E+03  0.19500971579E+03  0.00000000000E+00 0. -1.
         21   -1    0    0  501  502 -0.00000000000E+00 -0.00000000000E+00 -0.52529891235E+03  0.52529891235E+03  0.00000000000E+00 0. -1.
         25    1    1    2    0    0  0.17352645419E+03  0.11581613044E+03 -0.28776285827E+03  0.37677217118E+03  0.12500000000E+03 0.  0.
         25    1    1    2    0    0 -0.46592542044E+02 -0.69250332083E+02  0.13910620005E+02  0.15094694040E+03  0.12500000000E+03 0.  0.
         25    1    1    2    0    0 -0.12693391215E+03 -0.46565798355E+02 -0.56436958296E+02  0.19258951657E+03  0.12500000000E+03 0.  0.
</event>
<event>
 5    0  0.5713700E-005  0.2272724E+03  0.7546771E-02  0.1128574E+00
         21   -1    0    0  502  501  0.00000000000E+00  0.00000000000E+00  0.81250083353E+03  0.81250083353E+03  0.00000000000E+00 0.  1.
         21   -1    0    0  501  502 -0.00000000000E+00 -0.00000000000E+00 -0.63572539619E+02  0.63572539619E+02  0.00000000000E+00 0.  1.
         25    1    1    2    0    0  0.39269186233E+02 -0.30631002124E+02  0.20885405907E+03  0.24844585983E+03  0.12500000000E+03 0.  0.
         25    1    1    2    0    0  0.35824768065E+02 -0.22794421648E+02  0.38970330539E+03  0.41145676066E+03  0.12500000000E+03 0.  0.
         25    1    1    2    0    0 -0.75093954298E+02  0.53425423772E+02  0.15037092945E+03  0.21617075265E+03  0.12500000000E+03 0.  0.
</event>
<event>
 5    0  0.5713700E-005  0.2994009E+03  0.7546771E-02  0.1085540E+00
         21   -1    0    0  502  501  0.00000000000E+00  0.00000000000E+00  0.50045687259E+02  0.50045687259E+02  0.00000000000E+00 0.  1.
         21   -1    0    0  501  502 -0.00000000000E+00 -0.00000000000E+00 -0.17911818860E+04  0.17911818860E+04  0.00000000000E+00 0.  1.
         25    1    1    2    0    0  0.77799556445E+02 -0.99681547400E+02 -0.41555220244E+03  0.45199315794E+03  0.12500000000E+03 0.  0.
         25    1    1    2    0    0 -0.29179529958E+02 -0.94786989202E+02 -0.33773931892E+03  0.37353562860E+03  0.12500000000E+03 0.  0.
         25    1    1    2    0    0 -0.48620026487E+02  0.19446853660E+03 -0.98784467742E+03  0.10156987868E+04  0.12500000000E+03 0.  0.
</event>
<event>
 5    0  0.5713700E-005  0.3304887E+03  0.7546771E-02  0.1070921E+00
         21   -1    0    0  502  501  0.00000000000E+00  0.00000000000E+00  0.19772215083E+03  0.19772215083E+03  0.00000000000E+00 0.  1.
         21   -1    0    0  501  502 -0.00000000000E+00 -0.00000000000E+00 -0.55240530578E+03  0.55240530578E+03  0.00000000000E+00 0.  1.
         25    1    1    2    0    0  0.12058762909E+03 -0.23352570627E+03 -0.14106993923E+03  0.32342133438E+03  0.12500000000E+03 0.  0.
         25    1    1    2    0    0 -0.84497553694E+02  0.13517414385E+03 -0.14811957225E+03  0.25095077890E+03  0.12500000000E+03 0.  0.
         25    1    1    2    0    0 -0.36090075398E+02  0.98351562421E+02 -0.65493643468E+02  0.17575534333E+03  0.12500000000E+03 0.  0.
</event>
<event>
 5    0  0.5713700E-005  0.3395555E+03  0.7546771E-02  0.1066985E+00
         21   -1    0    0  502  501  0.00000000000E+00  0.00000000000E+00  0.14255406586E+03  0.14255406586E+03  0.00000000000E+00 0. -1.
         21   -1    0    0  501  502 -0.00000000000E+00 -0.00000000000E+00 -0.80880161118E+03  0.80880161118E+03  0.00000000000E+00 0. -1.
         25    1    1    2    0    0  0.87362979517E+02 -0.25356799910E+03 -0.23436014090E+03  0.37746350287E+03  0.12500000000E+03 0.  0.
         25    1    1    2    0    0 -0.48583124305E+02  0.12165717799E+03 -0.28213178984E+03  0.33523743193E+03  0.12500000000E+03 0.  0.
         25    1    1    2    0    0 -0.38779855212E+02  0.13191082111E+03 -0.14975561458E+03  0.23865474224E+03  0.12500000000E+03 0.  0.
</event>
<event>
 5    0  0.5713700E-005  0.2607567E+03  0.7546771E-02  0.1106689E+00
         21   -1    0    0  502  501  0.00000000000E+00  0.00000000000E+00  0.30120001012E+03  0.30120001012E+03  0.00000000000E+00 0.  1.
         21   -1    0    0  501  502 -0.00000000000E+00 -0.00000000000E+00 -0.22574380288E+03  0.22574380288E+03  0.00000000000E+00 0.  1.
         25    1    1    2    0    0 -0.44995681223E+02 -0.40196703574E+02  0.83028332823E+02  0.16173772089E+03  0.12500000000E+03 0.  0.
         25    1    1    2    0    0  0.46784015491E+02  0.69279804123E+02  0.11377848610E+03  0.18857088658E+03  0.12500000000E+03 0.  0.
         25    1    1    2    0    0 -0.17883342683E+01 -0.29083100549E+02 -0.12135061169E+03  0.17663520553E+03  0.12500000000E+03 0.  0.
</event>
<event>
 5    0  0.5713700E-005  0.2310298E+03  0.7546771E-02  0.1125917E+00
         21   -1    0    0  502  501  0.00000000000E+00  0.00000000000E+00  0.14536283890E+03  0.14536283890E+03  0.00000000000E+00 0. -1.
         21   -1    0    0  501  502 -0.00000000000E+00 -0.00000000000E+00 -0.36718301930E+03  0.36718301930E+03  0.00000000000E+00 0. -1.
         25    1    1    2    0    0 -0.87456626177E+02 -0.53732593695E+02 -0.12351228279E+03  0.20350955036E+03  0.12500000000E+03 0.  0.
         25    1    1    2    0    0  0.25599854228E+02  0.18318368384E+02  0.94764774520E+01  0.12925060457E+03  0.12500000000E+03 0.  0.
         25    1    1    2    0    0  0.61856771949E+02  0.35414225311E+02 -0.10778437506E+03  0.17978570326E+03  0.12500000000E+03 0.  0.
</event>
<event>
 5    0  0.5713700E-005  0.2822910E+03  0.7546771E-02  0.1094444E+00
         21   -1    0    0  502  501  0.00000000000E+00  0.00000000000E+00  0.46199385148E+04  0.46199385148E+04  0.00000000000E+00 0.  1.
         21   -1    0    0  501  502 -0.00000000000E+00 -0.00000000000E+00 -0.17248753694E+02  0.17248753694E+02  0.00000000000E+00 0.  1.
         25    1    1    2    0    0  0.60073616653E+01 -0.19015537579E+03  0.15266038148E+04  0.15434828676E+04  0.12500000000E+03 0.  0.
         25    1    1    2    0    0 -0.12572560077E+02  0.15459282809E+03  0.19316196594E+04  0.19418641869E+04  0.12500000000E+03 0.  0.
         25    1    1    2    0    0  0.65651984117E+01  0.35562547693E+02  0.11444662870E+04  0.11518402140E+04  0.12500000000E+03 0.  0.
</event>
<event>
 5    0  0.5713700E-005  0.3881696E+03  0.7546771E-02  0.1047955E+00
         21   -1    0    0  502  501  0.00000000000E+00  0.00000000000E+00  0.46631362571E+03  0.46631362571E+03  0.00000000000E+00 0. -1.
         21   -1    0    0  501  502 -0.00000000000E+00 -0.00000000000E+00 -0.32312074014E+03  0.32312074014E+03  0.00000000000E+00 0. -1.
         25    1    1    2    0    0  0.27309845728E+02 -0.20332811551E+03  0.11853160938E+03  0.26788596950E+03  0.12500000000E+03 0.  0.
         25    1    1    2    0    0 -0.36106623725E+02 -0.11703815944E+03 -0.13026203367E+02  0.17548874897E+03  0.12500000000E+03 0.  0.
         25    1    1    2    0    0  0.87967779968E+01  0.32036627495E+03  0.37687479560E+02  0.34605964738E+03  0.12500000000E+03 0.  0.
</event>
<event>
 5    0  0.5713700E-005  0.2721471E+03  0.7546771E-02  0.1100057E+00
         21   -1    0    0  502  501  0.00000000000E+00  0.00000000000E+00  0.94697541218E+03  0.94697541218E+03  0.00000000000E+00 0. -1.
         21   -1    0    0  501  502 -0.00000000000E+00 -0.00000000000E+00 -0.78211171020E+02  0.78211171020E+02  0.00000000000E+00 0. -1.
         25    1    1    2    0    0  0.62451851194E+02  0.11237501967E+03  0.13889054238E+03  0.22681261324E+03  0.12500000000E+03 0.  0.
         25    1    1    2    0    0 -0.36491784347E+02 -0.11603155816E+03  0.27278685303E+03  0.32377868985E+03  0.12500000000E+03 0.  0.
         25    1    1    2    0    0 -0.25960066847E+02  0.36565384862E+01  0.45708684574E+03  0.47459528010E+03  0.12500000000E+03 0.  0.
</event>
<event>
 5    0  0.5713700E-005  0.2349680E+03  0.7546771E-02  0.1123191E+00
         21   -1    0    0  502  501  0.00000000000E+00  0.00000000000E+00  0.93527984673E+03  0.93527984673E+03  0.00000000000E+00 0.  1.
         21   -1    0    0  501  502 -0.00000000000E+00 -0.00000000000E+00 -0.59030413843E+02  0.59030413843E+02  0.00000000000E+00 0.  1.
         25    1    1    2    0    0  0.11476459146E+02 -0.32199920513E+02  0.24949905208E+03  0.28114644046E+03  0.12500000000E+03 0.  0.
         25    1    1    2    0    0 -0.72106469781E+02 -0.58578567796E+02  0.42063048781E+03  0.44853739963E+03  0.12500000000E+03 0.  0.
         25    1    1    2    0    0  0.60630010636E+02  0.90778488309E+02  0.20611989300E+03  0.26462642049E+03  0.12500000000E+03 0.  0.
</event>
<event>
 5    0  0.5713700E-005  0.2757715E+03  0.7546771E-02  0.1098021E+00
         21   -1    0    0  502  501  0.00000000000E+00  0.00000000000E+00  0.21096352482E+03  0.21096352482E+03  0.00000000000E+00 0. -1.
         21   -1    0    0  501  502 -0.00000000000E+00 -0.00000000000E+00 -0.36048847889E+03  0.36048847889E+03  0.00000000000E+00 0.  1.
         25    1    1    2    0    0  0.26873513925E+01  0.21351387243E+02  0.12692464705E+02  0.12747235879E+03  0.12500000000E+03 0.  0.
         25    1    1    2    0    0  0.95652541271E+02 -0.14293322076E+03 -0.72895906945E+02  0.22476238008E+03  0.12500000000E+03 0.  0.
         25    1    1    2    0    0 -0.98339892664E+02  0.12158183352E+03 -0.89321511822E+02  0.21921726484E+03  0.12500000000E+03 0.  0.
</event>
<event>
 5    0  0.5713700E-005  0.2110630E+03  0.7546771E-02  0.1140727E+00
         21   -1    0    0  502  501  0.00000000000E+00  0.00000000000E+00  0.20574034423E+04  0.20574034423E+04  0.00000000000E+00 0. -1.
         21   -1    0    0  501  502 -0.00000000000E+00 -0.00000000000E+00 -0.21652336736E+02  0.21652336736E+02  0.00000000000E+00 0. -1.
         25    1    1    2    0    0  0.86540617340E+02 -0.15447309562E+02  0.71942284630E+03  0.73547408493E+03  0.12500000000E+03 0.  0.
         25    1    1    2    0    0 -0.44935531835E+02  0.29239822919E+02  0.61608259450E+03  0.63091753226E+03  0.12500000000E+03 0.  0.
         25    1    1    2    0    0 -0.41605085505E+02 -0.13792513356E+02  0.70024566480E+03  0.71266416189E+03  0.12500000000E+03 0.  0.
</event>
<event>
 5    0  0.5713700E-005  0.2529916E+03  0.7546771E-02  0.1111429E+00
         21   -1    0    0  502  501  0.00000000000E+00  0.00000000000E+00  0.11456213460E+03  0.11456213460E+03  0.00000000000E+00 0.  1.
         21   -1    0    0  501  502 -0.00000000000E+00 -0.00000000000E+00 -0.55869025211E+03  0.55869025211E+03  0.00000000000E+00 0.  1.
         25    1    1    2    0    0  0.31627521892E+02  0.10360095826E+03 -0.85427894135E+02  0.18616225125E+03  0.12500000000E+03 0.  0.
         25    1    1    2    0    0 -0.12333246984E+02 -0.36522707321E+02 -0.30899079581E+03  0.33553886366E+03  0.12500000000E+03 0.  0.
         25    1    1    2    0    0 -0.19294274908E+02 -0.67078250942E+02 -0.49709427571E+02  0.15155127180E+03  0.12500000000E+03 0.  0.
</event>
<event>
 5    0  0.5713700E-005  0.2799935E+03  0.7546771E-02  0.1095692E+00
         21   -1    0    0  502  501  0.00000000000E+00  0.00000000000E+00  0.18669901890E+03  0.18669901890E+03  0.00000000000E+00 0.  1.
         21   -1    0    0  501  502 -0.00000000000E+00 -0.00000000000E+00 -0.41990783578E+03  0.41990783578E+03  0.00000000000E+00 0.  1.
         25    1    1    2    0    0  0.13581794976E+03  0.76464679497E+02 -0.82058818114E+02  0.21599076905E+03  0.12500000000E+03 0.  0.
         25    1    1    2    0    0  0.18873966248E+02 -0.72742576786E+02 -0.90046068162E+01  0.14612936742E+03  0.12500000000E+03 0.  0.
         25    1    1    2    0    0 -0.15469191600E+03 -0.37221027104E+01 -0.14214539196E+03  0.24448671821E+03  0.12500000000E+03 0.  0.
</event>
<event>
 5    0  0.5713700E-005  0.2903794E+03  0.7546771E-02  0.1090151E+00
         21   -1    0    0  502  501  0.00000000000E+00  0.00000000000E+00  0.18564395152E+04  0.18564395152E+04  0.00000000000E+00 0.  1.
         21   -1    0    0  501  502 -0.00000000000E+00 -0.00000000000E+00 -0.45420378715E+02  0.45420378715E+02  0.00000000000E+00 0.  1.
         25    1    1    2    0    0 -0.51464001522E+02  0.22629159319E+02  0.71252344879E+03  0.72558616813E+03  0.12500000000E+03 0.  0.
         25    1    1    2    0    0  0.17882955097E+03  0.25151481633E+02  0.75439801229E+03  0.78571875775E+03  0.12500000000E+03 0.  0.
         25    1    1    2    0    0 -0.12736554945E+03 -0.47780640952E+02  0.34409767538E+03  0.39055496801E+03  0.12500000000E+03 0.  0.
</event>
<event>
 5    0  0.5713700E-005  0.3891089E+03  0.7546771E-02  0.1047617E+00
         21   -1    0    0  502  501  0.00000000000E+00  0.00000000000E+00  0.43648369868E+03  0.43648369868E+03  0.00000000000E+00 0. -1.
         21   -1    0    0  501  502 -0.00000000000E+00 -0.00000000000E+00 -0.34687607154E+03  0.34687607154E+03  0.00000000000E+00 0. -1.
         25    1    1    2    0    0 -0.11055426195E+03 -0.60655910311E+02 -0.31249629225E+02  0.18028567225E+03  0.12500000000E+03 0.  0.
         25    1    1    2    0    0  0.10137982276E+03 -0.11674200011E+03 -0.15490174847E+03  0.25204387462E+03  0.12500000000E+03 0.  0.
         25    1    1    2    0    0  0.91744391947E+01  0.17739791042E+03  0.27575900485E+03  0.35103022336E+03  0.12500000000E+03 0.  0.
</event>
<event>
 5    0  0.5713700E-005  0.2523859E+03  0.7546771E-02  0.1111806E+00
         21   -1    0    0  502  501  0.00000000000E+00  0.00000000000E+00  0.42063941754E+03  0.42063941754E+03  0.00000000000E+00 0. -1.
         21   -1    0    0  501  502 -0.00000000000E+00 -0.00000000000E+00 -0.15143288937E+03  0.15143288937E+03  0.00000000000E+00 0. -1.
         25    1    1    2    0    0  0.29430634646E+02  0.65472412036E+02 -0.28846214581E+02  0.14700307170E+03  0.12500000000E+03 0.  0.
         25    1    1    2    0    0  0.53278390179E+02  0.19918249875E+00  0.16780052071E+03  0.21591813561E+03  0.12500000000E+03 0.  0.
         25    1    1    2    0    0 -0.82709024825E+02 -0.65671594534E+02  0.13025222204E+03  0.20915109960E+03  0.12500000000E+03 0.  0.
</event>
<event>
 5    0  0.5713700E-005  0.2902219E+03  0.7546771E-02  0.1090233E+00
         21   -1    0    0  502  501  0.00000000000E+00  0.00000000000E+00  0.12393082571E+03  0.12393082571E+03  0.00000000000E+00 0.  1.
         21   -1    0    0  501  502 -0.00000000000E+00 -0.00000000000E+00 -0.67964326898E+03  0.67964326898E+03  0.00000000000E+00 0.  1.
         25    1    1    2    0    0  0.56740277328E+02  0.14431302885E+03 -0.14709985122E+03  0.24760669538E+03  0.12500000000E+03 0.  0.
         25    1    1    2    0    0 -0.40105249953E+01  0.19394236294E+02 -0.44182981649E+02  0.13404982872E+03  0.12500000000E+03 0.  0.
         25    1    1    2    0    0 -0.52729752333E+02 -0.16370726515E+03 -0.36442961040E+03  0.42191757060E+03  0.12500000000E+03 0.  0.
</event>
<event>
 5    0  0.5713700E-005  0.2495355E+03  0.7546771E-02  0.1113599E+00
         21   -1    0    0  502  501  0.00000000000E+00  0.00000000000E+00  0.13357497401E+03  0.13357497401E+03  0.00000000000E+00 0. -1.
         21   -1    0    0  501  502 -0.00000000000E+00 -0.00000000000E+00 -0.46616498606E+03  0.46616498606E+03  0.00000000000E+00 0. -1.
         25    1    1    2    0    0  0.72409530210E+02 -0.12353029153E+03 -0.10657619829E+03  0.21791365040E+03  0.12500000000E+03 0.  0.
         25    1    1    2    0    0 -0.22675234670E+02  0.53464506741E+01 -0.11275570084E+03  0.16994587042E+03  0.12500000000E+03 0.  0.
         25    1    1    2    0    0 -0.49734295540E+02  0.11818384085E+03 -0.11325811293E+03  0.21188043925E+03  0.12500000000E+03 0.  0.
</event>
<event>
 5    0  0.5713700E-005  0.3077794E+03  0.7546771E-02  0.1081415E+00
         21   -1    0    0  502  501  0.00000000000E+00  0.00000000000E+00  0.51739932262E+02  0.51739932262E+02  0.00000000000E+00 0.  1.
         21   -1    0    0  501  502 -0.00000000000E+00 -0.00000000000E+00 -0.18308514452E+04  0.18308514452E+04  0.00000000000E+00 0.  1.
         25    1    1    2    0    0 -0.89105681287E+02 -0.14189792029E+03 -0.80887420299E+03  0.83545036865E+03  0.12500000000E+03 0.  0.
         25    1    1    2    0    0  0.15488927310E+03  0.13112338531E+03 -0.73352019836E+03  0.77127226743E+03  0.12500000000E+03 0.  0.
         25    1    1    2    0    0 -0.65783591817E+02  0.10774534978E+02 -0.23671711162E+03  0.27586874142E+03  0.12500000000E+03 0.  0.
</event>
<event>
 5    0  0.5713700E-005  0.2671031E+03  0.7546771E-02  0.1102949E+00
         21   -1    0    0  502  501  0.00000000000E+00  0.00000000000E+00  0.13678477917E+03  0.13678477917E+03  0.00000000000E+00 0.  1.
         21   -1    0    0  501  502 -0.00000000000E+00 -0.00000000000E+00 -0.52157907605E+03  0.52157907605E+03  0.00000000000E+00 0.  1.
         25    1    1    2    0    0  0.34659700730E+02 -0.32803109447E+02 -0.19239248149E+03  0.23434420364E+03  0.12500000000E+03 0.  0.
         25    1    1    2    0    0  0.60165666393E+02 -0.76021765968E+02 -0.16926568748E+03  0.23167884943E+03  0.12500000000E+03 0.  0.
         25    1    1    2    0    0 -0.94825367123E+02  0.10882487541E+03 -0.23136127909E+02  0.19234080215E+03  0.12500000000E+03 0.  0.
</event>
<event>
 5    0  0.5713700E-005  0.3232698E+03  0.7546771E-02  0.1074154E+00
         21   -1    0    0  502  501  0.00000000000E+00  0.00000000000E+00  0.12651615948E+03  0.12651615948E+03  0.00000000000E+00 0.  1.
         21   -1    0    0  501  502 -0.00000000000E+00 -0.00000000000E+00 -0.82600806335E+03  0.82600806335E+03  0.00000000000E+00 0.  1.
         25    1    1    2    0    0 -0.97436275901E+02 -0.61334662091E+02 -0.31033084963E+03  0.35381634342E+03  0.12500000000E+03 0.  0.
         25    1    1    2    0    0  0.14568370485E+03  0.13171096099E+03 -0.38180663222E+03  0.44718321023E+03  0.12500000000E+03 0.  0.
         25    1    1    2    0    0 -0.48247428951E+02 -0.70376298900E+02 -0.73544220151E+01  0.15152466918E+03  0.12500000000E+03 0.  0.
</event>
<event>
 5    0  0.5713700E-005  0.2671578E+03  0.7546771E-02  0.1102917E+00
         21   -1    0    0  502  501  0.00000000000E+00  0.00000000000E+00  0.77610091871E+03  0.77610091871E+03  0.00000000000E+00 0. -1.
         21   -1    0    0  501  502 -0.00000000000E+00 -0.00000000000E+00 -0.91963903974E+02  0.91963903974E+02  0.00000000000E+00 0. -1.
         25    1    1    2    0    0 -0.78191031656E+02 -0.27410408291E+02  0.30959470044E+03  0.34400442796E+03  0.12500000000E+03 0.  0.
         25    1    1    2    0    0  0.22805705780E+02 -0.11294386366E+03  0.15902813655E+03  0.23279038805E+03  0.12500000000E+03 0.  0.
         25    1    1    2    0    0  0.55385325876E+02  0.14035427195E+03  0.21551417775E+03  0.29127000668E+03  0.12500000000E+03 0.  0.
</event>
<event>
 5    0  0.5713700E-005  0.2638172E+03  0.7546771E-02  0.1104871E+00
         21   -1    0    0  502  501  0.00000000000E+00  0.00000000000E+00  0.14620637304E+03  0.14620637304E+03  0.00000000000E+00 0.  1.
         21   -1    0    0  501  502 -0.00000000000E+00 -0.00000000000E+00 -0.47603603522E+03  0.47603603522E+03  0.00000000000E+00 0.  1.
         25    1    1    2    0    0  0.31591558945E+02 -0.11501677572E+03 -0.25618141168E+02  0.17466589378E+03  0.12500000000E+03 0.  0.
         25    1    1    2    0    0  0.37947534417E+02  0.95997911414E+02 -0.79585467646E+02  0.18059474252E+03  0.12500000000E+03 0.  0.
         25    1    1    2    0    0 -0.69539093362E+02  0.19018864308E+02 -0.22462605337E+03  0.26698177196E+03  0.12500000000E+03 0.  0.
</event>
<event>
 5    0  0.5713700E-005  0.2423960E+03  0.7546771E-02  0.1118207E+00
         21   -1    0    0  502  501  0.00000000000E+00  0.00000000000E+00  0.16486913163E+03  0.16486913163E+03  0.00000000000E+00 0.  1.
         21   -1    0    0  501  502 -0.00000000000E+00 -0.00000000000E+00 -0.35637847207E+03  0.35637847207E+03  0.00000000000E+00 0.  1.
         25    1    1    2    0    0  0.51422072746E+02  0.37977825397E+02 -0.12990475897E+03  0.19127673980E+03  0.12500000000E+03 0.  0.
         25    1    1    2    0    0 -0.11746409206E+03 -0.11955345375E+01 -0.66077828883E+02  0.18382198371E+03  0.12500000000E+03 0.  0.
         25    1    1    2    0    0  0.66042019316E+02 -0.36782290860E+02  0.44732474182E+01  0.14614888018E+03  0.12500000000E+03 0.  0.
</event>
<event>
 5    0  0.5713700E-005  0.3854134E+03  0.7546771E-02  0.1048951E+00
         21   -1    0    0  502  501  0.00000000000E+00  0.00000000000E+00  0.12037644850E+04  0.12037644850E+04  0.00000000000E+00 0. -1.
         21   -1    0    0  501  502 -0.00000000000E+00 -0.00000000000E+00 -0.12339911469E+03  0.12339911469E+03  0.00000000000E+00 0. -1.
         25    1    1    2    0    0  0.67329541303E+02 -0.17404120902E+03  0.16889152191E+03  0.28102127276E+03  0.12500000000E+03 0.  0.
         25    1    1    2    0    0 -0.27676908019E+02  0.17676186716E+03  0.88604892880E+03  0.91253409423E+03  0.12500000000E+03 0.  0.
         25    1    1    2    0    0 -0.39652633284E+02 -0.27206581383E+01  0.25424919611E+02  0.13360823270E+03  0.12500000000E+03 0.  0.
</event>
<event>
 5    0  0.5713700E-005  0.3908061E+03  0.7546771E-02  0.1047011E+00
         21   -1    0    0  502  501  0.00000000000E+00  0.00000000000E+00  0.15509850793E+03  0.15509850793E+03  0.00000000000E+00 0. -1.
         21   -1    0    0  501  502 -0.00000000000E+00 -0.00000000000E+00 -0.98472508853E+03  0.98472508853E+03  0.00000000000E+00 0. -1.
         25    1    1    2    0    0 -0.64528055993E+02 -0.22062533558E+03 -0.72296863000E+03  0.76886152763E+03  0.12500000000E+03 0.  0.
         25    1    1    2    0    0  0.44096606223E+02  0.11395626930E+03 -0.10779467374E+03  0.20536609672E+03  0.12500000000E+03 0.  0.
         25    1    1    2    0    0  0.20431449769E+02  0.10666906627E+03  0.11367231472E+01  0.16559597211E+03  0.12500000000E+03 0.  0.
</event>
<event>
 5    0  0.5713700E-005  0.3846493E+03  0.7546771E-02  0.1049229E+00
         21   -1    0    0  502  501  0.00000000000E+00  0.00000000000E+00  0.13164099851E+04  0.13164099851E+04  0.00000000000E+00 0.  1.
         21   -1    0    0  501  502 -0.00000000000E+00 -0.00000000000E+00 -0.11239287263E+03  0.11239287263E+03  0.00000000000E+00 0.  1.
         25    1    1    2    0    0  0.73627890115E+02 -0.28696203033E+03  0.68174176964E+03  0.75376728075E+03  0.12500000000E+03 0.  0.
         25    1    1    2    0    0  0.11285875555E+02  0.23734918763E+03  0.33598634281E+03  0.43008584074E+03  0.12500000000E+03 0.  0.
         25    1    1    2    0    0 -0.84913765670E+02  0.49612842701E+02  0.18628900006E+03  0.24494973628E+03  0.12500000000E+03 0.  0.
</event>
<event>
 5    0  0.5713700E-005  0.2805893E+03  0.7546771E-02  0.1095367E+00
         21   -1    0    0  502  501  0.00000000000E+00  0.00000000000E+00  0.55503248322E+03  0.55503248322E+03  0.00000000000E+00 0. -1.
         21   -1    0    0  501  502 -0.00000000000E+00 -0.00000000000E+00 -0.14184824005E+03  0.14184824005E+03  0.00000000000E+00 0. -1.
         25    1    1    2    0    0 -0.50335514834E+02 -0.11770380362E+03  0.55573420777E+02  0.18735328803E+03  0.12500000000E+03 0.  0.
         25    1    1    2    0    0 -0.38239936657E+02  0.10974834226E+03  0.30096792054E+03  0.34599664822E+03  0.12500000000E+03 0.  0.
         25    1    1    2    0    0  0.88575451491E+02  0.79554613572E+01  0.56642901858E+02  0.16353078702E+03  0.12500000000E+03 0.  0.
</event>
<event>
 5    0  0.5713700E-005  0.3442028E+03  0.7546771E-02  0.1065020E+00
         21   -1    0    0  502  501  0.00000000000E+00  0.00000000000E+00  0.17869554364E+03  0.17869554364E+03  0.00000000000E+00 0.  1.
         21   -1    0    0  501  502 -0.00000000000E+00 -0.00000000000E+00 -0.66300233517E+03  0.66300233517E+03  0.00000000000E+00 0.  1.
         25    1    1    2    0    0  0.15230584815E+03  0.22599109528E+02 -0.29188796461E+03  0.35289003247E+03  0.12500000000E+03 0.  0.
         25    1    1    2    0    0 -0.31386403256E+02 -0.11309270351E+03  0.48507446603E+02  0.17819382221E+03  0.12500000000E+03 0.  0.
         25    1    1    2    0    0 -0.12091944490E+03  0.90493593987E+02 -0.24092627352E+03  0.31061402412E+03  0.12500000000E+03 0.  0.
</event>
<event>
 5    0  0.5713700E-005  0.3118202E+03  0.7546771E-02  0.1079477E+00
         21   -1    0    0  502  501  0.00000000000E+00  0.00000000000E+00  0.77010610004E+02  0.77010610004E+02  0.00000000000E+00 0. -1.
         21   -1    0    0  501  502 -0.00000000000E+00 -0.00000000000E+00 -0.12625771536E+04  0.12625771536E+04  0.00000000000E+00 0. -1.
         25    1    1    2    0    0  0.11976064404E+03 -0.55550969278E+02 -0.17420646980E+03  0.25179637839E+03  0.12500000000E+03 0.  0.
         25    1    1    2    0    0 -0.34278160446E+02 -0.81671852241E+02 -0.69116176512E+03  0.70793705179E+03  0.12500000000E+03 0.  0.
         25    1    1    2    0    0 -0.85482483594E+02  0.13722282152E+03 -0.32019830868E+03  0.37985433344E+03  0.12500000000E+03 0.  0.
</event>
<event>
 5    0  0.5713700E-005  0.3778321E+03  0.7546771E-02  0.1051738E+00
         21   -1    0    0  502  501  0.00000000000E+00  0.00000000000E+00  0.55945679664E+03  0.55945679664E+03  0.00000000000E+00 0.  1.
         21   -1    0    0  501  502 -0.00000000000E+00 -0.00000000000E+00 -0.25517093803E+03  0.25517093803E+03  0.00000000000E+00 0.  1.
         25    1    1    2    0    0 -0.89181936772E+02  0.10144179222E+03 -0.93296107339E+02  0.20633230164E+03  0.12500000000E+03 0.  0.
         25    1    1    2    0    0  0.33668496037E+02  0.21697507136E+02  0.40334643209E+03  0.42416705874E+03  0.12500000000E+03 0.  0.
         25    1    1    2    0    0  0.55513440735E+02 -0.12313929936E+03 -0.57644661323E+01  0.18412837429E+03  0.12500000000E+03 0.  0.
</event>
<event>
 5    0  0.6198645E-005  0.3332683E+03  0.7546771E-02  0.1069700E+00
         21   -1    0    0  502  501  0.00000000000E+00  0.00000000000E+00  0.58617170466E+03  0.58617170466E+03  0.00000000000E+00 0. -1.
         21   -1    0    0  501  502 -0.00000000000E+00 -0.00000000000E+00 -0.18947991065E+03  0.18947991065E+03  0.00000000000E+00 0. -1.
         25    1    1    2    0    0 -0.16912367583E+03 -0.15771761245E+03  0.25082193837E+03  0.36333773238E+03  0.12500000000E+03 0.  0.
         25    1    1    2    0    0  0.28110200986E+02  0.89062928619E+02 -0.12828786797E+02  0.15656297910E+03  0.12500000000E+03 0.  0.
         25    1    1    2    0    0  0.14101347485E+03  0.68654683830E+02  0.15869864244E+03  0.25575090384E+03  0.12500000000E+03 0.  0.
</event>
<event>
 5    0  0.5713700E-005  0.4918494E+03  0.7546771E-02  0.1015929E+00
         21   -1    0    0  502  501  0.00000000000E+00  0.00000000000E+00  0.27832065134E+03  0.27832065134E+03  0.00000000000E+00 0.  1.
         21   -1    0    0  501  502 -0.00000000000E+00 -0.00000000000E+00 -0.86919822693E+03  0.86919822693E+03  0.00000000000E+00 0.  1.
         25    1    1    2    0    0  0.10415702887E+03  0.30359671892E+03 -0.10499649484E+03  0.36009570719E+03  0.12500000000E+03 0.  0.
         25    1    1    2    0    0 -0.21089286035E+03  0.56873897970E+01 -0.31068566838E+03  0.39580137630E+03  0.12500000000E+03 0.  0.
         25    1    1    2    0    0  0.10673583148E+03 -0.30928410872E+03 -0.17519541237E+03  0.39162179478E+03  0.12500000000E+03 0.  0.
</event>
<event>
 5    0  0.6733996E-005  0.3519497E+03  0.7546771E-02  0.1061818E+00
         21   -1    0    0  502  501  0.00000000000E+00  0.00000000000E+00  0.52534963850E+03  0.52534963850E+03  0.00000000000E+00 0.  1.
         21   -1    0    0  501  502 -0.00000000000E+00 -0.00000000000E+00 -0.23578321157E+03  0.23578321157E+03  0.00000000000E+00 0.  1.
         25    1    1    2    0    0 -0.11677469498E+03  0.51199782068E+02 -0.58167416735E+02  0.18779295898E+03  0.12500000000E+03 0.  0.
         25    1    1    2    0    0  0.14140272245E+03  0.26288601092E+02 -0.47484654639E+01  0.19061313802E+03  0.12500000000E+03 0.  0.
         25    1    1    2    0    0 -0.24628027470E+02 -0.77488383160E+02  0.35248230914E+03  0.38272675307E+03  0.12500000000E+03 0.  0.
</event>
<event>
 5    0  0.5713700E-005  0.4775103E+03  0.7546771E-02  0.1019822E+00
         21   -1    0    0  502  501  0.00000000000E+00  0.00000000000E+00  0.74425497379E+03  0.74425497379E+03  0.00000000000E+00 0.  1.
         21   -1    0    0  501  502 -0.00000000000E+00 -0.00000000000E+00 -0.30636827208E+03  0.30636827208E+03  0.00000000000E+00 0.  1.
         25    1    1    2    0    0 -0.12666650427E+02 -0.18309572199E+03  0.23721037457E+03  0.32492806781E+03  0.12500000000E+03 0.  0.
         25    1    1    2    0    0  0.47992351734E+02 -0.19876710691E+03  0.21517701004E+03  0.32208348959E+03  0.12500000000E+03 0.  0.
         25    1    1    2    0    0 -0.35325701306E+02  0.38186282890E+03 -0.14500682905E+02  0.40361168848E+03  0.12500000000E+03 0.  0.
</event>
<event>
 5    0  0.5713700E-005  0.2102252E+03  0.7546771E-02  0.1141388E+00
         21   -1    0    0  502  501  0.00000000000E+00  0.00000000000E+00  0.37718115542E+03  0.37718115542E+03  0.00000000000E+00 0.  1.
         21   -1    0    0  501  502 -0.00000000000E+00 -0.00000000000E+00 -0.11717089666E+03  0.11717089666E+03  0.00000000000E+00 0.  1.
         25    1    1    2    0    0 -0.28449655838E-01  0.44152399633E+02  0.13144418105E+03  0.18668692492E+03  0.12500000000E+03 0.  0.
         25    1    1    2    0    0  0.93989278053E+01  0.22593867939E+02  0.10201747016E+03  0.16319125874E+03  0.12500000000E+03 0.  0.
         25    1    1    2    0    0 -0.93704781494E+01 -0.66746267572E+02  0.26548607546E+02  0.14447386843E+03  0.12500000000E+03 0.  0.
</event>
<event>
 5    0  0.5713700E-005  0.2381268E+03  0.7546771E-02  0.1121047E+00
         21   -1    0    0  502  501  0.00000000000E+00  0.00000000000E+00  0.12032161596E+04  0.12032161596E+04  0.00000000000E+00 0. -1.
         21   -1    0    0  501  502 -0.00000000000E+00 -0.00000000000E+00 -0.47127351172E+02  0.47127351172E+02  0.00000000000E+00 0. -1.
         25    1    1    2    0    0 -0.34418483483E+01  0.32805370718E+02  0.35083161233E+03  0.37389284411E+03  0.12500000000E+03 0.  0.
         25    1    1    2    0    0 -0.21705426515E+02  0.50526607245E+01  0.10820758772E+03  0.16682486913E+03  0.12500000000E+03 0.  0.
         25    1    1    2    0    0  0.25147274863E+02 -0.37858031443E+02  0.69704960834E+03  0.70962579749E+03  0.12500000000E+03 0.  0.
</event>
<event>
 5    0  0.5713700E-005  0.4679998E+03  0.7546771E-02  0.1022486E+00
         21   -1    0    0  502  501  0.00000000000E+00  0.00000000000E+00  0.79897931051E+02  0.79897931051E+02  0.00000000000E+00 0.  1.
         21   -1    0    0  501  502 -0.00000000000E+00 -0.00000000000E+00 -0.27412946546E+04  0.27412946546E+04  0.00000000000E+00 0.  1.
         25    1    1    2    0    0 -0.33106507622E+03  0.36759486750E+02 -0.51484867355E+03  0.62581906428E+03  0.12500000000E+03 0.  0.
         25    1    1    2    0    0  0.18066236643E+03 -0.91282167724E+02 -0.83591128612E+03  0.86910528882E+03  0.12500000000E+03 0.  0.
         25    1    1    2    0    0  0.15040270979E+03  0.54522680973E+02 -0.13106367639E+04  0.13262682326E+04  0.12500000000E+03 0.  0.
</event>
<event>
 5    0  0.5713700E-005  0.2465036E+03  0.7546771E-02  0.1115535E+00
         21   -1    0    0  502  501  0.00000000000E+00  0.00000000000E+00  0.10070815511E+03  0.10070815511E+03  0.00000000000E+00 0. -1.
         21   -1    0    0  501  502 -0.00000000000E+00 -0.00000000000E+00 -0.60336725909E+03  0.60336725909E+03  0.00000000000E+00 0. -1.
         25    1    1    2    0    0 -0.22121815084E+02  0.78603349067E+02 -0.16087812837E+03  0.21948720549E+03  0.12500000000E+03 0.  0.
         25    1    1    2    0    0 -0.84746839197E+02 -0.87456064454E+02 -0.21399539001E+03  0.27613333176E+03  0.12500000000E+03 0.  0.
         25    1    1    2    0    0  0.10686865428E+03  0.88527153867E+01 -0.12778558560E+03  0.20845487695E+03  0.12500000000E+03 0.  0.
</event>
<event>
 5    0  0.5713700E-005  0.3087497E+03  0.7546771E-02  0.1080947E+00
         21   -1    0    0  502  501  0.00000000000E+00  0.00000000000E+00  0.78989175742E+03  0.78989175742E+03  0.00000000000E+00 0. -1.
         21   -1    0    0  501  502 -0.00000000000E+00 -0.00000000000E+00 -0.12068284021E+03  0.12068284021E+03  0.00000000000E+00 0. -1.
         25    1    1    2    0    0 -0.16215676980E+03  0.51530510659E+02  0.20908829655E+03  0.29714159465E+03  0.12500000000E+03 0.  0.
         25    1    1    2    0    0  0.93849387336E+02  0.10792800747E+03  0.24640426514E+03  0.31112091569E+03  0.12500000000E+03 0.  0.
         25    1    1    2    0    0  0.68307382460E+02 -0.15945851813E+03  0.21371635552E+03  0.30231208728E+03  0.12500000000E+03 0.  0.
</event>
<event>
 5    0  0.5713700E-005  0.3489670E+03  0.7546771E-02  0.1063040E+00
         21   -1    0    0  502  501  0.00000000000E+00  0.00000000000E+00  0.21874071927E+03  0.21874071927E+03  0.00000000000E+00 0.  1.
         21   -1    0    0  501  502 -0.00000000000E+00 -0.00000000000E+00 -0.55672305708E+03  0.55672305708E+03  0.00000000000E+00 0.  1.
         25    1    1    2    0    0  0.23166116874E+03 -0.99629462199E+02 -0.14308171916E+03  0.31573771583E+03  0.12500000000E+03 0.  0.
         25    1    1    2    0    0 -0.85300385860E+02  0.72853438579E+02 -0.20514417429E+03  0.26512810411E+03  0.12500000000E+03 0.  0.
         25    1    1    2    0    0 -0.14636078288E+03  0.26776023620E+02  0.10243555636E+02  0.19459795641E+03  0.12500000000E+03 0.  0.
</event>
<event>
 5    0  0.5713700E-005  0.4597319E+03  0.7546771E-02  0.1024859E+00
         21   -1    0    0  502  501  0.00000000000E+00  0.00000000000E+00  0.93309282394E+03  0.93309282394E+03  0.00000000000E+00 0.  1.
         21   -1    0    0  501  502 -0.00000000000E+00 -0.00000000000E+00 -0.22650846314E+03  0.22650846314E+03  0.00000000000E+00 0.  1.
         25    1    1    2    0    0 -0.11807265292E+03 -0.13334697368E+03 -0.45565778033E+02  0.22231465738E+03  0.12500000000E+03 0.  0.
         25    1    1    2    0    0 -0.84726274460E+02 -0.13160584926E+03  0.31544556198E+03  0.37367036772E+03  0.12500000000E+03 0.  0.
         25    1    1    2    0    0  0.20279892738E+03  0.26495282294E+03  0.43670457685E+03  0.56361626198E+03  0.12500000000E+03 0.  0.
</event>
<event>
 5    0  0.5713700E-005  0.3608209E+03  0.7546771E-02  0.1058259E+00
         21   -1    0    0  502  501  0.00000000000E+00  0.00000000000E+00  0.10580573995E+04  0.10580573995E+04  0.00000000000E+00 0.  1.
         21   -1    0    0  501  502 -0.00000000000E+00 -0.00000000000E+00 -0.12304789548E+03  0.12304789548E+03  0.00000000000E+00 0.  1.
         25    1    1    2    0    0 -0.86618770031E+02  0.21643472875E+03  0.47864984703E+03  0.54687976667E+03  0.12500000000E+03 0.  0.
         25    1    1    2    0    0 -0.43207874255E+02 -0.15416289655E+03  0.37589727523E+03  0.42726675578E+03  0.12500000000E+03 0.  0.
         25    1    1    2    0    0  0.12982664429E+03 -0.62271832199E+02  0.80462381774E+02  0.20695877254E+03  0.12500000000E+03 0.  0.
</event>
<event>
 5    0  0.5713700E-005  0.5652855E+03  0.7546771E-02  0.9980166E-01
         21   -1    0    0  502  501  0.00000000000E+00  0.00000000000E+00  0.13035792370E+04  0.13035792370E+04  0.00000000000E+00 0. -1.
         21   -1    0    0  501  502 -0.00000000000E+00 -0.00000000000E+00 -0.24513100845E+03  0.24513100845E+03  0.00000000000E+00 0. -1.
         25    1    1    2    0    0 -0.23189595400E+02 -0.22769370965E+03  0.88059985262E+03  0.91840257141E+03  0.12500000000E+03 0.  0.
         25    1    1    2    0    0  0.33496937377E+02  0.18629406319E+02  0.32168430638E+03  0.34723895600E+03  0.12500000000E+03 0.  0.
         25    1    1    2    0    0 -0.10307341977E+02  0.20906430333E+03 -0.14383593046E+03  0.28306871802E+03  0.12500000000E+03 0.  0.
</event>
<event>
 5    0  0.5713700E-005  0.2842264E+03  0.7546771E-02  0.1093403E+00
         21   -1    0    0  502  501  0.00000000000E+00  0.00000000000E+00  0.45407026110E+03  0.45407026110E+03  0.00000000000E+00 0.  1.
         21   -1    0    0  501  502 -0.00000000000E+00 -0.00000000000E+00 -0.17791225474E+03  0.17791225474E+03  0.00000000000E+00 0.  1.
         25    1    1    2    0    0 -0.15229155117E+03 -0.60555254323E+02  0.22624893108E+03  0.30606083415E+03  0.12500000000E+03 0.  0.
         25    1    1    2    0    0  0.13735257530E+03  0.59582046791E+02  0.16890121016E+02  0.19577034103E+03  0.12500000000E+03 0.  0.
         25    1    1    2    0    0  0.14938975878E+02  0.97320753150E+00  0.33018954270E+02  0.13015134065E+03  0.12500000000E+03 0.  0.
</event>
<event>
 5    0  0.5920399E-005  0.3275429E+03  0.7546771E-02  0.1072229E+00
         21   -1    0    0  502  501  0.00000000000E+00  0.00000000000E+00  0.12625562377E+03  0.12625562377E+03  0.00000000000E+00 0.  1.
         21   -1    0    0  501  502 -0.00000000000E+00 -0.00000000000E+00 -0.84973922983E+03  0.84973922983E+03  0.00000000000E+00 0.  1.
         25    1    1    2    0    0  0.26266040395E+02 -0.96351152671E+01  0.21721638783E+02  0.12992139899E+03  0.12500000000E+03 0.  0.
         25    1    1    2    0    0  0.12933440670E+03 -0.57903227835E+02 -0.38180005902E+03  0.42600053711E+03  0.12500000000E+03 0.  0.
         25    1    1    2    0    0 -0.15560044710E+03  0.67538343102E+02 -0.36340518583E+03  0.42007291750E+03  0.12500000000E+03 0.  0.
</event>
<event>
 5    0  0.5922130E-005  0.2527451E+03  0.7546771E-02  0.1111582E+00
         21   -1    0    0  502  501  0.00000000000E+00  0.00000000000E+00  0.63810539346E+03  0.63810539346E+03  0.00000000000E+00 0. -1.
         21   -1    0    0  501  502 -0.00000000000E+00 -0.00000000000E+00 -0.10010902301E+03  0.10010902301E+03  0.00000000000E+00 0. -1.
         25    1    1    2    0    0  0.59064228168E+02  0.13504649891E+02  0.29094665526E+03  0.32240644352E+03  0.12500000000E+03 0.  0.
         25    1    1    2    0    0  0.19311474804E+02  0.58700809249E+02  0.20205035802E+03  0.24549555035E+03  0.12500000000E+03 0.  0.
         25    1    1    2    0    0 -0.78375702972E+02 -0.72205459141E+02  0.44999357177E+02  0.17031242260E+03  0.12500000000E+03 0.  0.
</event>
<event>
 5    0  0.5713700E-005  0.2942066E+03  0.7546771E-02  0.1088173E+00
         21   -1    0    0  502  501  0.00000000000E+00  0.00000000000E+00  0.54233560568E+03  0.54233560568E+03  0.00000000000E+00 0. -1.
         21   -1    0    0  501  502 -0.00000000000E+00 -0.00000000000E+00 -0.15960137003E+03  0.15960137003E+03  0.00000000000E+00 0. -1.
         25    1    1    2    0    0  0.15563721765E+03  0.62977702540E+02  0.20666307583E+03  0.29414921630E+03  0.12500000000E+03 0.  0.
         25    1    1    2    0    0 -0.90337246106E+02  0.56084077907E+02  0.14821489122E+03  0.22113094720E+03  0.12500000000E+03 0.  0.
         25    1    1    2    0    0 -0.65299971548E+02 -0.11906178045E+03  0.27856268589E+02  0.18665681222E+03  0.12500000000E+03 0.  0.
</event>
<event>
 5    0  0.5713700E-005  0.3110366E+03  0.7546771E-02  0.1079850E+00
         21   -1    0    0  502  501  0.00000000000E+00  0.00000000000E+00  0.35135767690E+03  0.35135767690E+03  0.00000000000E+00 0. -1.
         21   -1    0    0  501  502 -0.00000000000E+00 -0.00000000000E+00 -0.27534261199E+03  0.27534261199E+03  0.00000000000E+00 0. -1.
         25    1    1    2    0    0 -0.29059275312E+02 -0.64261727481E+02  0.15670087727E+03  0.21249512003E+03  0.12500000000E+03 0.  0.
         25    1    1    2    0    0  0.78140782533E+02  0.11436889685E+03 -0.16400586875E+03  0.24841326745E+03  0.12500000000E+03 0.  0.
         25    1    1    2    0    0 -0.49081507221E+02 -0.50107169369E+02  0.83320056390E+02  0.16579190140E+03  0.12500000000E+03 0.  0.
</event>
<event>
 5    0  0.5713700E-005  0.4618297E+03  0.7546771E-02  0.1024252E+00
         21   -1    0    0  502  501  0.00000000000E+00  0.00000000000E+00  0.41948794056E+03  0.41948794056E+03  0.00000000000E+00 0. -1.
         21   -1    0    0  501  502 -0.00000000000E+00 -0.00000000000E+00 -0.50844533147E+03  0.50844533147E+03  0.00000000000E+00 0. -1.
         25    1    1    2    0    0  0.37283145957E+02  0.68668249474E+01  0.17651979487E+03  0.21959377094E+03  0.12500000000E+03 0.  0.
         25    1    1    2    0    0  0.14973263104E+03  0.14236702607E+03  0.93706146142E+02  0.25902523572E+03  0.12500000000E+03 0.  0.
         25    1    1    2    0    0 -0.18701577700E+03 -0.14923385102E+03 -0.35918333192E+03  0.44931426537E+03  0.12500000000E+03 0.  0.
</event>
<event>
 5    0  0.6479530E-005  0.2885681E+03  0.7546771E-02  0.1091099E+00
         21   -1    0    0  502  501  0.00000000000E+00  0.00000000000E+00  0.50856977424E+03  0.50856977424E+03  0.00000000000E+00 0.  1.
         21   -1    0    0  501  502 -0.00000000000E+00 -0.00000000000E+00 -0.16373674027E+03  0.16373674027E+03  0.00000000000E+00 0.  1.
         25    1    1    2    0    0 -0.91412572141E+01  0.87426686816E+01 -0.66314896342E+02  0.14206569718E+03  0.12500000000E+03 0.  0.
         25    1    1    2    0    0  0.10013091212E+03  0.52246816554E+02  0.19872259147E+03  0.26052177982E+03  0.12500000000E+03 0.  0.
         25    1    1    2    0    0 -0.90989654903E+02 -0.60989485236E+02  0.21242533885E+03  0.26971903751E+03  0.12500000000E+03 0.  0.
</event>
<event>
 5    0  0.6363331E-005  0.2497564E+03  0.7546771E-02  0.1113459E+00
         21   -1    0    0  502  501  0.00000000000E+00  0.00000000000E+00  0.58870928748E+03  0.58870928748E+03  0.00000000000E+00 0.  1.
         21   -1    0    0  501  502 -0.00000000000E+00 -0.00000000000E+00 -0.10595769049E+03  0.10595769049E+03  0.00000000000E+00 0.  1.
         25    1    1    2    0    0 -0.76020824092E+02  0.29256409285E+02  0.14265561857E+02  0.14987864903E+03  0.12500000000E+03 0.  0.
         25    1    1    2    0    0 -0.50023126652E+01 -0.15098062503E+02  0.17882227709E+03  0.21875872876E+03  0.12500000000E+03 0.  0.
         25    1    1    2    0    0  0.81023136757E+02 -0.14158346782E+02  0.28966375804E+03  0.32602960018E+03  0.12500000000E+03 0.  0.
</event>
<event>
 5    0  0.5713700E-005  0.4240801E+03  0.7546771E-02  0.1035747E+00
         21   -1    0    0  502  501  0.00000000000E+00  0.00000000000E+00  0.13273662612E+03  0.13273662612E+03  0.00000000000E+00 0.  1.
         21   -1    0    0  501  502 -0.00000000000E+00 -0.00000000000E+00 -0.13548927495E+04  0.13548927495E+04  0.00000000000E+00 0.  1.
         25    1    1    2    0    0 -0.11267838092E+03 -0.24237414108E+03 -0.54123465518E+03  0.61644269301E+03  0.12500000000E+03 0.  0.
         25    1    1    2    0    0  0.92553123691E+02 -0.14806618938E+02 -0.28837942738E+02  0.15887713369E+03  0.12500000000E+03 0.  0.
         25    1    1    2    0    0  0.20125257231E+02  0.25718076002E+03 -0.65208352542E+03  0.71230954888E+03  0.12500000000E+03 0.  0.
</event>
<event>
 5    0  0.5713700E-005  0.2378651E+03  0.7546771E-02  0.1121223E+00
         21   -1    0    0  502  501  0.00000000000E+00  0.00000000000E+00  0.43644611704E+02  0.43644611704E+02  0.00000000000E+00 0.  1.
         21   -1    0    0  501  502 -0.00000000000E+00 -0.00000000000E+00 -0.12963758734E+04  0.12963758734E+04  0.00000000000E+00 0.  1.
         25    1    1    2    0    0  0.67835162448E+02 -0.25032080839E+02 -0.28701884456E+03  0.32129897521E+03  0.12500000000E+03 0.  0.
         25    1    1    2    0    0 -0.14851798454E+02 -0.77466214390E+02 -0.55088469622E+03  0.57036877441E+03  0.12500000000E+03 0.  0.
         25    1    1    2    0    0 -0.52983363994E+02  0.10249829523E+03 -0.41482772096E+03  0.44835273553E+03  0.12500000000E+03 0.  0.
</event>
<event>
 5    0  0.5766769E-005  0.2740604E+03  0.7546771E-02  0.1098978E+00
         21   -1    0    0  502  501  0.00000000000E+00  0.00000000000E+00  0.16974790690E+03  0.16974790690E+03  0.00000000000E+00 0. -1.
         21   -1    0    0  501  502 -0.00000000000E+00 -0.00000000000E+00 -0.44247442217E+03  0.44247442217E+03  0.00000000000E+00 0. -1.
         25    1    1    2    0    0 -0.12751649527E+02 -0.13036653159E+03 -0.23872678083E+03  0.29962228390E+03  0.12500000000E+03 0.  0.
         25    1    1    2    0    0 -0.54097336261E+02  0.83269659241E+02 -0.10857050176E+01  0.15964503342E+03  0.12500000000E+03 0.  0.
         25    1    1    2    0    0  0.66848985788E+02  0.47096872345E+02 -0.32914029428E+02  0.15295501175E+03  0.12500000000E+03 0.  0.
</event>
<event>
 5    0  0.5713700E-005  0.3766350E+03  0.7546771E-02  0.1052185E+00
         21   -1    0    0  502  501  0.00000000000E+00  0.00000000000E+00  0.37256557145E+03  0.37256557145E+03  0.00000000000E+00 0.  1.
         21   -1    0    0  501  502 -0.00000000000E+00 -0.00000000000E+00 -0.38074897687E+03  0.38074897687E+03  0.00000000000E+00 0.  1.
         25    1    1    2    0    0  0.65743153084E+02 -0.13600579915E+03 -0.28246130158E+02  0.19809740899E+03  0.12500000000E+03 0.  0.
         25    1    1    2    0    0  0.34502645638E+02  0.24686837535E+03  0.15421414270E+03  0.31865565916E+03  0.12500000000E+03 0.  0.
         25    1    1    2    0    0 -0.10024579872E+03 -0.11086257620E+03 -0.13415141796E+03  0.23656148018E+03  0.12500000000E+03 0.  0.
</event>
<event>
 5    0  0.5713700E-005  0.3325577E+03  0.7546771E-02  0.1070011E+00
         21   -1    0    0  502  501  0.00000000000E+00  0.00000000000E+00  0.34681171199E+03  0.34681171199E+03  0.00000000000E+00 0.  1.
         21   -1    0    0  501  502 -0.00000000000E+00 -0.00000000000E+00 -0.31888960670E+03  0.31888960670E+03  0.00000000000E+00 0.  1.
         25    1    1    2    0    0 -0.19945859829E+03 -0.58221349795E+02  0.69701690760E+02  0.25230296014E+03  0.12500000000E+03 0.  0.
         25    1    1    2    0    0  0.11664148371E+03 -0.94210550195E+01 -0.14055147045E+03  0.22152586270E+03  0.12500000000E+03 0.  0.
         25    1    1    2    0    0  0.82817114574E+02  0.67642404814E+02  0.98771884982E+02  0.19187249584E+03  0.12500000000E+03 0.  0.
</event>
<event>
 5    0  0.5713700E-005  0.3532423E+03  0.7546771E-02  0.1061292E+00
         21   -1    0    0  502  501  0.00000000000E+00  0.00000000000E+00  0.13625776590E+03  0.13625776590E+03  0.00000000000E+00 0.  1.
         21   -1    0    0  501  502 -0.00000000000E+00 -0.00000000000E+00 -0.91576543937E+03  0.91576543937E+03  0.00000000000E+00 0.  1.
         25    1    1    2    0    0 -0.20217903896E+03  0.11751008870E+03 -0.32841598707E+03  0.42209838344E+03  0.12500000000E+03 0.  0.
         25    1    1    2    0    0  0.95524972554E+02 -0.69621846327E+02 -0.42278393136E+03  0.45644657353E+03  0.12500000000E+03 0.  0.
         25    1    1    2    0    0  0.10665406641E+03 -0.47888242370E+02 -0.28307755040E+02  0.17347824830E+03  0.12500000000E+03 0.  0.
</event>
<event>
 5    0  0.5713700E-005  0.2236859E+03  0.7546771E-02  0.1131165E+00
         21   -1    0    0  502  501  0.00000000000E+00  0.00000000000E+00  0.19940604624E+03  0.19940604624E+03  0.00000000000E+00 0.  1.
         21   -1    0    0  501  502 -0.00000000000E+00 -0.00000000000E+00 -0.25092201166E+03  0.25092201166E+03  0.00000000000E+00 0.  1.
         25    1    1    2    0    0 -0.33412082883E+02 -0.17660369838E+02 -0.89121586966E+02  0.15810095891E+03  0.12500000000E+03 0.  0.
         25    1    1    2    0    0 -0.27467998790E+02  0.56706167797E+02  0.46589787571E+02  0.14753199222E+03  0.12500000000E+03 0.  0.
         25    1    1    2    0    0  0.60880081673E+02 -0.39045797959E+02 -0.89841660338E+01  0.14469510677E+03  0.12500000000E+03 0.  0.
</event>
<event>
 5    0  0.5713700E-005  0.3446876E+03  0.7546771E-02  0.1064817E+00
         21   -1    0    0  502  501  0.00000000000E+00  0.00000000000E+00  0.11345982289E+03  0.11345982289E+03  0.00000000000E+00 0. -1.
         21   -1    0    0  501  502 -0.00000000000E+00 -0.00000000000E+00 -0.10471506029E+04  0.10471506029E+04  0.00000000000E+00 0. -1.
         25    1    1    2    0    0 -0.22706332213E+02  0.30417353496E+02  0.32194978266E+02  0.13454482354E+03  0.12500000000E+03 0.  0.
         25    1    1    2    0    0  0.12463550267E+03 -0.35129169147E+01 -0.40454693382E+03  0.44139502803E+03  0.12500000000E+03 0.  0.
         25    1    1    2    0    0 -0.10192917046E+03 -0.26904436581E+02 -0.56133882443E+03  0.58467057418E+03  0.12500000000E+03 0.  0.
</event>
<event>
 5    0  0.5713700E-005  0.3137736E+03  0.7546771E-02  0.1078551E+00
         21   -1    0    0  502  501  0.00000000000E+00  0.00000000000E+00  0.77456628663E+02  0.77456628663E+02  0.00000000000E+00 0. -1.
         21   -1    0    0  501  502 -0.00000000000E+00 -0.00000000000E+00 -0.12710839480E+04  0.12710839480E+04  0.00000000000E+00 0. -1.
         25    1    1    2    0    0 -0.15230139098E+00 -0.83023821005E+02 -0.97548757742E+03  0.98696200116E+03  0.12500000000E+03 0.  0.
         25    1    1    2    0    0 -0.24909043208E+02 -0.17825822935E+01 -0.14116667585E+03  0.19020165195E+03  0.12500000000E+03 0.  0.
         25    1    1    2    0    0  0.25061344599E+02  0.84806403299E+02 -0.76973066115E+02  0.17137692359E+03  0.12500000000E+03 0.  0.
</event>
<event>
 5    0  0.5713700E-005  0.3859226E+03  0.7546771E-02  0.1048766E+00
         21   -1    0    0  502  501  0.00000000000E+00  0.00000000000E+00  0.42723363015E+03  0.42723363015E+03  0.00000000000E+00 0. -1.
         21   -1    0    0  501  502 -0.00000000000E+00 -0.00000000000E+00 -0.34860609293E+03  0.34860609293E+03  0.00000000000E+00 0. -1.
         25    1    1    2    0    0  0.21562870226E+03 -0.83178137833E+02  0.39572094781E+02  0.26571656053E+03  0.12500000000E+03 0.  0.
         25    1    1    2    0    0  0.36318040761E+02  0.12496326882E+03  0.11729632931E+03  0.21521674542E+03  0.12500000000E+03 0.  0.
         25    1    1    2    0    0 -0.25194674302E+03 -0.41785130989E+02 -0.78240886861E+02  0.29490641714E+03  0.12500000000E+03 0.  0.
</event>
<event>
 5    0  0.5713700E-005  0.3065815E+03  0.7546771E-02  0.1081996E+00
         21   -1    0    0  502  501  0.00000000000E+00  0.00000000000E+00  0.63519754079E+02  0.63519754079E+02  0.00000000000E+00 0.  1.
         21   -1    0    0  501  502 -0.00000000000E+00 -0.00000000000E+00 -0.14797321140E+04  0.14797321140E+04  0.00000000000E+00 0.  1.
         25    1    1    2    0    0  0.82108279369E+02 -0.65997928578E+02 -0.51562375450E+03  0.54091621562E+03  0.12500000000E+03 0.  0.
         25    1    1    2    0    0  0.82894570423E+02  0.15364027339E+03 -0.46416183489E+03  0.51141768877E+03  0.12500000000E+03 0.  0.
         25    1    1    2    0    0 -0.16500284979E+03 -0.87642344807E+02 -0.43642677054E+03  0.49091796370E+03  0.12500000000E+03 0.  0.
</event>
<event>
 5    0  0.5713700E-005  0.3921464E+03  0.7546771E-02  0.1046534E+00
         21   -1    0    0  502  501  0.00000000000E+00  0.00000000000E+00  0.34486207585E+03  0.34486207585E+03  0.00000000000E+00 0. -1.
         21   -1    0    0  501  502 -0.00000000000E+00 -0.00000000000E+00 -0.44591389828E+03  0.44591389828E+03  0.00000000000E+00 0. -1.
         25    1    1    2    0    0  0.53758156918E+02 -0.18534867754E+03 -0.86912364485E+02  0.24581055877E+03  0.12500000000E+03 0.  0.
         25    1    1    2    0    0 -0.24607690046E+03  0.56706896221E+02 -0.10091845911E+02  0.28195098576E+03  0.12500000000E+03 0.  0.
         25    1    1    2    0    0  0.19231874354E+03  0.12864178132E+03 -0.40476120249E+01  0.26301442960E+03  0.12500000000E+03 0.  0.
</event>
<event>
 5    0  0.5713700E-005  0.2722545E+03  0.7546771E-02  0.1099996E+00
         21   -1    0    0  502  501  0.00000000000E+00  0.00000000000E+00  0.18997198565E+03  0.18997198565E+03  0.00000000000E+00 0.  1.
         21   -1    0    0  501  502 -0.00000000000E+00 -0.00000000000E+00 -0.39017603081E+03  0.39017603081E+03  0.00000000000E+00 0.  1.
         25    1    1    2    0    0 -0.12503187099E+03  0.42407797791E+01 -0.11355588931E+03  0.21016872501E+03  0.12500000000E+03 0.  0.
         25    1    1    2    0    0 -0.47084121206E+02  0.31745591996E+02 -0.68618497923E+02  0.15348679206E+03  0.12500000000E+03 0.  0.
         25    1    1    2    0    0  0.17211599220E+03 -0.35986371775E+02 -0.18029657922E+02  0.21649249938E+03  0.12500000000E+03 0.  0.
</event>
<event>
 5    0  0.5713700E-005  0.3090325E+03  0.7546771E-02  0.1080811E+00
         21   -1    0    0  502  501  0.00000000000E+00  0.00000000000E+00  0.10711532478E+03  0.10711532478E+03  0.00000000000E+00 0.  1.
         21   -1    0    0  501  502 -0.00000000000E+00 -0.00000000000E+00 -0.89157245726E+03  0.89157245726E+03  0.00000000000E+00 0.  1.
         25    1    1    2    0    0  0.37323504093E+00  0.52654034586E+02 -0.47320439712E+02  0.14365517978E+03  0.12500000000E+03 0.  0.
         25    1    1    2    0    0 -0.15302528164E+03  0.53464303008E+02 -0.41390388547E+03  0.46175382502E+03  0.12500000000E+03 0.  0.
         25    1    1    2    0    0  0.15265204660E+03 -0.10611833759E+03 -0.32323280730E+03  0.39327877723E+03  0.12500000000E+03 0.  0.
</event>
<event>
 5    0  0.5713700E-005  0.2985363E+03  0.7546771E-02  0.1085975E+00
         21   -1    0    0  502  501  0.00000000000E+00  0.00000000000E+00  0.67846165062E+03  0.67846165062E+03  0.00000000000E+00 0.  1.
         21   -1    0    0  501  502 -0.00000000000E+00 -0.00000000000E+00 -0.13136179885E+03  0.13136179885E+03  0.00000000000E+00 0.  1.
         25    1    1    2    0    0 -0.38599595721E+02 -0.37719722697E+02  0.19127799690E+03  0.23478709157E+03  0.12500000000E+03 0.  0.
         25    1    1    2    0    0  0.47508867615E+02  0.11853719721E+03 -0.11027573133E+02  0.17903845116E+03  0.12500000000E+03 0.  0.
         25    1    1    2    0    0 -0.89092718941E+01 -0.80817474512E+02  0.36684942800E+03  0.39599790673E+03  0.12500000000E+03 0.  0.
</event>
<event>
 5    0  0.5713700E-005  0.3040765E+03  0.7546771E-02  0.1083220E+00
         21   -1    0    0  502  501  0.00000000000E+00  0.00000000000E+00  0.12017909020E+03  0.12017909020E+03  0.00000000000E+00 0. -1.
         21   -1    0    0  501  502 -0.00000000000E+00 -0.00000000000E+00 -0.76937268554E+03  0.76937268554E+03  0.00000000000E+00 0. -1.
         25    1    1    2    0    0  0.31523053789E+02 -0.51460456286E+02 -0.35075096857E+03  0.37721760753E+03  0.12500000000E+03 0.  0.
         25    1    1    2    0    0  0.11274806128E+03 -0.22417252815E+02 -0.26361568504E+02  0.17185630870E+03  0.12500000000E+03 0.  0.
         25    1    1    2    0    0 -0.14427111507E+03  0.73877709102E+02 -0.27208105827E+03  0.34047785951E+03  0.12500000000E+03 0.  0.
</event>
<event>
 5    0  0.5713700E-005  0.2992504E+03  0.7546771E-02  0.1085616E+00
         21   -1    0    0  502  501  0.00000000000E+00  0.00000000000E+00  0.11060045768E+04  0.11060045768E+04  0.00000000000E+00 0.  1.
         21   -1    0    0  501  502 -0.00000000000E+00 -0.00000000000E+00 -0.80967850965E+02  0.80967850965E+02  0.00000000000E+00 0.  1.
         25    1    1    2    0    0  0.20629578867E+02 -0.10605489138E+03  0.44309144317E+03  0.47289348327E+03  0.12500000000E+03 0.  0.
         25    1    1    2    0    0  0.29501721587E+02 -0.10334052554E+03  0.22972962672E+03  0.28275487120E+03  0.12500000000E+03 0.  0.
         25    1    1    2    0    0 -0.50131300454E+02  0.20939541692E+03  0.35221565598E+03  0.43132407333E+03  0.12500000000E+03 0.  0.
</event>
<event>
 5    0  0.5713700E-005  0.2804202E+03  0.7546771E-02  0.1095460E+00
         21   -1    0    0  502  501  0.00000000000E+00  0.00000000000E+00  0.83818890918E+02  0.83818890918E+02  0.00000000000E+00 0. -1.
         21   -1    0    0  501  502 -0.00000000000E+00 -0.00000000000E+00 -0.93815959170E+03  0.93815959170E+03  0.00000000000E+00 0. -1.
         25    1    1    2    0    0 -0.14963500987E+03 -0.10873382748E+03 -0.30316205698E+03  0.37649158584E+03  0.12500000000E+03 0.  0.
         25    1    1    2    0    0  0.10282091171E+03  0.54905531643E+02 -0.18412258016E+03  0.25122277328E+03  0.12500000000E+03 0.  0.
         25    1    1    2    0    0  0.46814098159E+02  0.53828295832E+02 -0.36705606363E+03  0.39426412349E+03  0.12500000000E+03 0.  0.
</event>
<event>
 5    0  0.5713700E-005  0.2790018E+03  0.7546771E-02  0.1096235E+00
         21   -1    0    0  502  501  0.00000000000E+00  0.00000000000E+00  0.40052280079E+03  0.40052280079E+03  0.00000000000E+00 0.  1.
         21   -1    0    0  501  502 -0.00000000000E+00 -0.00000000000E+00 -0.19435104457E+03  0.19435104457E+03  0.00000000000E+00 0.  1.
         25    1    1    2    0    0  0.18331756590E+03 -0.50416350414E+02  0.98705438542E+02  0.24802197877E+03  0.12500000000E+03 0.  0.
         25    1    1    2    0    0 -0.11724097097E+03  0.11222226469E+02  0.12758526219E+02  0.17221836032E+03  0.12500000000E+03 0.  0.
         25    1    1    2    0    0 -0.66076594932E+02  0.39194123945E+02  0.94707791458E+02  0.17463350627E+03  0.12500000000E+03 0.  0.
</event>
<event>
 5    0  0.5713700E-005  0.4345868E+03  0.7546771E-02  0.1032421E+00
         21   -1    0    0  502  501  0.00000000000E+00  0.00000000000E+00  0.12875192071E+03  0.12875192071E+03  0.00000000000E+00 0. -1.
         21   -1    0    0  501  502 -0.00000000000E+00 -0.00000000000E+00 -0.14668963063E+04  0.14668963063E+04  0.00000000000E+00 0. -1.
         25    1    1    2    0    0 -0.53787893899E+01  0.31206982138E+02  0.37060872987E+02  0.13416898083E+03  0.12500000000E+03 0.  0.
         25    1    1    2    0    0 -0.14689768910E+03  0.13570977316E+03 -0.69393034794E+03  0.73291227400E+03  0.12500000000E+03 0.  0.
         25    1    1    2    0    0  0.15227647849E+03 -0.16691675530E+03 -0.68127491062E+03  0.72856697217E+03  0.12500000000E+03 0.  0.
</event>
<event>
 5    0  0.5713700E-005  0.3314685E+03  0.7546771E-02  0.1070489E+00
         21   -1    0    0  502  501  0.00000000000E+00  0.00000000000E+00  0.15001833697E+04  0.15001833697E+04  0.00000000000E+00 0.  1.
         21   -1    0    0  501  502 -0.00000000000E+00 -0.00000000000E+00 -0.73238632103E+02  0.73238632103E+02  0.00000000000E+00 0.  1.
         25    1    1    2    0    0 -0.16551032918E+03  0.10902779848E+03  0.56591785633E+03  0.61251020401E+03  0.12500000000E+03 0.  0.
         25    1    1    2    0    0  0.51211206798E+02 -0.13838258665E+03  0.69691746921E+03  0.72325050079E+03  0.12500000000E+03 0.  0.
         25    1    1    2    0    0  0.11429912239E+03  0.29354788172E+02  0.16410941204E+03  0.23766129699E+03  0.12500000000E+03 0.  0.
</event>
<event>
 5    0  0.5713700E-005  0.5026776E+03  0.7546771E-02  0.1013082E+00
         21   -1    0    0  502  501  0.00000000000E+00  0.00000000000E+00  0.39803756080E+03  0.39803756080E+03  0.00000000000E+00 0.  1.
         21   -1    0    0  501  502 -0.00000000000E+00 -0.00000000000E+00 -0.63482638562E+03  0.63482638562E+03  0.00000000000E+00 0.  1.
         25    1    1    2    0    0  0.64717209322E+02  0.21490411006E+02 -0.47790008176E+03  0.49866185246E+03  0.12500000000E+03 0.  0.
         25    1    1    2    0    0 -0.22942595409E+03 -0.48555898889E+02  0.16162263062E+03  0.31103186084E+03  0.12500000000E+03 0.  0.
         25    1    1    2    0    0  0.16470874477E+03  0.27065487883E+02  0.79488626319E+02  0.22317023313E+03  0.12500000000E+03 0.  0.
</event>
<event>
 5    0  0.5713700E-005  0.2663745E+03  0.7546771E-02  0.1103373E+00
         21   -1    0    0  502  501  0.00000000000E+00  0.00000000000E+00  0.46859755931E+03  0.46859755931E+03  0.00000000000E+00 0.  1.
         21   -1    0    0  501  502 -0.00000000000E+00 -0.00000000000E+00 -0.15142074719E+03  0.15142074719E+03  0.00000000000E+00 0.  1.
         25    1    1    2    0    0 -0.11222288141E+03  0.90499439505E+02  0.15683276966E+03  0.24699320092E+03  0.12500000000E+03 0.  0.
         25    1    1    2    0    0  0.13058462751E+03 -0.88967434354E+02  0.55878107016E+02  0.20908111383E+03  0.12500000000E+03 0.  0.
         25    1    1    2    0    0 -0.18361746098E+02 -0.15320051510E+01  0.10446593545E+03  0.16394399174E+03  0.12500000000E+03 0.  0.
</event>
<event>
 5    0  0.5713700E-005  0.4336122E+03  0.7546771E-02  0.1032725E+00
         21   -1    0    0  502  501  0.00000000000E+00  0.00000000000E+00  0.66330069980E+03  0.66330069980E+03  0.00000000000E+00 0. -1.
         21   -1    0    0  501  502 -0.00000000000E+00 -0.00000000000E+00 -0.28346048068E+03  0.28346048068E+03  0.00000000000E+00 0. -1.
         25    1    1    2    0    0 -0.12258668763E+03  0.24244427573E+03  0.90197574414E+02  0.31235768800E+03  0.12500000000E+03 0.  0.
         25    1    1    2    0    0 -0.41415311594E+02  0.82088682143E+02  0.17344133637E+03  0.23272446570E+03  0.12500000000E+03 0.  0.
         25    1    1    2    0    0  0.16400199923E+03 -0.32453295788E+03  0.11620130834E+03  0.40167902678E+03  0.12500000000E+03 0.  0.
</event>
<event>
 5    0  0.5713700E-005  0.2803349E+03  0.7546771E-02  0.1095506E+00
         21   -1    0    0  502  501  0.00000000000E+00  0.00000000000E+00  0.14571334162E+04  0.14571334162E+04  0.00000000000E+00 0.  1.
         21   -1    0    0  501  502 -0.00000000000E+00 -0.00000000000E+00 -0.53933061185E+02  0.53933061185E+02  0.00000000000E+00 0.  1.
         25    1    1    2    0    0  0.14355592874E+02 -0.56340580262E+02  0.69294502651E+03  0.70652540917E+03  0.12500000000E+03 0.  0.
         25    1    1    2    0    0  0.11927997462E+03 -0.33942753192E+00  0.23138311055E+03  0.28877494940E+03  0.12500000000E+03 0.  0.
         25    1    1    2    0    0 -0.13363556750E+03  0.56680007794E+02  0.47887221794E+03  0.51576611879E+03  0.12500000000E+03 0.  0.
</event>
<event>
 5    0  0.5769232E-005  0.3016906E+03  0.7546771E-02  0.1084399E+00
         21   -1    0    0  502  501  0.00000000000E+00  0.00000000000E+00  0.11204951297E+03  0.11204951297E+03  0.00000000000E+00 0.  1.
         21   -1    0    0  501  502 -0.00000000000E+00 -0.00000000000E+00 -0.81229442102E+03  0.81229442102E+03  0.00000000000E+00 0.  1.
         25    1    1    2    0    0  0.96659330263E+02  0.37442663912E+02 -0.53655114706E+03  0.56058640067E+03  0.12500000000E+03 0.  0.
         25    1    1    2    0    0 -0.58355114620E+02  0.66991937448E+02 -0.49386253467E+02  0.16111251074E+03  0.12500000000E+03 0.  0.
         25    1    1    2    0    0 -0.38304215642E+02 -0.10443460136E+03 -0.11430750753E+03  0.20264502258E+03  0.12500000000E+03 0.  0.
</event>
<event>
 5    0  0.5713700E-005  0.3301481E+03  0.7546771E-02  0.1071071E+00
         21   -1    0    0  502  501  0.00000000000E+00  0.00000000000E+00  0.35620313991E+03  0.35620313991E+03  0.00000000000E+00 0.  1.
         21   -1    0    0  501  502 -0.00000000000E+00 -0.00000000000E+00 -0.30599883485E+03  0.30599883485E+03  0.00000000000E+00 0.  1.
         25    1    1    2    0    0 -0.64716004717E+02 -0.71383235287E+02  0.44487320497E+01  0.15788767768E+03  0.12500000000E+03 0.  0.
         25    1    1    2    0    0  0.13915526178E+03 -0.11262092764E+03 -0.86705638972E+02  0.23492664398E+03  0.12500000000E+03 0.  0.
         25    1    1    2    0    0 -0.74439257060E+02  0.18400416293E+03  0.13246121198E+03  0.26938765310E+03  0.12500000000E+03 0.  0.
</event>
<event>
 5    0  0.5713700E-005  0.3398085E+03  0.7546771E-02  0.1066878E+00
         21   -1    0    0  502  501  0.00000000000E+00  0.00000000000E+00  0.10987977210E+04  0.10987977210E+04  0.00000000000E+00 0.  1.
         21   -1    0    0  501  502 -0.00000000000E+00 -0.00000000000E+00 -0.10508739853E+03  0.10508739853E+03  0.00000000000E+00 0.  1.
         25    1    1    2    0    0  0.94818946349E+02 -0.13454653008E+03  0.25091207030E+03  0.32507732675E+03  0.12500000000E+03 0.  0.
         25    1    1    2    0    0  0.10816558311E+03  0.15979231903E+03  0.36196346423E+03  0.42880756527E+03  0.12500000000E+03 0.  0.
         25    1    1    2    0    0 -0.20298452946E+03 -0.25245788946E+02  0.38083478796E+03  0.45000022753E+03  0.12500000000E+03 0.  0.
</event>
<event>
 5    0  0.5713700E-005  0.3271542E+03  0.7546771E-02  0.1072403E+00
         21   -1    0    0  502  501  0.00000000000E+00  0.00000000000E+00  0.14476044826E+03  0.14476044826E+03  0.00000000000E+00 0.  1.
         21   -1    0    0  501  502 -0.00000000000E+00 -0.00000000000E+00 -0.73935839137E+03  0.73935839137E+03  0.00000000000E+00 0.  1.
         25    1    1    2    0    0  0.13085791256E+03  0.26400464041E+02 -0.21381067659E+03  0.28135526155E+03  0.12500000000E+03 0.  0.
         25    1    1    2    0    0 -0.16635989755E+03 -0.10744046890E+03 -0.51756418059E+02  0.23983910582E+03  0.12500000000E+03 0.  0.
         25    1    1    2    0    0  0.35501984994E+02  0.81040004858E+02 -0.32903084846E+03  0.36292447226E+03  0.12500000000E+03 0.  0.
</event>
<event>
 5    0  0.5713700E-005  0.2610219E+03  0.7546771E-02  0.1106531E+00
         21   -1    0    0  502  501  0.00000000000E+00  0.00000000000E+00  0.24602858446E+03  0.24602858446E+03  0.00000000000E+00 0. -1.
         21   -1    0    0  501  502 -0.00000000000E+00 -0.00000000000E+00 -0.27692898180E+03  0.27692898180E+03  0.00000000000E+00 0. -1.
         25    1    1    2    0    0 -0.68718204810E+02 -0.14061861940E+03  0.58748466473E+02  0.20873947903E+03  0.12500000000E+03 0.  0.
         25    1    1    2    0    0  0.20772984059E+02  0.97924049469E+02 -0.38774212890E+02  0.16476976639E+03  0.12500000000E+03 0.  0.
         25    1    1    2    0    0  0.47945220750E+02  0.42694569930E+02 -0.50874650925E+02  0.14944832084E+03  0.12500000000E+03 0.  0.
</event>
<event>
 5    0  0.5713700E-005  0.2275365E+03  0.7546771E-02  0.1128386E+00
         21   -1    0    0  502  501  0.00000000000E+00  0.00000000000E+00  0.13446651513E+03  0.13446651513E+03  0.00000000000E+00 0. -1.
         21   -1    0    0  501  502 -0.00000000000E+00 -0.00000000000E+00 -0.38502414943E+03  0.38502414943E+03  0.00000000000E+00 0. -1.
         25    1    1    2    0    0 -0.70478142685E+02  0.55090999270E+01 -0.21975114204E+01  0.14362224004E+03  0.12500000000E+03 0.  0.
         25    1    1    2    0    0  0.76129140625E+02 -0.49861728334E+01 -0.18398535693E+03  0.23515126947E+03  0.12500000000E+03 0.  0.
         25    1    1    2    0    0 -0.56509979400E+01 -0.52292709356E+00 -0.64374765955E+02  0.14071715504E+03  0.12500000000E+03 0.  0.
</event>
<event>
 5    0  0.5855668E-005  0.3497970E+03  0.7546771E-02  0.1062698E+00
         21   -1    0    0  502  501  0.00000000000E+00  0.00000000000E+00  0.14392440505E+04  0.14392440505E+04  0.00000000000E+00 0. -1.
         21   -1    0    0  501  502 -0.00000000000E+00 -0.00000000000E+00 -0.85015415687E+02  0.85015415687E+02  0.00000000000E+00 0. -1.
         25    1    1    2    0    0  0.62260527505E+02 -0.11555252190E+03  0.75141643942E+02  0.19621423307E+03  0.12500000000E+03 0.  0.
         25    1    1    2    0    0 -0.13176918660E+02 -0.43186339168E+02  0.70610417069E+03  0.71850316001E+03  0.12500000000E+03 0.  0.
         25    1    1    2    0    0 -0.49083608844E+02  0.15873886107E+03  0.57298282020E+03  0.60954207313E+03  0.12500000000E+03 0.  0.
</event>
<event>
 5    0  0.5713700E-005  0.3114583E+03  0.7546771E-02  0.1079649E+00
         21   -1    0    0  502  501  0.00000000000E+00  0.00000000000E+00  0.39105633050E+02  0.39105633050E+02  0.00000000000E+00 0.  1.
         21   -1    0    0  501  502 -0.00000000000E+00 -0.00000000000E+00 -0.24806218785E+04  0.24806218785E+04  0.00000000000E+00 0.  1.
         25    1    1    2    0    0  0.35724086108E+01  0.64998345022E+02 -0.17844487813E+04  0.17900055866E+04  0.12500000000E+03 0.  0.
         25    1    1    2    0    0  0.10296759570E+02  0.36933177215E+02 -0.43948553161E+03  0.45852220811E+03  0.12500000000E+03 0.  0.
         25    1    1    2    0    0 -0.13869168181E+02 -0.10193152224E+03 -0.21758193257E+03  0.27119971687E+03  0.12500000000E+03 0.  0.
</event>
<event>
 5    0  0.5713700E-005  0.3066561E+03  0.7546771E-02  0.1081960E+00
         21   -1    0    0  502  501  0.00000000000E+00  0.00000000000E+00  0.14339306618E+04  0.14339306618E+04  0.00000000000E+00 0. -1.
         21   -1    0    0  501  502 -0.00000000000E+00 -0.00000000000E+00 -0.65580551137E+02  0.65580551137E+02  0.00000000000E+00 0. -1.
         25    1    1    2    0    0  0.12728576420E+03  0.54133359681E+02  0.15686845627E+03  0.24364892565E+03  0.12500000000E+03 0.  0.
         25    1    1    2    0    0 -0.13471758705E+03 -0.83004352293E+02  0.78063099835E+03  0.80625573259E+03  0.12500000000E+03 0.  0.
         25    1    1    2    0    0  0.74318228472E+01  0.28870992612E+02  0.43085065603E+03  0.44960655468E+03  0.12500000000E+03 0.  0.
</event>
<event>
 5    0  0.5936534E-005  0.3014083E+03  0.7546771E-02  0.1084539E+00
         21   -1    0    0  502  501  0.00000000000E+00  0.00000000000E+00  0.54073899733E+03  0.54073899733E+03  0.00000000000E+00 0.  1.
         21   -1    0    0  501  502 -0.00000000000E+00 -0.00000000000E+00 -0.16800516629E+03  0.16800516629E+03  0.00000000000E+00 0.  1.
         25    1    1    2    0    0  0.18031336022E+03  0.85112182094E+02  0.48472048888E+02  0.24027386653E+03  0.12500000000E+03 0.  0.
         25    1    1    2    0    0 -0.87045648711E+02  0.13234986404E+02  0.13069407048E+03  0.20114186507E+03  0.12500000000E+03 0.  0.
         25    1    1    2    0    0 -0.93267711511E+02 -0.98347168497E+02  0.19356771167E+03  0.26732843201E+03  0.12500000000E+03 0.  0.
</event>
<event>
 5    0  0.5713700E-005  0.2844064E+03  0.7546771E-02  0.1093306E+00
         21   -1    0    0  502  501  0.00000000000E+00  0.00000000000E+00  0.20393889646E+03  0.20393889646E+03  0.00000000000E+00 0. -1.
         21   -1    0    0  501  502 -0.00000000000E+00 -0.00000000000E+00 -0.39662376697E+03  0.39662376697E+03  0.00000000000E+00 0. -1.
         25    1    1    2    0    0  0.15185293497E+03 -0.13841070963E+03 -0.45883874023E+02  0.24484110826E+03  0.12500000000E+03 0.  0.
         25    1    1    2    0    0 -0.78897454635E+02  0.61530868970E+02 -0.74583944984E+02  0.17663131385E+03  0.12500000000E+03 0.  0.
         25    1    1    2    0    0 -0.72955480330E+02  0.76879840660E+02 -0.72217051501E+02  0.17909024132E+03  0.12500000000E+03 0.  0.
</event>
<event>
 5    0  0.5713700E-005  0.5170822E+03  0.7546771E-02  0.1009414E+00
         21   -1    0    0  502  501  0.00000000000E+00  0.00000000000E+00  0.30803083309E+03  0.30803083309E+03  0.00000000000E+00 0.  1.
         21   -1    0    0  501  502 -0.00000000000E+00 -0.00000000000E+00 -0.86801048752E+03  0.86801048752E+03  0.00000000000E+00 0.  1.
         25    1    1    2    0    0 -0.56530674373E+02  0.19368399722E+03 -0.40686907074E+03  0.47103784205E+03  0.12500000000E+03 0.  0.
         25    1    1    2    0    0 -0.24711545867E+03  0.46052684218E+02 -0.45139452665E+02  0.28434041187E+03  0.12500000000E+03 0.  0.
         25    1    1    2    0    0  0.30364613304E+03 -0.23973668144E+03 -0.10797113103E+03  0.42066306668E+03  0.12500000000E+03 0.  0.
</event>
<event>
 5    0  0.5713700E-005  0.2309051E+03  0.7546771E-02  0.1126004E+00
         21   -1    0    0  502  501  0.00000000000E+00  0.00000000000E+00  0.41008322193E+03  0.41008322193E+03  0.00000000000E+00 0. -1.
         21   -1    0    0  501  502 -0.00000000000E+00 -0.00000000000E+00 -0.13001549902E+03  0.13001549902E+03  0.00000000000E+00 0. -1.
         25    1    1    2    0    0 -0.74220666359E+02 -0.70358201139E+02  0.15300159164E+03  0.22247128090E+03  0.12500000000E+03 0.  0.
         25    1    1    2    0    0  0.30248694249E+02  0.14270539869E+02  0.11520250958E+03  0.17324909820E+03  0.12500000000E+03 0.  0.
         25    1    1    2    0    0  0.43971972109E+02  0.56087661271E+02  0.11863621691E+02  0.14437834186E+03  0.12500000000E+03 0.  0.
</event>
<event>
 5    0  0.6082011E-005  0.3250341E+03  0.7546771E-02  0.1073356E+00
         21   -1    0    0  502  501  0.00000000000E+00  0.00000000000E+00  0.34398364721E+03  0.34398364721E+03  0.00000000000E+00 0.  1.
         21   -1    0    0  501  502 -0.00000000000E+00 -0.00000000000E+00 -0.30712838256E+03  0.30712838256E+03  0.00000000000E+00 0.  1.
         25    1    1    2    0    0 -0.12820478850E+03 -0.11978399877E+03  0.14665984465E+02  0.21592768525E+03  0.12500000000E+03 0.  0.
         25    1    1    2    0    0 -0.51626400090E+02  0.45550826756E+02 -0.99407853645E+02  0.17391688926E+03  0.12500000000E+03 0.  0.
         25    1    1    2    0    0  0.17983118859E+03  0.74233172017E+02  0.12159713383E+03  0.26126745525E+03  0.12500000000E+03 0.  0.
</event>
<event>
 5    0  0.5713700E-005  0.3786405E+03  0.7546771E-02  0.1051437E+00
         21   -1    0    0  502  501  0.00000000000E+00  0.00000000000E+00  0.24782768486E+03  0.24782768486E+03  0.00000000000E+00 0. -1.
         21   -1    0    0  501  502 -0.00000000000E+00 -0.00000000000E+00 -0.57850130820E+03  0.57850130820E+03  0.00000000000E+00 0. -1.
         25    1    1    2    0    0 -0.28436520698E+03 -0.21171062814E+02 -0.21802228804E+03  0.38009275568E+03  0.12500000000E+03 0.  0.
         25    1    1    2    0    0  0.22550330269E+03 -0.29175061633E+02 -0.14272635735E+03  0.29613972518E+03  0.12500000000E+03 0.  0.
         25    1    1    2    0    0  0.58861904286E+02  0.50346124447E+02  0.30075022058E+02  0.15009651220E+03  0.12500000000E+03 0.  0.
</event>
<event>
 5    0  0.5713700E-005  0.2516026E+03  0.7546771E-02  0.1112296E+00
         21   -1    0    0  502  501  0.00000000000E+00  0.00000000000E+00  0.46351993201E+03  0.46351993201E+03  0.00000000000E+00 0. -1.
         21   -1    0    0  501  502 -0.00000000000E+00 -0.00000000000E+00 -0.13657203896E+03  0.13657203896E+03  0.00000000000E+00 0. -1.
         25    1    1    2    0    0 -0.16924285092E+02 -0.88068449880E+02  0.89627485652E+01  0.15410325808E+03  0.12500000000E+03 0.  0.
         25    1    1    2    0    0 -0.51011259716E+02  0.99703147677E+02  0.14570129300E+03  0.22225375825E+03  0.12500000000E+03 0.  0.
         25    1    1    2    0    0  0.67935544808E+02 -0.11634697797E+02  0.17228385148E+03  0.22373495463E+03  0.12500000000E+03 0.  0.
</event>
<event>
 5    0  0.5713700E-005  0.3683246E+03  0.7546771E-02  0.1055335E+00
         21   -1    0    0  502  501  0.00000000000E+00  0.00000000000E+00  0.20028552653E+04  0.20028552653E+04  0.00000000000E+00 0.  1.
         21   -1    0    0  501  502 -0.00000000000E+00 -0.00000000000E+00 -0.67734822273E+02  0.67734822273E+02  0.00000000000E+00 0.  1.
         25    1    1    2    0    0  0.74439704720E+01  0.14823997287E+03  0.18645361542E+03  0.26911048466E+03  0.12500000000E+03 0.  0.
         25    1    1    2    0    0 -0.12072670825E+02 -0.93903274053E+01  0.14020283071E+04  0.14076726542E+04  0.12500000000E+03 0.  0.
         25    1    1    2    0    0  0.46287003534E+01 -0.13884964547E+03  0.34663852056E+03  0.39380694870E+03  0.12500000000E+03 0.  0.
</event>
<event>
 5    0  0.5713700E-005  0.2985838E+03  0.7546771E-02  0.1085951E+00
         21   -1    0    0  502  501  0.00000000000E+00  0.00000000000E+00  0.18209548487E+03  0.18209548487E+03  0.00000000000E+00 0.  1.
         21   -1    0    0  501  502 -0.00000000000E+00 -0.00000000000E+00 -0.48959091228E+03  0.48959091228E+03  0.00000000000E+00 0.  1.
         25    1    1    2    0    0 -0.31145616197E+01 -0.18650638950E+03 -0.86378491991E+02  0.24058382676E+03  0.12500000000E+03 0.  0.
         25    1    1    2    0    0  0.84479606000E+01  0.15896752691E+03 -0.35383191637E+02  0.20547265731E+03  0.12500000000E+03 0.  0.
         25    1    1    2    0    0 -0.53333989803E+01  0.27538862590E+02 -0.18573374378E+03  0.22562991308E+03  0.12500000000E+03 0.  0.
</event>
<event>
 5    0  0.5713700E-005  0.2546553E+03  0.7546771E-02  0.1110398E+00
         21   -1    0    0  502  501  0.00000000000E+00  0.00000000000E+00  0.31961761956E+03  0.31961761956E+03  0.00000000000E+00 0. -1.
         21   -1    0    0  501  502 -0.00000000000E+00 -0.00000000000E+00 -0.20289651731E+03  0.20289651731E+03  0.00000000000E+00 0. -1.
         25    1    1    2    0    0 -0.66155507782E+02  0.93220043684E+02  0.14967602312E+03  0.22604079201E+03  0.12500000000E+03 0.  0.
         25    1    1    2    0    0  0.25062034378E+02 -0.32476050640E+01 -0.48224781414E+02  0.13634251739E+03  0.12500000000E+03 0.  0.
         25    1    1    2    0    0  0.41093473404E+02 -0.89972438620E+02  0.15269860544E+02  0.16013082748E+03  0.12500000000E+03 0.  0.
</event>
<event>
 5    0  0.5713700E-005  0.3672500E+03  0.7546771E-02  0.1055749E+00
         21   -1    0    0  502  501  0.00000000000E+00  0.00000000000E+00  0.45875048961E+03  0.45875048961E+03  0.00000000000E+00 0.  1.
         21   -1    0    0  501  502 -0.00000000000E+00 -0.00000000000E+00 -0.29399985687E+03  0.29399985687E+03  0.00000000000E+00 0.  1.
         25    1    1    2    0    0  0.35057388625E+02 -0.18843656999E+03  0.24198049717E+03  0.33304192291E+03  0.12500000000E+03 0.  0.
         25    1    1    2    0    0 -0.12051540569E+03  0.97658061461E+02 -0.12703484210E+03  0.23627084265E+03  0.12500000000E+03 0.  0.
         25    1    1    2    0    0  0.85458017069E+02  0.90778508531E+02  0.49804977675E+02  0.18343758092E+03  0.12500000000E+03 0.  0.
</event>
<event>
 5    0  0.5713700E-005  0.3558789E+03  0.7546771E-02  0.1060228E+00
         21   -1    0    0  502  501  0.00000000000E+00  0.00000000000E+00  0.38320769507E+03  0.38320769507E+03  0.00000000000E+00 0. -1.
         21   -1    0    0  501  502 -0.00000000000E+00 -0.00000000000E+00 -0.33049900227E+03  0.33049900227E+03  0.00000000000E+00 0. -1.
         25    1    1    2    0    0  0.15556749867E+03 -0.11904884078E+03 -0.94224882015E+02  0.25075326823E+03  0.12500000000E+03 0.  0.
         25    1    1    2    0    0 -0.58249324705E+02 -0.51949244993E+01 -0.80057776079E+02  0.15954378264E+03  0.12500000000E+03 0.  0.
         25    1    1    2    0    0 -0.97318173968E+02  0.12424376528E+03  0.22699135089E+03  0.30340964648E+03  0.12500000000E+03 0.  0.
</event>
<event>
 5    0  0.5713700E-005  0.3053307E+03  0.7546771E-02  0.1082606E+00
         21   -1    0    0  502  501  0.00000000000E+00  0.00000000000E+00  0.11759746012E+04  0.11759746012E+04  0.00000000000E+00 0. -1.
         21   -1    0    0  501  502 -0.00000000000E+00 -0.00000000000E+00 -0.79276219685E+02  0.79276219685E+02  0.00000000000E+00 0. -1.
         25    1    1    2    0    0  0.11186251489E+03 -0.10509140512E+03  0.24460541086E+03  0.31466527087E+03  0.12500000000E+03 0.  0.
         25    1    1    2    0    0 -0.11304455761E+03  0.62140652356E+02  0.75631685622E+03  0.77735495090E+03  0.12500000000E+03 0.  0.
         25    1    1    2    0    0  0.11820427170E+01  0.42950752764E+02  0.95776114395E+02  0.16323059908E+03  0.12500000000E+03 0.  0.
</event>
<event>
 5    0  0.5713700E-005  0.3125453E+03  0.7546771E-02  0.1079132E+00
         21   -1    0    0  502  501  0.00000000000E+00  0.00000000000E+00  0.82992917420E+02  0.82992917420E+02  0.00000000000E+00 0. -1.
         21   -1    0    0  501  502 -0.00000000000E+00 -0.00000000000E+00 -0.11770226360E+04  0.11770226360E+04  0.00000000000E+00 0. -1.
         25    1    1    2    0    0  0.93500909517E+02  0.12053415413E+03 -0.43601695813E+03  0.47854643470E+03  0.12500000000E+03 0.  0.
         25    1    1    2    0    0 -0.33528597515E+02  0.76832686798E+02 -0.12219094468E+03  0.19386349727E+03  0.12500000000E+03 0.  0.
         25    1    1    2    0    0 -0.59972312002E+02 -0.19736684093E+03 -0.53582181582E+03  0.58760562149E+03  0.12500000000E+03 0.  0.
</event>
<event>
 5    0  0.6134474E-005  0.3977592E+03  0.7546771E-02  0.1044558E+00
         21   -1    0    0  502  501  0.00000000000E+00  0.00000000000E+00  0.45204875415E+03  0.45204875415E+03  0.00000000000E+00 0.  1.
         21   -1    0    0  501  502 -0.00000000000E+00 -0.00000000000E+00 -0.34998970347E+03  0.34998970347E+03  0.00000000000E+00 0.  1.
         25    1    1    2    0    0 -0.20380769706E+02 -0.39236272575E+02 -0.21192213405E+03  0.24998170285E+03  0.12500000000E+03 0.  0.
         25    1    1    2    0    0  0.18985922240E+03  0.71105067239E+02  0.13448748117E+03  0.27352209693E+03  0.12500000000E+03 0.  0.
         25    1    1    2    0    0 -0.16947845270E+03 -0.31868794664E+02  0.17949370356E+03  0.27853465784E+03  0.12500000000E+03 0.  0.
</event>
<event>
 5    0  0.6878981E-005  0.4713461E+03  0.7546771E-02  0.1021541E+00
         21   -1    0    0  502  501  0.00000000000E+00  0.00000000000E+00  0.35972795908E+03  0.35972795908E+03  0.00000000000E+00 0. -1.
         21   -1    0    0  501  502 -0.00000000000E+00 -0.00000000000E+00 -0.61759770028E+03  0.61759770028E+03  0.00000000000E+00 0. -1.
         25    1    1    2    0    0  0.11834798261E+03 -0.43869987782E+02  0.20378061748E+03  0.27033749440E+03  0.12500000000E+03 0.  0.
         25    1    1    2    0    0  0.13194337446E+03  0.15015125941E+03 -0.18948635946E+03  0.30246410562E+03  0.12500000000E+03 0.  0.
         25    1    1    2    0    0 -0.25029135706E+03 -0.10628127163E+03 -0.27216399922E+03  0.40452405935E+03  0.12500000000E+03 0.  0.
</event>
<event>
 5    0  0.5713700E-005  0.2863522E+03  0.7546771E-02  0.1092269E+00
         21   -1    0    0  502  501  0.00000000000E+00  0.00000000000E+00  0.32800482955E+02  0.32800482955E+02  0.00000000000E+00 0.  1.
         21   -1    0    0  501  502 -0.00000000000E+00 -0.00000000000E+00 -0.24998891195E+04  0.24998891195E+04  0.00000000000E+00 0.  1.
         25    1    1    2    0    0  0.83429588627E+02 -0.98289182268E+02 -0.99412716217E+03  0.10102153603E+04  0.12500000000E+03 0.  0.
         25    1    1    2    0    0 -0.33587587136E+02  0.17283931313E+03 -0.64056052792E+03  0.67597658547E+03  0.12500000000E+03 0.  0.
         25    1    1    2    0    0 -0.49842001491E+02 -0.74550130864E+02 -0.83240094643E+03  0.84649765667E+03  0.12500000000E+03 0.  0.
</event>
<event>
 5    0  0.5713700E-005  0.4107643E+03  0.7546771E-02  0.1040115E+00
         21   -1    0    0  502  501  0.00000000000E+00  0.00000000000E+00  0.67583308031E+03  0.67583308031E+03  0.00000000000E+00 0. -1.
         21   -1    0    0  501  502 -0.00000000000E+00 -0.00000000000E+00 -0.24965819869E+03  0.24965819869E+03  0.00000000000E+00 0. -1.
         25    1    1    2    0    0 -0.16905803989E+02 -0.73827138899E+02 -0.28887943218E+02  0.14898243490E+03  0.12500000000E+03 0.  0.
         25    1    1    2    0    0  0.20710163463E+03  0.24437868318E+03  0.27000502721E+03  0.43719531399E+03  0.12500000000E+03 0.  0.
         25    1    1    2    0    0 -0.19019583064E+03 -0.17055154428E+03  0.18505779762E+03  0.33931353010E+03  0.12500000000E+03 0.  0.
</event>
<event>
 5    0  0.5713700E-005  0.2208601E+03  0.7546771E-02  0.1133243E+00
         21   -1    0    0  502  501  0.00000000000E+00  0.00000000000E+00  0.96152625636E+02  0.96152625636E+02  0.00000000000E+00 0.  1.
         21   -1    0    0  501  502 -0.00000000000E+00 -0.00000000000E+00 -0.50731016344E+03  0.50731016344E+03  0.00000000000E+00 0.  1.
         25    1    1    2    0    0  0.14751125802E+02 -0.49760782189E+02 -0.10573442968E+03  0.17175127591E+03  0.12500000000E+03 0.  0.
         25    1    1    2    0    0 -0.37393021631E+01 -0.32822794519E+02 -0.22945517437E+03  0.26337424944E+03  0.12500000000E+03 0.  0.
         25    1    1    2    0    0 -0.11011823638E+02  0.82583576709E+02 -0.75967933755E+02  0.16833726373E+03  0.12500000000E+03 0.  0.
</event>
<event>
 5    0  0.5713700E-005  0.2427379E+03  0.7546771E-02  0.1117982E+00
         21   -1    0    0  502  501  0.00000000000E+00  0.00000000000E+00  0.26336059848E+03  0.26336059848E+03  0.00000000000E+00 0. -1.
         21   -1    0    0  501  502 -0.00000000000E+00 -0.00000000000E+00 -0.22373007060E+03  0.22373007060E+03  0.00000000000E+00 0. -1.
         25    1    1    2    0    0 -0.10192977933E+03 -0.13712417137E+02  0.70536214860E+02  0.17657312339E+03  0.12500000000E+03 0.  0.
         25    1    1    2    0    0  0.11043049600E+03  0.57224902293E+02 -0.18849292653E+02  0.17734113940E+03  0.12500000000E+03 0.  0.
         25    1    1    2    0    0 -0.85007166706E+01 -0.43512485156E+02 -0.12056394329E+02  0.13317640629E+03  0.12500000000E+03 0.  0.
</event>
<event>
 5    0  0.5713700E-005  0.3612267E+03  0.7546771E-02  0.1058099E+00
         21   -1    0    0  502  501  0.00000000000E+00  0.00000000000E+00  0.92910105251E+03  0.92910105251E+03  0.00000000000E+00 0.  1.
         21   -1    0    0  501  502 -0.00000000000E+00 -0.00000000000E+00 -0.14044191628E+03  0.14044191628E+03  0.00000000000E+00 0.  1.
         25    1    1    2    0    0  0.13276596616E+03  0.15890234712E+02 -0.10022567991E+02  0.18331599276E+03  0.12500000000E+03 0.  0.
         25    1    1    2    0    0 -0.19268994099E+03 -0.61982265234E+02  0.50367059605E+03  0.55702808178E+03  0.12500000000E+03 0.  0.
         25    1    1    2    0    0  0.59923974829E+02  0.46092030522E+02  0.29501110817E+03  0.32919889426E+03  0.12500000000E+03 0.  0.
</event>
<event>
 5    0  0.5713700E-005  0.2812524E+03  0.7546771E-02  0.1095007E+00
         21   -1    0    0  502  501  0.00000000000E+00  0.00000000000E+00  0.27327330953E+03  0.27327330953E+03  0.00000000000E+00 0. -1.
         21   -1    0    0  501  502 -0.00000000000E+00 -0.00000000000E+00 -0.28946452235E+03  0.28946452235E+03  0.00000000000E+00 0. -1.
         25    1    1    2    0    0  0.48022584196E+02  0.13919119387E+03  0.41199436879E+01  0.19318988323E+03  0.12500000000E+03 0.  0.
         25    1    1    2    0    0 -0.13184027226E+03 -0.99209644080E+02 -0.45125653233E+02  0.21186253904E+03  0.12500000000E+03 0.  0.
         25    1    1    2    0    0  0.83817688066E+02 -0.39981549794E+02  0.24814496720E+02  0.15768540961E+03  0.12500000000E+03 0.  0.
</event>
<event>
 5    0  0.5713700E-005  0.3761900E+03  0.7546771E-02  0.1052351E+00
         21   -1    0    0  502  501  0.00000000000E+00  0.00000000000E+00  0.69192200605E+03  0.69192200605E+03  0.00000000000E+00 0. -1.
         21   -1    0    0  501  502 -0.00000000000E+00 -0.00000000000E+00 -0.20453020301E+03  0.20453020301E+03  0.00000000000E+00 0. -1.
         25    1    1    2    0    0 -0.65379557324E+02  0.21019521316E+03  0.11726310125E+03  0.27898413766E+03  0.12500000000E+03 0.  0.
         25    1    1    2    0    0 -0.11063289908E+03 -0.21984630688E+03  0.17918032607E+03  0.32909364359E+03  0.12500000000E+03 0.  0.
         25    1    1    2    0    0  0.17601245640E+03  0.96510937138E+01  0.19094837573E+03  0.28837442781E+03  0.12500000000E+03 0.  0.
</event>
<event>
 5    0  0.5713700E-005  0.2574601E+03  0.7546771E-02  0.1108679E+00
         21   -1    0    0  502  501  0.00000000000E+00  0.00000000000E+00  0.17753681447E+03  0.17753681447E+03  0.00000000000E+00 0. -1.
         21   -1    0    0  501  502 -0.00000000000E+00 -0.00000000000E+00 -0.37336322910E+03  0.37336322910E+03  0.00000000000E+00 0. -1.
         25    1    1    2    0    0  0.66912600858E+02 -0.12663708650E+03 -0.11729023662E+03  0.22337467949E+03  0.12500000000E+03 0.  0.
         25    1    1    2    0    0  0.44210857844E+01  0.89323162215E+02  0.10787463824E+02  0.15407641832E+03  0.12500000000E+03 0.  0.
         25    1    1    2    0    0 -0.71333686642E+02  0.37313924281E+02 -0.89323641837E+02  0.17344894576E+03  0.12500000000E+03 0.  0.
</event>
<event>
 5    0  0.5713700E-005  0.3953455E+03  0.7546771E-02  0.1045403E+00
         21   -1    0    0  502  501  0.00000000000E+00  0.00000000000E+00  0.11437556105E+04  0.11437556105E+04  0.00000000000E+00 0.  1.
         21   -1    0    0  501  502 -0.00000000000E+00 -0.00000000000E+00 -0.13665337782E+03  0.13665337782E+03  0.00000000000E+00 0.  1.
         25    1    1    2    0    0  0.48457013797E+02 -0.92135674134E+01  0.98538495852E+03  0.99450565030E+03  0.12500000000E+03 0.  0.
         25    1    1    2    0    0 -0.57566844236E+02 -0.50035872975E+02  0.97452919768E+01  0.14675660413E+03  0.12500000000E+03 0.  0.
         25    1    1    2    0    0  0.91098304385E+01  0.59249440388E+02  0.11971982198E+02  0.13914673390E+03  0.12500000000E+03 0.  0.
</event>
<event>
 5    0  0.5713700E-005  0.3241033E+03  0.7546771E-02  0.1073776E+00
         21   -1    0    0  502  501  0.00000000000E+00  0.00000000000E+00  0.56744840635E+03  0.56744840635E+03  0.00000000000E+00 0.  1.
         21   -1    0    0  501  502 -0.00000000000E+00 -0.00000000000E+00 -0.18511453029E+03  0.18511453029E+03  0.00000000000E+00 0.  1.
         25    1    1    2    0    0  0.39037303502E+02  0.14159567586E+03  0.18114468741E+03  0.26459713578E+03  0.12500000000E+03 0.  0.
         25    1    1    2    0    0  0.10163791065E+03 -0.18061794869E+03  0.16359556724E+03  0.29213287711E+03  0.12500000000E+03 0.  0.
         25    1    1    2    0    0 -0.14067521415E+03  0.39022272832E+02  0.37593621402E+02  0.19583292375E+03  0.12500000000E+03 0.  0.
</event>
<event>
 5    0  0.5713700E-005  0.2153630E+03  0.7546771E-02  0.1137388E+00
         21   -1    0    0  502  501  0.00000000000E+00  0.00000000000E+00  0.14947067913E+03  0.14947067913E+03  0.00000000000E+00 0.  1.
         21   -1    0    0  501  502 -0.00000000000E+00 -0.00000000000E+00 -0.31030307097E+03  0.31030307097E+03  0.00000000000E+00 0.  1.
         25    1    1    2    0    0  0.85600186037E+01  0.93257006747E+02 -0.35100801391E+02  0.16008500706E+03  0.12500000000E+03 0.  0.
         25    1    1    2    0    0 -0.32009110258E+01 -0.30505782035E+02 -0.83755898534E+02  0.15356073427E+03  0.12500000000E+03 0.  0.
         25    1    1    2    0    0 -0.53591075779E+01 -0.62751224711E+02 -0.41975691915E+02  0.14612800877E+03  0.12500000000E+03 0.  0.
</event>
<event>
 5    0  0.5713700E-005  0.3036330E+03  0.7546771E-02  0.1083438E+00
         21   -1    0    0  502  501  0.00000000000E+00  0.00000000000E+00  0.97831260612E+03  0.97831260612E+03  0.00000000000E+00 0. -1.
         21   -1    0    0  501  502 -0.00000000000E+00 -0.00000000000E+00 -0.94236753642E+02  0.94236753642E+02  0.00000000000E+00 0. -1.
         25    1    1    2    0    0  0.79320350718E+02  0.21688722585E+03  0.35128140018E+03  0.43858341155E+03  0.12500000000E+03 0.  0.
         25    1    1    2    0    0 -0.56365157986E+02 -0.12284664981E+03  0.25825452749E+03  0.31715726600E+03  0.12500000000E+03 0.  0.
         25    1    1    2    0    0 -0.22955192732E+02 -0.94040576040E+02  0.27453992480E+03  0.31680868221E+03  0.12500000000E+03 0.  0.
</event>
<event>
 5    0  0.5713700E-005  0.2974884E+03  0.7546771E-02  0.1086503E+00
         21   -1    0    0  502  501  0.00000000000E+00  0.00000000000E+00  0.86576494828E+02  0.86576494828E+02  0.00000000000E+00 0. -1.
         21   -1    0    0  501  502 -0.00000000000E+00 -0.00000000000E+00 -0.10222098394E+04  0.10222098394E+04  0.00000000000E+00 0. -1.
         25    1    1    2    0    0 -0.13647372850E+03 -0.95203614722E+02 -0.45504941006E+03  0.50038362525E+03  0.12500000000E+03 0.  0.
         25    1    1    2    0    0 -0.43994423792E+02  0.49806488660E+02 -0.24670081398E+03  0.28443362540E+03  0.12500000000E+03 0.  0.
         25    1    1    2    0    0  0.18046815229E+03  0.45397126062E+02 -0.23388312053E+03  0.32396908358E+03  0.12500000000E+03 0.  0.
</event>
<event>
 5    0  0.5713700E-005  0.2678117E+03  0.7546771E-02  0.1102539E+00
         21   -1    0    0  502  501  0.00000000000E+00  0.00000000000E+00  0.22991832139E+03  0.22991832139E+03  0.00000000000E+00 0.  1.
         21   -1    0    0  501  502 -0.00000000000E+00 -0.00000000000E+00 -0.31195028003E+03  0.31195028003E+03  0.00000000000E+00 0.  1.
         25    1    1    2    0    0  0.70600050335E+02 -0.31588618506E+02 -0.12169662744E+03  0.19083311310E+03  0.12500000000E+03 0.  0.
         25    1    1    2    0    0 -0.12758841227E+03  0.50274337315E+02  0.86456259528E+02  0.20470954240E+03  0.12500000000E+03 0.  0.
         25    1    1    2    0    0  0.56988361936E+02 -0.18685718809E+02 -0.46791590733E+02  0.14632594591E+03  0.12500000000E+03 0.  0.
</event>
<event>
 5    0  0.5713700E-005  0.3254584E+03  0.7546771E-02  0.1073164E+00
         21   -1    0    0  502  501  0.00000000000E+00  0.00000000000E+00  0.11561172193E+03  0.11561172193E+03  0.00000000000E+00 0.  1.
         21   -1    0    0  501  502 -0.00000000000E+00 -0.00000000000E+00 -0.91619758900E+03  0.91619758900E+03  0.00000000000E+00 0.  1.
         25    1    1    2    0    0  0.15610868114E+03 -0.46260986441E+02 -0.45583696593E+03  0.49992233267E+03  0.12500000000E+03 0.  0.
         25    1    1    2    0    0 -0.53591015326E+02 -0.38061803522E+02 -0.31754649462E+03  0.34753629171E+03  0.12500000000E+03 0.  0.
         25    1    1    2    0    0 -0.10251766581E+03  0.84322789963E+02 -0.27202406525E+02  0.18435068655E+03  0.12500000000E+03 0.  0.
</event>
<event>
 5    0  0.5713700E-005  0.2940865E+03  0.7546771E-02  0.1088235E+00
         21   -1    0    0  502  501  0.00000000000E+00  0.00000000000E+00  0.18346999300E+03  0.18346999300E+03  0.00000000000E+00 0. -1.
         21   -1    0    0  501  502 -0.00000000000E+00 -0.00000000000E+00 -0.47139524784E+03  0.47139524784E+03  0.00000000000E+00 0. -1.
         25    1    1    2    0    0  0.99533396050E+02  0.95427992285E+02 -0.71369737707E+02  0.19932896955E+03  0.12500000000E+03 0.  0.
         25    1    1    2    0    0  0.57258530667E+02 -0.13326923799E+03 -0.14158500111E+03  0.23813975239E+03  0.12500000000E+03 0.  0.
         25    1    1    2    0    0 -0.15679192672E+03  0.37841245702E+02 -0.74970516030E+02  0.21739651891E+03  0.12500000000E+03 0.  0.
</event>
<event>
 5    0  0.5713700E-005  0.3373751E+03  0.7546771E-02  0.1067919E+00
         21   -1    0    0  502  501  0.00000000000E+00  0.00000000000E+00  0.16087450931E+03  0.16087450931E+03  0.00000000000E+00 0. -1.
         21   -1    0    0  501  502 -0.00000000000E+00 -0.00000000000E+00 -0.70752022355E+03  0.70752022355E+03  0.00000000000E+00 0. -1.
         25    1    1    2    0    0 -0.60671533154E+02 -0.19743076365E+03 -0.16625405990E+03  0.29313026763E+03  0.12500000000E+03 0.  0.
         25    1    1    2    0    0  0.89189035940E+02  0.24918892784E+03 -0.24427449892E+03  0.38124117919E+03  0.12500000000E+03 0.  0.
         25    1    1    2    0    0 -0.28517502786E+02 -0.51758164189E+02 -0.13611715542E+03  0.19402328604E+03  0.12500000000E+03 0.  0.
</event>
<event>
 5    0  0.5713700E-005  0.5240102E+03  0.7546771E-02  0.1007695E+00
         21   -1    0    0  502  501  0.00000000000E+00  0.00000000000E+00  0.33213036321E+03  0.33213036321E+03  0.00000000000E+00 0.  1.
         21   -1    0    0  501  502 -0.00000000000E+00 -0.00000000000E+00 -0.82674362696E+03  0.82674362696E+03  0.00000000000E+00 0.  1.
         25    1    1    2    0    0 -0.21759153657E+03 -0.50330243061E+02 -0.69385669293E+03  0.73955481235E+03  0.12500000000E+03 0.  0.
         25    1    1    2    0    0  0.70056950673E+02  0.86323374257E+02  0.12602009219E+03  0.20944155489E+03  0.12500000000E+03 0.  0.
         25    1    1    2    0    0  0.14753458590E+03 -0.35993131196E+02  0.73223336988E+02  0.20987762293E+03  0.12500000000E+03 0.  0.
</event>
<event>
 5    0  0.6165905E-005  0.2889099E+03  0.7546771E-02  0.1090920E+00
         21   -1    0    0  502  501  0.00000000000E+00  0.00000000000E+00  0.72769242869E+02  0.72769242869E+02  0.00000000000E+00 0. -1.
         21   -1    0    0  501  502 -0.00000000000E+00 -0.00000000000E+00 -0.11470356486E+04  0.11470356486E+04  0.00000000000E+00 0. -1.
         25    1    1    2    0    0 -0.13182146128E+03 -0.29421319737E+02 -0.24144969402E+03  0.30358765859E+03  0.12500000000E+03 0.  0.
         25    1    1    2    0    0 -0.58718830155E+02 -0.23677162919E+02 -0.22674821324E+03  0.26654879716E+03  0.12500000000E+03 0.  0.
         25    1    1    2    0    0  0.19054029144E+03  0.53098482656E+02 -0.60606849844E+03  0.64966843568E+03  0.12500000000E+03 0.  0.
</event>
<event>
 5    0  0.5713700E-005  0.3333641E+03  0.7546771E-02  0.1069658E+00
         21   -1    0    0  502  501  0.00000000000E+00  0.00000000000E+00  0.46789228776E+03  0.46789228776E+03  0.00000000000E+00 0.  1.
         21   -1    0    0  501  502 -0.00000000000E+00 -0.00000000000E+00 -0.23751545902E+03  0.23751545902E+03  0.00000000000E+00 0.  1.
         25    1    1    2    0    0 -0.12486184927E+03 -0.80246386523E+02  0.26389615781E+03  0.32756090436E+03  0.12500000000E+03 0.  0.
         25    1    1    2    0    0  0.17825860670E+03  0.90801098628E+01 -0.49890513958E+02  0.22354561647E+03  0.12500000000E+03 0.  0.
         25    1    1    2    0    0 -0.53396757429E+02  0.71166276660E+02  0.16371184893E+02  0.15430122596E+03  0.12500000000E+03 0.  0.
</event>
<event>
 5    0  0.5713700E-005  0.3449051E+03  0.7546771E-02  0.1064726E+00
         21   -1    0    0  502  501  0.00000000000E+00  0.00000000000E+00  0.23342855356E+03  0.23342855356E+03  0.00000000000E+00 0. -1.
         21   -1    0    0  501  502 -0.00000000000E+00 -0.00000000000E+00 -0.50961852620E+03  0.50961852620E+03  0.00000000000E+00 0. -1.
         25    1    1    2    0    0 -0.26133874552E+02  0.12027210639E+03  0.69343248522E+02  0.18863150609E+03  0.12500000000E+03 0.  0.
         25    1    1    2    0    0 -0.11954887484E+03 -0.15170186821E+03 -0.13067373163E+03  0.26458649707E+03  0.12500000000E+03 0.  0.
         25    1    1    2    0    0  0.14568274939E+03  0.31429761825E+02 -0.21485948953E+03  0.28982907659E+03  0.12500000000E+03 0.  0.
</event>
<event>
 5    0  0.5713700E-005  0.2343958E+03  0.7546771E-02  0.1123583E+00
         21   -1    0    0  502  501  0.00000000000E+00  0.00000000000E+00  0.11755208256E+03  0.11755208256E+03  0.00000000000E+00 0.  1.
         21   -1    0    0  501  502 -0.00000000000E+00 -0.00000000000E+00 -0.46737913780E+03  0.46737913780E+03  0.00000000000E+00 0.  1.
         25    1    1    2    0    0  0.66759661708E+02  0.36065956011E+02 -0.10167984617E+03  0.17810501602E+03  0.12500000000E+03 0.  0.
         25    1    1    2    0    0 -0.10831169224E+03  0.23637061071E+02 -0.18422845552E+03  0.24870717150E+03  0.12500000000E+03 0.  0.
         25    1    1    2    0    0  0.41552030531E+02 -0.59703017082E+02 -0.63918753559E+02  0.15811903284E+03  0.12500000000E+03 0.  0.
</event>
<event>
 5    0  0.5713700E-005  0.3727473E+03  0.7546771E-02  0.1053647E+00
         21   -1    0    0  502  501  0.00000000000E+00  0.00000000000E+00  0.15879440629E+03  0.15879440629E+03  0.00000000000E+00 0.  1.
         21   -1    0    0  501  502 -0.00000000000E+00 -0.00000000000E+00 -0.87497136985E+03  0.87497136985E+03  0.00000000000E+00 0.  1.
         25    1    1    2    0    0  0.13145220725E+03 -0.91432836016E+02 -0.48010415647E+03  0.52131050953E+03  0.12500000000E+03 0.  0.
         25    1    1    2    0    0  0.40994609475E+02 -0.28378769126E+02  0.43219227931E+02  0.14134643330E+03  0.12500000000E+03 0.  0.
         25    1    1    2    0    0 -0.17244681673E+03  0.11981160514E+03 -0.27929203503E+03  0.37110883330E+03  0.12500000000E+03 0.  0.
</event>
<event>
 5    0  0.5713700E-005  0.2232518E+03  0.7546771E-02  0.1131482E+00
         21   -1    0    0  502  501  0.00000000000E+00  0.00000000000E+00  0.31249343093E+02  0.31249343093E+02  0.00000000000E+00 0. -1.
         21   -1    0    0  501  502 -0.00000000000E+00 -0.00000000000E+00 -0.15949570062E+04  0.15949570062E+04  0.00000000000E+00 0. -1.
         25    1    1    2    0    0  0.79517107485E+01 -0.35110008669E+02 -0.78910617407E+03  0.79975589799E+03  0.12500000000E+03 0.  0.
         25    1    1    2    0    0 -0.73219997384E+02  0.21046689109E+02 -0.38882471411E+03  0.41546815695E+03  0.12500000000E+03 0.  0.
         25    1    1    2    0    0  0.65268286635E+02  0.14063319560E+02 -0.38577677494E+03  0.41098229436E+03  0.12500000000E+03 0.  0.
</event>
<event>
 5    0  0.5713700E-005  0.2213177E+03  0.7546771E-02  0.1132904E+00
         21   -1    0    0  502  501  0.00000000000E+00  0.00000000000E+00  0.31571861086E+02  0.31571861086E+02  0.00000000000E+00 0. -1.
         21   -1    0    0  501  502 -0.00000000000E+00 -0.00000000000E+00 -0.15514303244E+04  0.15514303244E+04  0.00000000000E+00 0. -1.
         25    1    1    2    0    0  0.17889263894E+01  0.59872132763E+02 -0.54614970683E+03  0.56346461718E+03  0.12500000000E+03 0.  0.
         25    1    1    2    0    0 -0.71403450447E+01 -0.94580080330E+02 -0.68866903255E+03  0.70631891700E+03  0.12500000000E+03 0.  0.
         25    1    1    2    0    0  0.53514186553E+01  0.34707947567E+02 -0.28503972394E+03  0.31321865131E+03  0.12500000000E+03 0.  0.
</event>
<event>
 5    0  0.5713700E-005  0.2551150E+03  0.7546771E-02  0.1110114E+00
         21   -1    0    0  502  501  0.00000000000E+00  0.00000000000E+00  0.19906426504E+04  0.19906426504E+04  0.00000000000E+00 0. -1.
         21   -1    0    0  501  502 -0.00000000000E+00 -0.00000000000E+00 -0.32694811747E+02  0.32694811747E+02  0.00000000000E+00 0. -1.
         25    1    1    2    0    0  0.64355459019E+02 -0.68161149185E+02  0.36077023071E+03  0.39315102280E+03  0.12500000000E+03 0.  0.
         25    1    1    2    0    0  0.33292406477E+02 -0.29936727714E+02  0.50307699068E+03  0.52030380601E+03  0.12500000000E+03 0.  0.
         25    1    1    2    0    0 -0.97647865495E+02  0.98097876899E+02  0.10941006173E+04  0.11098826334E+04  0.12500000000E+03 0.  0.
</event>
<event>
 5    0  0.5713700E-005  0.3092310E+03  0.7546771E-02  0.1080715E+00
         21   -1    0    0  502  501  0.00000000000E+00  0.00000000000E+00  0.56550225930E+03  0.56550225930E+03  0.00000000000E+00 0.  1.
         21   -1    0    0  501  502 -0.00000000000E+00 -0.00000000000E+00 -0.16909536302E+03  0.16909536302E+03  0.00000000000E+00 0.  1.
         25    1    1    2    0    0 -0.16200047714E+02 -0.18294939022E+03  0.50026999121E+02  0.22772927253E+03  0.12500000000E+03 0.  0.
         25    1    1    2    0    0 -0.33901498892E+02  0.13281136193E+03  0.30559790531E+03  0.35749580307E+03  0.12500000000E+03 0.  0.
         25    1    1    2    0    0  0.50101546607E+02  0.50138028285E+02  0.40781991848E+02  0.14937254671E+03  0.12500000000E+03 0.  0.
</event>
<event>
 5    0  0.5713700E-005  0.3275448E+03  0.7546771E-02  0.1072228E+00
         21   -1    0    0  502  501  0.00000000000E+00  0.00000000000E+00  0.42334810766E+02  0.42334810766E+02  0.00000000000E+00 0. -1.
         21   -1    0    0  501  502 -0.00000000000E+00 -0.00000000000E+00 -0.25342175575E+04  0.25342175575E+04  0.00000000000E+00 0. -1.
         25    1    1    2    0    0 -0.16775648541E+03  0.66893872087E+02 -0.72807094445E+03  0.76047967012E+03  0.12500000000E+03 0.  0.
         25    1    1    2    0    0 -0.75222696613E+02  0.15858292566E+02 -0.63045809256E+03  0.64731162974E+03  0.12500000000E+03 0.  0.
         25    1    1    2    0    0  0.24297918203E+03 -0.82752164653E+02 -0.11333537097E+04  0.11687610684E+04  0.12500000000E+03 0.  0.
</event>
<event>
 5    0  0.5745423E-005  0.2802895E+03  0.7546771E-02  0.1095531E+00
         21   -1    0    0  502  501  0.00000000000E+00  0.00000000000E+00  0.68379449631E+03  0.68379449631E+03  0.00000000000E+00 0.  1.
         21   -1    0    0  501  502 -0.00000000000E+00 -0.00000000000E+00 -0.11489155883E+03  0.11489155883E+03  0.00000000000E+00 0.  1.
         25    1    1    2    0    0  0.49427516467E+02  0.98576526121E+02  0.32786858891E+02  0.16988345712E+03  0.12500000000E+03 0.  0.
         25    1    1    2    0    0 -0.10828289814E+03 -0.24361315750E+02  0.22400399825E+03  0.27950214841E+03  0.12500000000E+03 0.  0.
         25    1    1    2    0    0  0.58855381671E+02 -0.74215210371E+02  0.31211208033E+03  0.34930044960E+03  0.12500000000E+03 0.  0.
</event>
<event>
 5    0  0.5713700E-005  0.2675974E+03  0.7546771E-02  0.1102663E+00
         21   -1    0    0  502  501  0.00000000000E+00  0.00000000000E+00  0.26520409495E+03  0.26520409495E+03  0.00000000000E+00 0.  1.
         21   -1    0    0  501  502 -0.00000000000E+00 -0.00000000000E+00 -0.27001226881E+03  0.27001226881E+03  0.00000000000E+00 0.  1.
         25    1    1    2    0    0 -0.82369228456E+02 -0.13740520202E+02 -0.19011394341E+01  0.15033996815E+03  0.12500000000E+03 0.  0.
         25    1    1    2    0    0  0.10572953250E+03 -0.10196626265E+03 -0.62760228582E+02  0.20282923619E+03  0.12500000000E+03 0.  0.
         25    1    1    2    0    0 -0.23360304045E+02  0.11570678285E+03  0.59853194152E+02  0.18204715942E+03  0.12500000000E+03 0.  0.
</event>
<event>
 5    0  0.5713700E-005  0.2598181E+03  0.7546771E-02  0.1107253E+00
         21   -1    0    0  502  501  0.00000000000E+00  0.00000000000E+00  0.14148876450E+03  0.14148876450E+03  0.00000000000E+00 0.  1.
         21   -1    0    0  501  502 -0.00000000000E+00 -0.00000000000E+00 -0.47710802823E+03  0.47710802823E+03  0.00000000000E+00 0.  1.
         25    1    1    2    0    0  0.85174119439E+02  0.58204685454E+02 -0.27396958838E+03  0.31831863186E+03  0.12500000000E+03 0.  0.
         25    1    1    2    0    0 -0.25299058502E+02  0.20664411832E+01  0.19016055120E+02  0.12896093553E+03  0.12500000000E+03 0.  0.
         25    1    1    2    0    0 -0.59875060937E+02 -0.60271126638E+02 -0.80665730464E+02  0.17131722534E+03  0.12500000000E+03 0.  0.
</event>
<event>
 5    0  0.5713700E-005  0.2364088E+03  0.7546771E-02  0.1122209E+00
         21   -1    0    0  502  501  0.00000000000E+00  0.00000000000E+00  0.25986648260E+03  0.25986648260E+03  0.00000000000E+00 0.  1.
         21   -1    0    0  501  502 -0.00000000000E+00 -0.00000000000E+00 -0.21506858726E+03  0.21506858726E+03  0.00000000000E+00 0.  1.
         25    1    1    2    0    0  0.33811005218E+02  0.10751650205E+02 -0.14420914448E+02  0.13073540006E+03  0.12500000000E+03 0.  0.
         25    1    1    2    0    0  0.37872087169E+01 -0.41670903927E+02  0.13619522111E+03  0.18953877027E+03  0.12500000000E+03 0.  0.
         25    1    1    2    0    0 -0.37598213935E+02  0.30919253722E+02 -0.76976411319E+02  0.15466089952E+03  0.12500000000E+03 0.  0.
</event>
<event>
 5    0  0.5713700E-005  0.2712832E+03  0.7546771E-02  0.1100547E+00
         21   -1    0    0  502  501  0.00000000000E+00  0.00000000000E+00  0.10749546104E+04  0.10749546104E+04  0.00000000000E+00 0. -1.
         21   -1    0    0  501  502 -0.00000000000E+00 -0.00000000000E+00 -0.68462979127E+02  0.68462979127E+02  0.00000000000E+00 0. -1.
         25    1    1    2    0    0 -0.31364659214E+02  0.33552677638E+02  0.49492585811E+03  0.51252914947E+03  0.12500000000E+03 0.  0.
         25    1    1    2    0    0 -0.11861245161E+03 -0.18608819206E+02  0.23343219337E+03  0.29074179392E+03  0.12500000000E+03 0.  0.
         25    1    1    2    0    0  0.14997711083E+03 -0.14943858432E+02  0.27813357981E+03  0.34014664616E+03  0.12500000000E+03 0.  0.
</event>
<event>
 5    0  0.5713700E-005  0.3251395E+03  0.7546771E-02  0.1073308E+00
         21   -1    0    0  502  501  0.00000000000E+00  0.00000000000E+00  0.80197478509E+02  0.80197478509E+02  0.00000000000E+00 0. -1.
         21   -1    0    0  501  502 -0.00000000000E+00 -0.00000000000E+00 -0.13181926506E+04  0.13181926506E+04  0.00000000000E+00 0. -1.
         25    1    1    2    0    0  0.11696046467E+03  0.15613793009E+03 -0.33326948363E+03  0.40589697243E+03  0.12500000000E+03 0.  0.
         25    1    1    2    0    0 -0.10763888123E+03 -0.16625406794E+03 -0.78375332020E+03  0.81799805060E+03  0.12500000000E+03 0.  0.
         25    1    1    2    0    0 -0.93215834342E+01  0.10116137851E+02 -0.12097236825E+03  0.17449510607E+03  0.12500000000E+03 0.  0.
</event>
<event>
 5    0  0.5713700E-005  0.3102497E+03  0.7546771E-02  0.1080226E+00
         21   -1    0    0  502  501  0.00000000000E+00  0.00000000000E+00  0.52989369593E+03  0.52989369593E+03  0.00000000000E+00 0.  1.
         21   -1    0    0  501  502 -0.00000000000E+00 -0.00000000000E+00 -0.18164936229E+03  0.18164936229E+03  0.00000000000E+00 0. -1.
         25    1    1    2    0    0  0.83290387453E+02  0.19325326294E+03  0.19803100283E+03  0.31484184976E+03  0.12500000000E+03 0.  0.
         25    1    1    2    0    0 -0.14937309232E+02 -0.10909050555E+03 -0.93333064530E+01  0.16684115864E+03  0.12500000000E+03 0.  0.
         25    1    1    2    0    0 -0.68353078220E+02 -0.84162757396E+02  0.15954663726E+03  0.22986004981E+03  0.12500000000E+03 0.  0.
</event>
<event>
 5    0  0.5713700E-005  0.2121131E+03  0.7546771E-02  0.1139903E+00
         21   -1    0    0  502  501  0.00000000000E+00  0.00000000000E+00  0.13693340174E+04  0.13693340174E+04  0.00000000000E+00 0.  1.
         21   -1    0    0  501  502 -0.00000000000E+00 -0.00000000000E+00 -0.32856818861E+02  0.32856818861E+02  0.00000000000E+00 0.  1.
         25    1    1    2    0    0 -0.44280069950E+02  0.26136923917E+02  0.26452700706E+03  0.29705790824E+03  0.12500000000E+03 0.  0.
         25    1    1    2    0    0  0.47512130963E+02 -0.16765807170E+01  0.67892183765E+03  0.69196826166E+03  0.12500000000E+03 0.  0.
         25    1    1    2    0    0 -0.32320610131E+01 -0.24460343200E+02  0.39302835383E+03  0.41316466635E+03  0.12500000000E+03 0.  0.
</event>
<event>
 5    0  0.5713700E-005  0.4570351E+03  0.7546771E-02  0.1025645E+00
         21   -1    0    0  502  501  0.00000000000E+00  0.00000000000E+00  0.53652488820E+03  0.53652488820E+03  0.00000000000E+00 0. -1.
         21   -1    0    0  501  502 -0.00000000000E+00 -0.00000000000E+00 -0.38932222093E+03  0.38932222093E+03  0.00000000000E+00 0. -1.
         25    1    1    2    0    0 -0.89529340812E+02  0.13526482570E+03 -0.29558759780E+03  0.35959575069E+03  0.12500000000E+03 0.  0.
         25    1    1    2    0    0  0.62636906932E+02 -0.16869288928E+03  0.24880520060E+03  0.33152632000E+03  0.12500000000E+03 0.  0.
         25    1    1    2    0    0  0.26892433880E+02  0.33428063577E+02  0.19398506447E+03  0.23472503844E+03  0.12500000000E+03 0.  0.
</event>
<event>
 5    0  0.5713700E-005  0.2418951E+03  0.7546771E-02  0.1118537E+00
         21   -1    0    0  502  501  0.00000000000E+00  0.00000000000E+00  0.47363343199E+02  0.47363343199E+02  0.00000000000E+00 0. -1.
         21   -1    0    0  501  502 -0.00000000000E+00 -0.00000000000E+00 -0.12354120315E+04  0.12354120315E+04  0.00000000000E+00 0. -1.
         25    1    1    2    0    0  0.49337775328E+02 -0.12847682060E+03 -0.40652633684E+03  0.44702256325E+03  0.12500000000E+03 0.  0.
         25    1    1    2    0    0  0.57686277234E+01  0.33062041758E+02 -0.35211871671E+03  0.37515192433E+03  0.12500000000E+03 0.  0.
         25    1    1    2    0    0 -0.55106403051E+02  0.95414778846E+02 -0.42940363473E+03  0.46060088710E+03  0.12500000000E+03 0.  0.
</event>
<event>
 5    0  0.5713700E-005  0.2462173E+03  0.7546771E-02  0.1115719E+00
         21   -1    0    0  502  501  0.00000000000E+00  0.00000000000E+00  0.20237336905E+04  0.20237336905E+04  0.00000000000E+00 0. -1.
         21   -1    0    0  501  502 -0.00000000000E+00 -0.00000000000E+00 -0.29956000961E+02  0.29956000961E+02  0.00000000000E+00 0. -1.
         25    1    1    2    0    0  0.74039458089E+02  0.16295682323E+02  0.32532256639E+03  0.35666113164E+03  0.12500000000E+03 0.  0.
         25    1    1    2    0    0 -0.27371186552E+02  0.20944870054E+02  0.12394149813E+04  0.12461791065E+04  0.12500000000E+03 0.  0.
         25    1    1    2    0    0 -0.46668271538E+02 -0.37240552377E+02  0.42904014185E+03  0.45084945339E+03  0.12500000000E+03 0.  0.
</event>
<event>
 5    0  0.5713700E-005  0.2664497E+03  0.7546771E-02  0.1103329E+00
         21   -1    0    0  502  501  0.00000000000E+00  0.00000000000E+00  0.50799222584E+02  0.50799222584E+02  0.00000000000E+00 0.  1.
         21   -1    0    0  501  502 -0.00000000000E+00 -0.00000000000E+00 -0.13975696132E+04  0.13975696132E+04  0.00000000000E+00 0.  1.
         25    1    1    2    0    0  0.68738349236E+02 -0.29466764989E+02 -0.45800327794E+03  0.48060925241E+03  0.12500000000E+03 0.  0.
         25    1    1    2    0    0  0.28273718091E+02  0.46435140684E+02 -0.11663766547E+03  0.17940170130E+03  0.12500000000E+03 0.  0.
         25    1    1    2    0    0 -0.97012067327E+02 -0.16968375694E+02 -0.77212944720E+03  0.78835788206E+03  0.12500000000E+03 0.  0.
</event>
<event>
 5    0  0.5713700E-005  0.3939754E+03  0.7546771E-02  0.1045886E+00
         21   -1    0    0  502  501  0.00000000000E+00  0.00000000000E+00  0.22360240679E+03  0.22360240679E+03  0.00000000000E+00 0.  1.
         21   -1    0    0  501  502 -0.00000000000E+00 -0.00000000000E+00 -0.69416344823E+03  0.69416344823E+03  0.00000000000E+00 0.  1.
         25    1    1    2    0    0  0.10832526785E+03 -0.63121184713E+01 -0.99871897672E+02  0.19332253474E+03  0.12500000000E+03 0.  0.
         25    1    1    2    0    0  0.17431273530E+03 -0.42357397050E+02  0.24943189154E+02  0.22005963159E+03  0.12500000000E+03 0.  0.
         25    1    1    2    0    0 -0.28263800315E+03  0.48669515521E+02 -0.39563233292E+03  0.50438368869E+03  0.12500000000E+03 0.  0.
</event>
<event>
 5    0  0.5713700E-005  0.2629383E+03  0.7546771E-02  0.1105391E+00
         21   -1    0    0  502  501  0.00000000000E+00  0.00000000000E+00  0.68132486114E+03  0.68132486114E+03  0.00000000000E+00 0.  1.
         21   -1    0    0  501  502 -0.00000000000E+00 -0.00000000000E+00 -0.10147367781E+03  0.10147367781E+03  0.00000000000E+00 0.  1.
         25    1    1    2    0    0  0.23243926452E+02 -0.10837151510E+03  0.30508201258E+03  0.34782854944E+03  0.12500000000E+03 0.  0.
         25    1    1    2    0    0  0.74061727379E+02  0.18733703475E+00  0.11385398264E+03  0.18458847180E+03  0.12500000000E+03 0.  0.
         25    1    1    2    0    0 -0.97305653831E+02  0.10818417807E+03  0.16091518810E+03  0.25038151772E+03  0.12500000000E+03 0.  0.
</event>
<event>
 5    0  0.5713700E-005  0.2838435E+03  0.7546771E-02  0.1093608E+00
         21   -1    0    0  502  501  0.00000000000E+00  0.00000000000E+00  0.12879883652E+04  0.12879883652E+04  0.00000000000E+00 0. -1.
         21   -1    0    0  501  502 -0.00000000000E+00 -0.00000000000E+00 -0.62552685070E+02  0.62552685070E+02  0.00000000000E+00 0. -1.
         25    1    1    2    0    0 -0.44067293501E+02 -0.86850293594E+02  0.26416640446E+03  0.30804835513E+03  0.12500000000E+03 0.  0.
         25    1    1    2    0    0 -0.95084416933E+02 -0.18876659549E+02  0.22172562725E+03  0.27236855252E+03  0.12500000000E+03 0.  0.
         25    1    1    2    0    0  0.13915171043E+03  0.10572695314E+03  0.73954364844E+03  0.77012414264E+03  0.12500000000E+03 0.  0.
</event>
<event>
 5    0  0.6323249E-005  0.3232734E+03  0.7546771E-02  0.1074153E+00
         21   -1    0    0  502  501  0.00000000000E+00  0.00000000000E+00  0.30660782691E+03  0.30660782691E+03  0.00000000000E+00 0. -1.
         21   -1    0    0  501  502 -0.00000000000E+00 -0.00000000000E+00 -0.34084481946E+03  0.34084481946E+03  0.00000000000E+00 0. -1.
         25    1    1    2    0    0 -0.12456517899E+03 -0.19713206837E+02  0.70267649703E+02  0.19096501495E+03  0.12500000000E+03 0.  0.
         25    1    1    2    0    0  0.13447950434E+02  0.14176828200E+03  0.52522158510E+02  0.19662825404E+03  0.12500000000E+03 0.  0.
         25    1    1    2    0    0  0.11111722855E+03 -0.12205507516E+03 -0.15702680076E+03  0.25985937738E+03  0.12500000000E+03 0.  0.
</event>
<event>
 5    0  0.5713700E-005  0.2998628E+03  0.7546771E-02  0.1085309E+00
         21   -1    0    0  502  501  0.00000000000E+00  0.00000000000E+00  0.20168675207E+03  0.20168675207E+03  0.00000000000E+00 0. -1.
         21   -1    0    0  501  502 -0.00000000000E+00 -0.00000000000E+00 -0.44582837910E+03  0.44582837910E+03  0.00000000000E+00 0. -1.
         25    1    1    2    0    0  0.13931252913E+02  0.46092780022E+02 -0.64829242913E+02  0.14881685024E+03  0.12500000000E+03 0.  0.
         25    1    1    2    0    0 -0.11975572983E+03 -0.12889822449E+03 -0.22269291671E+03  0.31011823916E+03  0.12500000000E+03 0.  0.
         25    1    1    2    0    0  0.10582447692E+03  0.82805444469E+02  0.43380532587E+02  0.18858004178E+03  0.12500000000E+03 0.  0.
</event>
<event>
 5    0  0.5713700E-005  0.2541536E+03  0.7546771E-02  0.1110708E+00
         21   -1    0    0  502  501  0.00000000000E+00  0.00000000000E+00  0.16131887895E+04  0.16131887895E+04  0.00000000000E+00 0. -1.
         21   -1    0    0  501  502 -0.00000000000E+00 -0.00000000000E+00 -0.40041227158E+02  0.40041227158E+02  0.00000000000E+00 0. -1.
         25    1    1    2    0    0  0.95818026550E+02  0.66766073445E+02  0.28745587709E+03  0.33450662781E+03  0.12500000000E+03 0.  0.
         25    1    1    2    0    0 -0.52364650659E+02 -0.49130595769E+02  0.87725365203E+03  0.88901903359E+03  0.12500000000E+03 0.  0.
         25    1    1    2    0    0 -0.43453375891E+02 -0.17635477676E+02  0.40843803323E+03  0.42970435527E+03  0.12500000000E+03 0.  0.
</event>
<event>
 5    0  0.5713700E-005  0.3418660E+03  0.7546771E-02  0.1066004E+00
         21   -1    0    0  502  501  0.00000000000E+00  0.00000000000E+00  0.55416730211E+02  0.55416730211E+02  0.00000000000E+00 0. -1.
         21   -1    0    0  501  502 -0.00000000000E+00 -0.00000000000E+00 -0.21089723168E+04  0.21089723168E+04  0.00000000000E+00 0. -1.
         25    1    1    2    0    0  0.16091441244E+03 -0.16641688492E+02 -0.75707327614E+03  0.78419088198E+03  0.12500000000E+03 0.  0.
         25    1    1    2    0    0 -0.20318420053E+03  0.76974969526E+02 -0.40001811073E+03  0.47206827280E+03  0.12500000000E+03 0.  0.
         25    1    1    2    0    0  0.42269788087E+02 -0.60333281034E+02 -0.89646419976E+03  0.90812989227E+03  0.12500000000E+03 0.  0.
</event>
<event>
 5    0  0.5713700E-005  0.2307490E+03  0.7546771E-02  0.1126114E+00
         21   -1    0    0  502  501  0.00000000000E+00  0.00000000000E+00  0.37227213824E+03  0.37227213824E+03  0.00000000000E+00 0. -1.
         21   -1    0    0  501  502 -0.00000000000E+00 -0.00000000000E+00 -0.14302734569E+03  0.14302734569E+03  0.00000000000E+00 0. -1.
         25    1    1    2    0    0 -0.41821012785E+02  0.10271059207E+02  0.88412354523E+02  0.15904790536E+03  0.12500000000E+03 0.  0.
         25    1    1    2    0    0  0.31516290935E+02 -0.10266662543E+03  0.36598434609E+02  0.16881397450E+03  0.12500000000E+03 0.  0.
         25    1    1    2    0    0  0.10304721850E+02  0.92395566220E+02  0.10423400342E+03  0.18743760407E+03  0.12500000000E+03 0.  0.
</event>
<event>
 5    0  0.6002539E-005  0.2982610E+03  0.7546771E-02  0.1086113E+00
         21   -1    0    0  502  501  0.00000000000E+00  0.00000000000E+00  0.83878529604E+02  0.83878529604E+02  0.00000000000E+00 0. -1.
         21   -1    0    0  501  502 -0.00000000000E+00 -0.00000000000E+00 -0.10605766678E+04  0.10605766678E+04  0.00000000000E+00 0. -1.
         25    1    1    2    0    0  0.13973737217E+02  0.82520837762E+02 -0.11290908200E+03  0.18809150644E+03  0.12500000000E+03 0.  0.
         25    1    1    2    0    0 -0.11335665134E+03 -0.65385364967E+02 -0.18485695007E+03  0.25869300018E+03  0.12500000000E+03 0.  0.
         25    1    1    2    0    0  0.99382914120E+02 -0.17135472795E+02 -0.67893210610E+03  0.69767069076E+03  0.12500000000E+03 0.  0.
</event>
<event>
 5    0  0.5713700E-005  0.2572250E+03  0.7546771E-02  0.1108822E+00
         21   -1    0    0  502  501  0.00000000000E+00  0.00000000000E+00  0.41761238049E+03  0.41761238049E+03  0.00000000000E+00 0.  1.
         21   -1    0    0  501  502 -0.00000000000E+00 -0.00000000000E+00 -0.15843571511E+03  0.15843571511E+03  0.00000000000E+00 0.  1.
         25    1    1    2    0    0  0.17066145588E+02  0.39503993649E+01  0.45015607064E+02  0.13400844697E+03  0.12500000000E+03 0.  0.
         25    1    1    2    0    0 -0.75432552778E+02  0.80907938668E+02  0.22449173717E+03  0.27974578570E+03  0.12500000000E+03 0.  0.
         25    1    1    2    0    0  0.58366407190E+02 -0.84858338033E+02 -0.10330678852E+02  0.16229386294E+03  0.12500000000E+03 0.  0.
</event>
<event>
 5    0  0.5713700E-005  0.3701692E+03  0.7546771E-02  0.1054628E+00
         21   -1    0    0  502  501  0.00000000000E+00  0.00000000000E+00  0.60745298989E+03  0.60745298989E+03  0.00000000000E+00 0. -1.
         21   -1    0    0  501  502 -0.00000000000E+00 -0.00000000000E+00 -0.22557338289E+03  0.22557338289E+03  0.00000000000E+00 0. -1.
         25    1    1    2    0    0  0.45153792746E+02  0.14485502982E+02 -0.43928355135E+02  0.14072453653E+03  0.12500000000E+03 0.  0.
         25    1    1    2    0    0  0.11614864612E+02  0.23196306969E+03  0.20693460904E+03  0.33524424409E+03  0.12500000000E+03 0.  0.
         25    1    1    2    0    0 -0.56768657357E+02 -0.24644857267E+03  0.21887335309E+03  0.35705759217E+03  0.12500000000E+03 0.  0.
</event>
<event>
 5    0  0.5713700E-005  0.2779208E+03  0.7546771E-02  0.1096830E+00
         21   -1    0    0  502  501  0.00000000000E+00  0.00000000000E+00  0.22603592339E+02  0.22603592339E+02  0.00000000000E+00 0.  1.
         21   -1    0    0  501  502 -0.00000000000E+00 -0.00000000000E+00 -0.34171540097E+04  0.34171540097E+04  0.00000000000E+00 0.  1.
         25    1    1    2    0    0  0.45069669928E+02  0.88609932319E+02 -0.15501832193E+04  0.15583889145E+04  0.12500000000E+03 0.  0.
         25    1    1    2    0    0  0.29544491124E+02  0.51107228971E+01 -0.13765908960E+04  0.13825796510E+04  0.12500000000E+03 0.  0.
         25    1    1    2    0    0 -0.74614161052E+02 -0.93720655216E+02 -0.46777630200E+03  0.49878903652E+03  0.12500000000E+03 0.  0.
</event>
<event>
 5    0  0.5713700E-005  0.3950251E+03  0.7546771E-02  0.1045516E+00
         21   -1    0    0  502  501  0.00000000000E+00  0.00000000000E+00  0.79509070624E+02  0.79509070624E+02  0.00000000000E+00 0. -1.
         21   -1    0    0  501  502 -0.00000000000E+00 -0.00000000000E+00 -0.19626040196E+04  0.19626040196E+04  0.00000000000E+00 0. -1.
         25    1    1    2    0    0 -0.12217380531E+03  0.11583552850E+03 -0.12714051010E+03  0.24522238412E+03  0.12500000000E+03 0.  0.
         25    1    1    2    0    0  0.17127301219E+03 -0.10840051473E+03 -0.92722197770E+03  0.95731432259E+03  0.12500000000E+03 0.  0.
         25    1    1    2    0    0 -0.49099206880E+02 -0.74350137611E+01 -0.82873246118E+03  0.83957638352E+03  0.12500000000E+03 0.  0.
</event>
<event>
 5    0  0.5713700E-005  0.2123536E+03  0.7546771E-02  0.1139716E+00
         21   -1    0    0  502  501  0.00000000000E+00  0.00000000000E+00  0.12433753259E+03  0.12433753259E+03  0.00000000000E+00 0.  1.
         21   -1    0    0  501  502 -0.00000000000E+00 -0.00000000000E+00 -0.36267439405E+03  0.36267439405E+03  0.00000000000E+00 0.  1.
         25    1    1    2    0    0 -0.14875962058E+02  0.45856946649E+02 -0.39493316561E+02  0.13967417748E+03  0.12500000000E+03 0.  0.
         25    1    1    2    0    0  0.27187914713E+02 -0.34225769547E+01 -0.27843480561E+02  0.13096242266E+03  0.12500000000E+03 0.  0.
         25    1    1    2    0    0 -0.12311952655E+02 -0.42434369694E+02 -0.17100006435E+03  0.21637532649E+03  0.12500000000E+03 0.  0.
</event>
<event>
 5    0  0.5713700E-005  0.3410784E+03  0.7546771E-02  0.1066338E+00
         21   -1    0    0  502  501  0.00000000000E+00  0.00000000000E+00  0.48370181375E+03  0.48370181375E+03  0.00000000000E+00 0.  1.
         21   -1    0    0  501  502 -0.00000000000E+00 -0.00000000000E+00 -0.24050866015E+03  0.24050866015E+03  0.00000000000E+00 0.  1.
         25    1    1    2    0    0  0.48707316033E+01  0.51049865195E+02 -0.13078499680E+03  0.18804129374E+03  0.12500000000E+03 0.  0.
         25    1    1    2    0    0  0.13310688942E+03 -0.96241561014E+01  0.12066222140E+03  0.21907633387E+03  0.12500000000E+03 0.  0.
         25    1    1    2    0    0 -0.13797762102E+03 -0.41425709094E+02  0.25331592901E+03  0.31709284629E+03  0.12500000000E+03 0.  0.
</event>
<event>
 5    0  0.5781150E-005  0.3721783E+03  0.7546771E-02  0.1053863E+00
         21   -1    0    0  502  501  0.00000000000E+00  0.00000000000E+00  0.43804480383E+03  0.43804480383E+03  0.00000000000E+00 0.  1.
         21   -1    0    0  501  502 -0.00000000000E+00 -0.00000000000E+00 -0.31621576854E+03  0.31621576854E+03  0.00000000000E+00 0.  1.
         25    1    1    2    0    0  0.63084233643E+02  0.13441783326E+03  0.16839374680E+03  0.25696153096E+03  0.12500000000E+03 0.  0.
         25    1    1    2    0    0  0.64950209451E+02 -0.13344508813E+03  0.13963349377E+03  0.23905780438E+03  0.12500000000E+03 0.  0.
         25    1    1    2    0    0 -0.12803444309E+03 -0.97274512352E+00 -0.18619820528E+03  0.25824123702E+03  0.12500000000E+03 0.  0.
</event>
<event>
 5    0  0.5713700E-005  0.3790608E+03  0.7546771E-02  0.1051281E+00
         21   -1    0    0  502  501  0.00000000000E+00  0.00000000000E+00  0.13821274543E+04  0.13821274543E+04  0.00000000000E+00 0. -1.
         21   -1    0    0  501  502 -0.00000000000E+00 -0.00000000000E+00 -0.10396081603E+03  0.10396081603E+03  0.00000000000E+00 0. -1.
         25    1    1    2    0    0  0.47254989809E+02 -0.70057979112E+01  0.79034465906E+02  0.15541416302E+03  0.12500000000E+03 0.  0.
         25    1    1    2    0    0  0.39668167069E+01 -0.17916839114E+03  0.10085828582E+04  0.10319793747E+04  0.12500000000E+03 0.  0.
         25    1    1    2    0    0 -0.51221806516E+02  0.18617418905E+03  0.19054931412E+03  0.29869473254E+03  0.12500000000E+03 0.  0.
</event>
<event>
 5    0  0.5713700E-005  0.2838931E+03  0.7546771E-02  0.1093581E+00
         21   -1    0    0  502  501  0.00000000000E+00  0.00000000000E+00  0.13466925429E+03  0.13466925429E+03  0.00000000000E+00 0. -1.
         21   -1    0    0  501  502 -0.00000000000E+00 -0.00000000000E+00 -0.59846856252E+03  0.59846856252E+03  0.00000000000E+00 0. -1.
         25    1    1    2    0    0 -0.29044731360E+02 -0.18402112192E+03 -0.14400253292E+03  0.26658788273E+03  0.12500000000E+03 0.  0.
         25    1    1    2    0    0  0.60944440060E+02  0.15319398449E+03 -0.18772493564E+03  0.27937121025E+03  0.12500000000E+03 0.  0.
         25    1    1    2    0    0 -0.31899708700E+02  0.30827137432E+02 -0.13207183967E+03  0.18717872382E+03  0.12500000000E+03 0.  0.
</event>
<event>
 5    0  0.5713700E-005  0.2829075E+03  0.7546771E-02  0.1094111E+00
         21   -1    0    0  502  501  0.00000000000E+00  0.00000000000E+00  0.36945024508E+03  0.36945024508E+03  0.00000000000E+00 0.  1.
         21   -1    0    0  501  502 -0.00000000000E+00 -0.00000000000E+00 -0.21663722026E+03  0.21663722026E+03  0.00000000000E+00 0.  1.
         25    1    1    2    0    0  0.69663500394E+02 -0.83646293610E+02  0.18679210866E+03  0.24973185135E+03  0.12500000000E+03 0.  0.
         25    1    1    2    0    0 -0.81161233386E+02  0.66433235102E+02  0.64931014275E+02  0.17561764474E+03  0.12500000000E+03 0.  0.
         25    1    1    2    0    0  0.11497732993E+02  0.17213058508E+02 -0.98910098120E+02  0.16073796925E+03  0.12500000000E+03 0.  0.
</event>
<event>
 5    0  0.5713700E-005  0.2064323E+03  0.7546771E-02  0.1144423E+00
         21   -1    0    0  502  501  0.00000000000E+00  0.00000000000E+00  0.40471115581E+02  0.40471115581E+02  0.00000000000E+00 0.  1.
         21   -1    0    0  501  502 -0.00000000000E+00 -0.00000000000E+00 -0.10529561399E+04  0.10529561399E+04  0.00000000000E+00 0.  1.
         25    1    1    2    0    0  0.24064038678E+02  0.32147180443E+02 -0.47227011008E+03  0.49018014652E+03  0.12500000000E+03 0.  0.
         25    1    1    2    0    0 -0.70909555621E+01  0.25884263504E+02 -0.29359736094E+03  0.32022599379E+03  0.12500000000E+03 0.  0.
         25    1    1    2    0    0 -0.16973083116E+02 -0.58031443947E+02 -0.24661755330E+03  0.28302111517E+03  0.12500000000E+03 0.  0.
</event>
<event>
 5    0  0.5713700E-005  0.3369255E+03  0.7546771E-02  0.1068113E+00
         21   -1    0    0  502  501  0.00000000000E+00  0.00000000000E+00  0.38233178397E+03  0.38233178397E+03  0.00000000000E+00 0.  1.
         21   -1    0    0  501  502 -0.00000000000E+00 -0.00000000000E+00 -0.29691176948E+03  0.29691176948E+03  0.00000000000E+00 0.  1.
         25    1    1    2    0    0  0.95357596859E+01 -0.10643184515E+03 -0.90321781790E+02  0.18762114124E+03  0.12500000000E+03 0.  0.
         25    1    1    2    0    0 -0.11545406906E+03  0.20451538590E+03  0.12553239559E+03  0.29417608243E+03  0.12500000000E+03 0.  0.
         25    1    1    2    0    0  0.10591830937E+03 -0.98083540752E+02  0.50209400699E+02  0.19744632978E+03  0.12500000000E+03 0.  0.
</event>
<event>
 5    0  0.5713700E-005  0.3034123E+03  0.7546771E-02  0.1083547E+00
         21   -1    0    0  502  501  0.00000000000E+00  0.00000000000E+00  0.19439625707E+03  0.19439625707E+03  0.00000000000E+00 0.  1.
         21   -1    0    0  501  502 -0.00000000000E+00 -0.00000000000E+00 -0.47356369682E+03  0.47356369682E+03  0.00000000000E+00 0.  1.
         25    1    1    2    0    0  0.12124318453E+03 -0.54003494296E+02 -0.12857771045E+03  0.22309978668E+03  0.12500000000E+03 0.  0.
         25    1    1    2    0    0  0.10355186589E+02  0.40866112028E+02 -0.21464202209E+03  0.25193941067E+03  0.12500000000E+03 0.  0.
         25    1    1    2    0    0 -0.13159837112E+03  0.13137382268E+02  0.64052292784E+02  0.19292075654E+03  0.12500000000E+03 0.  0.
</event>
<event>
 5    0  0.5713700E-005  0.5422287E+03  0.7546771E-02  0.1003309E+00
         21   -1    0    0  502  501  0.00000000000E+00  0.00000000000E+00  0.58338262859E+03  0.58338262859E+03  0.00000000000E+00 0.  1.
         21   -1    0    0  501  502 -0.00000000000E+00 -0.00000000000E+00 -0.50397797668E+03  0.50397797668E+03  0.00000000000E+00 0.  1.
         25    1    1    2    0    0  0.16605048424E+03  0.38380182547E+03  0.16561801471E+03  0.46683073093E+03  0.12500000000E+03 0.  0.
         25    1    1    2    0    0 -0.11868316904E+03 -0.29283678446E+03  0.11831538261E+03  0.35980912539E+03  0.12500000000E+03 0.  0.
         25    1    1    2    0    0 -0.47367315197E+02 -0.90965041001E+02 -0.20452874541E+03  0.26072074895E+03  0.12500000000E+03 0.  0.
</event>
<event>
 5    0  0.5713700E-005  0.2735765E+03  0.7546771E-02  0.1099250E+00
         21   -1    0    0  502  501  0.00000000000E+00  0.00000000000E+00  0.22167789820E+04  0.22167789820E+04  0.00000000000E+00 0.  1.
         21   -1    0    0  501  502 -0.00000000000E+00 -0.00000000000E+00 -0.33762534917E+02  0.33762534917E+02  0.00000000000E+00 0.  1.
         25    1    1    2    0    0 -0.43865587832E+01 -0.50244334549E+02  0.10865922952E+04  0.10949207967E+04  0.12500000000E+03 0.  0.
         25    1    1    2    0    0 -0.84282800837E+02 -0.66276962915E+00  0.23508666453E+03  0.27927543684E+03  0.12500000000E+03 0.  0.
         25    1    1    2    0    0  0.88669359620E+02  0.50907104178E+02  0.86133748739E+03  0.87634528343E+03  0.12500000000E+03 0.  0.
</event>
<event>
 5    0  0.5713700E-005  0.3284443E+03  0.7546771E-02  0.1071827E+00
         21   -1    0    0  502  501  0.00000000000E+00  0.00000000000E+00  0.18832844402E+04  0.18832844402E+04  0.00000000000E+00 0. -1.
         21   -1    0    0  501  502 -0.00000000000E+00 -0.00000000000E+00 -0.57280584631E+02  0.57280584631E+02  0.00000000000E+00 0. -1.
         25    1    1    2    0    0  0.67253255104E+02  0.10986634421E+03  0.37225562838E+03  0.41327093628E+03  0.12500000000E+03 0.  0.
         25    1    1    2    0    0 -0.35191404272E+02 -0.48929685497E+02  0.13334312735E+04  0.13406328767E+04  0.12500000000E+03 0.  0.
         25    1    1    2    0    0 -0.32061850832E+02 -0.60936658712E+02  0.12031695373E+03  0.18666121185E+03  0.12500000000E+03 0.  0.
</event>
<event>
 5    0  0.5713700E-005  0.2457355E+03  0.7546771E-02  0.1116030E+00
         21   -1    0    0  502  501  0.00000000000E+00  0.00000000000E+00  0.19429891140E+03  0.19429891140E+03  0.00000000000E+00 0. -1.
         21   -1    0    0  501  502 -0.00000000000E+00 -0.00000000000E+00 -0.31078875019E+03  0.31078875019E+03  0.00000000000E+00 0. -1.
         25    1    1    2    0    0  0.16489564874E+01  0.29053996389E+02 -0.66374209598E+02  0.14449010161E+03  0.12500000000E+03 0.  0.
         25    1    1    2    0    0 -0.61060920264E+02 -0.10143422450E+03 -0.96888732792E+02  0.19755952122E+03  0.12500000000E+03 0.  0.
         25    1    1    2    0    0  0.59411963777E+02  0.72380228113E+02  0.46773103600E+02  0.16303803876E+03  0.12500000000E+03 0.  0.
</event>
<event>
 5    0  0.5713700E-005  0.2678600E+03  0.7546771E-02  0.1102511E+00
         21   -1    0    0  502  501  0.00000000000E+00  0.00000000000E+00  0.13134961630E+03  0.13134961630E+03  0.00000000000E+00 0. -1.
         21   -1    0    0  501  502 -0.00000000000E+00 -0.00000000000E+00 -0.54624419127E+03  0.54624419127E+03  0.00000000000E+00 0. -1.
         25    1    1    2    0    0  0.61513174380E+02 -0.98497040989E+01 -0.19809039303E+03  0.24237510413E+03  0.12500000000E+03 0.  0.
         25    1    1    2    0    0  0.39873299017E+02 -0.84074785039E+02 -0.19191594478E+03  0.24721484445E+03  0.12500000000E+03 0.  0.
         25    1    1    2    0    0 -0.10138647340E+03  0.93924489138E+02 -0.24888237162E+02  0.18800385899E+03  0.12500000000E+03 0.  0.
</event>
<event>
 5    0  0.5713700E-005  0.2869238E+03  0.7546771E-02  0.1091966E+00
         21   -1    0    0  502  501  0.00000000000E+00  0.00000000000E+00  0.66255096137E+03  0.66255096137E+03  0.00000000000E+00 0. -1.
         21   -1    0    0  501  502 -0.00000000000E+00 -0.00000000000E+00 -0.12425502092E+03  0.12425502092E+03  0.00000000000E+00 0. -1.
         25    1    1    2    0    0  0.48118053560E+02  0.88235997898E+02  0.14284742386E+03  0.21478204046E+03  0.12500000000E+03 0.  0.
         25    1    1    2    0    0 -0.11496169258E+03 -0.11979667016E+03  0.37030981412E+03  0.42464313415E+03  0.12500000000E+03 0.  0.
         25    1    1    2    0    0  0.66843639016E+02  0.31560672262E+02  0.25138702460E+02  0.14738080768E+03  0.12500000000E+03 0.  0.
</event>
<event>
 5    0  0.5713700E-005  0.4513392E+03  0.7546771E-02  0.1027323E+00
         21   -1    0    0  502  501  0.00000000000E+00  0.00000000000E+00  0.32677780476E+04  0.32677780476E+04  0.00000000000E+00 0. -1.
         21   -1    0    0  501  502 -0.00000000000E+00 -0.00000000000E+00 -0.62338090057E+02  0.62338090057E+02  0.00000000000E+00 0. -1.
         25    1    1    2    0    0 -0.88977580798E+02  0.36104743909E+02  0.25398214839E+04  0.25447079857E+04  0.12500000000E+03 0.  0.
         25    1    1    2    0    0  0.59289768348E+02  0.11539991683E+03  0.15553489158E+03  0.23800949547E+03  0.12500000000E+03 0.  0.
         25    1    1    2    0    0  0.29687812450E+02 -0.15150466073E+03  0.51008358203E+03  0.54739865645E+03  0.12500000000E+03 0.  0.
</event>
<event>
 5    0  0.5713700E-005  0.2211689E+03  0.7546771E-02  0.1133015E+00
         21   -1    0    0  502  501  0.00000000000E+00  0.00000000000E+00  0.19106818417E+04  0.19106818417E+04  0.00000000000E+00 0.  1.
         21   -1    0    0  501  502 -0.00000000000E+00 -0.00000000000E+00 -0.25601171328E+02  0.25601171328E+02  0.00000000000E+00 0.  1.
         25    1    1    2    0    0  0.21756222201E+02 -0.70711001767E+02  0.10505678170E+04  0.10605616989E+04  0.12500000000E+03 0.  0.
         25    1    1    2    0    0 -0.32604791439E+02  0.39359302954E+02  0.38638687746E+03  0.40930678742E+03  0.12500000000E+03 0.  0.
         25    1    1    2    0    0  0.10848569238E+02  0.31351698812E+02  0.44812597587E+03  0.46641452670E+03  0.12500000000E+03 0.  0.
</event>
<event>
 5    0  0.5713700E-005  0.5324324E+03  0.7546771E-02  0.1005644E+00
         21   -1    0    0  502  501  0.00000000000E+00  0.00000000000E+00  0.21413627136E+04  0.21413627136E+04  0.00000000000E+00 0. -1.
         21   -1    0    0  501  502 -0.00000000000E+00 -0.00000000000E+00 -0.13238496939E+03  0.13238496939E+03  0.00000000000E+00 0. -1.
         25    1    1    2    0    0 -0.15996840369E+03 -0.87299197220E+02  0.36417359509E+03  0.42597939783E+03  0.12500000000E+03 0.  0.
         25    1    1    2    0    0 -0.81606115028E+02  0.39549872303E+03  0.70547840879E+03  0.82243758620E+03  0.12500000000E+03 0.  0.
         25    1    1    2    0    0  0.24157451872E+03 -0.30819952581E+03  0.93932574030E+03  0.10253306989E+04  0.12500000000E+03 0.  0.
</event>
<event>
 5    0  0.5713700E-005  0.3188581E+03  0.7546771E-02  0.1076176E+00
         21   -1    0    0  502  501  0.00000000000E+00  0.00000000000E+00  0.80639945678E+03  0.80639945678E+03  0.00000000000E+00 0. -1.
         21   -1    0    0  501  502 -0.00000000000E+00 -0.00000000000E+00 -0.12607957921E+03  0.12607957921E+03  0.00000000000E+00 0. -1.
         25    1    1    2    0    0  0.41157720509E+02 -0.62793263861E+02  0.18589468562E+03  0.23625999680E+03  0.12500000000E+03 0.  0.
         25    1    1    2    0    0 -0.20605458068E+03  0.19601631699E+02  0.12899564282E+03  0.27405764002E+03  0.12500000000E+03 0.  0.
         25    1    1    2    0    0  0.16489686017E+03  0.43191632162E+02  0.36542954912E+03  0.42216139917E+03  0.12500000000E+03 0.  0.
</event>
<event>
 5    0  0.5896641E-005  0.4197843E+03  0.7546771E-02  0.1037137E+00
         21   -1    0    0  502  501  0.00000000000E+00  0.00000000000E+00  0.15008163838E+03  0.15008163838E+03  0.00000000000E+00 0. -1.
         21   -1    0    0  501  502 -0.00000000000E+00 -0.00000000000E+00 -0.11741531050E+04  0.11741531050E+04  0.00000000000E+00 0. -1.
         25    1    1    2    0    0  0.11471841932E+03  0.14156660937E+03 -0.47835394353E+03  0.52692401341E+03  0.12500000000E+03 0.  0.
         25    1    1    2    0    0 -0.99380759297E+02  0.51747937006E+02  0.35847602057E+02  0.17165207507E+03  0.12500000000E+03 0.  0.
         25    1    1    2    0    0 -0.15337660024E+02 -0.19331454637E+03 -0.58156512520E+03  0.62565865494E+03  0.12500000000E+03 0.  0.
</event>
<event>
 5    0  0.5713700E-005  0.2267042E+03  0.7546771E-02  0.1128981E+00
         21   -1    0    0  502  501  0.00000000000E+00  0.00000000000E+00  0.69601120792E+03  0.69601120792E+03  0.00000000000E+00 0. -1.
         21   -1    0    0  501  502 -0.00000000000E+00 -0.00000000000E+00 -0.73841928696E+02  0.73841928696E+02  0.00000000000E+00 0. -1.
         25    1    1    2    0    0  0.78379328596E+02  0.52585772670E+02  0.18581596332E+03  0.24302500872E+03  0.12500000000E+03 0.  0.
         25    1    1    2    0    0  0.14721227694E+02 -0.51705333347E+02  0.24270246882E+03  0.27824385781E+03  0.12500000000E+03 0.  0.
         25    1    1    2    0    0 -0.93100556290E+02 -0.88043932279E+00  0.19365084709E+03  0.24858427008E+03  0.12500000000E+03 0.  0.
</event>
<event>
 5    0  0.5713700E-005  0.3330029E+03  0.7546771E-02  0.1069816E+00
         21   -1    0    0  502  501  0.00000000000E+00  0.00000000000E+00  0.60881338468E+02  0.60881338468E+02  0.00000000000E+00 0. -1.
         21   -1    0    0  501  502 -0.00000000000E+00 -0.00000000000E+00 -0.18214271197E+04  0.18214271197E+04  0.00000000000E+00 0. -1.
         25    1    1    2    0    0 -0.15790318482E+03 -0.60444498855E+02 -0.25796057918E+03  0.33279965990E+03  0.12500000000E+03 0.  0.
         25    1    1    2    0    0 -0.10051230154E+02 -0.54267488144E+02 -0.45550550652E+03  0.47555888591E+03  0.12500000000E+03 0.  0.
         25    1    1    2    0    0  0.16795441497E+03  0.11471198700E+03 -0.10470796955E+04  0.10739499124E+04  0.12500000000E+03 0.  0.
</event>
<event>
 5    0  0.6521806E-005  0.2883887E+03  0.7546771E-02  0.1091193E+00
         21   -1    0    0  502  501  0.00000000000E+00  0.00000000000E+00  0.18982512221E+03  0.18982512221E+03  0.00000000000E+00 0. -1.
         21   -1    0    0  501  502 -0.00000000000E+00 -0.00000000000E+00 -0.43812969679E+03  0.43812969679E+03  0.00000000000E+00 0. -1.
         25    1    1    2    0    0 -0.81297467040E+02 -0.94494324232E+02 -0.48790436551E+02  0.18315010827E+03  0.12500000000E+03 0.  0.
         25    1    1    2    0    0 -0.89861903701E+01 -0.62344747394E+02  0.10932187065E+02  0.14039989978E+03  0.12500000000E+03 0.  0.
         25    1    1    2    0    0  0.90283657410E+02  0.15683907163E+03 -0.21044632510E+03  0.30440481095E+03  0.12500000000E+03 0.  0.
</event>
<event>
 5    0  0.5713700E-005  0.4479011E+03  0.7546771E-02  0.1028350E+00
         21   -1    0    0  502  501  0.00000000000E+00  0.00000000000E+00  0.22531410136E+03  0.22531410136E+03  0.00000000000E+00 0. -1.
         21   -1    0    0  501  502 -0.00000000000E+00 -0.00000000000E+00 -0.89038088682E+03  0.89038088682E+03  0.00000000000E+00 0. -1.
         25    1    1    2    0    0 -0.67692445741E+02  0.55495146793E+02 -0.36631564685E+03  0.39683010427E+03  0.12500000000E+03 0.  0.
         25    1    1    2    0    0 -0.24721013542E+03  0.58177873088E+02 -0.60765973334E+02  0.28950823733E+03  0.12500000000E+03 0.  0.
         25    1    1    2    0    0  0.31490258116E+03 -0.11367301988E+03 -0.23798516527E+03  0.42935664657E+03  0.12500000000E+03 0.  0.
</event>
<event>
 5    0  0.5713700E-005  0.2268543E+03  0.7546771E-02  0.1128874E+00
         21   -1    0    0  502  501  0.00000000000E+00  0.00000000000E+00  0.93178374129E+02  0.93178374129E+02  0.00000000000E+00 0.  1.
         21   -1    0    0  501  502 -0.00000000000E+00 -0.00000000000E+00 -0.55230478086E+03  0.55230478086E+03  0.00000000000E+00 0.  1.
         25    1    1    2    0    0  0.77283224124E+02  0.62857784591E+02 -0.14091851745E+03  0.21308877581E+03  0.12500000000E+03 0.  0.
         25    1    1    2    0    0 -0.15599943980E+02  0.57470017038E+01 -0.20300686175E+03  0.23898362329E+03  0.12500000000E+03 0.  0.
         25    1    1    2    0    0 -0.61683280145E+02 -0.68604786295E+02 -0.11520102753E+03  0.19341075589E+03  0.12500000000E+03 0.  0.
</event>
<event>
 5    0  0.5713700E-005  0.5619783E+03  0.7546771E-02  0.9987588E-01
         21   -1    0    0  502  501  0.00000000000E+00  0.00000000000E+00  0.46712986274E+03  0.46712986274E+03  0.00000000000E+00 0.  1.
         21   -1    0    0  501  502 -0.00000000000E+00 -0.00000000000E+00 -0.67608523203E+03  0.67608523203E+03  0.00000000000E+00 0.  1.
         25    1    1    2    0    0 -0.62621474419E+02 -0.40278953231E+03  0.92563269910E+02  0.43629555960E+03  0.12500000000E+03 0.  0.
         25    1    1    2    0    0  0.19843886354E+03  0.14636242659E+03 -0.93883866002E+01  0.27660998587E+03  0.12500000000E+03 0.  0.
         25    1    1    2    0    0 -0.13581738912E+03  0.25642710571E+03 -0.29213025260E+03  0.43030954929E+03  0.12500000000E+03 0.  0.
</event>
<event>
 5    0  0.5713700E-005  0.3745744E+03  0.7546771E-02  0.1052958E+00
         21   -1    0    0  502  501  0.00000000000E+00  0.00000000000E+00  0.14009904390E+03  0.14009904390E+03  0.00000000000E+00 0. -1.
         21   -1    0    0  501  502 -0.00000000000E+00 -0.00000000000E+00 -0.10014768959E+04  0.10014768959E+04  0.00000000000E+00 0. -1.
         25    1    1    2    0    0 -0.14166642018E+03 -0.70859834712E+02 -0.17904727635E+03  0.26976548695E+03  0.12500000000E+03 0.  0.
         25    1    1    2    0    0 -0.90923906588E+02  0.75688566450E+02 -0.55022999959E+03  0.57651883606E+03  0.12500000000E+03 0.  0.
         25    1    1    2    0    0  0.23259032677E+03 -0.48287317380E+01 -0.13210057606E+03  0.29529161680E+03  0.12500000000E+03 0.  0.
</event>
<event>
 5    0  0.5713700E-005  0.3166914E+03  0.7546771E-02  0.1077182E+00
         21   -1    0    0  502  501  0.00000000000E+00  0.00000000000E+00  0.30826062650E+03  0.30826062650E+03  0.00000000000E+00 0.  1.
         21   -1    0    0  501  502 -0.00000000000E+00 -0.00000000000E+00 -0.32535270956E+03  0.32535270956E+03  0.00000000000E+00 0.  1.
         25    1    1    2    0    0 -0.49008667843E+02 -0.13116929574E+03 -0.57643963829E+02  0.19635442504E+03  0.12500000000E+03 0.  0.
         25    1    1    2    0    0  0.17407741301E+03  0.39398144530E+02 -0.41475199250E+02  0.22181152285E+03  0.12500000000E+03 0.  0.
         25    1    1    2    0    0 -0.12506874517E+03  0.91771151206E+02  0.82027080028E+02  0.21544738817E+03  0.12500000000E+03 0.  0.
</event>
<event>
 5    0  0.5713700E-005  0.3442559E+03  0.7546771E-02  0.1064998E+00
         21   -1    0    0  502  501  0.00000000000E+00  0.00000000000E+00  0.36481554752E+03  0.36481554752E+03  0.00000000000E+00 0.  1.
         21   -1    0    0  501  502 -0.00000000000E+00 -0.00000000000E+00 -0.32485490697E+03  0.32485490697E+03  0.00000000000E+00 0.  1.
         25    1    1    2    0    0 -0.10745703545E+03 -0.44642504579E+02 -0.13009593931E+03  0.21468563321E+03  0.12500000000E+03 0.  0.
         25    1    1    2    0    0 -0.83390667231E+02  0.82864949708E+02 -0.23716788124E+02  0.17322843101E+03  0.12500000000E+03 0.  0.
         25    1    1    2    0    0  0.19084770268E+03 -0.38222445129E+02  0.19377336798E+03  0.30175639027E+03  0.12500000000E+03 0.  0.
</event>
<event>
 5    0  0.5713700E-005  0.3690367E+03  0.7546771E-02  0.1055062E+00
         21   -1    0    0  502  501  0.00000000000E+00  0.00000000000E+00  0.87117610609E+02  0.87117610609E+02  0.00000000000E+00 0.  1.
         21   -1    0    0  501  502 -0.00000000000E+00 -0.00000000000E+00 -0.15632667840E+04  0.15632667840E+04  0.00000000000E+00 0.  1.
         25    1    1    2    0    0 -0.22283035578E+02 -0.17451642831E+03 -0.24020812343E+03  0.32292020684E+03  0.12500000000E+03 0.  0.
         25    1    1    2    0    0  0.11429984177E+03  0.15117707858E+03 -0.28854694893E+03  0.36715569538E+03  0.12500000000E+03 0.  0.
         25    1    1    2    0    0 -0.92016806194E+02  0.23339349733E+02 -0.94739410106E+03  0.96030849241E+03  0.12500000000E+03 0.  0.
</event>
<event>
 5    0  0.5713700E-005  0.2469231E+03  0.7546771E-02  0.1115265E+00
         21   -1    0    0  502  501  0.00000000000E+00  0.00000000000E+00  0.85076452382E+03  0.85076452382E+03  0.00000000000E+00 0.  1.
         21   -1    0    0  501  502 -0.00000000000E+00 -0.00000000000E+00 -0.71666156358E+02  0.71666156358E+02  0.00000000000E+00 0.  1.
         25    1    1    2    0    0 -0.49553881210E+01 -0.85841768436E+02  0.26628461612E+03  0.30647326451E+03  0.12500000000E+03 0.  0.
         25    1    1    2    0    0 -0.21536920162E+02 -0.55567221792E+02  0.29912828062E+03  0.32962749178E+03  0.12500000000E+03 0.  0.
         25    1    1    2    0    0  0.26492308283E+02  0.14140899023E+03  0.21368547072E+03  0.28632992389E+03  0.12500000000E+03 0.  0.
</event>
<event>
 5    0  0.5713700E-005  0.3308512E+03  0.7546771E-02  0.1070761E+00
         21   -1    0    0  502  501  0.00000000000E+00  0.00000000000E+00  0.28011285534E+03  0.28011285534E+03  0.00000000000E+00 0.  1.
         21   -1    0    0  501  502 -0.00000000000E+00 -0.00000000000E+00 -0.39077996878E+03  0.39077996878E+03  0.00000000000E+00 0.  1.
         25    1    1    2    0    0  0.46506364333E+02 -0.65785753923E+02  0.65134609224E+02  0.16235185451E+03  0.12500000000E+03 0.  0.
         25    1    1    2    0    0  0.15599655842E+03  0.10453203545E+03 -0.13811391713E+03  0.26450392583E+03  0.12500000000E+03 0.  0.
         25    1    1    2    0    0 -0.20250292275E+03 -0.38746281530E+02 -0.37687805534E+02  0.24403704379E+03  0.12500000000E+03 0.  0.
</event>
<event>
 5    0  0.5713700E-005  0.6218624E+03  0.7546771E-02  0.9861059E-01
         21   -1    0    0  502  501  0.00000000000E+00  0.00000000000E+00  0.56113217291E+03  0.56113217291E+03  0.00000000000E+00 0.  1.
         21   -1    0    0  501  502 -0.00000000000E+00 -0.00000000000E+00 -0.68916528723E+03  0.68916528723E+03  0.00000000000E+00 0.  1.
         25    1    1    2    0    0  0.66569814037E+02 -0.41467504195E+02  0.73023883422E+02  0.16464683901E+03  0.12500000000E+03 0.  0.
         25    1    1    2    0    0  0.16151510381E+03 -0.22806302379E+03 -0.51353326325E+03  0.59786393439E+03  0.12500000000E+03 0.  0.
         25    1    1    2    0    0 -0.22808491784E+03  0.26953052799E+03  0.31247626550E+03  0.48778668675E+03  0.12500000000E+03 0.  0.
</event>
<event>
 5    0  0.5713700E-005  0.3918123E+03  0.7546771E-02  0.1046652E+00
         21   -1    0    0  502  501  0.00000000000E+00  0.00000000000E+00  0.19273006282E+03  0.19273006282E+03  0.00000000000E+00 0. -1.
         21   -1    0    0  501  502 -0.00000000000E+00 -0.00000000000E+00 -0.79653844972E+03  0.79653844972E+03  0.00000000000E+00 0. -1.
         25    1    1    2    0    0 -0.10573770091E+03  0.20673881887E+03 -0.55407111582E+03  0.61362953156E+03  0.12500000000E+03 0.  0.
         25    1    1    2    0    0  0.12570641462E+03 -0.11706531081E+03 -0.58230142718E+02  0.22027741417E+03  0.12500000000E+03 0.  0.
         25    1    1    2    0    0 -0.19968713712E+02 -0.89673508059E+02  0.84928716411E+01  0.15536156682E+03  0.12500000000E+03 0.  0.
</event>
<event>
 5    0  0.5713700E-005  0.2014530E+03  0.7546771E-02  0.1148519E+00
         21   -1    0    0  502  501  0.00000000000E+00  0.00000000000E+00  0.26616345394E+03  0.26616345394E+03  0.00000000000E+00 0. -1.
         21   -1    0    0  501  502 -0.00000000000E+00 -0.00000000000E+00 -0.15247516750E+03  0.15247516750E+03  0.00000000000E+00 0. -1.
         25    1    1    2    0    0  0.55220095362E+01 -0.26472600508E+02  0.18733330609E+02  0.12925644604E+03  0.12500000000E+03 0.  0.
         25    1    1    2    0    0  0.29273156945E+02  0.48754879456E+02  0.22655166732E+02  0.13918409596E+03  0.12500000000E+03 0.  0.
         25    1    1    2    0    0 -0.34795166482E+02 -0.22282278948E+02  0.72299789103E+02  0.15019807945E+03  0.12500000000E+03 0.  0.
</event>
<event>
 5    0  0.5713700E-005  0.2766823E+03  0.7546771E-02  0.1097515E+00
         21   -1    0    0  502  501  0.00000000000E+00  0.00000000000E+00  0.43436781027E+03  0.43436781027E+03  0.00000000000E+00 0. -1.
         21   -1    0    0  501  502 -0.00000000000E+00 -0.00000000000E+00 -0.17624022288E+03  0.17624022288E+03  0.00000000000E+00 0. -1.
         25    1    1    2    0    0 -0.10642266962E+03 -0.40559943214E+02 -0.61846568494E+00  0.16910433496E+03  0.12500000000E+03 0.  0.
         25    1    1    2    0    0  0.11632652107E+03  0.11364058186E+03  0.19491252441E+03  0.28295217532E+03  0.12500000000E+03 0.  0.
         25    1    1    2    0    0 -0.99038514536E+01 -0.73080638646E+02  0.63833528676E+02  0.15855152286E+03  0.12500000000E+03 0.  0.
</event>
<event>
 5    0  0.5713700E-005  0.4249118E+03  0.7546771E-02  0.1035479E+00
         21   -1    0    0  502  501  0.00000000000E+00  0.00000000000E+00  0.21331247049E+03  0.21331247049E+03  0.00000000000E+00 0.  1.
         21   -1    0    0  501  502 -0.00000000000E+00 -0.00000000000E+00 -0.84641113940E+03  0.84641113940E+03  0.00000000000E+00 0.  1.
         25    1    1    2    0    0 -0.20020128022E+03 -0.29542188514E+03 -0.42359236304E+03  0.56781170545E+03  0.12500000000E+03 0.  0.
         25    1    1    2    0    0  0.76545611293E+02  0.82237057626E+02 -0.66336173508E+02  0.18068661315E+03  0.12500000000E+03 0.  0.
         25    1    1    2    0    0  0.12365566892E+03  0.21318482751E+03 -0.14317013237E+03  0.31122529130E+03  0.12500000000E+03 0.  0.
</event>
<event>
 5    0  0.5713700E-005  0.5757066E+03  0.7546771E-02  0.9957130E-01
         21   -1    0    0  502  501  0.00000000000E+00  0.00000000000E+00  0.71677604825E+03  0.71677604825E+03  0.00000000000E+00 0.  1.
         21   -1    0    0  501  502 -0.00000000000E+00 -0.00000000000E+00 -0.46240114435E+03  0.46240114435E+03  0.00000000000E+00 0.  1.
         25    1    1    2    0    0  0.57102682072E+01 -0.12558623882E+03 -0.15509346784E+03  0.23554934581E+03  0.12500000000E+03 0.  0.
         25    1    1    2    0    0  0.76181589800E+02  0.21457265168E+03  0.61901543407E+03  0.67130482278E+03  0.12500000000E+03 0.  0.
         25    1    1    2    0    0 -0.81891858007E+02 -0.88986412869E+02 -0.20954706232E+03  0.27232302402E+03  0.12500000000E+03 0.  0.
</event>
<event>
 5    0  0.5713700E-005  0.4151824E+03  0.7546771E-02  0.1038646E+00
         21   -1    0    0  502  501  0.00000000000E+00  0.00000000000E+00  0.25779870958E+03  0.25779870958E+03  0.00000000000E+00 0. -1.
         21   -1    0    0  501  502 -0.00000000000E+00 -0.00000000000E+00 -0.66864725466E+03  0.66864725466E+03  0.00000000000E+00 0. -1.
         25    1    1    2    0    0  0.22373415621E+03 -0.24525797668E+03 -0.99186843389E+02  0.36833609338E+03  0.12500000000E+03 0.  0.
         25    1    1    2    0    0 -0.11527731148E+03  0.37156477244E+01 -0.10882841564E+03  0.20191901503E+03  0.12500000000E+03 0.  0.
         25    1    1    2    0    0 -0.10845684473E+03  0.24154232896E+03 -0.20283328606E+03  0.35619085583E+03  0.12500000000E+03 0.  0.
</event>
<event>
 5    0  0.5713700E-005  0.3323916E+03  0.7546771E-02  0.1070084E+00
         21   -1    0    0  502  501  0.00000000000E+00  0.00000000000E+00  0.58791890373E+03  0.58791890373E+03  0.00000000000E+00 0. -1.
         21   -1    0    0  501  502 -0.00000000000E+00 -0.00000000000E+00 -0.18792421997E+03  0.18792421997E+03  0.00000000000E+00 0. -1.
         25    1    1    2    0    0  0.11889535495E+03 -0.74186199659E+02 -0.53062191528E+02  0.19514172752E+03  0.12500000000E+03 0.  0.
         25    1    1    2    0    0 -0.15017984694E+03 -0.10247232601E+02  0.32951719516E+03  0.38323044518E+03  0.12500000000E+03 0.  0.
         25    1    1    2    0    0  0.31284491988E+02  0.84433432260E+02  0.12353968013E+03  0.19747095100E+03  0.12500000000E+03 0.  0.
</event>
<event>
 5    0  0.5713700E-005  0.2989325E+03  0.7546771E-02  0.1085775E+00
         21   -1    0    0  502  501  0.00000000000E+00  0.00000000000E+00  0.11274431356E+04  0.11274431356E+04  0.00000000000E+00 0. -1.
         21   -1    0    0  501  502 -0.00000000000E+00 -0.00000000000E+00 -0.79259535032E+02  0.79259535032E+02  0.00000000000E+00 0. -1.
         25    1    1    2    0    0  0.11518496134E+03 -0.10854852529E+02  0.32850596076E+03  0.37003590285E+03  0.12500000000E+03 0.  0.
         25    1    1    2    0    0 -0.39378609194E+02  0.13809293989E+03  0.17521389436E+03  0.25873778944E+03  0.12500000000E+03 0.  0.
         25    1    1    2    0    0 -0.75806352146E+02 -0.12723808736E+03  0.54446374549E+03  0.57792897839E+03  0.12500000000E+03 0.  0.
</event>
<event>
 5    0  0.5713700E-005  0.2608835E+03  0.7546771E-02  0.1106614E+00
         21   -1    0    0  502  501  0.00000000000E+00  0.00000000000E+00  0.20922441850E+04  0.20922441850E+04  0.00000000000E+00 0. -1.
         21   -1    0    0  501  502 -0.00000000000E+00 -0.00000000000E+00 -0.32529748972E+02  0.32529748972E+02  0.00000000000E+00 0. -1.
         25    1    1    2    0    0 -0.53786249317E+02  0.14342956460E+02  0.24903788775E+03  0.28415409649E+03  0.12500000000E+03 0.  0.
         25    1    1    2    0    0  0.84329901791E+02 -0.74216388584E+02  0.12916891912E+04  0.13025765126E+04  0.12500000000E+03 0.  0.
         25    1    1    2    0    0 -0.30543652474E+02  0.59873432124E+02  0.51898735709E+03  0.53804332484E+03  0.12500000000E+03 0.  0.
</event>
<event>
 5    0  0.5990152E-005  0.3133378E+03  0.7546771E-02  0.1078757E+00
         21   -1    0    0  502  501  0.00000000000E+00  0.00000000000E+00  0.29586641814E+03  0.29586641814E+03  0.00000000000E+00 0.  1.
         21   -1    0    0  501  502 -0.00000000000E+00 -0.00000000000E+00 -0.33184096545E+03  0.33184096545E+03  0.00000000000E+00 0.  1.
         25    1    1    2    0    0  0.12522784937E+03 -0.88427405680E+02  0.64559704713E+02  0.20807300595E+03  0.12500000000E+03 0.  0.
         25    1    1    2    0    0 -0.70204613102E+02  0.18851487116E+03 -0.74798406486E+02  0.24836736090E+03  0.12500000000E+03 0.  0.
         25    1    1    2    0    0 -0.55023236268E+02 -0.10008746548E+03 -0.25735845534E+02  0.17126701673E+03  0.12500000000E+03 0.  0.
</event>
<event>
 5    0  0.5713700E-005  0.4227707E+03  0.7546771E-02  0.1036168E+00
         21   -1    0    0  502  501  0.00000000000E+00  0.00000000000E+00  0.99282759517E+02  0.99282759517E+02  0.00000000000E+00 0. -1.
         21   -1    0    0  501  502 -0.00000000000E+00 -0.00000000000E+00 -0.18002630042E+04  0.18002630042E+04  0.00000000000E+00 0. -1.
         25    1    1    2    0    0 -0.21191920855E+03 -0.11028369812E+03 -0.55282835927E+03  0.61507433684E+03  0.12500000000E+03 0.  0.
         25    1    1    2    0    0  0.12237788407E+03 -0.14479801862E+03 -0.24770343063E+03  0.33604285776E+03  0.12500000000E+03 0.  0.
         25    1    1    2    0    0  0.89541324481E+02  0.25508171674E+03 -0.90044845477E+03  0.94842856911E+03  0.12500000000E+03 0.  0.
</event>
<event>
 5    0  0.5713700E-005  0.2157513E+03  0.7546771E-02  0.1137091E+00
         21   -1    0    0  502  501  0.00000000000E+00  0.00000000000E+00  0.12776917310E+03  0.12776917310E+03  0.00000000000E+00 0. -1.
         21   -1    0    0  501  502 -0.00000000000E+00 -0.00000000000E+00 -0.36431817780E+03  0.36431817780E+03  0.00000000000E+00 0. -1.
         25    1    1    2    0    0 -0.12903902590E+01  0.94213564932E+00 -0.76567163201E+02  0.14659496310E+03  0.12500000000E+03 0.  0.
         25    1    1    2    0    0 -0.27818452772E+02  0.67606414986E+02 -0.13477329550E+03  0.19782147214E+03  0.12500000000E+03 0.  0.
         25    1    1    2    0    0  0.29108843031E+02 -0.68548550635E+02 -0.25208546003E+02  0.14767091565E+03  0.12500000000E+03 0.  0.
</event>
<event>
 5    0  0.5713700E-005  0.4232543E+03  0.7546771E-02  0.1036012E+00
         21   -1    0    0  502  501  0.00000000000E+00  0.00000000000E+00  0.52262978791E+03  0.52262978791E+03  0.00000000000E+00 0. -1.
         21   -1    0    0  501  502 -0.00000000000E+00 -0.00000000000E+00 -0.34277459505E+03  0.34277459505E+03  0.00000000000E+00 0. -1.
         25    1    1    2    0    0  0.14874286457E+02  0.25913012060E+02 -0.24779601330E+03  0.27914260298E+03  0.12500000000E+03 0.  0.
         25    1    1    2    0    0 -0.11014384902E+03  0.69404170194E+02  0.33475734566E+03  0.38031051365E+03  0.12500000000E+03 0.  0.
         25    1    1    2    0    0  0.95269562564E+02 -0.95317182253E+02  0.92893860506E+02  0.20595126633E+03  0.12500000000E+03 0.  0.
</event>
<event>
 5    0  0.5713700E-005  0.3581856E+03  0.7546771E-02  0.1059305E+00
         21   -1    0    0  502  501  0.00000000000E+00  0.00000000000E+00  0.79498807448E+03  0.79498807448E+03  0.00000000000E+00 0. -1.
         21   -1    0    0  501  502 -0.00000000000E+00 -0.00000000000E+00 -0.16138223584E+03  0.16138223584E+03  0.00000000000E+00 0. -1.
         25    1    1    2    0    0 -0.43262355428E+02  0.12239509679E+03  0.13709034306E+03  0.22643090176E+03  0.12500000000E+03 0.  0.
         25    1    1    2    0    0 -0.19078516971E+03 -0.35725451763E+01  0.13153693707E+03  0.26332244468E+03  0.12500000000E+03 0.  0.
         25    1    1    2    0    0  0.23404752514E+03 -0.11882255161E+03  0.36497855852E+03  0.46661696387E+03  0.12500000000E+03 0.  0.
</event>
<event>
 5    0  0.5713700E-005  0.2258267E+03  0.7546771E-02  0.1129612E+00
         21   -1    0    0  502  501  0.00000000000E+00  0.00000000000E+00  0.49496799110E+02  0.49496799110E+02  0.00000000000E+00 0. -1.
         21   -1    0    0  501  502 -0.00000000000E+00 -0.00000000000E+00 -0.10303229663E+04  0.10303229663E+04  0.00000000000E+00 0. -1.
         25    1    1    2    0    0 -0.68101058019E+02  0.21398884163E+02 -0.38723940325E+03  0.41312833572E+03  0.12500000000E+03 0.  0.
         25    1    1    2    0    0  0.47275038167E+02 -0.29775299064E+02 -0.46979680090E+03  0.48934193750E+03  0.12500000000E+03 0.  0.
         25    1    1    2    0    0  0.20826019852E+02  0.83764149013E+01 -0.12378996306E+03  0.17734949220E+03  0.12500000000E+03 0.  0.
</event>
<event>
 5    0  0.5713700E-005  0.3035743E+03  0.7546771E-02  0.1083467E+00
         21   -1    0    0  502  501  0.00000000000E+00  0.00000000000E+00  0.17728811060E+04  0.17728811060E+04  0.00000000000E+00 0. -1.
         21   -1    0    0  501  502 -0.00000000000E+00 -0.00000000000E+00 -0.51981696643E+02  0.51981696643E+02  0.00000000000E+00 0. -1.
         25    1    1    2    0    0  0.69512785227E+02  0.28021578604E+02  0.20455700627E+03  0.25116887744E+03  0.12500000000E+03 0.  0.
         25    1    1    2    0    0 -0.12033953418E+03  0.12440549471E+03  0.66910759673E+03  0.70234486302E+03  0.12500000000E+03 0.  0.
         25    1    1    2    0    0  0.50826748958E+02 -0.15242707331E+03  0.84723480638E+03  0.87134906222E+03  0.12500000000E+03 0.  0.
</event>
<event>
 5    0  0.5713700E-005  0.2755042E+03  0.7546771E-02  0.1098170E+00
         21   -1    0    0  502  501  0.00000000000E+00  0.00000000000E+00  0.69576598661E+03  0.69576598661E+03  0.00000000000E+00 0.  1.
         21   -1    0    0  501  502 -0.00000000000E+00 -0.00000000000E+00 -0.10909210001E+03  0.10909210001E+03  0.00000000000E+00 0.  1.
         25    1    1    2    0    0  0.40001679802E+02 -0.30639192005E+02  0.25699363793E+03  0.29018894605E+03  0.12500000000E+03 0.  0.
         25    1    1    2    0    0 -0.55912027154E+02 -0.46730215919E+02 -0.91520907193E+01  0.14497802808E+03  0.12500000000E+03 0.  0.
         25    1    1    2    0    0  0.15910347352E+02  0.77369407924E+02  0.33883233940E+03  0.36969111249E+03  0.12500000000E+03 0.  0.
</event>
<event>
 5    0  0.6102180E-005  0.3044013E+03  0.7546771E-02  0.1083061E+00
         21   -1    0    0  502  501  0.00000000000E+00  0.00000000000E+00  0.64937482309E+03  0.64937482309E+03  0.00000000000E+00 0. -1.
         21   -1    0    0  501  502 -0.00000000000E+00 -0.00000000000E+00 -0.14269130704E+03  0.14269130704E+03  0.00000000000E+00 0. -1.
         25    1    1    2    0    0 -0.59654974610E+02 -0.30514921747E+02 -0.88636643952E+01  0.14210362765E+03  0.12500000000E+03 0.  0.
         25    1    1    2    0    0 -0.24219212074E+02  0.74626516960E+02  0.45507749783E+02  0.15443977000E+03  0.12500000000E+03 0.  0.
         25    1    1    2    0    0  0.83874186684E+02 -0.44111595213E+02  0.47003943067E+03  0.49552273248E+03  0.12500000000E+03 0.  0.
</event>
<event>
 5    0  0.5713700E-005  0.2303949E+03  0.7546771E-02  0.1126362E+00
         21   -1    0    0  502  501  0.00000000000E+00  0.00000000000E+00  0.46956757123E+02  0.46956757123E+02  0.00000000000E+00 0.  1.
         21   -1    0    0  501  502 -0.00000000000E+00 -0.00000000000E+00 -0.11304405478E+04  0.11304405478E+04  0.00000000000E+00 0.  1.
         25    1    1    2    0    0 -0.14250985331E+02 -0.53156715965E+02 -0.23387746796E+03  0.27083647659E+03  0.12500000000E+03 0.  0.
         25    1    1    2    0    0  0.94292936972E+02  0.21777857755E+02 -0.34200967527E+03  0.37677719016E+03  0.12500000000E+03 0.  0.
         25    1    1    2    0    0 -0.80041951641E+02  0.31378858210E+02 -0.50759664747E+03  0.52978363818E+03  0.12500000000E+03 0.  0.
</event>
<event>
 5    0  0.5713700E-005  0.2533590E+03  0.7546771E-02  0.1111200E+00
         21   -1    0    0  502  501  0.00000000000E+00  0.00000000000E+00  0.75623544008E+03  0.75623544008E+03  0.00000000000E+00 0.  1.
         21   -1    0    0  501  502 -0.00000000000E+00 -0.00000000000E+00 -0.84882015730E+02  0.84882015730E+02  0.00000000000E+00 0.  1.
         25    1    1    2    0    0 -0.81396152063E+02  0.55836393334E+02  0.41993072760E+03  0.44912120010E+03  0.12500000000E+03 0.  0.
         25    1    1    2    0    0  0.85598043659E+02  0.22204066468E+02  0.13535009035E+03  0.20436411770E+03  0.12500000000E+03 0.  0.
         25    1    1    2    0    0 -0.42018915961E+01 -0.78040459802E+02  0.11607260640E+03  0.18763213801E+03  0.12500000000E+03 0.  0.
</event>
<event>
 5    0  0.6388271E-005  0.5335025E+03  0.7546771E-02  0.1005386E+00
         21   -1    0    0  502  501  0.00000000000E+00  0.00000000000E+00  0.37909316433E+03  0.37909316433E+03  0.00000000000E+00 0.  1.
         21   -1    0    0  501  502 -0.00000000000E+00 -0.00000000000E+00 -0.75080469037E+03  0.75080469037E+03  0.00000000000E+00 0.  1.
         25    1    1    2    0    0 -0.29728745769E+03 -0.23505359840E+03 -0.21702801038E+03  0.45426444271E+03  0.12500000000E+03 0.  0.
         25    1    1    2    0    0  0.12978471018E+03  0.23282307046E+03 -0.30057482573E+03  0.42073849242E+03  0.12500000000E+03 0.  0.
         25    1    1    2    0    0  0.16750274750E+03  0.22305279398E+01  0.14589131007E+03  0.25489491958E+03  0.12500000000E+03 0.  0.
</event>
<event>
 5    0  0.5713700E-005  0.2362695E+03  0.7546771E-02  0.1122303E+00
         21   -1    0    0  502  501  0.00000000000E+00  0.00000000000E+00  0.27135000021E+03  0.27135000021E+03  0.00000000000E+00 0. -1.
         21   -1    0    0  501  502 -0.00000000000E+00 -0.00000000000E+00 -0.20572433907E+03  0.20572433907E+03  0.00000000000E+00 0. -1.
         25    1    1    2    0    0 -0.71284306815E+02 -0.12251504996E+02 -0.59262082001E+02  0.15610427968E+03  0.12500000000E+03 0.  0.
         25    1    1    2    0    0 -0.26593983205E+02  0.41841138844E+01  0.94815228012E+02  0.15918440318E+03  0.12500000000E+03 0.  0.
         25    1    1    2    0    0  0.97878290020E+02  0.80673911118E+01  0.30072515123E+02  0.16178565642E+03  0.12500000000E+03 0.  0.
</event>
<event>
 5    0  0.5823695E-005  0.3583874E+03  0.7546771E-02  0.1059224E+00
         21   -1    0    0  502  501  0.00000000000E+00  0.00000000000E+00  0.23800123264E+03  0.23800123264E+03  0.00000000000E+00 0. -1.
         21   -1    0    0  501  502 -0.00000000000E+00 -0.00000000000E+00 -0.53966745949E+03  0.53966745949E+03  0.00000000000E+00 0. -1.
         25    1    1    2    0    0 -0.16677091135E+03 -0.10001253449E+03 -0.96061906029E+02  0.25033564213E+03  0.12500000000E+03 0.  0.
         25    1    1    2    0    0  0.10061242510E+03  0.70346426354E+02  0.90979667799E+02  0.19741777969E+03  0.12500000000E+03 0.  0.
         25    1    1    2    0    0  0.66158486253E+02  0.29666108139E+02 -0.29658398862E+03  0.32991527031E+03  0.12500000000E+03 0.  0.
</event>
<event>
 5    0  0.5713700E-005  0.2758906E+03  0.7546771E-02  0.1097955E+00
         21   -1    0    0  502  501  0.00000000000E+00  0.00000000000E+00  0.48714414036E+02  0.48714414036E+02  0.00000000000E+00 0. -1.
         21   -1    0    0  501  502 -0.00000000000E+00 -0.00000000000E+00 -0.15624864339E+04  0.15624864339E+04  0.00000000000E+00 0. -1.
         25    1    1    2    0    0  0.49926908205E+02  0.88207345491E+02 -0.49664765984E+03  0.52207004318E+03  0.12500000000E+03 0.  0.
         25    1    1    2    0    0 -0.43596499252E+02 -0.79997617531E+02 -0.91330051540E+03  0.92630616158E+03  0.12500000000E+03 0.  0.
         25    1    1    2    0    0 -0.63304089527E+01 -0.82097279606E+01 -0.10382384462E+03  0.16282464316E+03  0.12500000000E+03 0.  0.
</event>
<event>
 5    0  0.5713700E-005  0.4712557E+03  0.7546771E-02  0.1021566E+00
         21   -1    0    0  502  501  0.00000000000E+00  0.00000000000E+00  0.17116987137E+04  0.17116987137E+04  0.00000000000E+00 0. -1.
         21   -1    0    0  501  502 -0.00000000000E+00 -0.00000000000E+00 -0.12974360359E+03  0.12974360359E+03  0.00000000000E+00 0. -1.
         25    1    1    2    0    0 -0.50735899290E+02 -0.19728675160E+03  0.29483773107E+03  0.37953982860E+03  0.12500000000E+03 0.  0.
         25    1    1    2    0    0 -0.25131999443E+03  0.47022180242E+02  0.31087935288E+03  0.42147810985E+03  0.12500000000E+03 0.  0.
         25    1    1    2    0    0  0.30205589372E+03  0.15026457136E+03  0.97623802617E+03  0.10404243788E+04  0.12500000000E+03 0.  0.
</event>
<event>
 5    0  0.7141148E-005  0.2834304E+03  0.7546771E-02  0.1093830E+00
         21   -1    0    0  502  501  0.00000000000E+00  0.00000000000E+00  0.81738009818E+02  0.81738009818E+02  0.00000000000E+00 0. -1.
         21   -1    0    0  501  502 -0.00000000000E+00 -0.00000000000E+00 -0.98280820289E+03  0.98280820289E+03  0.00000000000E+00 0. -1.
         25    1    1    2    0    0 -0.65953785522E+02  0.32532526557E+02 -0.98861363082E+02  0.17551876315E+03  0.12500000000E+03 0.  0.
         25    1    1    2    0    0  0.13109675017E+03  0.52012186990E+02 -0.59738934198E+03  0.62641092856E+03  0.12500000000E+03 0.  0.
         25    1    1    2    0    0 -0.65142964649E+02 -0.84544713547E+02 -0.20481948801E+03  0.26261652099E+03  0.12500000000E+03 0.  0.
</event>
<event>
 5    0  0.5713700E-005  0.3876883E+03  0.7546771E-02  0.1048128E+00
         21   -1    0    0  502  501  0.00000000000E+00  0.00000000000E+00  0.63193209530E+03  0.63193209530E+03  0.00000000000E+00 0. -1.
         21   -1    0    0  501  502 -0.00000000000E+00 -0.00000000000E+00 -0.23784554469E+03  0.23784554469E+03  0.00000000000E+00 0. -1.
         25    1    1    2    0    0  0.14686983363E+03 -0.46374161680E+02  0.50795620270E+03  0.54531258446E+03  0.12500000000E+03 0.  0.
         25    1    1    2    0    0 -0.46865703605E+02  0.50530807433E+02 -0.66503081099E+02  0.15747195455E+03  0.12500000000E+03 0.  0.
         25    1    1    2    0    0 -0.10000413002E+03 -0.41566457527E+01 -0.47366570996E+02  0.16699310098E+03  0.12500000000E+03 0.  0.
</event>
<event>
 5    0  0.6816816E-005  0.2824285E+03  0.7546771E-02  0.1094370E+00
         21   -1    0    0  502  501  0.00000000000E+00  0.00000000000E+00  0.44326805031E+03  0.44326805031E+03  0.00000000000E+00 0. -1.
         21   -1    0    0  501  502 -0.00000000000E+00 -0.00000000000E+00 -0.17994954546E+03  0.17994954546E+03  0.00000000000E+00 0. -1.
         25    1    1    2    0    0  0.53188321236E+02  0.28851882349E+02  0.16388661095E+03  0.21481445454E+03  0.12500000000E+03 0.  0.
         25    1    1    2    0    0  0.12786474669E+02 -0.15027539652E+03 -0.27166907663E+01  0.19590448985E+03  0.12500000000E+03 0.  0.
         25    1    1    2    0    0 -0.65974795905E+02  0.12142351417E+03  0.10214858466E+03  0.21249865138E+03  0.12500000000E+03 0.  0.
</event>
<event>
 5    0  0.5713700E-005  0.2476841E+03  0.7546771E-02  0.1114777E+00
         21   -1    0    0  502  501  0.00000000000E+00  0.00000000000E+00  0.24287291592E+03  0.24287291592E+03  0.00000000000E+00 0.  1.
         21   -1    0    0  501  502 -0.00000000000E+00 -0.00000000000E+00 -0.25259060222E+03  0.25259060222E+03  0.00000000000E+00 0.  1.
         25    1    1    2    0    0 -0.61958168156E+02  0.56630065764E+02 -0.24723424799E+02  0.15258449031E+03  0.12500000000E+03 0.  0.
         25    1    1    2    0    0 -0.35886437116E+02  0.22550535127E+02 -0.66340739342E+02  0.14772425901E+03  0.12500000000E+03 0.  0.
         25    1    1    2    0    0  0.97844605271E+02 -0.79180600891E+02  0.81346477837E+02  0.19515476882E+03  0.12500000000E+03 0.  0.
</event>
<event>
 5    0  0.5713700E-005  0.3900721E+03  0.7546771E-02  0.1047273E+00
         21   -1    0    0  502  501  0.00000000000E+00  0.00000000000E+00  0.76312405357E+03  0.76312405357E+03  0.00000000000E+00 0.  1.
         21   -1    0    0  501  502 -0.00000000000E+00 -0.00000000000E+00 -0.19938600933E+03  0.19938600933E+03  0.00000000000E+00 0.  1.
         25    1    1    2    0    0 -0.24462280334E+03  0.18499536319E+03  0.25422211936E+03  0.41751345642E+03  0.12500000000E+03 0.  0.
         25    1    1    2    0    0  0.51873276166E+02 -0.16058127513E+03  0.19734070938E+03  0.28817622782E+03  0.12500000000E+03 0.  0.
         25    1    1    2    0    0  0.19274952718E+03 -0.24414088064E+02  0.11217521549E+03  0.25682037866E+03  0.12500000000E+03 0.  0.
</event>
<event>
 5    0  0.5713700E-005  0.4644238E+03  0.7546771E-02  0.1023506E+00
         21   -1    0    0  502  501  0.00000000000E+00  0.00000000000E+00  0.41617606113E+03  0.41617606113E+03  0.00000000000E+00 0.  1.
         21   -1    0    0  501  502 -0.00000000000E+00 -0.00000000000E+00 -0.51826502587E+03  0.51826502587E+03  0.00000000000E+00 0.  1.
         25    1    1    2    0    0  0.11278738890E+03  0.89092478608E+02 -0.30528270745E+02  0.19291303780E+03  0.12500000000E+03 0.  0.
         25    1    1    2    0    0 -0.31247449973E+03  0.85854046552E+00 -0.26118992745E+03  0.42601200485E+03  0.12500000000E+03 0.  0.
         25    1    1    2    0    0  0.19968711083E+03 -0.89951019074E+02  0.18962923346E+03  0.31551604435E+03  0.12500000000E+03 0.  0.
</event>
<event>
 5    0  0.5713700E-005  0.3047158E+03  0.7546771E-02  0.1082907E+00
         21   -1    0    0  502  501  0.00000000000E+00  0.00000000000E+00  0.51159625553E+02  0.51159625553E+02  0.00000000000E+00 0. -1.
         21   -1    0    0  501  502 -0.00000000000E+00 -0.00000000000E+00 -0.18149412759E+04  0.18149412759E+04  0.00000000000E+00 0. -1.
         25    1    1    2    0    0  0.12366887805E+03  0.65203713048E+02 -0.65875257455E+03  0.68492734656E+03  0.12500000000E+03 0.  0.
         25    1    1    2    0    0 -0.18843267461E+03  0.54061101652E+02 -0.59671344124E+03  0.64040721930E+03  0.12500000000E+03 0.  0.
         25    1    1    2    0    0  0.64763796564E+02 -0.11926481470E+03 -0.50831563454E+03  0.54076633557E+03  0.12500000000E+03 0.  0.
</event>
<event>
 5    0  0.5713700E-005  0.3171826E+03  0.7546771E-02  0.1076953E+00
         21   -1    0    0  502  501  0.00000000000E+00  0.00000000000E+00  0.17147802562E+03  0.17147802562E+03  0.00000000000E+00 0. -1.
         21   -1    0    0  501  502 -0.00000000000E+00 -0.00000000000E+00 -0.58669204871E+03  0.58669204871E+03  0.00000000000E+00 0. -1.
         25    1    1    2    0    0  0.34374577616E+02  0.37451031856E+02  0.51624105086E+02  0.14447920127E+03  0.12500000000E+03 0.  0.
         25    1    1    2    0    0  0.31257003105E+02  0.37866201463E+02 -0.15939164810E+02  0.13524018054E+03  0.12500000000E+03 0.  0.
         25    1    1    2    0    0 -0.65631580721E+02 -0.75317233319E+02 -0.45089896336E+03  0.47845069253E+03  0.12500000000E+03 0.  0.
</event>
<event>
 5    0  0.5713700E-005  0.5003593E+03  0.7546771E-02  0.1013685E+00
         21   -1    0    0  502  501  0.00000000000E+00  0.00000000000E+00  0.44192808641E+03  0.44192808641E+03  0.00000000000E+00 0.  1.
         21   -1    0    0  501  502 -0.00000000000E+00 -0.00000000000E+00 -0.56651625492E+03  0.56651625492E+03  0.00000000000E+00 0.  1.
         25    1    1    2    0    0  0.34908331878E+03  0.62344301089E+02  0.85519842741E+02  0.38559644556E+03  0.12500000000E+03 0.  0.
         25    1    1    2    0    0  0.61953473140E+02 -0.69974753466E+02 -0.68247433507E+02  0.17034497685E+03  0.12500000000E+03 0.  0.
         25    1    1    2    0    0 -0.41103679192E+03  0.76304523774E+01 -0.14186057774E+03  0.45250291892E+03  0.12500000000E+03 0.  0.
</event>
<event>
 5    0  0.5713700E-005  0.4536822E+03  0.7546771E-02  0.1026630E+00
         21   -1    0    0  502  501  0.00000000000E+00  0.00000000000E+00  0.37577201808E+03  0.37577201808E+03  0.00000000000E+00 0. -1.
         21   -1    0    0  501  502 -0.00000000000E+00 -0.00000000000E+00 -0.54774574494E+03  0.54774574494E+03  0.00000000000E+00 0. -1.
         25    1    1    2    0    0 -0.19303650654E+03  0.12369607531E+03 -0.12576103837E+03  0.28983555799E+03  0.12500000000E+03 0.  0.
         25    1    1    2    0    0  0.30296743982E+03  0.34132396294E+02 -0.17238601106E+03  0.37188200666E+03  0.12500000000E+03 0.  0.
         25    1    1    2    0    0 -0.10993093327E+03 -0.15782847160E+03  0.12617332258E+03  0.26180019837E+03  0.12500000000E+03 0.  0.
</event>
<event>
 5    0  0.5713700E-005  0.3026884E+03  0.7546771E-02  0.1083904E+00
         21   -1    0    0  502  501  0.00000000000E+00  0.00000000000E+00  0.75933393099E+02  0.75933393099E+02  0.00000000000E+00 0.  1.
         21   -1    0    0  501  502 -0.00000000000E+00 -0.00000000000E+00 -0.12065869757E+04  0.12065869757E+04  0.00000000000E+00 0. -1.
         25    1    1    2    0    0  0.58332131098E+02 -0.88685010334E+02 -0.24390058289E+03  0.29390502362E+03  0.12500000000E+03 0.  0.
         25    1    1    2    0    0  0.11648978807E+03 -0.42464939174E+02 -0.26864378198E+03  0.32119717212E+03  0.12500000000E+03 0.  0.
         25    1    1    2    0    0 -0.17482191916E+03  0.13114994951E+03 -0.61810921769E+03  0.66741817302E+03  0.12500000000E+03 0.  0.
</event>
<event>
 5    0  0.5713700E-005  0.3267348E+03  0.7546771E-02  0.1072591E+00
         21   -1    0    0  502  501  0.00000000000E+00  0.00000000000E+00  0.29982997087E+03  0.29982997087E+03  0.00000000000E+00 0.  1.
         21   -1    0    0  501  502 -0.00000000000E+00 -0.00000000000E+00 -0.35605396003E+03  0.35605396003E+03  0.00000000000E+00 0.  1.
         25    1    1    2    0    0  0.57859402431E+02  0.14275959615E+03 -0.54154079731E+02  0.20563481489E+03  0.12500000000E+03 0.  0.
         25    1    1    2    0    0 -0.11370457564E+02 -0.22062121404E+03  0.91346119906E+02  0.26976308312E+03  0.12500000000E+03 0.  0.
         25    1    1    2    0    0 -0.46488944867E+02  0.77861617892E+02 -0.93416029335E+02  0.18048603290E+03  0.12500000000E+03 0.  0.
</event>
<event>
 5    0  0.5713700E-005  0.3442205E+03  0.7546771E-02  0.1065012E+00
         21   -1    0    0  502  501  0.00000000000E+00  0.00000000000E+00  0.32730368445E+03  0.32730368445E+03  0.00000000000E+00 0.  1.
         21   -1    0    0  501  502 -0.00000000000E+00 -0.00000000000E+00 -0.36201172734E+03  0.36201172734E+03  0.00000000000E+00 0.  1.
         25    1    1    2    0    0 -0.78131522930E+02  0.48449221031E+01 -0.74329387697E+02  0.16516012237E+03  0.12500000000E+03 0.  0.
         25    1    1    2    0    0  0.11905356064E+03 -0.21439118443E+03  0.21385562316E+02  0.27607910558E+03  0.12500000000E+03 0.  0.
         25    1    1    2    0    0 -0.40922037711E+02  0.20954626233E+03  0.18235782497E+02  0.24807618384E+03  0.12500000000E+03 0.  0.
</event>
<event>
 5    0  0.5713700E-005  0.2600945E+03  0.7546771E-02  0.1107086E+00
         21   -1    0    0  502  501  0.00000000000E+00  0.00000000000E+00  0.28875888885E+03  0.28875888885E+03  0.00000000000E+00 0.  1.
         21   -1    0    0  501  502 -0.00000000000E+00 -0.00000000000E+00 -0.23427557663E+03  0.23427557663E+03  0.00000000000E+00 0.  1.
         25    1    1    2    0    0  0.17155444872E+02  0.37677523276E+01 -0.22715634996E+01  0.12624842671E+03  0.12500000000E+03 0.  0.
         25    1    1    2    0    0 -0.44943280687E+02 -0.82910051349E+02 -0.94904923199E+02  0.18310084528E+03  0.12500000000E+03 0.  0.
         25    1    1    2    0    0  0.27787835815E+02  0.79142299021E+02  0.15165979892E+03  0.21368519350E+03  0.12500000000E+03 0.  0.
</event>
<event>
 5    0  0.5713700E-005  0.3268024E+03  0.7546771E-02  0.1072561E+00
         21   -1    0    0  502  501  0.00000000000E+00  0.00000000000E+00  0.31674636829E+03  0.31674636829E+03  0.00000000000E+00 0. -1.
         21   -1    0    0  501  502 -0.00000000000E+00 -0.00000000000E+00 -0.33717775673E+03  0.33717775673E+03  0.00000000000E+00 0. -1.
         25    1    1    2    0    0 -0.16689510389E+03  0.11899762244E+03 -0.27789918736E+02  0.24168510387E+03  0.12500000000E+03 0.  0.
         25    1    1    2    0    0  0.18314794552E+03 -0.16493037235E+03  0.22297138606E+02  0.27724963492E+03  0.12500000000E+03 0.  0.
         25    1    1    2    0    0 -0.16252841632E+02  0.45932749917E+02 -0.14938608309E+02  0.13498938623E+03  0.12500000000E+03 0.  0.
</event>
<event>
 5    0  0.5713700E-005  0.5908585E+03  0.7546771E-02  0.9924555E-01
         21   -1    0    0  502  501  0.00000000000E+00  0.00000000000E+00  0.16240470092E+03  0.16240470092E+03  0.00000000000E+00 0. -1.
         21   -1    0    0  501  502 -0.00000000000E+00 -0.00000000000E+00 -0.21496530420E+04  0.21496530420E+04  0.00000000000E+00 0. -1.
         25    1    1    2    0    0  0.86112003710E+01 -0.20931122629E+03 -0.12398773924E+04  0.12636480089E+04  0.12500000000E+03 0.  0.
         25    1    1    2    0    0  0.98513912256E+02  0.43081336191E+03 -0.46492182219E+03  0.65351545081E+03  0.12500000000E+03 0.  0.
         25    1    1    2    0    0 -0.10712511263E+03 -0.22150213561E+03 -0.28244912646E+03  0.39489428316E+03  0.12500000000E+03 0.  0.
</event>
<event>
 5    0  0.5829208E-005  0.3119207E+03  0.7546771E-02  0.1079429E+00
         21   -1    0    0  502  501  0.00000000000E+00  0.00000000000E+00  0.72632276198E+03  0.72632276198E+03  0.00000000000E+00 0.  1.
         21   -1    0    0  501  502 -0.00000000000E+00 -0.00000000000E+00 -0.13395498288E+03  0.13395498288E+03  0.00000000000E+00 0.  1.
         25    1    1    2    0    0  0.73511192568E+02  0.13250086223E+03  0.44643643424E+03  0.48774057013E+03  0.12500000000E+03 0.  0.
         25    1    1    2    0    0  0.17839879471E+02 -0.15614113457E+01  0.64769075024E+01  0.12644227788E+03  0.12500000000E+03 0.  0.
         25    1    1    2    0    0 -0.91351072039E+02 -0.13093945089E+03  0.13945443735E+03  0.24609489685E+03  0.12500000000E+03 0.  0.
</event>
<event>
 5    0  0.5713700E-005  0.2105290E+03  0.7546771E-02  0.1141148E+00
         21   -1    0    0  502  501  0.00000000000E+00  0.00000000000E+00  0.69896815492E+03  0.69896815492E+03  0.00000000000E+00 0. -1.
         21   -1    0    0  501  502 -0.00000000000E+00 -0.00000000000E+00 -0.63411249239E+02  0.63411249239E+02  0.00000000000E+00 0. -1.
         25    1    1    2    0    0 -0.21222637635E+02 -0.17091360153E+02  0.11073978950E+03  0.16920642989E+03  0.12500000000E+03 0.  0.
         25    1    1    2    0    0 -0.10259439759E+02 -0.34679740205E+02  0.32244875127E+03  0.34771559884E+03  0.12500000000E+03 0.  0.
         25    1    1    2    0    0  0.31482077395E+02  0.51771100357E+02  0.20236836492E+03  0.24545737542E+03  0.12500000000E+03 0.  0.
</event>
<event>
 5    0  0.5713700E-005  0.4839801E+03  0.7546771E-02  0.1018047E+00
         21   -1    0    0  502  501  0.00000000000E+00  0.00000000000E+00  0.90692917706E+03  0.90692917706E+03  0.00000000000E+00 0. -1.
         21   -1    0    0  501  502 -0.00000000000E+00 -0.00000000000E+00 -0.25827461555E+03  0.25827461555E+03  0.00000000000E+00 0.  1.
         25    1    1    2    0    0 -0.22126246988E+02 -0.84354520092E+02  0.21757828837E+02  0.15395992654E+03  0.12500000000E+03 0.  0.
         25    1    1    2    0    0  0.13656990171E+03 -0.25306281476E+03  0.53898637700E+03  0.62355708708E+03  0.12500000000E+03 0.  0.
         25    1    1    2    0    0 -0.11444365473E+03  0.33741733485E+03  0.87910355681E+02  0.38768677898E+03  0.12500000000E+03 0.  0.
</event>
<event>
 5    0  0.5713700E-005  0.3445844E+03  0.7546771E-02  0.1064860E+00
         21   -1    0    0  502  501  0.00000000000E+00  0.00000000000E+00  0.11614793477E+03  0.11614793477E+03  0.00000000000E+00 0. -1.
         21   -1    0    0  501  502 -0.00000000000E+00 -0.00000000000E+00 -0.10223033243E+04  0.10223033243E+04  0.00000000000E+00 0. -1.
         25    1    1    2    0    0 -0.15595155381E+03 -0.15790037420E+03 -0.14505131847E+03  0.29311823603E+03  0.12500000000E+03 0.  0.
         25    1    1    2    0    0  0.48134356254E+02  0.33320159894E+02 -0.45837948414E+03  0.47871066501E+03  0.12500000000E+03 0.  0.
         25    1    1    2    0    0  0.10781719755E+03  0.12458021431E+03 -0.30272458693E+03  0.36662235804E+03  0.12500000000E+03 0.  0.
</event>
<event>
 5    0  0.5713700E-005  0.4839496E+03  0.7546771E-02  0.1018055E+00
         21   -1    0    0  502  501  0.00000000000E+00  0.00000000000E+00  0.29929765263E+04  0.29929765263E+04  0.00000000000E+00 0.  1.
         21   -1    0    0  501  502 -0.00000000000E+00 -0.00000000000E+00 -0.78252279897E+02  0.78252279897E+02  0.00000000000E+00 0.  1.
         25    1    1    2    0    0  0.38392350795E+02 -0.98660453766E+01  0.13319484788E+03  0.18691489762E+03  0.12500000000E+03 0.  0.
         25    1    1    2    0    0  0.26864331811E+03  0.44214401546E+02  0.21449254934E+04  0.21657457186E+04  0.12500000000E+03 0.  0.
         25    1    1    2    0    0 -0.30703566890E+03 -0.34348356169E+02  0.63660390520E+03  0.71856818999E+03  0.12500000000E+03 0.  0.
</event>
<event>
 5    0  0.5713700E-005  0.2255866E+03  0.7546771E-02  0.1129785E+00
         21   -1    0    0  502  501  0.00000000000E+00  0.00000000000E+00  0.13867491875E+04  0.13867491875E+04  0.00000000000E+00 0. -1.
         21   -1    0    0  501  502 -0.00000000000E+00 -0.00000000000E+00 -0.36696832328E+02  0.36696832328E+02  0.00000000000E+00 0. -1.
         25    1    1    2    0    0  0.10435464560E+03  0.18623831979E+02  0.67012497590E+03  0.68987623709E+03  0.12500000000E+03 0.  0.
         25    1    1    2    0    0 -0.45398038379E+02 -0.41274027428E+01  0.38972626647E+03  0.41181255459E+03  0.12500000000E+03 0.  0.
         25    1    1    2    0    0 -0.58956607222E+02 -0.14496429236E+02  0.29020111284E+03  0.32175722819E+03  0.12500000000E+03 0.  0.
</event>
<event>
 5    0  0.6360960E-005  0.2546483E+03  0.7546771E-02  0.1110402E+00
         21   -1    0    0  502  501  0.00000000000E+00  0.00000000000E+00  0.38604677849E+03  0.38604677849E+03  0.00000000000E+00 0.  1.
         21   -1    0    0  501  502 -0.00000000000E+00 -0.00000000000E+00 -0.16797378082E+03  0.16797378082E+03  0.00000000000E+00 0.  1.
         25    1    1    2    0    0  0.84509539316E+02  0.12141763811E+02  0.17469888186E+03  0.23115792002E+03  0.12500000000E+03 0.  0.
         25    1    1    2    0    0 -0.25115316499E+01 -0.33161408656E+01  0.10265276157E+03  0.16180202112E+03  0.12500000000E+03 0.  0.
         25    1    1    2    0    0 -0.81998007666E+02 -0.88256229456E+01 -0.59278645757E+02  0.16106061817E+03  0.12500000000E+03 0.  0.
</event>
<event>
 5    0  0.5713700E-005  0.2246270E+03  0.7546771E-02  0.1130480E+00
         21   -1    0    0  502  501  0.00000000000E+00  0.00000000000E+00  0.37525439227E+02  0.37525439227E+02  0.00000000000E+00 0.  1.
         21   -1    0    0  501  502 -0.00000000000E+00 -0.00000000000E+00 -0.13446160042E+04  0.13446160042E+04  0.00000000000E+00 0.  1.
         25    1    1    2    0    0 -0.47554203871E+02 -0.30111454231E+02 -0.41464952725E+03  0.43672340495E+03  0.12500000000E+03 0.  0.
         25    1    1    2    0    0  0.36064433620E+02  0.30383638575E+02 -0.19255049552E+03  0.23435977084E+03  0.12500000000E+03 0.  0.
         25    1    1    2    0    0  0.11489770251E+02 -0.27218434347E+00 -0.69989054223E+03  0.71105826766E+03  0.12500000000E+03 0.  0.
</event>
<event>
 5    0  0.5713700E-005  0.4716156E+03  0.7546771E-02  0.1021465E+00
         21   -1    0    0  502  501  0.00000000000E+00  0.00000000000E+00  0.54326116522E+03  0.54326116522E+03  0.00000000000E+00 0.  1.
         21   -1    0    0  501  502 -0.00000000000E+00 -0.00000000000E+00 -0.40941867293E+03  0.40941867293E+03  0.00000000000E+00 0. -1.
         25    1    1    2    0    0  0.67595100891E+02  0.37671116944E+02 -0.15591983554E+03  0.21429933698E+03  0.12500000000E+03 0.  0.
         25    1    1    2    0    0  0.20745900697E+02 -0.32744629490E+03  0.13847068103E+03  0.37742628147E+03  0.12500000000E+03 0.  0.
         25    1    1    2    0    0 -0.88341001588E+02  0.28977517796E+03  0.15129164681E+03  0.36095421970E+03  0.12500000000E+03 0.  0.
</event>
<event>
 5    0  0.5713700E-005  0.2735598E+03  0.7546771E-02  0.1099259E+00
         21   -1    0    0  502  501  0.00000000000E+00  0.00000000000E+00  0.72635508416E+03  0.72635508416E+03  0.00000000000E+00 0.  1.
         21   -1    0    0  501  502 -0.00000000000E+00 -0.00000000000E+00 -0.10302807920E+03  0.10302807920E+03  0.00000000000E+00 0.  1.
         25    1    1    2    0    0  0.17962679850E+02  0.17763152454E+03  0.22602070173E+03  0.31398403461E+03  0.12500000000E+03 0.  0.
         25    1    1    2    0    0  0.48578475695E+02 -0.95029007373E+02  0.19989696820E+03  0.25879369861E+03  0.12500000000E+03 0.  0.
         25    1    1    2    0    0 -0.66541155545E+02 -0.82602517165E+02  0.19740933502E+03  0.25660543014E+03  0.12500000000E+03 0.  0.
</event>
<event>
 5    0  0.5713700E-005  0.2916149E+03  0.7546771E-02  0.1089509E+00
         21   -1    0    0  502  501  0.00000000000E+00  0.00000000000E+00  0.63650952739E+03  0.63650952739E+03  0.00000000000E+00 0. -1.
         21   -1    0    0  501  502 -0.00000000000E+00 -0.00000000000E+00 -0.13360249884E+03  0.13360249884E+03  0.00000000000E+00 0. -1.
         25    1    1    2    0    0 -0.51507511457E+02 -0.11792088167E+02  0.12049728748E+03  0.18148463673E+03  0.12500000000E+03 0.  0.
         25    1    1    2    0    0  0.10732074769E+03 -0.15533337870E+03  0.15164337060E+03  0.27251956493E+03  0.12500000000E+03 0.  0.
         25    1    1    2    0    0 -0.55813236231E+02  0.16712546686E+03  0.23076637048E+03  0.31610782458E+03  0.12500000000E+03 0.  0.
</event>
<event>
 5    0  0.5713700E-005  0.3593833E+03  0.7546771E-02  0.1058828E+00
         21   -1    0    0  502  501  0.00000000000E+00  0.00000000000E+00  0.11526681171E+03  0.11526681171E+03  0.00000000000E+00 0. -1.
         21   -1    0    0  501  502 -0.00000000000E+00 -0.00000000000E+00 -0.11204988184E+04  0.11204988184E+04  0.00000000000E+00 0. -1.
         25    1    1    2    0    0  0.18717755858E+03 -0.39775978928E+02 -0.37305126258E+03  0.43750407021E+03  0.12500000000E+03 0.  0.
         25    1    1    2    0    0 -0.10768232935E+03 -0.40866512926E+02 -0.60374739218E+03  0.62721724267E+03  0.12500000000E+03 0.  0.
         25    1    1    2    0    0 -0.79495229232E+02  0.80642491854E+02 -0.28433351951E+02  0.17104431726E+03  0.12500000000E+03 0.  0.
</event>
<event>
 5    0  0.5713700E-005  0.4813855E+03  0.7546771E-02  0.1018755E+00
         21   -1    0    0  502  501  0.00000000000E+00  0.00000000000E+00  0.46186256575E+03  0.46186256575E+03  0.00000000000E+00 0. -1.
         21   -1    0    0  501  502 -0.00000000000E+00 -0.00000000000E+00 -0.50173358924E+03  0.50173358924E+03  0.00000000000E+00 0. -1.
         25    1    1    2    0    0  0.45257382087E+02  0.80005068054E+01  0.37924911202E+02  0.13847576550E+03  0.12500000000E+03 0.  0.
         25    1    1    2    0    0 -0.17911280781E+02  0.10962580555E+02 -0.43085418290E+03  0.44911170000E+03  0.12500000000E+03 0.  0.
         25    1    1    2    0    0 -0.27346101306E+02 -0.18963087361E+02  0.35305824821E+03  0.37600868949E+03  0.12500000000E+03 0.  0.
</event>
<event>
 5    0  0.5713700E-005  0.3959616E+03  0.7546771E-02  0.1045187E+00
         21   -1    0    0  502  501  0.00000000000E+00  0.00000000000E+00  0.41748828199E+03  0.41748828199E+03  0.00000000000E+00 0. -1.
         21   -1    0    0  501  502 -0.00000000000E+00 -0.00000000000E+00 -0.37554484927E+03  0.37554484927E+03  0.00000000000E+00 0. -1.
         25    1    1    2    0    0  0.64600953520E+02  0.12724853739E+03  0.27920804205E+03  0.33756125993E+03  0.12500000000E+03 0.  0.
         25    1    1    2    0    0  0.91273315075E+02 -0.10466696866E+03 -0.99066155180E+02  0.21148308555E+03  0.12500000000E+03 0.  0.
         25    1    1    2    0    0 -0.15587426860E+03 -0.22581568736E+02 -0.13819845415E+03  0.24398878578E+03  0.12500000000E+03 0.  0.
</event>
<event>
 5    0  0.5713700E-005  0.2837992E+03  0.7546771E-02  0.1093632E+00
         21   -1    0    0  502  501  0.00000000000E+00  0.00000000000E+00  0.19309128390E+03  0.19309128390E+03  0.00000000000E+00 0. -1.
         21   -1    0    0  501  502 -0.00000000000E+00 -0.00000000000E+00 -0.41711857340E+03  0.41711857340E+03  0.00000000000E+00 0. -1.
         25    1    1    2    0    0  0.10743479947E+03 -0.93915420425E+02  0.19109906069E+02  0.19066339670E+03  0.12500000000E+03 0.  0.
         25    1    1    2    0    0 -0.66406079705E+02  0.37711580405E+00 -0.21236833053E+03  0.25521602114E+03  0.12500000000E+03 0.  0.
         25    1    1    2    0    0 -0.41028719770E+02  0.93538304621E+02 -0.30768865045E+02  0.16433043946E+03  0.12500000000E+03 0.  0.
</event>
<event>
 5    0  0.6192925E-005  0.2844065E+03  0.7546771E-02  0.1093306E+00
         21   -1    0    0  502  501  0.00000000000E+00  0.00000000000E+00  0.19905322432E+03  0.19905322432E+03  0.00000000000E+00 0.  1.
         21   -1    0    0  501  502 -0.00000000000E+00 -0.00000000000E+00 -0.40635898401E+03  0.40635898401E+03  0.00000000000E+00 0.  1.
         25    1    1    2    0    0  0.69447522849E+02  0.14449716333E+02  0.10662117114E+03  0.17895481795E+03  0.12500000000E+03 0.  0.
         25    1    1    2    0    0 -0.97510775050E+01  0.39949025076E+02 -0.19833322429E+03  0.23801696573E+03  0.12500000000E+03 0.  0.
         25    1    1    2    0    0 -0.59696445344E+02 -0.54398741409E+02 -0.11559370653E+03  0.18844042465E+03  0.12500000000E+03 0.  0.
</event>
<event>
 5    0  0.5713700E-005  0.3106020E+03  0.7546771E-02  0.1080058E+00
         21   -1    0    0  502  501  0.00000000000E+00  0.00000000000E+00  0.43563709629E+02  0.43563709629E+02  0.00000000000E+00 0. -1.
         21   -1    0    0  501  502 -0.00000000000E+00 -0.00000000000E+00 -0.22145402159E+04  0.22145402159E+04  0.00000000000E+00 0. -1.
         25    1    1    2    0    0 -0.71497849321E+02 -0.10087670254E+03 -0.95584662894E+03  0.97188262132E+03  0.12500000000E+03 0.  0.
         25    1    1    2    0    0 -0.10898334757E+03  0.75088684099E+02 -0.36578235177E+03  0.40857974668E+03  0.12500000000E+03 0.  0.
         25    1    1    2    0    0  0.18048119689E+03  0.25788018440E+02 -0.84934752553E+03  0.87764155750E+03  0.12500000000E+03 0.  0.
</event>
<event>
 5    0  0.5713700E-005  0.6328039E+03  0.7546771E-02  0.9839592E-01
         21   -1    0    0  502  501  0.00000000000E+00  0.00000000000E+00  0.21159439298E+04  0.21159439298E+04  0.00000000000E+00 0. -1.
         21   -1    0    0  501  502 -0.00000000000E+00 -0.00000000000E+00 -0.18924925968E+03  0.18924925968E+03  0.00000000000E+00 0. -1.
         25    1    1    2    0    0  0.75807416468E+02 -0.36985464402E+03  0.37629967992E+03  0.54750860377E+03  0.12500000000E+03 0.  0.
         25    1    1    2    0    0  0.11524144146E+03  0.23272967296E+03  0.13646411275E+03  0.31889048994E+03  0.12500000000E+03 0.  0.
         25    1    1    2    0    0 -0.19104885793E+03  0.13712497105E+03  0.14139308775E+04  0.14387940958E+04  0.12500000000E+03 0.  0.
</event>
<event>
 5    0  0.5713700E-005  0.2572273E+03  0.7546771E-02  0.1108821E+00
         21   -1    0    0  502  501  0.00000000000E+00  0.00000000000E+00  0.29317680857E+02  0.29317680857E+02  0.00000000000E+00 0.  1.
         21   -1    0    0  501  502 -0.00000000000E+00 -0.00000000000E+00 -0.22568592268E+04  0.22568592268E+04  0.00000000000E+00 0.  1.
         25    1    1    2    0    0 -0.14709740968E+03 -0.59259420944E+02 -0.11312118896E+04  0.11490929754E+04  0.12500000000E+03 0.  0.
         25    1    1    2    0    0  0.86148104078E+02  0.20755437057E+02 -0.46994342890E+03  0.49429152367E+03  0.12500000000E+03 0.  0.
         25    1    1    2    0    0  0.60949305601E+02  0.38503983887E+02 -0.62638622743E+03  0.64279240859E+03  0.12500000000E+03 0.  0.
</event>
<event>
 5    0  0.5713700E-005  0.8708140E+03  0.7546771E-02  0.9462819E-01
         21   -1    0    0  502  501  0.00000000000E+00  0.00000000000E+00  0.11690655235E+04  0.11690655235E+04  0.00000000000E+00 0.  1.
         21   -1    0    0  501  502 -0.00000000000E+00 -0.00000000000E+00 -0.64865233682E+03  0.64865233682E+03  0.00000000000E+00 0. -1.
         25    1    1    2    0    0  0.35591459053E+03  0.48526750977E+03 -0.14530557441E+03  0.63158408921E+03  0.12500000000E+03 0.  0.
         25    1    1    2    0    0  0.10539935793E+03  0.12516638455E+03  0.15532829423E+03  0.25792930710E+03  0.12500000000E+03 0.  0.
         25    1    1    2    0    0 -0.46131394846E+03 -0.61043389431E+03  0.51039046690E+03  0.92820446404E+03  0.12500000000E+03 0.  0.
</event>
<event>
 5    0  0.5713700E-005  0.2316550E+03  0.7546771E-02  0.1125480E+00
         21   -1    0    0  502  501  0.00000000000E+00  0.00000000000E+00  0.50803231090E+03  0.50803231090E+03  0.00000000000E+00 0.  1.
         21   -1    0    0  501  502 -0.00000000000E+00 -0.00000000000E+00 -0.10563114941E+03  0.10563114941E+03  0.00000000000E+00 0.  1.
         25    1    1    2    0    0 -0.84750663398E+02 -0.25810826535E+01  0.65676237384E+02  0.16470490306E+03  0.12500000000E+03 0.  0.
         25    1    1    2    0    0  0.85768665361E+02 -0.14775019142E+02  0.10468946895E+03  0.18482275308E+03  0.12500000000E+03 0.  0.
         25    1    1    2    0    0 -0.10180019621E+01  0.17356101795E+02  0.23203545515E+03  0.26413580417E+03  0.12500000000E+03 0.  0.
</event>
<event>
 5    0  0.5713700E-005  0.3189478E+03  0.7546771E-02  0.1076135E+00
         21   -1    0    0  502  501  0.00000000000E+00  0.00000000000E+00  0.38048927087E+03  0.38048927087E+03  0.00000000000E+00 0. -1.
         21   -1    0    0  501  502 -0.00000000000E+00 -0.00000000000E+00 -0.26736017332E+03  0.26736017332E+03  0.00000000000E+00 0. -1.
         25    1    1    2    0    0 -0.12371383378E+03  0.17909906468E+03  0.62643958836E+02  0.25870997897E+03  0.12500000000E+03 0.  0.
         25    1    1    2    0    0 -0.37741266327E+02 -0.78864844725E+02  0.53512019661E+02  0.16165581699E+03  0.12500000000E+03 0.  0.
         25    1    1    2    0    0  0.16145510011E+03 -0.10023421996E+03 -0.30268809480E+01  0.22748364823E+03  0.12500000000E+03 0.  0.
</event>
<event>
 5    0  0.5713700E-005  0.3037534E+03  0.7546771E-02  0.1083379E+00
         21   -1    0    0  502  501  0.00000000000E+00  0.00000000000E+00  0.69188296348E+03  0.69188296348E+03  0.00000000000E+00 0. -1.
         21   -1    0    0  501  502 -0.00000000000E+00 -0.00000000000E+00 -0.13335510425E+03  0.13335510425E+03  0.00000000000E+00 0. -1.
         25    1    1    2    0    0  0.28378267827E+02  0.55668234072E+02  0.14698937942E+03  0.20281803675E+03  0.12500000000E+03 0.  0.
         25    1    1    2    0    0  0.45492582347E+02  0.15840381875E+03  0.20723068246E+03  0.29279839582E+03  0.12500000000E+03 0.  0.
         25    1    1    2    0    0 -0.73870850174E+02 -0.21407205282E+03  0.20430779736E+03  0.32962163516E+03  0.12500000000E+03 0.  0.
</event>
<event>
 5    0  0.5713700E-005  0.3218719E+03  0.7546771E-02  0.1074791E+00
         21   -1    0    0  502  501  0.00000000000E+00  0.00000000000E+00  0.10192770830E+04  0.10192770830E+04  0.00000000000E+00 0. -1.
         21   -1    0    0  501  502 -0.00000000000E+00 -0.00000000000E+00 -0.10164217007E+03  0.10164217007E+03  0.00000000000E+00 0. -1.
         25    1    1    2    0    0 -0.18585981002E+02 -0.13615684439E+03  0.47103307080E+03  0.50634106959E+03  0.12500000000E+03 0.  0.
         25    1    1    2    0    0  0.88040349170E+02  0.13749790810E+03  0.42205500916E+03  0.46948078616E+03  0.12500000000E+03 0.  0.
         25    1    1    2    0    0 -0.69454368168E+02 -0.13410637158E+01  0.24546833004E+02  0.14509739736E+03  0.12500000000E+03 0.  0.
</event>
<event>
 5    0  0.5713700E-005  0.2797546E+03  0.7546771E-02  0.1095823E+00
         21   -1    0    0  502  501  0.00000000000E+00  0.00000000000E+00  0.49317168849E+03  0.49317168849E+03  0.00000000000E+00 0. -1.
         21   -1    0    0  501  502 -0.00000000000E+00 -0.00000000000E+00 -0.15869247290E+03  0.15869247290E+03  0.00000000000E+00 0. -1.
         25    1    1    2    0    0 -0.16447518341E+03 -0.83691962454E+02  0.15164891253E+03  0.26959010221E+03  0.12500000000E+03 0.  0.
         25    1    1    2    0    0  0.13433983291E+03  0.25586947569E+01  0.10588693489E+03  0.21187444538E+03  0.12500000000E+03 0.  0.
         25    1    1    2    0    0  0.30135350501E+02  0.81133267697E+02  0.76943368167E+02  0.17039961380E+03  0.12500000000E+03 0.  0.
</event>
<event>
 5    0  0.5713700E-005  0.4484958E+03  0.7546771E-02  0.1028172E+00
         21   -1    0    0  502  501  0.00000000000E+00  0.00000000000E+00  0.12042515038E+04  0.12042515038E+04  0.00000000000E+00 0.  1.
         21   -1    0    0  501  502 -0.00000000000E+00 -0.00000000000E+00 -0.16703193142E+03  0.16703193142E+03  0.00000000000E+00 0. -1.
         25    1    1    2    0    0 -0.92470783009E+02 -0.53147532522E+02  0.35830746750E+02  0.16817951224E+03  0.12500000000E+03 0.  0.
         25    1    1    2    0    0 -0.25668025750E+03  0.72966055285E+02  0.47216649929E+03  0.55657434621E+03  0.12500000000E+03 0.  0.
         25    1    1    2    0    0  0.34915104051E+03 -0.19818522763E+02  0.52922232638E+03  0.64652957680E+03  0.12500000000E+03 0.  0.
</event>
<event>
 5    0  0.5713700E-005  0.2313754E+03  0.7546771E-02  0.1125675E+00
         21   -1    0    0  502  501  0.00000000000E+00  0.00000000000E+00  0.25179071124E+03  0.25179071124E+03  0.00000000000E+00 0.  1.
         21   -1    0    0  501  502 -0.00000000000E+00 -0.00000000000E+00 -0.21261544255E+03  0.21261544255E+03  0.00000000000E+00 0.  1.
         25    1    1    2    0    0  0.47627746039E+02  0.32213494581E+01  0.74020328379E+02  0.15291431685E+03  0.12500000000E+03 0.  0.
         25    1    1    2    0    0  0.22277756140E+02  0.15962833349E+02 -0.90403068380E+02  0.15668064730E+03  0.12500000000E+03 0.  0.
         25    1    1    2    0    0 -0.69905502180E+02 -0.19184182807E+02  0.55558008689E+02  0.15481118963E+03  0.12500000000E+03 0.  0.
</event>
<event>
 5    0  0.5713700E-005  0.2792736E+03  0.7546771E-02  0.1096086E+00
         21   -1    0    0  502  501  0.00000000000E+00  0.00000000000E+00  0.65492239336E+02  0.65492239336E+02  0.00000000000E+00 0. -1.
         21   -1    0    0  501  502 -0.00000000000E+00 -0.00000000000E+00 -0.11908849477E+04  0.11908849477E+04  0.00000000000E+00 0. -1.
         25    1    1    2    0    0 -0.13136299334E+03  0.11483860872E+03 -0.65201717689E+03  0.68643684417E+03  0.12500000000E+03 0.  0.
         25    1    1    2    0    0  0.19372421796E+02 -0.44030096028E+02 -0.22649715606E+03  0.26313475974E+03  0.12500000000E+03 0.  0.
         25    1    1    2    0    0  0.11199057155E+03 -0.70808512694E+02 -0.24687837539E+03  0.30680558310E+03  0.12500000000E+03 0.  0.
</event>
<event>
 5    0  0.5713700E-005  0.3640926E+03  0.7546771E-02  0.1056975E+00
         21   -1    0    0  502  501  0.00000000000E+00  0.00000000000E+00  0.24531827370E+03  0.24531827370E+03  0.00000000000E+00 0. -1.
         21   -1    0    0  501  502 -0.00000000000E+00 -0.00000000000E+00 -0.54037322427E+03  0.54037322427E+03  0.00000000000E+00 0. -1.
         25    1    1    2    0    0 -0.12949664414E+02  0.17053462173E+03 -0.76778109869E+02  0.22532116894E+03  0.12500000000E+03 0.  0.
         25    1    1    2    0    0 -0.11533179805E+03 -0.14749529110E+03 -0.28907929404E+03  0.36639885750E+03  0.12500000000E+03 0.  0.
         25    1    1    2    0    0  0.12828146246E+03 -0.23039330637E+02  0.70802453331E+02  0.19397147152E+03  0.12500000000E+03 0.  0.
</event>
<event>
 5    0  0.5713700E-005  0.2029176E+03  0.7546771E-02  0.1147301E+00
         21   -1    0    0  502  501  0.00000000000E+00  0.00000000000E+00  0.88618053919E+03  0.88618053919E+03  0.00000000000E+00 0.  1.
         21   -1    0    0  501  502 -0.00000000000E+00 -0.00000000000E+00 -0.46464056042E+02  0.46464056042E+02  0.00000000000E+00 0.  1.
         25    1    1    2    0    0 -0.10554104971E+02  0.16647756054E+02  0.30722672919E+03  0.33226766325E+03  0.12500000000E+03 0.  0.
         25    1    1    2    0    0 -0.36135038434E+02 -0.18561973517E+02  0.35328669237E+03  0.37694399434E+03  0.12500000000E+03 0.  0.
         25    1    1    2    0    0  0.46689143405E+02  0.19142174633E+01  0.17920306158E+03  0.22343293764E+03  0.12500000000E+03 0.  0.
</event>
<event>
 5    0  0.5713700E-005  0.3910328E+03  0.7546771E-02  0.1046930E+00
         21   -1    0    0  502  501  0.00000000000E+00  0.00000000000E+00  0.13835197066E+04  0.13835197066E+04  0.00000000000E+00 0.  1.
         21   -1    0    0  501  502 -0.00000000000E+00 -0.00000000000E+00 -0.11052002930E+03  0.11052002930E+03  0.00000000000E+00 0.  1.
         25    1    1    2    0    0  0.17171910832E+03 -0.51641448591E+02  0.41915217923E+03  0.47272385250E+03  0.12500000000E+03 0.  0.
         25    1    1    2    0    0 -0.44331740807E+02  0.18546186236E+02 -0.14037300395E+02  0.13465255315E+03  0.12500000000E+03 0.  0.
         25    1    1    2    0    0 -0.12738736752E+03  0.33095262356E+02  0.86788479843E+03  0.88666333021E+03  0.12500000000E+03 0.  0.
</event>
<event>
 5    0  0.5713700E-005  0.5308772E+03  0.7546771E-02  0.1006020E+00
         21   -1    0    0  502  501  0.00000000000E+00  0.00000000000E+00  0.54176657049E+03  0.54176657049E+03  0.00000000000E+00 0. -1.
         21   -1    0    0  501  502 -0.00000000000E+00 -0.00000000000E+00 -0.52020673788E+03  0.52020673788E+03  0.00000000000E+00 0. -1.
         25    1    1    2    0    0 -0.15278378700E+02  0.46683470965E+03  0.60476699575E+02  0.48728893500E+03  0.12500000000E+03 0.  0.
         25    1    1    2    0    0 -0.10032689373E+03 -0.23517884832E+03 -0.38435491536E+02  0.28718785370E+03  0.12500000000E+03 0.  0.
         25    1    1    2    0    0  0.11560527243E+03 -0.23165586133E+03 -0.48137543234E+00  0.28749651967E+03  0.12500000000E+03 0.  0.
</event>
<event>
 5    0  0.5713700E-005  0.2765521E+03  0.7546771E-02  0.1097587E+00
         21   -1    0    0  502  501  0.00000000000E+00  0.00000000000E+00  0.61923919311E+02  0.61923919311E+02  0.00000000000E+00 0.  1.
         21   -1    0    0  501  502 -0.00000000000E+00 -0.00000000000E+00 -0.12350807748E+04  0.12350807748E+04  0.00000000000E+00 0.  1.
         25    1    1    2    0    0 -0.45244652112E+02  0.12245208232E+03 -0.24590243561E+03  0.30517961736E+03  0.12500000000E+03 0.  0.
         25    1    1    2    0    0  0.59731952381E+02  0.86598767650E+01 -0.20869885445E+03  0.25064538984E+03  0.12500000000E+03 0.  0.
         25    1    1    2    0    0 -0.14487300269E+02 -0.13111195908E+03 -0.71855556538E+03  0.74117968687E+03  0.12500000000E+03 0.  0.
</event>
<event>
 5    0  0.5713700E-005  0.2544369E+03  0.7546771E-02  0.1110532E+00
         21   -1    0    0  502  501  0.00000000000E+00  0.00000000000E+00  0.52465096548E+02  0.52465096548E+02  0.00000000000E+00 0. -1.
         21   -1    0    0  501  502 -0.00000000000E+00 -0.00000000000E+00 -0.12339275637E+04  0.12339275637E+04  0.00000000000E+00 0. -1.
         25    1    1    2    0    0 -0.28106824480E+02  0.21896594701E+02 -0.38780641266E+03  0.40900888516E+03  0.12500000000E+03 0.  0.
         25    1    1    2    0    0 -0.38163276192E+02  0.80020819910E+02 -0.58856272772E+03  0.60818652709E+03  0.12500000000E+03 0.  0.
         25    1    1    2    0    0  0.66270100672E+02 -0.10191741461E+03 -0.20509332678E+03  0.26919724800E+03  0.12500000000E+03 0.  0.
</event>
<event>
 5    0  0.5713700E-005  0.2941947E+03  0.7546771E-02  0.1088179E+00
         21   -1    0    0  502  501  0.00000000000E+00  0.00000000000E+00  0.40017208468E+03  0.40017208468E+03  0.00000000000E+00 0. -1.
         21   -1    0    0  501  502 -0.00000000000E+00 -0.00000000000E+00 -0.21628322196E+03  0.21628322196E+03  0.00000000000E+00 0. -1.
         25    1    1    2    0    0  0.58255543185E+02 -0.95589236138E+02  0.22030230624E+03  0.27692799878E+03  0.12500000000E+03 0.  0.
         25    1    1    2    0    0 -0.40379259565E+02  0.13098316993E+03  0.37115828435E+02  0.18918155335E+03  0.12500000000E+03 0.  0.
         25    1    1    2    0    0 -0.17876283620E+02 -0.35393933788E+02 -0.73529271945E+02  0.15034575451E+03  0.12500000000E+03 0.  0.
</event>
<event>
 5    0  0.5713700E-005  0.2851425E+03  0.7546771E-02  0.1092913E+00
         21   -1    0    0  502  501  0.00000000000E+00  0.00000000000E+00  0.10275096483E+04  0.10275096483E+04  0.00000000000E+00 0. -1.
         21   -1    0    0  501  502 -0.00000000000E+00 -0.00000000000E+00 -0.79129441846E+02  0.79129441846E+02  0.00000000000E+00 0. -1.
         25    1    1    2    0    0  0.61399443559E+02 -0.73608582150E+02  0.58275963313E+03  0.60367367430E+03  0.12500000000E+03 0.  0.
         25    1    1    2    0    0 -0.13982602946E+03  0.31000188628E+02  0.17725702274E+03  0.25991803000E+03  0.12500000000E+03 0.  0.
         25    1    1    2    0    0  0.78426585900E+02  0.42608393522E+02  0.18836355054E+03  0.24304738581E+03  0.12500000000E+03 0.  0.
</event>
<event>
 5    0  0.5713700E-005  0.2813905E+03  0.7546771E-02  0.1094932E+00
         21   -1    0    0  502  501  0.00000000000E+00  0.00000000000E+00  0.18732453678E+03  0.18732453678E+03  0.00000000000E+00 0. -1.
         21   -1    0    0  501  502 -0.00000000000E+00 -0.00000000000E+00 -0.42269202185E+03  0.42269202185E+03  0.00000000000E+00 0. -1.
         25    1    1    2    0    0  0.89732880869E+02  0.77547747440E+00 -0.61306113178E+02  0.16563825279E+03  0.12500000000E+03 0.  0.
         25    1    1    2    0    0 -0.17396708444E+03 -0.73451300590E+02 -0.40011631640E+02  0.22996862980E+03  0.12500000000E+03 0.  0.
         25    1    1    2    0    0  0.84234203572E+02  0.72675823115E+02 -0.13404974025E+03  0.21440967604E+03  0.12500000000E+03 0.  0.
</event>
<event>
 5    0  0.5713700E-005  0.2783125E+03  0.7546771E-02  0.1096614E+00
         21   -1    0    0  502  501  0.00000000000E+00  0.00000000000E+00  0.76831662206E+03  0.76831662206E+03  0.00000000000E+00 0.  1.
         21   -1    0    0  501  502 -0.00000000000E+00 -0.00000000000E+00 -0.10081498286E+03  0.10081498286E+03  0.00000000000E+00 0.  1.
         25    1    1    2    0    0 -0.22483616502E+02 -0.27526887510E+02  0.72533481859E+02  0.14882657201E+03  0.12500000000E+03 0.  0.
         25    1    1    2    0    0 -0.79383353036E+02  0.63226716207E+02  0.50951877379E+03  0.53435354890E+03  0.12500000000E+03 0.  0.
         25    1    1    2    0    0  0.10186696954E+03 -0.35699828697E+02  0.85449383561E+02  0.18595148400E+03  0.12500000000E+03 0.  0.
</event>
<event>
 5    0  0.5713700E-005  0.2279010E+03  0.7546771E-02  0.1128126E+00
         21   -1    0    0  502  501  0.00000000000E+00  0.00000000000E+00  0.89163021486E+02  0.89163021486E+02  0.00000000000E+00 0. -1.
         21   -1    0    0  501  502 -0.00000000000E+00 -0.00000000000E+00 -0.58251560811E+03  0.58251560811E+03  0.00000000000E+00 0. -1.
         25    1    1    2    0    0  0.70819860203E+02  0.23691878907E+02 -0.83240033679E+02  0.16772197510E+03  0.12500000000E+03 0.  0.
         25    1    1    2    0    0  0.19453845655E+01 -0.24022522437E+02 -0.28719498386E+03  0.31414459228E+03  0.12500000000E+03 0.  0.
         25    1    1    2    0    0 -0.72765244769E+02  0.33064352966E+00 -0.12291756909E+03  0.18981206221E+03  0.12500000000E+03 0.  0.
</event>
<event>
 5    0  0.5713700E-005  0.6499218E+03  0.7546771E-02  0.9806926E-01
         21   -1    0    0  502  501  0.00000000000E+00  0.00000000000E+00  0.69497813035E+03  0.69497813035E+03  0.00000000000E+00 0. -1.
         21   -1    0    0  501  502 -0.00000000000E+00 -0.00000000000E+00 -0.60778653239E+03  0.60778653239E+03  0.00000000000E+00 0. -1.
         25    1    1    2    0    0  0.52265021992E+03 -0.12629538679E+03 -0.18205731209E+03  0.58127759461E+03  0.12500000000E+03 0.  0.
         25    1    1    2    0    0 -0.45182163649E+03 -0.13170484609E+02  0.19576108417E+03  0.50819647278E+03  0.12500000000E+03 0.  0.
         25    1    1    2    0    0 -0.70828583429E+02  0.13946587139E+03  0.73487825878E+02  0.21329059535E+03  0.12500000000E+03 0.  0.
</event>
<event>
 5    0  0.6580777E-005  0.2968300E+03  0.7546771E-02  0.1086836E+00
         21   -1    0    0  502  501  0.00000000000E+00  0.00000000000E+00  0.32467788968E+03  0.32467788968E+03  0.00000000000E+00 0.  1.
         21   -1    0    0  501  502 -0.00000000000E+00 -0.00000000000E+00 -0.27137066165E+03  0.27137066165E+03  0.00000000000E+00 0.  1.
         25    1    1    2    0    0 -0.19386920293E+03 -0.31057625757E+01  0.32131995687E+02  0.23292140038E+03  0.12500000000E+03 0.  0.
         25    1    1    2    0    0  0.11090696869E+03 -0.70583590911E+02  0.60848248765E+02  0.19133715893E+03  0.12500000000E+03 0.  0.
         25    1    1    2    0    0  0.82962234244E+02  0.73689353487E+02 -0.39673016428E+02  0.17178999203E+03  0.12500000000E+03 0.  0.
</event>
<event>
 5    0  0.5713700E-005  0.2378621E+03  0.7546771E-02  0.1121225E+00
         21   -1    0    0  502  501  0.00000000000E+00  0.00000000000E+00  0.28293609893E+03  0.28293609893E+03  0.00000000000E+00 0. -1.
         21   -1    0    0  501  502 -0.00000000000E+00 -0.00000000000E+00 -0.19996878607E+03  0.19996878607E+03  0.00000000000E+00 0. -1.
         25    1    1    2    0    0  0.80381508279E+02  0.99797189318E+00  0.32024488284E+02  0.15202878238E+03  0.12500000000E+03 0.  0.
         25    1    1    2    0    0 -0.76537187557E+02 -0.20973671788E+02 -0.62630632717E+02  0.16076514592E+03  0.12500000000E+03 0.  0.
         25    1    1    2    0    0 -0.38443207221E+01  0.19975699895E+02  0.11357345730E+03  0.17011095671E+03  0.12500000000E+03 0.  0.
</event>
<event>
 5    0  0.5713700E-005  0.3581460E+03  0.7546771E-02  0.1059320E+00
         21   -1    0    0  502  501  0.00000000000E+00  0.00000000000E+00  0.14681060270E+04  0.14681060270E+04  0.00000000000E+00 0.  1.
         21   -1    0    0  501  502 -0.00000000000E+00 -0.00000000000E+00 -0.87370098764E+02  0.87370098764E+02  0.00000000000E+00 0.  1.
         25    1    1    2    0    0 -0.10979670936E+02 -0.83609568057E+02  0.38376537440E+02  0.15559200388E+03  0.12500000000E+03 0.  0.
         25    1    1    2    0    0 -0.69455995366E+02  0.16662304666E+03  0.62001250648E+03  0.65774454248E+03  0.12500000000E+03 0.  0.
         25    1    1    2    0    0  0.80435666302E+02 -0.83013478602E+02  0.72234688434E+03  0.74213957943E+03  0.12500000000E+03 0.  0.
</event>
<event>
 5    0  0.5713700E-005  0.3543909E+03  0.7546771E-02  0.1060827E+00
         21   -1    0    0  502  501  0.00000000000E+00  0.00000000000E+00  0.19878214755E+03  0.19878214755E+03  0.00000000000E+00 0.  1.
         21   -1    0    0  501  502 -0.00000000000E+00 -0.00000000000E+00 -0.63181187618E+03  0.63181187618E+03  0.00000000000E+00 0.  1.
         25    1    1    2    0    0 -0.15874562163E+03  0.65119285632E+02  0.47799621513E+02  0.21760169477E+03  0.12500000000E+03 0.  0.
         25    1    1    2    0    0  0.36949602047E+02 -0.58054579552E+02 -0.55339761942E+02  0.15304606022E+03  0.12500000000E+03 0.  0.
         25    1    1    2    0    0  0.12179601958E+03 -0.70647060807E+01 -0.42548958820E+03  0.45994626874E+03  0.12500000000E+03 0.  0.
</event>
<event>
 5    0  0.5713700E-005  0.3070063E+03  0.7546771E-02  0.1081790E+00
         21   -1    0    0  502  501  0.00000000000E+00  0.00000000000E+00  0.18920473361E+03  0.18920473361E+03  0.00000000000E+00 0. -1.
         21   -1    0    0  501  502 -0.00000000000E+00 -0.00000000000E+00 -0.49815280834E+03  0.49815280834E+03  0.00000000000E+00 0. -1.
         25    1    1    2    0    0 -0.10763587476E+03 -0.50258822716E+01 -0.19437545949E+03  0.25498541189E+03  0.12500000000E+03 0.  0.
         25    1    1    2    0    0  0.15227085816E+03 -0.26964394960E+02 -0.19116008468E+03  0.27582724813E+03  0.12500000000E+03 0.  0.
         25    1    1    2    0    0 -0.44634983400E+02  0.31990277232E+02  0.76587469445E+02  0.15654488192E+03  0.12500000000E+03 0.  0.
</event>
<event>
 5    0  0.5713700E-005  0.3418698E+03  0.7546771E-02  0.1066002E+00
         21   -1    0    0  502  501  0.00000000000E+00  0.00000000000E+00  0.25267969705E+03  0.25267969705E+03  0.00000000000E+00 0.  1.
         21   -1    0    0  501  502 -0.00000000000E+00 -0.00000000000E+00 -0.46254190997E+03  0.46254190997E+03  0.00000000000E+00 0.  1.
         25    1    1    2    0    0  0.56029002570E+02  0.20830888647E+03 -0.34026212398E+02  0.25162397430E+03  0.12500000000E+03 0.  0.
         25    1    1    2    0    0  0.10538349123E+03 -0.65811229782E+02 -0.43015171504E+02  0.18141693187E+03  0.12500000000E+03 0.  0.
         25    1    1    2    0    0 -0.16141249380E+03 -0.14249765669E+03 -0.13282082901E+03  0.28218070085E+03  0.12500000000E+03 0.  0.
</event>
<event>
 5    0  0.5713700E-005  0.3378966E+03  0.7546771E-02  0.1067695E+00
         21   -1    0    0  502  501  0.00000000000E+00  0.00000000000E+00  0.18220512548E+03  0.18220512548E+03  0.00000000000E+00 0.  1.
         21   -1    0    0  501  502 -0.00000000000E+00 -0.00000000000E+00 -0.62662414471E+03  0.62662414471E+03  0.00000000000E+00 0.  1.
         25    1    1    2    0    0 -0.22089518320E+02  0.12216499372E+03  0.17570306949E+02  0.17704786979E+03  0.12500000000E+03 0.  0.
         25    1    1    2    0    0 -0.84960854027E+02 -0.18157040045E+03 -0.35587089987E+03  0.42714781331E+03  0.12500000000E+03 0.  0.
         25    1    1    2    0    0  0.10705037235E+03  0.59405406728E+02 -0.10611842630E+03  0.20463358710E+03  0.12500000000E+03 0.  0.
</event>
<event>
 5    0  0.5718905E-005  0.2872061E+03  0.7546771E-02  0.1091817E+00
         21   -1    0    0  502  501  0.00000000000E+00  0.00000000000E+00  0.91550686836E+03  0.91550686836E+03  0.00000000000E+00 0. -1.
         21   -1    0    0  501  502 -0.00000000000E+00 -0.00000000000E+00 -0.90100174736E+02  0.90100174736E+02  0.00000000000E+00 0. -1.
         25    1    1    2    0    0  0.90110369036E+02  0.12163973566E+02  0.10199548122E+03  0.18519157392E+03  0.12500000000E+03 0.  0.
         25    1    1    2    0    0 -0.12411400745E+03 -0.73142614319E+02  0.60583151103E+03  0.63514639937E+03  0.12500000000E+03 0.  0.
         25    1    1    2    0    0  0.34003638417E+02  0.60978640753E+02  0.11757970138E+03  0.18526906982E+03  0.12500000000E+03 0.  0.
</event>
<event>
 5    0  0.5713700E-005  0.3047222E+03  0.7546771E-02  0.1082904E+00
         21   -1    0    0  502  501  0.00000000000E+00  0.00000000000E+00  0.11965580435E+03  0.11965580435E+03  0.00000000000E+00 0. -1.
         21   -1    0    0  501  502 -0.00000000000E+00 -0.00000000000E+00 -0.77602259351E+03  0.77602259351E+03  0.00000000000E+00 0. -1.
         25    1    1    2    0    0  0.96487214481E+02 -0.17663793484E+03 -0.30101028238E+03  0.38307040173E+03  0.12500000000E+03 0.  0.
         25    1    1    2    0    0 -0.43305109986E+02  0.14314713543E+03 -0.94533118929E+02  0.21662858885E+03  0.12500000000E+03 0.  0.
         25    1    1    2    0    0 -0.53182104495E+02  0.33490799411E+02 -0.26082338785E+03  0.29597940728E+03  0.12500000000E+03 0.  0.
</event>
<event>
 5    0  0.5713700E-005  0.2998050E+03  0.7546771E-02  0.1085338E+00
         21   -1    0    0  502  501  0.00000000000E+00  0.00000000000E+00  0.32442328941E+03  0.32442328941E+03  0.00000000000E+00 0. -1.
         21   -1    0    0  501  502 -0.00000000000E+00 -0.00000000000E+00 -0.27705481339E+03  0.27705481339E+03  0.00000000000E+00 0. -1.
         25    1    1    2    0    0  0.66428184904E+02 -0.17968992146E+02 -0.69343159009E+02  0.15864760361E+03  0.12500000000E+03 0.  0.
         25    1    1    2    0    0 -0.12710971214E+03 -0.61369598515E+02 -0.66185799827E+02  0.19982158703E+03  0.12500000000E+03 0.  0.
         25    1    1    2    0    0  0.60681527240E+02  0.79338590661E+02  0.18289743486E+03  0.24300891217E+03  0.12500000000E+03 0.  0.
</event>
<event>
 5    0  0.5713700E-005  0.3953446E+03  0.7546771E-02  0.1045404E+00
         21   -1    0    0  502  501  0.00000000000E+00  0.00000000000E+00  0.11298512340E+03  0.11298512340E+03  0.00000000000E+00 0. -1.
         21   -1    0    0  501  502 -0.00000000000E+00 -0.00000000000E+00 -0.13833445687E+04  0.13833445687E+04  0.00000000000E+00 0. -1.
         25    1    1    2    0    0  0.13510121482E+03  0.33538855776E+02 -0.29114873411E+02  0.18934061621E+03  0.12500000000E+03 0.  0.
         25    1    1    2    0    0  0.41042687047E+02 -0.11502033450E+03 -0.44944585498E+03  0.48222479827E+03  0.12500000000E+03 0.  0.
         25    1    1    2    0    0 -0.17614390187E+03  0.81481478729E+02 -0.79179871687E+03  0.82476427759E+03  0.12500000000E+03 0.  0.
</event>
<event>
 5    0  0.5713700E-005  0.2466573E+03  0.7546771E-02  0.1115436E+00
         21   -1    0    0  502  501  0.00000000000E+00  0.00000000000E+00  0.10337864137E+03  0.10337864137E+03  0.00000000000E+00 0. -1.
         21   -1    0    0  501  502 -0.00000000000E+00 -0.00000000000E+00 -0.58851426866E+03  0.58851426866E+03  0.00000000000E+00 0. -1.
         25    1    1    2    0    0  0.75184259766E+02  0.87861818332E+02 -0.14597346623E+03  0.22428915462E+03  0.12500000000E+03 0.  0.
         25    1    1    2    0    0 -0.70168580617E+02  0.22745170074E+02 -0.10136807547E+03  0.17703519196E+03  0.12500000000E+03 0.  0.
         25    1    1    2    0    0 -0.50156791495E+01 -0.11060698841E+03 -0.23779408560E+03  0.29056856345E+03  0.12500000000E+03 0.  0.
</event>
<event>
 5    0  0.5713700E-005  0.3002822E+03  0.7546771E-02  0.1085100E+00
         21   -1    0    0  502  501  0.00000000000E+00  0.00000000000E+00  0.13693569441E+03  0.13693569441E+03  0.00000000000E+00 0.  1.
         21   -1    0    0  501  502 -0.00000000000E+00 -0.00000000000E+00 -0.65847977360E+03  0.65847977360E+03  0.00000000000E+00 0.  1.
         25    1    1    2    0    0 -0.69886081749E+02  0.10659943517E+03 -0.23450352466E+03  0.29472768292E+03  0.12500000000E+03 0.  0.
         25    1    1    2    0    0 -0.41809145346E+02 -0.10028885612E+03  0.29768213245E+01  0.16564939107E+03  0.12500000000E+03 0.  0.
         25    1    1    2    0    0  0.11169522710E+03 -0.63105790447E+01 -0.29001737586E+03  0.33503839401E+03  0.12500000000E+03 0.  0.
</event>
<event>
 5    0  0.5713700E-005  0.2367444E+03  0.7546771E-02  0.1121981E+00
         21   -1    0    0  502  501  0.00000000000E+00  0.00000000000E+00  0.91543434008E+03  0.91543434008E+03  0.00000000000E+00 0.  1.
         21   -1    0    0  501  502 -0.00000000000E+00 -0.00000000000E+00 -0.61225498955E+02  0.61225498955E+02  0.00000000000E+00 0.  1.
         25    1    1    2    0    0  0.14510674148E+02  0.77927480139E+02  0.15518875536E+03  0.21445699246E+03  0.12500000000E+03 0.  0.
         25    1    1    2    0    0  0.11352717360E+02 -0.98503818583E+02  0.26491631821E+03  0.30925320066E+03  0.12500000000E+03 0.  0.
         25    1    1    2    0    0 -0.25863391508E+02  0.20576338445E+02  0.43410376756E+03  0.45294964592E+03  0.12500000000E+03 0.  0.
</event>
<event>
 5    0  0.5713700E-005  0.4288411E+03  0.7546771E-02  0.1034227E+00
         21   -1    0    0  502  501  0.00000000000E+00  0.00000000000E+00  0.45352118291E+03  0.45352118291E+03  0.00000000000E+00 0.  1.
         21   -1    0    0  501  502 -0.00000000000E+00 -0.00000000000E+00 -0.40550399347E+03  0.40550399347E+03  0.00000000000E+00 0.  1.
         25    1    1    2    0    0  0.74759392148E+02 -0.21220837933E+02  0.14072736383E+03  0.20363811433E+03  0.12500000000E+03 0.  0.
         25    1    1    2    0    0 -0.25119868963E+03 -0.16908043211E+03 -0.15227002210E+03  0.36124802259E+03  0.12500000000E+03 0.  0.
         25    1    1    2    0    0  0.17643929748E+03  0.19030127005E+03  0.59559847707E+02  0.29413903946E+03  0.12500000000E+03 0.  0.
</event>
<event>
 5    0  0.5713700E-005  0.3113776E+03  0.7546771E-02  0.1079687E+00
         21   -1    0    0  502  501  0.00000000000E+00  0.00000000000E+00  0.23414688955E+03  0.23414688955E+03  0.00000000000E+00 0.  1.
         21   -1    0    0  501  502 -0.00000000000E+00 -0.00000000000E+00 -0.41408210454E+03  0.41408210454E+03  0.00000000000E+00 0.  1.
         25    1    1    2    0    0  0.10184183291E+03  0.11202055559E+03 -0.84395611332E+02  0.21370068558E+03  0.12500000000E+03 0.  0.
         25    1    1    2    0    0 -0.14806522426E+03 -0.15860109090E+03  0.21248633488E+02  0.25130483699E+03  0.12500000000E+03 0.  0.
         25    1    1    2    0    0  0.46223391350E+02  0.46580535304E+02 -0.11678823715E+03  0.18322347152E+03  0.12500000000E+03 0.  0.
</event>
<event>
 5    0  0.5713700E-005  0.3024525E+03  0.7546771E-02  0.1084021E+00
         21   -1    0    0  502  501  0.00000000000E+00  0.00000000000E+00  0.16508623622E+04  0.16508623622E+04  0.00000000000E+00 0. -1.
         21   -1    0    0  501  502 -0.00000000000E+00 -0.00000000000E+00 -0.55411940002E+02  0.55411940002E+02  0.00000000000E+00 0. -1.
         25    1    1    2    0    0 -0.19157689286E+03 -0.99815245774E+01  0.42523668879E+03  0.48296229481E+03  0.12500000000E+03 0.  0.
         25    1    1    2    0    0  0.61646697731E+02  0.82639413611E+02  0.54498793627E+03  0.56856524578E+03  0.12500000000E+03 0.  0.
         25    1    1    2    0    0  0.12993019513E+03 -0.72657889034E+02  0.62522579715E+03  0.65474676163E+03  0.12500000000E+03 0.  0.
</event>
<event>
 5    0  0.5713700E-005  0.4206099E+03  0.7546771E-02  0.1036868E+00
         21   -1    0    0  502  501  0.00000000000E+00  0.00000000000E+00  0.21501072278E+03  0.21501072278E+03  0.00000000000E+00 0. -1.
         21   -1    0    0  501  502 -0.00000000000E+00 -0.00000000000E+00 -0.82280876821E+03  0.82280876821E+03  0.00000000000E+00 0. -1.
         25    1    1    2    0    0  0.16323295127E+03 -0.13918722679E+03 -0.64475213890E+03  0.69090404623E+03  0.12500000000E+03 0.  0.
         25    1    1    2    0    0 -0.13182681797E+03  0.60448346258E+02  0.14495790063E+00  0.19146104960E+03  0.12500000000E+03 0.  0.
         25    1    1    2    0    0 -0.31406133299E+02  0.78738880530E+02  0.36809135565E+02  0.15545439517E+03  0.12500000000E+03 0.  0.
</event>
<event>
 5    0  0.5713700E-005  0.3967460E+03  0.7546771E-02  0.1044912E+00
         21   -1    0    0  502  501  0.00000000000E+00  0.00000000000E+00  0.35392295550E+03  0.35392295550E+03  0.00000000000E+00 0. -1.
         21   -1    0    0  501  502 -0.00000000000E+00 -0.00000000000E+00 -0.44475043685E+03  0.44475043685E+03  0.00000000000E+00 0. -1.
         25    1    1    2    0    0 -0.12673457830E+02 -0.49693506825E+02  0.25869033714E+02  0.13756550461E+03  0.12500000000E+03 0.  0.
         25    1    1    2    0    0  0.14566259914E+03  0.15609781739E+03  0.17348374132E+03  0.30216838002E+03  0.12500000000E+03 0.  0.
         25    1    1    2    0    0 -0.13298914131E+03 -0.10640431056E+03 -0.29018025638E+03  0.35893950772E+03  0.12500000000E+03 0.  0.
</event>
<event>
 5    0  0.5713700E-005  0.3253448E+03  0.7546771E-02  0.1073215E+00
         21   -1    0    0  502  501  0.00000000000E+00  0.00000000000E+00  0.84572198345E+02  0.84572198345E+02  0.00000000000E+00 0. -1.
         21   -1    0    0  501  502 -0.00000000000E+00 -0.00000000000E+00 -0.12515840328E+04  0.12515840328E+04  0.00000000000E+00 0. -1.
         25    1    1    2    0    0  0.12251022861E+03 -0.32860294098E+02 -0.61107288227E+03  0.63649322266E+03  0.12500000000E+03 0.  0.
         25    1    1    2    0    0 -0.37093131784E+02  0.14139912121E+03 -0.12288953387E+03  0.22824646643E+03  0.12500000000E+03 0.  0.
         25    1    1    2    0    0 -0.85417096827E+02 -0.10853882711E+03 -0.43304941836E+03  0.47141654210E+03  0.12500000000E+03 0.  0.
</event>
<event>
 5    0  0.5713700E-005  0.2820385E+03  0.7546771E-02  0.1094581E+00
         21   -1    0    0  502  501  0.00000000000E+00  0.00000000000E+00  0.61175810169E+02  0.61175810169E+02  0.00000000000E+00 0.  1.
         21   -1    0    0  501  502 -0.00000000000E+00 -0.00000000000E+00 -0.13002805537E+04  0.13002805537E+04  0.00000000000E+00 0.  1.
         25    1    1    2    0    0  0.22054961446E+02 -0.53045242213E+02 -0.56918422881E+03  0.58557314264E+03  0.12500000000E+03 0.  0.
         25    1    1    2    0    0 -0.15096064344E+03  0.32951455898E+02 -0.44510291010E+03  0.48745924434E+03  0.12500000000E+03 0.  0.
         25    1    1    2    0    0  0.12890568200E+03  0.20093786314E+02 -0.22481760460E+03  0.28842397688E+03  0.12500000000E+03 0.  0.
</event>
<event>
 5    0  0.5713700E-005  0.4143967E+03  0.7546771E-02  0.1038906E+00
         21   -1    0    0  502  501  0.00000000000E+00  0.00000000000E+00  0.10669702125E+04  0.10669702125E+04  0.00000000000E+00 0. -1.
         21   -1    0    0  501  502 -0.00000000000E+00 -0.00000000000E+00 -0.16094604696E+03  0.16094604696E+03  0.00000000000E+00 0. -1.
         25    1    1    2    0    0  0.62457321444E+02  0.19137531956E+03  0.11497368850E+03  0.26338067314E+03  0.12500000000E+03 0.  0.
         25    1    1    2    0    0  0.31721072188E+02 -0.26007001808E+03  0.20844239898E+03  0.35737357823E+03  0.12500000000E+03 0.  0.
         25    1    1    2    0    0 -0.94178393632E+02  0.68694698526E+02  0.58260807805E+03  0.60716200807E+03  0.12500000000E+03 0.  0.
</event>
<event>
 5    0  0.5713700E-005  0.2189966E+03  0.7546771E-02  0.1134633E+00
         21   -1    0    0  502  501  0.00000000000E+00  0.00000000000E+00  0.59143883182E+02  0.59143883182E+02  0.00000000000E+00 0. -1.
         21   -1    0    0  501  502 -0.00000000000E+00 -0.00000000000E+00 -0.81089570052E+03  0.81089570052E+03  0.00000000000E+00 0. -1.
         25    1    1    2    0    0  0.64739653286E+01  0.13891432484E+02 -0.26343781422E+03  0.29199206511E+03  0.12500000000E+03 0.  0.
         25    1    1    2    0    0  0.77270871263E+02  0.34520523566E+02 -0.25176973185E+03  0.29355655668E+03  0.12500000000E+03 0.  0.
         25    1    1    2    0    0 -0.83744836591E+02 -0.48411956051E+02 -0.23654427127E+03  0.28449096192E+03  0.12500000000E+03 0.  0.
</event>
<event>
 5    0  0.5713700E-005  0.3715886E+03  0.7546771E-02  0.1054087E+00
         21   -1    0    0  502  501  0.00000000000E+00  0.00000000000E+00  0.51709032127E+03  0.51709032127E+03  0.00000000000E+00 0.  1.
         21   -1    0    0  501  502 -0.00000000000E+00 -0.00000000000E+00 -0.26702900009E+03  0.26702900009E+03  0.00000000000E+00 0.  1.
         25    1    1    2    0    0 -0.19069836880E+02  0.17102218771E+03 -0.11408458663E+03  0.24135563030E+03  0.12500000000E+03 0.  0.
         25    1    1    2    0    0 -0.30469028056E+02  0.28921043534E+02  0.23478771105E+03  0.26928620033E+03  0.12500000000E+03 0.  0.
         25    1    1    2    0    0  0.49538864936E+02 -0.19994323125E+03  0.12935819676E+03  0.27347749072E+03  0.12500000000E+03 0.  0.
</event>
<event>
 5    0  0.5713700E-005  0.2745748E+03  0.7546771E-02  0.1098689E+00
         21   -1    0    0  502  501  0.00000000000E+00  0.00000000000E+00  0.10917780857E+04  0.10917780857E+04  0.00000000000E+00 0.  1.
         21   -1    0    0  501  502 -0.00000000000E+00 -0.00000000000E+00 -0.69053718083E+02  0.69053718083E+02  0.00000000000E+00 0.  1.
         25    1    1    2    0    0 -0.24871547008E+02 -0.43486010108E+02  0.41161720611E+03  0.43308584749E+03  0.12500000000E+03 0.  0.
         25    1    1    2    0    0  0.55060568518E+02 -0.12297574086E+03  0.31132146184E+03  0.36152558921E+03  0.12500000000E+03 0.  0.
         25    1    1    2    0    0 -0.30189021510E+02  0.16646175097E+03  0.29978569971E+03  0.36622036713E+03  0.12500000000E+03 0.  0.
</event>
<event>
 5    0  0.5713700E-005  0.2838739E+03  0.7546771E-02  0.1093592E+00
         21   -1    0    0  502  501  0.00000000000E+00  0.00000000000E+00  0.22561597384E+03  0.22561597384E+03  0.00000000000E+00 0. -1.
         21   -1    0    0  501  502 -0.00000000000E+00 -0.00000000000E+00 -0.35717496943E+03  0.35717496943E+03  0.00000000000E+00 0. -1.
         25    1    1    2    0    0  0.11344355047E+02  0.11055093864E+03  0.72759077697E+02  0.18239815737E+03  0.12500000000E+03 0.  0.
         25    1    1    2    0    0 -0.61345091500E+02  0.28739355835E+02 -0.43679026654E+02  0.14873475786E+03  0.12500000000E+03 0.  0.
         25    1    1    2    0    0  0.50000736454E+02 -0.13929029447E+03 -0.16063904663E+03  0.25165802805E+03  0.12500000000E+03 0.  0.
</event>
<event>
 5    0  0.5713700E-005  0.5024873E+03  0.7546771E-02  0.1013132E+00
         21   -1    0    0  502  501  0.00000000000E+00  0.00000000000E+00  0.38720862682E+03  0.38720862682E+03  0.00000000000E+00 0. -1.
         21   -1    0    0  501  502 -0.00000000000E+00 -0.00000000000E+00 -0.65208639873E+03  0.65208639873E+03  0.00000000000E+00 0. -1.
         25    1    1    2    0    0  0.13174543819E+03  0.60358719046E+02 -0.12810817928E+03  0.23029707129E+03  0.12500000000E+03 0.  0.
         25    1    1    2    0    0 -0.38712270114E+03  0.68096761730E+01  0.11556857007E+03  0.42295561447E+03  0.12500000000E+03 0.  0.
         25    1    1    2    0    0  0.25537726295E+03 -0.67168395219E+02 -0.25233816270E+03  0.38604233978E+03  0.12500000000E+03 0.  0.
</event>
<event>
 5    0  0.5713700E-005  0.4605464E+03  0.7546771E-02  0.1024623E+00
         21   -1    0    0  502  501  0.00000000000E+00  0.00000000000E+00  0.51129943786E+03  0.51129943786E+03  0.00000000000E+00 0. -1.
         21   -1    0    0  501  502 -0.00000000000E+00 -0.00000000000E+00 -0.41483133648E+03  0.41483133648E+03  0.00000000000E+00 0. -1.
         25    1    1    2    0    0 -0.18555635222E+02  0.20962453347E+02 -0.18745001741E+03  0.22703798157E+03  0.12500000000E+03 0.  0.
         25    1    1    2    0    0 -0.12076584675E+03 -0.27107046693E+03  0.10293021137E+03  0.33805800714E+03  0.12500000000E+03 0.  0.
         25    1    1    2    0    0  0.13932148197E+03  0.25010801358E+03  0.18098790743E+03  0.36103478562E+03  0.12500000000E+03 0.  0.
</event>
<event>
 5    0  0.5713700E-005  0.2547272E+03  0.7546771E-02  0.1110353E+00
         21   -1    0    0  502  501  0.00000000000E+00  0.00000000000E+00  0.23033654404E+03  0.23033654404E+03  0.00000000000E+00 0. -1.
         21   -1    0    0  501  502 -0.00000000000E+00 -0.00000000000E+00 -0.28170053766E+03  0.28170053766E+03  0.00000000000E+00 0. -1.
         25    1    1    2    0    0  0.97792629230E+02  0.59527960592E+02 -0.63570030243E+01  0.16962425508E+03  0.12500000000E+03 0.  0.
         25    1    1    2    0    0  0.88802081149E+01  0.35790456799E+02  0.37028524123E+02  0.13548404516E+03  0.12500000000E+03 0.  0.
         25    1    1    2    0    0 -0.10667283734E+03 -0.95318417391E+02 -0.82035514719E+02  0.20692878146E+03  0.12500000000E+03 0.  0.
</event>
<event>
 5    0  0.5713700E-005  0.3860525E+03  0.7546771E-02  0.1048719E+00
         21   -1    0    0  502  501  0.00000000000E+00  0.00000000000E+00  0.10797202992E+04  0.10797202992E+04  0.00000000000E+00 0. -1.
         21   -1    0    0  501  502 -0.00000000000E+00 -0.00000000000E+00 -0.13803255633E+03  0.13803255633E+03  0.00000000000E+00 0. -1.
         25    1    1    2    0    0 -0.31408726645E+03 -0.49067976559E+02  0.52446088886E+03  0.62589352226E+03  0.12500000000E+03 0.  0.
         25    1    1    2    0    0  0.24006625333E+03  0.44957981592E+02  0.27841449033E+03  0.39088700992E+03  0.12500000000E+03 0.  0.
         25    1    1    2    0    0  0.74021013120E+02  0.41099949664E+01  0.13881236369E+03  0.20097232336E+03  0.12500000000E+03 0.  0.
</event>
<event>
 5    0  0.5713700E-005  0.3812594E+03  0.7546771E-02  0.1050469E+00
         21   -1    0    0  502  501  0.00000000000E+00  0.00000000000E+00  0.14407207141E+04  0.14407207141E+04  0.00000000000E+00 0.  1.
         21   -1    0    0  501  502 -0.00000000000E+00 -0.00000000000E+00 -0.10089306740E+03  0.10089306740E+03  0.00000000000E+00 0.  1.
         25    1    1    2    0    0  0.57368091269E+02  0.12550035982E+03  0.87874052469E+02  0.20588415993E+03  0.12500000000E+03 0.  0.
         25    1    1    2    0    0 -0.19667965794E+03  0.38428107868E+01  0.53559800414E+03  0.58411289755E+03  0.12500000000E+03 0.  0.
         25    1    1    2    0    0  0.13931156667E+03 -0.12934317061E+03  0.71635559004E+03  0.75161672399E+03  0.12500000000E+03 0.  0.
</event>
<event>
 5    0  0.5713700E-005  0.3879952E+03  0.7546771E-02  0.1048018E+00
         21   -1    0    0  502  501  0.00000000000E+00  0.00000000000E+00  0.19745385866E+04  0.19745385866E+04  0.00000000000E+00 0. -1.
         21   -1    0    0  501  502 -0.00000000000E+00 -0.00000000000E+00 -0.76240730238E+02  0.76240730238E+02  0.00000000000E+00 0. -1.
         25    1    1    2    0    0  0.11148015280E+03 -0.53188726504E+02  0.23764695700E+03  0.29556376853E+03  0.12500000000E+03 0.  0.
         25    1    1    2    0    0 -0.17162357831E+03 -0.10517113728E+02  0.21792347834E+03  0.30443538678E+03  0.12500000000E+03 0.  0.
         25    1    1    2    0    0  0.60143425516E+02  0.63705840232E+02  0.14427274210E+04  0.14507801615E+04  0.12500000000E+03 0.  0.
</event>
<event>
 5    0  0.5713700E-005  0.3080165E+03  0.7546771E-02  0.1081301E+00
         21   -1    0    0  502  501  0.00000000000E+00  0.00000000000E+00  0.18106969531E+03  0.18106969531E+03  0.00000000000E+00 0.  1.
         21   -1    0    0  501  502 -0.00000000000E+00 -0.00000000000E+00 -0.52396484316E+03  0.52396484316E+03  0.00000000000E+00 0.  1.
         25    1    1    2    0    0  0.34773460493E+02  0.10936554841E+03 -0.11516708731E+03  0.20508162944E+03  0.12500000000E+03 0.  0.
         25    1    1    2    0    0 -0.70859815337E+02  0.19656374206E+01 -0.28517698411E+03  0.31933663965E+03  0.12500000000E+03 0.  0.
         25    1    1    2    0    0  0.36086354844E+02 -0.11133118583E+03  0.57448923567E+02  0.18061626938E+03  0.12500000000E+03 0.  0.
</event>
<event>
 5    0  0.5713700E-005  0.3506038E+03  0.7546771E-02  0.1062367E+00
         21   -1    0    0  502  501  0.00000000000E+00  0.00000000000E+00  0.93606214317E+02  0.93606214317E+02  0.00000000000E+00 0.  1.
         21   -1    0    0  501  502 -0.00000000000E+00 -0.00000000000E+00 -0.13131928544E+04  0.13131928544E+04  0.00000000000E+00 0.  1.
         25    1    1    2    0    0  0.17894774044E+03 -0.44641885507E+01 -0.73797277570E+03  0.76959147634E+03  0.12500000000E+03 0.  0.
         25    1    1    2    0    0 -0.11784925932E+03  0.48823580333E+02 -0.55897817405E+02  0.18714100542E+03  0.12500000000E+03 0.  0.
         25    1    1    2    0    0 -0.61098481116E+02 -0.44359391782E+02 -0.42571604695E+03  0.45006658693E+03  0.12500000000E+03 0.  0.
</event>
<event>
 5    0  0.5713700E-005  0.3044773E+03  0.7546771E-02  0.1083024E+00
         21   -1    0    0  502  501  0.00000000000E+00  0.00000000000E+00  0.16199959651E+04  0.16199959651E+04  0.00000000000E+00 0.  1.
         21   -1    0    0  501  502 -0.00000000000E+00 -0.00000000000E+00 -0.57226319133E+02  0.57226319133E+02  0.00000000000E+00 0.  1.
         25    1    1    2    0    0  0.14915293346E+03 -0.11256703438E+03  0.60843084261E+03  0.64863782269E+03  0.12500000000E+03 0.  0.
         25    1    1    2    0    0 -0.11088756425E+03 -0.14851922126E+02  0.25068610348E+03  0.30163745453E+03  0.12500000000E+03 0.  0.
         25    1    1    2    0    0 -0.38265369215E+02  0.12741895651E+03  0.70365269983E+03  0.72694700697E+03  0.12500000000E+03 0.  0.
</event>
<event>
 5    0  0.6536422E-005  0.2815292E+03  0.7546771E-02  0.1094857E+00
         21   -1    0    0  502  501  0.00000000000E+00  0.00000000000E+00  0.14958587856E+03  0.14958587856E+03  0.00000000000E+00 0. -1.
         21   -1    0    0  501  502 -0.00000000000E+00 -0.00000000000E+00 -0.52985403237E+03  0.52985403237E+03  0.00000000000E+00 0. -1.
         25    1    1    2    0    0  0.14465216809E+03 -0.54304773703E+02 -0.55414988123E+02  0.20632275466E+03  0.12500000000E+03 0.  0.
         25    1    1    2    0    0 -0.11318007787E+03 -0.20572210425E+02 -0.83134343303E+02  0.18912764183E+03  0.12500000000E+03 0.  0.
         25    1    1    2    0    0 -0.31472090225E+02  0.74876984128E+02 -0.24171882239E+03  0.28398951444E+03  0.12500000000E+03 0.  0.
</event>
<event>
 5    0  0.5713700E-005  0.2511772E+03  0.7546771E-02  0.1112563E+00
         21   -1    0    0  502  501  0.00000000000E+00  0.00000000000E+00  0.70119519206E+02  0.70119519206E+02  0.00000000000E+00 0. -1.
         21   -1    0    0  501  502 -0.00000000000E+00 -0.00000000000E+00 -0.89974923169E+03  0.89974923169E+03  0.00000000000E+00 0. -1.
         25    1    1    2    0    0  0.12713948251E+02  0.67012697571E+02 -0.85477161628E+02  0.16608338651E+03  0.12500000000E+03 0.  0.
         25    1    1    2    0    0 -0.67601784152E+02 -0.41120182982E+02 -0.25024116905E+03  0.29070004017E+03  0.12500000000E+03 0.  0.
         25    1    1    2    0    0  0.54887835901E+02 -0.25892514589E+02 -0.49391138180E+03  0.51308532420E+03  0.12500000000E+03 0.  0.
</event>
<event>
 5    0  0.5713700E-005  0.3544571E+03  0.7546771E-02  0.1060800E+00
         21   -1    0    0  502  501  0.00000000000E+00  0.00000000000E+00  0.42991213826E+03  0.42991213826E+03  0.00000000000E+00 0. -1.
         21   -1    0    0  501  502 -0.00000000000E+00 -0.00000000000E+00 -0.29224539536E+03  0.29224539536E+03  0.00000000000E+00 0. -1.
         25    1    1    2    0    0 -0.26855996608E+03  0.71583319203E+01  0.17305416075E+03  0.34314492514E+03  0.12500000000E+03 0.  0.
         25    1    1    2    0    0  0.76538024693E+02 -0.68393906554E+01  0.26438269535E+01  0.14675434000E+03  0.12500000000E+03 0.  0.
         25    1    1    2    0    0  0.19202194138E+03 -0.31894126486E+00 -0.38031244796E+02  0.23225826848E+03  0.12500000000E+03 0.  0.
</event>
<event>
 5    0  0.5713700E-005  0.2698596E+03  0.7546771E-02  0.1101360E+00
         21   -1    0    0  502  501  0.00000000000E+00  0.00000000000E+00  0.33067781869E+03  0.33067781869E+03  0.00000000000E+00 0. -1.
         21   -1    0    0  501  502 -0.00000000000E+00 -0.00000000000E+00 -0.22022704919E+03  0.22022704919E+03  0.00000000000E+00 0. -1.
         25    1    1    2    0    0 -0.55546911065E+02 -0.49811835104E+02  0.97576029564E+02  0.17525056288E+03  0.12500000000E+03 0.  0.
         25    1    1    2    0    0 -0.12679517846E+02  0.11309181994E+03 -0.87445293057E+02  0.19032133140E+03  0.12500000000E+03 0.  0.
         25    1    1    2    0    0  0.68226428911E+02 -0.63279984831E+02  0.10032003299E+03  0.18533297359E+03  0.12500000000E+03 0.  0.
</event>
<event>
 5    0  0.5713700E-005  0.2725785E+03  0.7546771E-02  0.1099813E+00
         21   -1    0    0  502  501  0.00000000000E+00  0.00000000000E+00  0.84733194703E+02  0.84733194703E+02  0.00000000000E+00 0. -1.
         21   -1    0    0  501  502 -0.00000000000E+00 -0.00000000000E+00 -0.87685897372E+03  0.87685897372E+03  0.00000000000E+00 0. -1.
         25    1    1    2    0    0 -0.13310938191E+03 -0.32860423335E+01 -0.44305124571E+03  0.47921635193E+03  0.12500000000E+03 0.  0.
         25    1    1    2    0    0 -0.25052492871E+02 -0.58564105385E+01 -0.17003485895E+03  0.21260004281E+03  0.12500000000E+03 0.  0.
         25    1    1    2    0    0  0.15816187478E+03  0.91424528719E+01 -0.17903967436E+03  0.26977577369E+03  0.12500000000E+03 0.  0.
</event>
<event>
 5    0  0.5713700E-005  0.4224416E+03  0.7546771E-02  0.1036275E+00
         21   -1    0    0  502  501  0.00000000000E+00  0.00000000000E+00  0.13171258323E+04  0.13171258323E+04  0.00000000000E+00 0. -1.
         21   -1    0    0  501  502 -0.00000000000E+00 -0.00000000000E+00 -0.13548965202E+03  0.13548965202E+03  0.00000000000E+00 0. -1.
         25    1    1    2    0    0 -0.99613086927E+02 -0.31651922413E+03  0.64124996439E+03  0.73275760191E+03  0.12500000000E+03 0.  0.
         25    1    1    2    0    0 -0.32213794447E+02  0.30237813422E+02  0.19553625711E+03  0.23624453805E+03  0.12500000000E+03 0.  0.
         25    1    1    2    0    0  0.13182688137E+03  0.28628141070E+03  0.34484995877E+03  0.48361334435E+03  0.12500000000E+03 0.  0.
</event>
<event>
 5    0  0.5713700E-005  0.3326708E+03  0.7546771E-02  0.1069961E+00
         21   -1    0    0  502  501  0.00000000000E+00  0.00000000000E+00  0.29398188757E+03  0.29398188757E+03  0.00000000000E+00 0.  1.
         21   -1    0    0  501  502 -0.00000000000E+00 -0.00000000000E+00 -0.37645123994E+03  0.37645123994E+03  0.00000000000E+00 0.  1.
         25    1    1    2    0    0  0.17753848359E+02 -0.10110121641E+03  0.29127681512E+02  0.16434742749E+03  0.12500000000E+03 0.  0.
         25    1    1    2    0    0 -0.64123679735E+02 -0.67962542178E+02  0.11473575855E+03  0.19370092341E+03  0.12500000000E+03 0.  0.
         25    1    1    2    0    0  0.46369831377E+02  0.16906375859E+03 -0.22633279242E+03  0.31238477661E+03  0.12500000000E+03 0.  0.
</event>
<event>
 5    0  0.5713700E-005  0.2733964E+03  0.7546771E-02  0.1099351E+00
         21   -1    0    0  502  501  0.00000000000E+00  0.00000000000E+00  0.15600350093E+03  0.15600350093E+03  0.00000000000E+00 0. -1.
         21   -1    0    0  501  502 -0.00000000000E+00 -0.00000000000E+00 -0.47912781538E+03  0.47912781538E+03  0.00000000000E+00 0. -1.
         25    1    1    2    0    0  0.13261528250E+02  0.10047557142E+03 -0.62316643089E+02  0.17256758847E+03  0.12500000000E+03 0.  0.
         25    1    1    2    0    0 -0.98314695759E+01  0.89862320492E+02 -0.10792044590E+03  0.18826501821E+03  0.12500000000E+03 0.  0.
         25    1    1    2    0    0 -0.34300586741E+01 -0.19033789191E+03 -0.15288722546E+03  0.27429870964E+03  0.12500000000E+03 0.  0.
</event>
<event>
 5    0  0.5713700E-005  0.2757917E+03  0.7546771E-02  0.1098010E+00
         21   -1    0    0  502  501  0.00000000000E+00  0.00000000000E+00  0.96062374298E+02  0.96062374298E+02  0.00000000000E+00 0. -1.
         21   -1    0    0  501  502 -0.00000000000E+00 -0.00000000000E+00 -0.79178821055E+03  0.79178821055E+03  0.00000000000E+00 0. -1.
         25    1    1    2    0    0 -0.10179021036E+02  0.80206279374E+02 -0.98463213183E+01  0.14919319610E+03  0.12500000000E+03 0.  0.
         25    1    1    2    0    0 -0.25106872831E+02 -0.14160048139E+02 -0.30694053058E+03  0.33266853073E+03  0.12500000000E+03 0.  0.
         25    1    1    2    0    0  0.35285893866E+02 -0.66046231235E+02 -0.37893898435E+03  0.40598885801E+03  0.12500000000E+03 0.  0.
</event>
<event>
 5    0  0.5713700E-005  0.3788134E+03  0.7546771E-02  0.1051373E+00
         21   -1    0    0  502  501  0.00000000000E+00  0.00000000000E+00  0.21112359313E+04  0.21112359313E+04  0.00000000000E+00 0.  1.
         21   -1    0    0  501  502 -0.00000000000E+00 -0.00000000000E+00 -0.67969477484E+02  0.67969477484E+02  0.00000000000E+00 0.  1.
         25    1    1    2    0    0  0.60786975711E+02 -0.91305600267E+00  0.78669762460E+03  0.79888299684E+03  0.12500000000E+03 0.  0.
         25    1    1    2    0    0  0.45230639582E+02  0.24112883286E+03  0.51945761291E+03  0.58792017860E+03  0.12500000000E+03 0.  0.
         25    1    1    2    0    0 -0.10601761529E+03 -0.24021577686E+03  0.73711121629E+03  0.79240223333E+03  0.12500000000E+03 0.  0.
</event>
<event>
 5    0  0.5713700E-005  0.3922111E+03  0.7546771E-02  0.1046511E+00
         21   -1    0    0  502  501  0.00000000000E+00  0.00000000000E+00  0.19894692098E+03  0.19894692098E+03  0.00000000000E+00 0.  1.
         21   -1    0    0  501  502 -0.00000000000E+00 -0.00000000000E+00 -0.77321921956E+03  0.77321921956E+03  0.00000000000E+00 0.  1.
         25    1    1    2    0    0  0.17009109789E+03 -0.11372163122E+03 -0.24078320357E+03  0.33980162170E+03  0.12500000000E+03 0.  0.
         25    1    1    2    0    0 -0.30928924237E+03  0.88657307918E+02 -0.18126503443E+03  0.38987429564E+03  0.12500000000E+03 0.  0.
         25    1    1    2    0    0  0.13919814448E+03  0.25064323306E+02 -0.15222406057E+03  0.24249022320E+03  0.12500000000E+03 0.  0.
</event>
<event>
 5    0  0.5713700E-005  0.2753702E+03  0.7546771E-02  0.1098245E+00
         21   -1    0    0  502  501  0.00000000000E+00  0.00000000000E+00  0.34664651128E+02  0.34664651128E+02  0.00000000000E+00 0. -1.
         21   -1    0    0  501  502 -0.00000000000E+00 -0.00000000000E+00 -0.21874944089E+04  0.21874944089E+04  0.00000000000E+00 0. -1.
         25    1    1    2    0    0  0.78743698516E+02  0.10542274882E+03 -0.62810315291E+03  0.65379897271E+03  0.12500000000E+03 0.  0.
         25    1    1    2    0    0  0.48462883701E+02  0.29953061729E+02 -0.44750586780E+03  0.46811573218E+03  0.12500000000E+03 0.  0.
         25    1    1    2    0    0 -0.12720658222E+03 -0.13537581054E+03 -0.10772207371E+04  0.11002443552E+04  0.12500000000E+03 0.  0.
</event>
<event>
 5    0  0.5713700E-005  0.2196008E+03  0.7546771E-02  0.1134181E+00
         21   -1    0    0  502  501  0.00000000000E+00  0.00000000000E+00  0.15540022396E+03  0.15540022396E+03  0.00000000000E+00 0.  1.
         21   -1    0    0  501  502 -0.00000000000E+00 -0.00000000000E+00 -0.31032460732E+03  0.31032460732E+03  0.00000000000E+00 0.  1.
         25    1    1    2    0    0 -0.59946332536E+02 -0.33990787486E+02 -0.11001518728E+03  0.18021453285E+03  0.12500000000E+03 0.  0.
         25    1    1    2    0    0  0.69690960007E+02 -0.18409371945E+02 -0.39099354127E+02  0.14949747281E+03  0.12500000000E+03 0.  0.
         25    1    1    2    0    0 -0.97446274712E+01  0.52400159431E+02 -0.58098419538E+01  0.13601282563E+03  0.12500000000E+03 0.  0.
</event>
<event>
 5    0  0.5713700E-005  0.2330134E+03  0.7546771E-02  0.1124537E+00
         21   -1    0    0  502  501  0.00000000000E+00  0.00000000000E+00  0.11103318669E+03  0.11103318669E+03  0.00000000000E+00 0. -1.
         21   -1    0    0  501  502 -0.00000000000E+00 -0.00000000000E+00 -0.48900012368E+03  0.48900012368E+03  0.00000000000E+00 0. -1.
         25    1    1    2    0    0  0.39251935453E+02  0.58105931957E+02 -0.24695771772E+03  0.28553481067E+03  0.12500000000E+03 0.  0.
         25    1    1    2    0    0 -0.64312709688E+02  0.52190619601E+01 -0.87435989446E+02  0.16563035798E+03  0.12500000000E+03 0.  0.
         25    1    1    2    0    0  0.25060774234E+02 -0.63324993918E+02 -0.43573229827E+02  0.14886814171E+03  0.12500000000E+03 0.  0.
</event>
<event>
 5    0  0.5713700E-005  0.5056347E+03  0.7546771E-02  0.1012319E+00
         21   -1    0    0  502  501  0.00000000000E+00  0.00000000000E+00  0.32444531766E+03  0.32444531766E+03  0.00000000000E+00 0.  1.
         21   -1    0    0  501  502 -0.00000000000E+00 -0.00000000000E+00 -0.78801104155E+03  0.78801104155E+03  0.00000000000E+00 0. -1.
         25    1    1    2    0    0  0.26465805087E+03  0.33428591832E+02 -0.26088271808E+03  0.39350495198E+03  0.12500000000E+03 0.  0.
         25    1    1    2    0    0  0.66560662296E+01 -0.26667574069E+03 -0.16609372526E+03  0.33818985712E+03  0.12500000000E+03 0.  0.
         25    1    1    2    0    0 -0.27131411710E+03  0.23324714886E+03 -0.36589280562E+02  0.38076155011E+03  0.12500000000E+03 0.  0.
</event>
<event>
 5    0  0.5713700E-005  0.2663289E+03  0.7546771E-02  0.1103399E+00
         21   -1    0    0  502  501  0.00000000000E+00  0.00000000000E+00  0.29600111718E+03  0.29600111718E+03  0.00000000000E+00 0. -1.
         21   -1    0    0  501  502 -0.00000000000E+00 -0.00000000000E+00 -0.23963116424E+03  0.23963116424E+03  0.00000000000E+00 0. -1.
         25    1    1    2    0    0  0.41874513052E+02  0.50207617571E+02  0.34619919959E+01  0.14110728221E+03  0.12500000000E+03 0.  0.
         25    1    1    2    0    0  0.12591444828E+03 -0.36375612934E+02  0.30102374536E+02  0.18359952738E+03  0.12500000000E+03 0.  0.
         25    1    1    2    0    0 -0.16778896133E+03 -0.13832004637E+02  0.22805586408E+02  0.21092547183E+03  0.12500000000E+03 0.  0.
</event>
<event>
 5    0  0.5713700E-005  0.3016382E+03  0.7546771E-02  0.1084425E+00
         21   -1    0    0  502  501  0.00000000000E+00  0.00000000000E+00  0.18422716037E+03  0.18422716037E+03  0.00000000000E+00 0.  1.
         21   -1    0    0  501  502 -0.00000000000E+00 -0.00000000000E+00 -0.49387716644E+03  0.49387716644E+03  0.00000000000E+00 0.  1.
         25    1    1    2    0    0  0.18043262819E+02  0.19548774757E+02 -0.86931856534E+01  0.12809482973E+03  0.12500000000E+03 0.  0.
         25    1    1    2    0    0  0.43991059759E+02 -0.11347630365E+03 -0.33562526130E+03  0.37826102211E+03  0.12500000000E+03 0.  0.
         25    1    1    2    0    0 -0.62034322578E+02  0.93927528890E+02  0.34668440883E+02  0.17174847497E+03  0.12500000000E+03 0.  0.
</event>
<event>
 5    0  0.5713700E-005  0.2547548E+03  0.7546771E-02  0.1110336E+00
         21   -1    0    0  502  501  0.00000000000E+00  0.00000000000E+00  0.66736615866E+02  0.66736615866E+02  0.00000000000E+00 0. -1.
         21   -1    0    0  501  502 -0.00000000000E+00 -0.00000000000E+00 -0.97247973430E+03  0.97247973430E+03  0.00000000000E+00 0. -1.
         25    1    1    2    0    0  0.16646161985E+02  0.31030738934E+02 -0.19038736731E+03  0.23046117048E+03  0.12500000000E+03 0.  0.
         25    1    1    2    0    0  0.81452334069E+02  0.86139128233E+02 -0.25378741795E+03  0.30673683452E+03  0.12500000000E+03 0.  0.
         25    1    1    2    0    0 -0.98098496054E+02 -0.11716986717E+03 -0.46156833318E+03  0.50201834517E+03  0.12500000000E+03 0.  0.
</event>
<event>
 5    0  0.5713700E-005  0.2887895E+03  0.7546771E-02  0.1090983E+00
         21   -1    0    0  502  501  0.00000000000E+00  0.00000000000E+00  0.77000691469E+02  0.77000691469E+02  0.00000000000E+00 0. -1.
         21   -1    0    0  501  502 -0.00000000000E+00 -0.00000000000E+00 -0.10830989890E+04  0.10830989890E+04  0.00000000000E+00 0. -1.
         25    1    1    2    0    0 -0.18868917798E+03 -0.20526095072E+01 -0.51195405105E+03  0.55975867076E+03  0.12500000000E+03 0.  0.
         25    1    1    2    0    0  0.17292986777E+03  0.13641911437E+02 -0.32731996282E+03  0.39096572609E+03  0.12500000000E+03 0.  0.
         25    1    1    2    0    0  0.15759310218E+02 -0.11589301930E+02 -0.16682428366E+03  0.20937528364E+03  0.12500000000E+03 0.  0.
</event>
<event>
 5    0  0.5713700E-005  0.4082551E+03  0.7546771E-02  0.1040958E+00
         21   -1    0    0  502  501  0.00000000000E+00  0.00000000000E+00  0.20118344622E+03  0.20118344622E+03  0.00000000000E+00 0. -1.
         21   -1    0    0  501  502 -0.00000000000E+00 -0.00000000000E+00 -0.82845901645E+03  0.82845901645E+03  0.00000000000E+00 0. -1.
         25    1    1    2    0    0 -0.68567264023E+02  0.28234580343E+03 -0.47962333541E+03  0.57452951733E+03  0.12500000000E+03 0.  0.
         25    1    1    2    0    0 -0.34986529744E+02 -0.45845274239E+02 -0.13121975389E+02  0.13828605379E+03  0.12500000000E+03 0.  0.
         25    1    1    2    0    0  0.10355379377E+03 -0.23650052920E+03 -0.13453025943E+03  0.31682689156E+03  0.12500000000E+03 0.  0.
</event>
<event>
 5    0  0.5713700E-005  0.3624670E+03  0.7546771E-02  0.1057611E+00
         21   -1    0    0  502  501  0.00000000000E+00  0.00000000000E+00  0.30701072162E+03  0.30701072162E+03  0.00000000000E+00 0. -1.
         21   -1    0    0  501  502 -0.00000000000E+00 -0.00000000000E+00 -0.42794062814E+03  0.42794062814E+03  0.00000000000E+00 0. -1.
         25    1    1    2    0    0 -0.17346858812E+03 -0.77391294141E+02 -0.27169651493E+03  0.35429473564E+03  0.12500000000E+03 0.  0.
         25    1    1    2    0    0  0.13596931992E+02  0.36040715612E+02  0.11983520619E+02  0.13134844692E+03  0.12500000000E+03 0.  0.
         25    1    1    2    0    0  0.15987165613E+03  0.41350578529E+02  0.13878308779E+03  0.24930816720E+03  0.12500000000E+03 0.  0.
</event>
<event>
 5    0  0.5713700E-005  0.3070918E+03  0.7546771E-02  0.1081748E+00
         21   -1    0    0  502  501  0.00000000000E+00  0.00000000000E+00  0.14996444930E+04  0.14996444930E+04  0.00000000000E+00 0.  1.
         21   -1    0    0  501  502 -0.00000000000E+00 -0.00000000000E+00 -0.62885142672E+02  0.62885142672E+02  0.00000000000E+00 0.  1.
         25    1    1    2    0    0  0.96235697134E+02 -0.88719669133E+02  0.79295114200E+03  0.81334433219E+03  0.12500000000E+03 0.  0.
         25    1    1    2    0    0 -0.53054337833E+02 -0.23179287145E+02  0.79865716607E+02  0.15923433928E+03  0.12500000000E+03 0.  0.
         25    1    1    2    0    0 -0.43181359302E+02  0.11189895628E+03  0.56394249168E+03  0.58995096418E+03  0.12500000000E+03 0.  0.
</event>
<event>
 5    0  0.5713700E-005  0.3850364E+03  0.7546771E-02  0.1049088E+00
         21   -1    0    0  502  501  0.00000000000E+00  0.00000000000E+00  0.43380795834E+03  0.43380795834E+03  0.00000000000E+00 0. -1.
         21   -1    0    0  501  502 -0.00000000000E+00 -0.00000000000E+00 -0.34174811902E+03  0.34174811902E+03  0.00000000000E+00 0. -1.
         25    1    1    2    0    0  0.84443882283E+02  0.12969931715E+02 -0.17109628263E+02  0.15237036379E+03  0.12500000000E+03 0.  0.
         25    1    1    2    0    0  0.10976530183E+03 -0.13135585131E+03  0.25011555019E+03  0.32784991933E+03  0.12500000000E+03 0.  0.
         25    1    1    2    0    0 -0.19420918412E+03  0.11838591959E+03 -0.14094608260E+03  0.29533579423E+03  0.12500000000E+03 0.  0.
</event>
<event>
 5    0  0.5713700E-005  0.3034085E+03  0.7546771E-02  0.1083549E+00
         21   -1    0    0  502  501  0.00000000000E+00  0.00000000000E+00  0.69395724690E+03  0.69395724690E+03  0.00000000000E+00 0.  1.
         21   -1    0    0  501  502 -0.00000000000E+00 -0.00000000000E+00 -0.13265475683E+03  0.13265475683E+03  0.00000000000E+00 0.  1.
         25    1    1    2    0    0 -0.45526997738E+00  0.29227338320E+02  0.77753580566E+02  0.15008352297E+03  0.12500000000E+03 0.  0.
         25    1    1    2    0    0  0.19033794091E+03  0.48362810837E+02  0.22952955035E+03  0.32691942082E+03  0.12500000000E+03 0.  0.
         25    1    1    2    0    0 -0.18988267093E+03 -0.77590149156E+02  0.25401935915E+03  0.34960905994E+03  0.12500000000E+03 0.  0.
</event>
<event>
 5    0  0.5713700E-005  0.2807512E+03  0.7546771E-02  0.1095279E+00
         21   -1    0    0  502  501  0.00000000000E+00  0.00000000000E+00  0.17081770811E+03  0.17081770811E+03  0.00000000000E+00 0.  1.
         21   -1    0    0  501  502 -0.00000000000E+00 -0.00000000000E+00 -0.46143468772E+03  0.46143468772E+03  0.00000000000E+00 0. -1.
         25    1    1    2    0    0 -0.79126859182E+02  0.14089210037E+03 -0.27679801599E+02  0.20616210905E+03  0.12500000000E+03 0.  0.
         25    1    1    2    0    0  0.10620833370E+03 -0.12073652077E+03 -0.18378685538E+03  0.27433579024E+03  0.12500000000E+03 0.  0.
         25    1    1    2    0    0 -0.27081474517E+02 -0.20155579600E+02 -0.79150322628E+02  0.15175449655E+03  0.12500000000E+03 0.  0.
</event>
<event>
 5    0  0.5713700E-005  0.3700464E+03  0.7546771E-02  0.1054675E+00
         21   -1    0    0  502  501  0.00000000000E+00  0.00000000000E+00  0.49239056442E+03  0.49239056442E+03  0.00000000000E+00 0.  1.
         21   -1    0    0  501  502 -0.00000000000E+00 -0.00000000000E+00 -0.27810102738E+03  0.27810102738E+03  0.00000000000E+00 0.  1.
         25    1    1    2    0    0 -0.53860518183E+00 -0.69599811121E+02 -0.16226927649E+03  0.21633479123E+03  0.12500000000E+03 0.  0.
         25    1    1    2    0    0 -0.14163467550E+03 -0.40766562324E+01  0.25516388687E+03  0.31750686543E+03  0.12500000000E+03 0.  0.
         25    1    1    2    0    0  0.14217328068E+03  0.73676467353E+02  0.12139492666E+03  0.23664993514E+03  0.12500000000E+03 0.  0.
</event>
<event>
 5    0  0.6075943E-005  0.3052357E+03  0.7546771E-02  0.1082652E+00
         21   -1    0    0  502  501  0.00000000000E+00  0.00000000000E+00  0.25004822374E+03  0.25004822374E+03  0.00000000000E+00 0.  1.
         21   -1    0    0  501  502 -0.00000000000E+00 -0.00000000000E+00 -0.37260334998E+03  0.37260334998E+03  0.00000000000E+00 0.  1.
         25    1    1    2    0    0  0.18742797971E+02  0.46348347902E+02  0.69746017815E+02  0.15162113583E+03  0.12500000000E+03 0.  0.
         25    1    1    2    0    0 -0.16102547334E+03 -0.20464193805E+02 -0.19066900593E+03  0.27987078468E+03  0.12500000000E+03 0.  0.
         25    1    1    2    0    0  0.14228267537E+03 -0.25884154096E+02 -0.16321381221E+01  0.19115965322E+03  0.12500000000E+03 0.  0.
</event>
<event>
 5    0  0.5713700E-005  0.3884818E+03  0.7546771E-02  0.1047843E+00
         21   -1    0    0  502  501  0.00000000000E+00  0.00000000000E+00  0.12194267803E+04  0.12194267803E+04  0.00000000000E+00 0. -1.
         21   -1    0    0  501  502 -0.00000000000E+00 -0.00000000000E+00 -0.12376150140E+03  0.12376150140E+03  0.00000000000E+00 0. -1.
         25    1    1    2    0    0 -0.27552727982E+03  0.11333613055E+03  0.27796075685E+03  0.42620129371E+03  0.12500000000E+03 0.  0.
         25    1    1    2    0    0  0.84177249979E+02  0.12647211329E+02  0.35260623564E+03  0.38366902244E+03  0.12500000000E+03 0.  0.
         25    1    1    2    0    0  0.19135002984E+03 -0.12598334188E+03  0.46509828639E+03  0.53331796553E+03  0.12500000000E+03 0.  0.
</event>
<event>
 5    0  0.5713700E-005  0.2358006E+03  0.7546771E-02  0.1122622E+00
         21   -1    0    0  502  501  0.00000000000E+00  0.00000000000E+00  0.92958817315E+02  0.92958817315E+02  0.00000000000E+00 0. -1.
         21   -1    0    0  501  502 -0.00000000000E+00 -0.00000000000E+00 -0.59813479886E+03  0.59813479886E+03  0.00000000000E+00 0. -1.
         25    1    1    2    0    0 -0.53618592431E+02  0.75667185284E+02 -0.15377126535E+03  0.21879460329E+03  0.12500000000E+03 0.  0.
         25    1    1    2    0    0  0.31152080346E+02 -0.46844663898E+02 -0.30440590619E+03  0.33384551872E+03  0.12500000000E+03 0.  0.
         25    1    1    2    0    0  0.22466512085E+02 -0.28822521386E+02 -0.46998810008E+02  0.13845349416E+03  0.12500000000E+03 0.  0.
</event>
<event>
 5    0  0.5713700E-005  0.3674079E+03  0.7546771E-02  0.1055689E+00
         21   -1    0    0  502  501  0.00000000000E+00  0.00000000000E+00  0.14650180898E+04  0.14650180898E+04  0.00000000000E+00 0. -1.
         21   -1    0    0  501  502 -0.00000000000E+00 -0.00000000000E+00 -0.92141207417E+02  0.92141207417E+02  0.00000000000E+00 0. -1.
         25    1    1    2    0    0  0.11885784121E+03  0.11367388916E+03  0.51816760334E+03  0.55782757608E+03  0.12500000000E+03 0.  0.
         25    1    1    2    0    0 -0.27441584870E+03 -0.67905494844E+02  0.45222660186E+03  0.54776739012E+03  0.12500000000E+03 0.  0.
         25    1    1    2    0    0  0.15555800748E+03 -0.45768394312E+02  0.40248267720E+03  0.45156433103E+03  0.12500000000E+03 0.  0.
</event>
<event>
 5    0  0.5713700E-005  0.4653124E+03  0.7546771E-02  0.1023252E+00
         21   -1    0    0  502  501  0.00000000000E+00  0.00000000000E+00  0.12516385626E+04  0.12516385626E+04  0.00000000000E+00 0.  1.
         21   -1    0    0  501  502 -0.00000000000E+00 -0.00000000000E+00 -0.17298574624E+03  0.17298574624E+03  0.00000000000E+00 0.  1.
         25    1    1    2    0    0 -0.16522370974E+03 -0.29750580856E+03  0.15988701743E+03  0.39622902308E+03  0.12500000000E+03 0.  0.
         25    1    1    2    0    0  0.72672391428E+02  0.83001093213E+02  0.54720877932E+03  0.57204274850E+03  0.12500000000E+03 0.  0.
         25    1    1    2    0    0  0.92551318315E+02  0.21450471535E+03  0.37155701957E+03  0.45635253721E+03  0.12500000000E+03 0.  0.
</event>
<event>
 5    0  0.5713700E-005  0.3143196E+03  0.7546771E-02  0.1078294E+00
         21   -1    0    0  502  501  0.00000000000E+00  0.00000000000E+00  0.96630380079E+02  0.96630380079E+02  0.00000000000E+00 0. -1.
         21   -1    0    0  501  502 -0.00000000000E+00 -0.00000000000E+00 -0.10224197852E+04  0.10224197852E+04  0.00000000000E+00 0. -1.
         25    1    1    2    0    0 -0.79092966521E+01 -0.18554697440E+02 -0.43908469263E+03  0.45697614934E+03  0.12500000000E+03 0.  0.
         25    1    1    2    0    0 -0.81911577626E+02 -0.91783943642E+02 -0.44379424841E+02  0.18090973498E+03  0.12500000000E+03 0.  0.
         25    1    1    2    0    0  0.89820874279E+02  0.11033864108E+03 -0.44232528766E+03  0.48116428096E+03  0.12500000000E+03 0.  0.
</event>
<event>
 5    0  0.5713700E-005  0.2812631E+03  0.7546771E-02  0.1095001E+00
         21   -1    0    0  502  501  0.00000000000E+00  0.00000000000E+00  0.22266702498E+04  0.22266702498E+04  0.00000000000E+00 0. -1.
         21   -1    0    0  501  502 -0.00000000000E+00 -0.00000000000E+00 -0.35527917476E+02  0.35527917476E+02  0.00000000000E+00 0. -1.
         25    1    1    2    0    0 -0.55607631787E+02  0.86492523455E+02  0.11785216379E+04  0.11895845562E+04  0.12500000000E+03 0.  0.
         25    1    1    2    0    0  0.61663779119E+02 -0.14608515136E+03  0.73620309503E+03  0.76338934380E+03  0.12500000000E+03 0.  0.
         25    1    1    2    0    0 -0.60561473323E+01  0.59592627903E+02  0.27641759939E+03  0.30922426728E+03  0.12500000000E+03 0.  0.
</event>
<event>
 5    0  0.5713700E-005  0.4249313E+03  0.7546771E-02  0.1035473E+00
         21   -1    0    0  502  501  0.00000000000E+00  0.00000000000E+00  0.17258418499E+03  0.17258418499E+03  0.00000000000E+00 0. -1.
         21   -1    0    0  501  502 -0.00000000000E+00 -0.00000000000E+00 -0.10462525052E+04  0.10462525052E+04  0.00000000000E+00 0. -1.
         25    1    1    2    0    0  0.32545161484E+02 -0.57770503421E+02 -0.15636691635E+03  0.21088440229E+03  0.12500000000E+03 0.  0.
         25    1    1    2    0    0 -0.21902099685E+03  0.20610163134E+03 -0.11008627642E+03  0.34379073250E+03  0.12500000000E+03 0.  0.
         25    1    1    2    0    0  0.18647583537E+03 -0.14833112792E+03 -0.60721512747E+03  0.66416155543E+03  0.12500000000E+03 0.  0.
</event>
<event>
 5    0  0.5713700E-005  0.2195790E+03  0.7546771E-02  0.1134197E+00
         21   -1    0    0  502  501  0.00000000000E+00  0.00000000000E+00  0.49176811651E+03  0.49176811651E+03  0.00000000000E+00 0. -1.
         21   -1    0    0  501  502 -0.00000000000E+00 -0.00000000000E+00 -0.98044009971E+02  0.98044009971E+02  0.00000000000E+00 0. -1.
         25    1    1    2    0    0 -0.67535240554E+02  0.35621999585E+02  0.14334645801E+03  0.20494668232E+03  0.12500000000E+03 0.  0.
         25    1    1    2    0    0  0.27276559572E+02  0.46736973526E+02  0.10078373002E+03  0.16944236670E+03  0.12500000000E+03 0.  0.
         25    1    1    2    0    0  0.40258680982E+02 -0.82358973111E+02  0.14959391851E+03  0.21542307746E+03  0.12500000000E+03 0.  0.
</event>
<event>
 5    0  0.5713700E-005  0.3135531E+03  0.7546771E-02  0.1078655E+00
         21   -1    0    0  502  501  0.00000000000E+00  0.00000000000E+00  0.57242466933E+02  0.57242466933E+02  0.00000000000E+00 0.  1.
         21   -1    0    0  501  502 -0.00000000000E+00 -0.00000000000E+00 -0.17175280140E+04  0.17175280140E+04  0.00000000000E+00 0.  1.
         25    1    1    2    0    0 -0.58028994758E+01  0.85354219871E+02 -0.67281984257E+03  0.68965974005E+03  0.12500000000E+03 0.  0.
         25    1    1    2    0    0  0.22699192890E+02 -0.26215259658E+02 -0.52693782458E+02  0.14001474175E+03  0.12500000000E+03 0.  0.
         25    1    1    2    0    0 -0.16896293414E+02 -0.59138960214E+02 -0.93477192207E+03  0.94509599917E+03  0.12500000000E+03 0.  0.
</event>
<event>
 5    0  0.5713700E-005  0.2735893E+03  0.7546771E-02  0.1099243E+00
         21   -1    0    0  502  501  0.00000000000E+00  0.00000000000E+00  0.29543583369E+03  0.29543583369E+03  0.00000000000E+00 0. -1.
         21   -1    0    0  501  502 -0.00000000000E+00 -0.00000000000E+00 -0.25335830427E+03  0.25335830427E+03  0.00000000000E+00 0. -1.
         25    1    1    2    0    0 -0.18329631876E+02 -0.10270926723E+03 -0.52768955843E+02  0.17115703807E+03  0.12500000000E+03 0.  0.
         25    1    1    2    0    0 -0.28144748627E+02 -0.62739724723E+02 -0.51985226310E+01  0.14276002442E+03  0.12500000000E+03 0.  0.
         25    1    1    2    0    0  0.46474380503E+02  0.16544899195E+03  0.10004500789E+03  0.23487707548E+03  0.12500000000E+03 0.  0.
</event>
<event>
 5    0  0.5713700E-005  0.2469747E+03  0.7546771E-02  0.1115232E+00
         21   -1    0    0  502  501  0.00000000000E+00  0.00000000000E+00  0.39897157779E+02  0.39897157779E+02  0.00000000000E+00 0. -1.
         21   -1    0    0  501  502 -0.00000000000E+00 -0.00000000000E+00 -0.15288436927E+04  0.15288436927E+04  0.00000000000E+00 0. -1.
         25    1    1    2    0    0 -0.11031393510E+03  0.95206854619E+02 -0.44648233705E+03  0.48600924553E+03  0.12500000000E+03 0.  0.
         25    1    1    2    0    0  0.42124365593E+02 -0.27402815133E+02 -0.46608196847E+03  0.48516263025E+03  0.12500000000E+03 0.  0.
         25    1    1    2    0    0  0.68189569506E+02 -0.67804039486E+02 -0.57638222943E+03  0.59756897474E+03  0.12500000000E+03 0.  0.
</event>
<event>
 5    0  0.5713700E-005  0.4241492E+03  0.7546771E-02  0.1035724E+00
         21   -1    0    0  502  501  0.00000000000E+00  0.00000000000E+00  0.10877655167E+04  0.10877655167E+04  0.00000000000E+00 0.  1.
         21   -1    0    0  501  502 -0.00000000000E+00 -0.00000000000E+00 -0.16538725543E+03  0.16538725543E+03  0.00000000000E+00 0.  1.
         25    1    1    2    0    0 -0.94940083476E+02 -0.43139433732E+02  0.11143951462E+02  0.16316806626E+03  0.12500000000E+03 0.  0.
         25    1    1    2    0    0  0.11734897043E+03  0.16006078391E+03  0.88478878643E+03  0.91535044218E+03  0.12500000000E+03 0.  0.
         25    1    1    2    0    0 -0.22408886952E+02 -0.11692135017E+03  0.26445523350E+02  0.17463426367E+03  0.12500000000E+03 0.  0.
</event>
<event>
 5    0  0.5713700E-005  0.2545350E+03  0.7546771E-02  0.1110472E+00
         21   -1    0    0  502  501  0.00000000000E+00  0.00000000000E+00  0.12151263644E+03  0.12151263644E+03  0.00000000000E+00 0. -1.
         21   -1    0    0  501  502 -0.00000000000E+00 -0.00000000000E+00 -0.53317948952E+03  0.53317948952E+03  0.00000000000E+00 0. -1.
         25    1    1    2    0    0  0.20032387461E+02 -0.44810677776E+02 -0.25575699121E+03  0.28887009527E+03  0.12500000000E+03 0.  0.
         25    1    1    2    0    0 -0.62582727222E+01  0.69172410419E+02 -0.18563136855E+03  0.23432454701E+03  0.12500000000E+03 0.  0.
         25    1    1    2    0    0 -0.13774114739E+02 -0.24361732643E+02  0.29721506676E+02  0.13149748368E+03  0.12500000000E+03 0.  0.
</event>
<event>
 5    0  0.5713700E-005  0.3318777E+03  0.7546771E-02  0.1070309E+00
         21   -1    0    0  502  501  0.00000000000E+00  0.00000000000E+00  0.40559077441E+03  0.40559077441E+03  0.00000000000E+00 0.  1.
         21   -1    0    0  501  502 -0.00000000000E+00 -0.00000000000E+00 -0.27156140671E+03  0.27156140671E+03  0.00000000000E+00 0.  1.
         25    1    1    2    0    0  0.18089518278E+03 -0.12147957202E+03  0.13486622401E+03  0.28512146877E+03  0.12500000000E+03 0.  0.
         25    1    1    2    0    0 -0.14199890217E+03  0.53369669757E+02 -0.93616603977E+02  0.21771788720E+03  0.12500000000E+03 0.  0.
         25    1    1    2    0    0 -0.38896280608E+02  0.68109902266E+02  0.92779747667E+02  0.17431282514E+03  0.12500000000E+03 0.  0.
</event>
<event>
 5    0  0.5713700E-005  0.2260155E+03  0.7546771E-02  0.1129476E+00
         21   -1    0    0  502  501  0.00000000000E+00  0.00000000000E+00  0.47500573108E+02  0.47500573108E+02  0.00000000000E+00 0. -1.
         21   -1    0    0  501  502 -0.00000000000E+00 -0.00000000000E+00 -0.10754183513E+04  0.10754183513E+04  0.00000000000E+00 0. -1.
         25    1    1    2    0    0  0.21992792228E+02 -0.83729592333E+02 -0.35088316671E+03  0.38241119782E+03  0.12500000000E+03 0.  0.
         25    1    1    2    0    0  0.18904989268E+02  0.27847281943E+02 -0.47973635266E+03  0.49689519800E+03  0.12500000000E+03 0.  0.
         25    1    1    2    0    0 -0.40897781496E+02  0.55882310390E+02 -0.19729825880E+03  0.24361252856E+03  0.12500000000E+03 0.  0.
</event>
<event>
 5    0  0.5713700E-005  0.3373145E+03  0.7546771E-02  0.1067946E+00
         21   -1    0    0  502  501  0.00000000000E+00  0.00000000000E+00  0.74114745333E+02  0.74114745333E+02  0.00000000000E+00 0.  1.
         21   -1    0    0  501  502 -0.00000000000E+00 -0.00000000000E+00 -0.15352015487E+04  0.15352015487E+04  0.00000000000E+00 0.  1.
         25    1    1    2    0    0 -0.92646309313E+02 -0.15313827741E+03 -0.55203963531E+03  0.59363914089E+03  0.12500000000E+03 0.  0.
         25    1    1    2    0    0 -0.10207287996E+03  0.14172982444E+03 -0.52397792464E+03  0.56628975045E+03  0.12500000000E+03 0.  0.
         25    1    1    2    0    0  0.19471918927E+03  0.11408452962E+02 -0.38506924339E+03  0.44938740267E+03  0.12500000000E+03 0.  0.
</event>
<event>
 5    0  0.5713700E-005  0.2666092E+03  0.7546771E-02  0.1103236E+00
         21   -1    0    0  502  501  0.00000000000E+00  0.00000000000E+00  0.25953381065E+03  0.25953381065E+03  0.00000000000E+00 0. -1.
         21   -1    0    0  501  502 -0.00000000000E+00 -0.00000000000E+00 -0.27387749526E+03  0.27387749526E+03  0.00000000000E+00 0. -1.
         25    1    1    2    0    0  0.92362176050E+02 -0.98270920187E+02 -0.85832523581E+02  0.20292897138E+03  0.12500000000E+03 0.  0.
         25    1    1    2    0    0 -0.19384742354E+02  0.11483909589E+03  0.65411828916E+01  0.17097243419E+03  0.12500000000E+03 0.  0.
         25    1    1    2    0    0 -0.72977433696E+02 -0.16568175699E+02  0.64947656077E+02  0.15950990033E+03  0.12500000000E+03 0.  0.
</event>
<event>
 5    0  0.5713700E-005  0.3478278E+03  0.7546771E-02  0.1063510E+00
         21   -1    0    0  502  501  0.00000000000E+00  0.00000000000E+00  0.20600056793E+03  0.20600056793E+03  0.00000000000E+00 0.  1.
         21   -1    0    0  501  502 -0.00000000000E+00 -0.00000000000E+00 -0.58730035092E+03  0.58730035092E+03  0.00000000000E+00 0.  1.
         25    1    1    2    0    0  0.11652662000E+03 -0.91042470882E+02 -0.47369825946E+02  0.19933912081E+03  0.12500000000E+03 0.  0.
         25    1    1    2    0    0  0.48176849742E+02 -0.11450049903E+03 -0.21772658556E+03  0.28010933435E+03  0.12500000000E+03 0.  0.
         25    1    1    2    0    0 -0.16470346975E+03  0.20554296991E+03 -0.11620337148E+03  0.31385246370E+03  0.12500000000E+03 0.  0.
</event>
<event>
 5    0  0.5713700E-005  0.3162201E+03  0.7546771E-02  0.1077402E+00
         21   -1    0    0  502  501  0.00000000000E+00  0.00000000000E+00  0.34901304216E+03  0.34901304216E+03  0.00000000000E+00 0.  1.
         21   -1    0    0  501  502 -0.00000000000E+00 -0.00000000000E+00 -0.28650826962E+03  0.28650826962E+03  0.00000000000E+00 0.  1.
         25    1    1    2    0    0 -0.85369530968E+02 -0.10191722845E+03 -0.11446590997E+03  0.21541244815E+03  0.12500000000E+03 0.  0.
         25    1    1    2    0    0  0.13445934862E+03  0.12494537440E+03  0.37657471075E+02  0.22524153290E+03  0.12500000000E+03 0.  0.
         25    1    1    2    0    0 -0.49089817656E+02 -0.23028145958E+02  0.13931321143E+03  0.19486733072E+03  0.12500000000E+03 0.  0.
</event>
<event>
 5    0  0.5713700E-005  0.2260363E+03  0.7546771E-02  0.1129461E+00
         21   -1    0    0  502  501  0.00000000000E+00  0.00000000000E+00  0.11857617833E+04  0.11857617833E+04  0.00000000000E+00 0.  1.
         21   -1    0    0  501  502 -0.00000000000E+00 -0.00000000000E+00 -0.43088273116E+02  0.43088273116E+02  0.00000000000E+00 0.  1.
         25    1    1    2    0    0  0.85860937897E+02 -0.65330329372E+01  0.51254782971E+03  0.53455126875E+03  0.12500000000E+03 0.  0.
         25    1    1    2    0    0 -0.23607366576E+02  0.34974484645E+02  0.42134362428E+03  0.44151553999E+03  0.12500000000E+03 0.  0.
         25    1    1    2    0    0 -0.62253571321E+02 -0.28441451707E+02  0.20878205618E+03  0.25278324766E+03  0.12500000000E+03 0.  0.
</event>
<event>
 5    0  0.5713700E-005  0.4112589E+03  0.7546771E-02  0.1039949E+00
         21   -1    0    0  502  501  0.00000000000E+00  0.00000000000E+00  0.20360848814E+03  0.20360848814E+03  0.00000000000E+00 0. -1.
         21   -1    0    0  501  502 -0.00000000000E+00 -0.00000000000E+00 -0.83068187888E+03  0.83068187888E+03  0.00000000000E+00 0. -1.
         25    1    1    2    0    0  0.22538416577E+03  0.12422408081E+03 -0.39632713721E+02  0.28883454854E+03  0.12500000000E+03 0.  0.
         25    1    1    2    0    0 -0.18173579340E+03  0.52753968084E+02 -0.37884490488E+03  0.44154200446E+03  0.12500000000E+03 0.  0.
         25    1    1    2    0    0 -0.43648372375E+02 -0.17697804889E+03 -0.20859577213E+03  0.30391381402E+03  0.12500000000E+03 0.  0.
</event>
<event>
 5    0  0.5713700E-005  0.4442612E+03  0.7546771E-02  0.1029447E+00
         21   -1    0    0  502  501  0.00000000000E+00  0.00000000000E+00  0.23621723413E+03  0.23621723413E+03  0.00000000000E+00 0. -1.
         21   -1    0    0  501  502 -0.00000000000E+00 -0.00000000000E+00 -0.83553593477E+03  0.83553593477E+03  0.00000000000E+00 0. -1.
         25    1    1    2    0    0 -0.74034419751E+02  0.10329298420E+03 -0.38339280065E+03  0.42280678268E+03  0.12500000000E+03 0.  0.
         25    1    1    2    0    0 -0.17509316197E+03  0.10123807844E+03 -0.18611234982E+03  0.30194299238E+03  0.12500000000E+03 0.  0.
         25    1    1    2    0    0  0.24912758172E+03 -0.20453106264E+03 -0.29813550178E+02  0.34700339383E+03  0.12500000000E+03 0.  0.
</event>
<event>
 5    0  0.5713700E-005  0.2819703E+03  0.7546771E-02  0.1094618E+00
         21   -1    0    0  502  501  0.00000000000E+00  0.00000000000E+00  0.15801037868E+03  0.15801037868E+03  0.00000000000E+00 0. -1.
         21   -1    0    0  501  502 -0.00000000000E+00 -0.00000000000E+00 -0.50317724713E+03  0.50317724713E+03  0.00000000000E+00 0. -1.
         25    1    1    2    0    0  0.75129764632E+02  0.11883410635E+03 -0.87698691531E+02  0.20756224816E+03  0.12500000000E+03 0.  0.
         25    1    1    2    0    0 -0.13603136217E+03 -0.20611978448E+00 -0.89037649448E+02  0.20507870927E+03  0.12500000000E+03 0.  0.
         25    1    1    2    0    0  0.60901597535E+02 -0.11862798656E+03 -0.16843052747E+03  0.24854666838E+03  0.12500000000E+03 0.  0.
</event>
<event>
 5    0  0.5713700E-005  0.2338350E+03  0.7546771E-02  0.1123969E+00
         21   -1    0    0  502  501  0.00000000000E+00  0.00000000000E+00  0.45249419916E+03  0.45249419916E+03  0.00000000000E+00 0.  1.
         21   -1    0    0  501  502 -0.00000000000E+00 -0.00000000000E+00 -0.12083866307E+03  0.12083866307E+03  0.00000000000E+00 0.  1.
         25    1    1    2    0    0  0.41074690932E+02 -0.31104729556E+02  0.10734981376E+03  0.17263724091E+03  0.12500000000E+03 0.  0.
         25    1    1    2    0    0 -0.60634904048E+02 -0.43829742918E+02  0.20629833880E+03  0.25255027726E+03  0.12500000000E+03 0.  0.
         25    1    1    2    0    0  0.19560213115E+02  0.74934472474E+02  0.18007383529E+02  0.14814534405E+03  0.12500000000E+03 0.  0.
</event>
<event>
 5    0  0.5713700E-005  0.2887681E+03  0.7546771E-02  0.1090994E+00
         21   -1    0    0  502  501  0.00000000000E+00  0.00000000000E+00  0.26735228597E+03  0.26735228597E+03  0.00000000000E+00 0. -1.
         21   -1    0    0  501  502 -0.00000000000E+00 -0.00000000000E+00 -0.31189938997E+03  0.31189938997E+03  0.00000000000E+00 0. -1.
         25    1    1    2    0    0 -0.55665509569E+02  0.13268482070E+03 -0.36859689569E+01  0.19063708182E+03  0.12500000000E+03 0.  0.
         25    1    1    2    0    0  0.40091048955E+02  0.68777804287E+02 -0.26757430705E+02  0.15059428497E+03  0.12500000000E+03 0.  0.
         25    1    1    2    0    0  0.15574460614E+02 -0.20146262498E+03 -0.14103704342E+02  0.23802030914E+03  0.12500000000E+03 0.  0.
</event>
<event>
 5    0  0.5713700E-005  0.2989999E+03  0.7546771E-02  0.1085742E+00
         21   -1    0    0  502  501  0.00000000000E+00  0.00000000000E+00  0.87630849126E+02  0.87630849126E+02  0.00000000000E+00 0. -1.
         21   -1    0    0  501  502 -0.00000000000E+00 -0.00000000000E+00 -0.10201995637E+04  0.10201995637E+04  0.00000000000E+00 0. -1.
         25    1    1    2    0    0  0.11841443964E+02  0.18234811476E+03 -0.17971450420E+03  0.28515497150E+03  0.12500000000E+03 0.  0.
         25    1    1    2    0    0 -0.19988456527E+02 -0.12718915576E+03 -0.29984386503E+03  0.34943949853E+03  0.12500000000E+03 0.  0.
         25    1    1    2    0    0  0.81470125631E+01 -0.55158958999E+02 -0.45301034538E+03  0.47323594284E+03  0.12500000000E+03 0.  0.
</event>
<event>
 5    0  0.5713700E-005  0.2811429E+03  0.7546771E-02  0.1095066E+00
         21   -1    0    0  502  501  0.00000000000E+00  0.00000000000E+00  0.28508566210E+03  0.28508566210E+03  0.00000000000E+00 0.  1.
         21   -1    0    0  501  502 -0.00000000000E+00 -0.00000000000E+00 -0.27725464920E+03  0.27725464920E+03  0.00000000000E+00 0.  1.
         25    1    1    2    0    0 -0.46142220781E+01  0.12269827707E+03 -0.38960153585E+02  0.17949666239E+03  0.12500000000E+03 0.  0.
         25    1    1    2    0    0  0.10686063795E+03 -0.12384534063E+03 -0.22533179573E+02  0.20709806498E+03  0.12500000000E+03 0.  0.
         25    1    1    2    0    0 -0.10224641587E+03  0.11470635574E+01  0.69324346062E+02  0.17574558393E+03  0.12500000000E+03 0.  0.
</event>
<event>
 5    0  0.6248205E-005  0.3056160E+03  0.7546771E-02  0.1082466E+00
         21   -1    0    0  502  501  0.00000000000E+00  0.00000000000E+00  0.52009223218E+03  0.52009223218E+03  0.00000000000E+00 0.  1.
         21   -1    0    0  501  502 -0.00000000000E+00 -0.00000000000E+00 -0.17958576718E+03  0.17958576718E+03  0.00000000000E+00 0.  1.
         25    1    1    2    0    0 -0.11243615270E+03 -0.10558209146E+02  0.12191724461E+03  0.20794753845E+03  0.12500000000E+03 0.  0.
         25    1    1    2    0    0  0.17553680120E+03 -0.72474875377E+02  0.23637563112E+03  0.32796983874E+03  0.12500000000E+03 0.  0.
         25    1    1    2    0    0 -0.63100648508E+02  0.83033084523E+02 -0.17786410724E+02  0.16376062217E+03  0.12500000000E+03 0.  0.
</event>
<event>
 5    0  0.5713700E-005  0.2513061E+03  0.7546771E-02  0.1112482E+00
         21   -1    0    0  502  501  0.00000000000E+00  0.00000000000E+00  0.49590618907E+03  0.49590618907E+03  0.00000000000E+00 0.  1.
         21   -1    0    0  501  502 -0.00000000000E+00 -0.00000000000E+00 -0.12735224477E+03  0.12735224477E+03  0.00000000000E+00 0.  1.
         25    1    1    2    0    0 -0.95291180997E+02 -0.18423746815E+02  0.19417199109E+03  0.25049472199E+03  0.12500000000E+03 0.  0.
         25    1    1    2    0    0  0.14174928183E+03  0.32259028730E+02  0.12957364490E+03  0.23140404769E+03  0.12500000000E+03 0.  0.
         25    1    1    2    0    0 -0.46458100829E+02 -0.13835281915E+02  0.44808308304E+02  0.14135966416E+03  0.12500000000E+03 0.  0.
</event>
<event>
 5    0  0.5713700E-005  0.3752718E+03  0.7546771E-02  0.1052695E+00
         21   -1    0    0  502  501  0.00000000000E+00  0.00000000000E+00  0.25405309728E+03  0.25405309728E+03  0.00000000000E+00 0.  1.
         21   -1    0    0  501  502 -0.00000000000E+00 -0.00000000000E+00 -0.55432860035E+03  0.55432860035E+03  0.00000000000E+00 0.  1.
         25    1    1    2    0    0 -0.88108991617E+02  0.23949423588E+03 -0.21616195672E+03  0.35703175623E+03  0.12500000000E+03 0.  0.
         25    1    1    2    0    0  0.48460300459E+02 -0.64104692607E+02 -0.16114347642E+03  0.21920317591E+03  0.12500000000E+03 0.  0.
         25    1    1    2    0    0  0.39648691158E+02 -0.17538954327E+03  0.77029930078E+02  0.23214676549E+03  0.12500000000E+03 0.  0.
</event>
<event>
 5    0  0.5713700E-005  0.2981509E+03  0.7546771E-02  0.1086169E+00
         21   -1    0    0  502  501  0.00000000000E+00  0.00000000000E+00  0.18690329102E+03  0.18690329102E+03  0.00000000000E+00 0. -1.
         21   -1    0    0  501  502 -0.00000000000E+00 -0.00000000000E+00 -0.47561481916E+03  0.47561481916E+03  0.00000000000E+00 0. -1.
         25    1    1    2    0    0 -0.10559711015E+03  0.92183865485E+02 -0.25857169460E+03  0.31958244003E+03  0.12500000000E+03 0.  0.
         25    1    1    2    0    0  0.10672064398E+03 -0.12197544414E+03 -0.55244032403E+02  0.21200049043E+03  0.12500000000E+03 0.  0.
         25    1    1    2    0    0 -0.11235338308E+01  0.29791578655E+02  0.25104198867E+02  0.13093517972E+03  0.12500000000E+03 0.  0.
</event>
<event>
 5    0  0.5713700E-005  0.2132806E+03  0.7546771E-02  0.1138994E+00
         21   -1    0    0  502  501  0.00000000000E+00  0.00000000000E+00  0.77359312278E+02  0.77359312278E+02  0.00000000000E+00 0. -1.
         21   -1    0    0  501  502 -0.00000000000E+00 -0.00000000000E+00 -0.58801725251E+03  0.58801725251E+03  0.00000000000E+00 0. -1.
         25    1    1    2    0    0 -0.66206788368E+02 -0.10691993525E+02 -0.22910156691E+03  0.26946277203E+03  0.12500000000E+03 0.  0.
         25    1    1    2    0    0  0.14510223043E+02 -0.33485110413E+02 -0.94552916939E+02  0.16092561416E+03  0.12500000000E+03 0.  0.
         25    1    1    2    0    0  0.51696565325E+02  0.44177103938E+02 -0.18700345639E+03  0.23498817860E+03  0.12500000000E+03 0.  0.
</event>
<event>
 5    0  0.5713700E-005  0.3746834E+03  0.7546771E-02  0.1052916E+00
         21   -1    0    0  502  501  0.00000000000E+00  0.00000000000E+00  0.19769571336E+03  0.19769571336E+03  0.00000000000E+00 0.  1.
         21   -1    0    0  501  502 -0.00000000000E+00 -0.00000000000E+00 -0.71011989047E+03  0.71011989047E+03  0.00000000000E+00 0.  1.
         25    1    1    2    0    0 -0.24002951487E+03 -0.84573000830E+02 -0.31787613217E+02  0.28531073031E+03  0.12500000000E+03 0.  0.
         25    1    1    2    0    0  0.13937549832E+03  0.86371539564E+02 -0.38208435460E+03  0.43416474570E+03  0.12500000000E+03 0.  0.
         25    1    1    2    0    0  0.10065401655E+03 -0.17985387341E+01 -0.98552209287E+02  0.18834012781E+03  0.12500000000E+03 0.  0.
</event>
<event>
 5    0  0.5845624E-005  0.2920475E+03  0.7546771E-02  0.1089285E+00
         21   -1    0    0  502  501  0.00000000000E+00  0.00000000000E+00  0.46576388680E+03  0.46576388680E+03  0.00000000000E+00 0.  1.
         21   -1    0    0  501  502 -0.00000000000E+00 -0.00000000000E+00 -0.18312227805E+03  0.18312227805E+03  0.00000000000E+00 0.  1.
         25    1    1    2    0    0  0.81932689556E+02 -0.16697961634E+03  0.23917642133E+03  0.32775832318E+03  0.12500000000E+03 0.  0.
         25    1    1    2    0    0 -0.59233891537E+02  0.79323280533E+02  0.48587398621E+02  0.16669304738E+03  0.12500000000E+03 0.  0.
         25    1    1    2    0    0 -0.22698798019E+02  0.87656335802E+02 -0.51222112074E+01  0.15443479428E+03  0.12500000000E+03 0.  0.
</event>
<event>
 5    0  0.5713700E-005  0.2682646E+03  0.7546771E-02  0.1102277E+00
         21   -1    0    0  502  501  0.00000000000E+00  0.00000000000E+00  0.44172236187E+03  0.44172236187E+03  0.00000000000E+00 0. -1.
         21   -1    0    0  501  502 -0.00000000000E+00 -0.00000000000E+00 -0.16292115409E+03  0.16292115409E+03  0.00000000000E+00 0. -1.
         25    1    1    2    0    0 -0.93446308589E+02  0.14231781778E+03  0.83636852529E+02  0.22717107419E+03  0.12500000000E+03 0.  0.
         25    1    1    2    0    0  0.28562477482E+02 -0.18283779319E+02  0.11570982632E+03  0.17367750463E+03  0.12500000000E+03 0.  0.
         25    1    1    2    0    0  0.64883831107E+02 -0.12403403846E+03  0.79454528929E+02  0.20379493714E+03  0.12500000000E+03 0.  0.
</event>
<event>
 5    0  0.5713700E-005  0.3124239E+03  0.7546771E-02  0.1079190E+00
         21   -1    0    0  502  501  0.00000000000E+00  0.00000000000E+00  0.38335707633E+03  0.38335707633E+03  0.00000000000E+00 0.  1.
         21   -1    0    0  501  502 -0.00000000000E+00 -0.00000000000E+00 -0.25461552974E+03  0.25461552974E+03  0.00000000000E+00 0.  1.
         25    1    1    2    0    0 -0.17490770080E+03 -0.63810327185E+02 -0.55977970985E+02  0.23113414912E+03  0.12500000000E+03 0.  0.
         25    1    1    2    0    0  0.22258306630E+02 -0.47773306265E+02  0.63277786843E+02  0.14968900866E+03  0.12500000000E+03 0.  0.
         25    1    1    2    0    0  0.15264939417E+03  0.11158363345E+03  0.12144173073E+03  0.25714944829E+03  0.12500000000E+03 0.  0.
</event>
<event>
 5    0  0.5713700E-005  0.2997303E+03  0.7546771E-02  0.1085376E+00
         21   -1    0    0  502  501  0.00000000000E+00  0.00000000000E+00  0.59861140201E+03  0.59861140201E+03  0.00000000000E+00 0. -1.
         21   -1    0    0  501  502 -0.00000000000E+00 -0.00000000000E+00 -0.15007774099E+03  0.15007774099E+03  0.00000000000E+00 0. -1.
         25    1    1    2    0    0  0.15338403245E+03 -0.30096190718E+01  0.49138595990E+02  0.20390027179E+03  0.12500000000E+03 0.  0.
         25    1    1    2    0    0  0.24876002579E+02  0.60764806643E+02  0.11569584150E+03  0.18254233748E+03  0.12500000000E+03 0.  0.
         25    1    1    2    0    0 -0.17826003503E+03 -0.57755187571E+02  0.28369922352E+03  0.36224653374E+03  0.12500000000E+03 0.  0.
</event>
<event>
 5    0  0.5713700E-005  0.2355522E+03  0.7546771E-02  0.1122792E+00
         21   -1    0    0  502  501  0.00000000000E+00  0.00000000000E+00  0.44320968422E+03  0.44320968422E+03  0.00000000000E+00 0. -1.
         21   -1    0    0  501  502 -0.00000000000E+00 -0.00000000000E+00 -0.12518864907E+03  0.12518864907E+03  0.00000000000E+00 0. -1.
         25    1    1    2    0    0  0.74552359094E+02 -0.62401521858E+01  0.22467403373E+03  0.26776933204E+03  0.12500000000E+03 0.  0.
         25    1    1    2    0    0 -0.53578125825E+02 -0.28835891459E+02  0.96243712253E+02  0.16908570712E+03  0.12500000000E+03 0.  0.
         25    1    1    2    0    0 -0.20974233269E+02  0.35076043645E+02 -0.28967108342E+01  0.13154329414E+03  0.12500000000E+03 0.  0.
</event>
<event>
 5    0  0.5713700E-005  0.2407038E+03  0.7546771E-02  0.1119325E+00
         21   -1    0    0  502  501  0.00000000000E+00  0.00000000000E+00  0.43165409910E+03  0.43165409910E+03  0.00000000000E+00 0.  1.
         21   -1    0    0  501  502 -0.00000000000E+00 -0.00000000000E+00 -0.13422396607E+03  0.13422396607E+03  0.00000000000E+00 0.  1.
         25    1    1    2    0    0 -0.17396396710E+02 -0.79685508935E+01  0.67444864850E+02  0.14331762703E+03  0.12500000000E+03 0.  0.
         25    1    1    2    0    0  0.39984386942E+02  0.12388094650E+02 -0.28182196743E+02  0.13480152930E+03  0.12500000000E+03 0.  0.
         25    1    1    2    0    0 -0.22587990232E+02 -0.44195437561E+01  0.25816746493E+03  0.28775890884E+03  0.12500000000E+03 0.  0.
</event>
<event>
 5    0  0.5713700E-005  0.3963509E+03  0.7546771E-02  0.1045051E+00
         21   -1    0    0  502  501  0.00000000000E+00  0.00000000000E+00  0.52576977839E+03  0.52576977839E+03  0.00000000000E+00 0. -1.
         21   -1    0    0  501  502 -0.00000000000E+00 -0.00000000000E+00 -0.29878857257E+03  0.29878857257E+03  0.00000000000E+00 0.  1.
         25    1    1    2    0    0 -0.24107706057E+03  0.33186676061E+02  0.45270607713E+02  0.27729755232E+03  0.12500000000E+03 0.  0.
         25    1    1    2    0    0  0.20083431518E+02  0.12836062959E+03  0.16734336905E+03  0.24598495607E+03  0.12500000000E+03 0.  0.
         25    1    1    2    0    0  0.22099362905E+03 -0.16154730565E+03  0.14367229063E+02  0.30127584257E+03  0.12500000000E+03 0.  0.
</event>
<event>
 5    0  0.5713700E-005  0.5901286E+03  0.7546771E-02  0.9926100E-01
         21   -1    0    0  502  501  0.00000000000E+00  0.00000000000E+00  0.96060637029E+03  0.96060637029E+03  0.00000000000E+00 0. -1.
         21   -1    0    0  501  502 -0.00000000000E+00 -0.00000000000E+00 -0.36253326067E+03  0.36253326067E+03  0.00000000000E+00 0. -1.
         25    1    1    2    0    0 -0.17715901761E+03 -0.19148769840E+03  0.57235826189E+03  0.64130479189E+03  0.12500000000E+03 0.  0.
         25    1    1    2    0    0  0.16763244337E+03 -0.11613218560E+02  0.26907267686E+03  0.34097009890E+03  0.12500000000E+03 0.  0.
         25    1    1    2    0    0  0.95265742343E+01  0.20310091696E+03 -0.24335782913E+03  0.34086474016E+03  0.12500000000E+03 0.  0.
</event>
<event>
 5    0  0.5713700E-005  0.3865055E+03  0.7546771E-02  0.1048555E+00
         21   -1    0    0  502  501  0.00000000000E+00  0.00000000000E+00  0.20592045150E+04  0.20592045150E+04  0.00000000000E+00 0. -1.
         21   -1    0    0  501  502 -0.00000000000E+00 -0.00000000000E+00 -0.72545734160E+02  0.72545734160E+02  0.00000000000E+00 0. -1.
         25    1    1    2    0    0  0.66608580050E+02 -0.20058558041E+03  0.11247892857E+04  0.11512806848E+04  0.12500000000E+03 0.  0.
         25    1    1    2    0    0 -0.48564631655E+02  0.18385759359E+03  0.81261991371E+03  0.84388284870E+03  0.12500000000E+03 0.  0.
         25    1    1    2    0    0 -0.18043948395E+02  0.16727986822E+02  0.49249581412E+02  0.13658671563E+03  0.12500000000E+03 0.  0.
</event>
<event>
 5    0  0.5713700E-005  0.4403823E+03  0.7546771E-02  0.1030630E+00
         21   -1    0    0  502  501  0.00000000000E+00  0.00000000000E+00  0.54573940288E+03  0.54573940288E+03  0.00000000000E+00 0.  1.
         21   -1    0    0  501  502 -0.00000000000E+00 -0.00000000000E+00 -0.35536471793E+03  0.35536471793E+03  0.00000000000E+00 0.  1.
         25    1    1    2    0    0 -0.83983776821E+02 -0.18411775105E+03 -0.21019474280E+02  0.23878743543E+03  0.12500000000E+03 0.  0.
         25    1    1    2    0    0  0.25884059267E+03  0.19039277777E+03  0.27172046711E+03  0.43898163343E+03  0.12500000000E+03 0.  0.
         25    1    1    2    0    0 -0.17485681585E+03 -0.62750267158E+01 -0.60326307877E+02  0.22333505195E+03  0.12500000000E+03 0.  0.
</event>
<event>
 5    0  0.5713700E-005  0.2566184E+03  0.7546771E-02  0.1109192E+00
         21   -1    0    0  502  501  0.00000000000E+00  0.00000000000E+00  0.63814663570E+03  0.63814663570E+03  0.00000000000E+00 0. -1.
         21   -1    0    0  501  502 -0.00000000000E+00 -0.00000000000E+00 -0.10319418386E+03  0.10319418386E+03  0.00000000000E+00 0. -1.
         25    1    1    2    0    0 -0.10190271669E+03 -0.20250602956E+02  0.37491618293E+03  0.40863357035E+03  0.12500000000E+03 0.  0.
         25    1    1    2    0    0  0.17530922821E+02 -0.11282888180E+02  0.11763162647E+03  0.17290701653E+03  0.12500000000E+03 0.  0.
         25    1    1    2    0    0  0.84371793872E+02  0.31533491136E+02  0.42404642443E+02  0.15980023268E+03  0.12500000000E+03 0.  0.
</event>
<event>
 5    0  0.5713700E-005  0.3326552E+03  0.7546771E-02  0.1069968E+00
         21   -1    0    0  502  501  0.00000000000E+00  0.00000000000E+00  0.14329836331E+03  0.14329836331E+03  0.00000000000E+00 0. -1.
         21   -1    0    0  501  502 -0.00000000000E+00 -0.00000000000E+00 -0.77223150767E+03  0.77223150767E+03  0.00000000000E+00 0. -1.
         25    1    1    2    0    0 -0.31349452059E+02  0.28508755247E+02 -0.19442145787E+03  0.23498987330E+03  0.12500000000E+03 0.  0.
         25    1    1    2    0    0  0.17507371445E+03 -0.72817747246E+02 -0.27223736281E+02  0.22873425984E+03  0.12500000000E+03 0.  0.
         25    1    1    2    0    0 -0.14372426239E+03  0.44308991998E+02 -0.40728795020E+03  0.45180573785E+03  0.12500000000E+03 0.  0.
</event>
<event>
 5    0  0.5713700E-005  0.4786659E+03  0.7546771E-02  0.1019502E+00
         21   -1    0    0  502  501  0.00000000000E+00  0.00000000000E+00  0.35927460594E+03  0.35927460594E+03  0.00000000000E+00 0. -1.
         21   -1    0    0  501  502 -0.00000000000E+00 -0.00000000000E+00 -0.63773235335E+03  0.63773235335E+03  0.00000000000E+00 0. -1.
         25    1    1    2    0    0  0.48314178835E+02 -0.35441540496E+02 -0.62398059564E+02  0.15201605345E+03  0.12500000000E+03 0.  0.
         25    1    1    2    0    0 -0.64935103705E+02 -0.28792239738E+03  0.13818726805E+03  0.34905099292E+03  0.12500000000E+03 0.  0.
         25    1    1    2    0    0  0.16620924870E+02  0.32336393788E+03 -0.35424695590E+03  0.49593991292E+03  0.12500000000E+03 0.  0.
</event>
<event>
 5    0  0.5713700E-005  0.3159389E+03  0.7546771E-02  0.1077534E+00
         21   -1    0    0  502  501  0.00000000000E+00  0.00000000000E+00  0.32549119431E+03  0.32549119431E+03  0.00000000000E+00 0.  1.
         21   -1    0    0  501  502 -0.00000000000E+00 -0.00000000000E+00 -0.30666685553E+03  0.30666685553E+03  0.00000000000E+00 0.  1.
         25    1    1    2    0    0  0.34143147353E+02 -0.37046757966E+02 -0.38934010661E+02  0.14028212279E+03  0.12500000000E+03 0.  0.
         25    1    1    2    0    0 -0.21104255034E+03  0.60361918956E+02 -0.35147972226E+02  0.25503509418E+03  0.12500000000E+03 0.  0.
         25    1    1    2    0    0  0.17689940299E+03 -0.23315160990E+02  0.92906321665E+02  0.23684083287E+03  0.12500000000E+03 0.  0.
</event>
<event>
 5    0  0.6119676E-005  0.5585023E+03  0.7546771E-02  0.9995449E-01
         21   -1    0    0  502  501  0.00000000000E+00  0.00000000000E+00  0.10576091933E+04  0.10576091933E+04  0.00000000000E+00 0. -1.
         21   -1    0    0  501  502 -0.00000000000E+00 -0.00000000000E+00 -0.29493386711E+03  0.29493386711E+03  0.00000000000E+00 0. -1.
         25    1    1    2    0    0 -0.20037582661E+03 -0.16037254142E+03  0.14546937641E+03  0.32040000531E+03  0.12500000000E+03 0.  0.
         25    1    1    2    0    0 -0.10231247458E+03  0.25152673438E+03  0.62425582494E+03  0.69213717971E+03  0.12500000000E+03 0.  0.
         25    1    1    2    0    0  0.30268830119E+03 -0.91154192958E+02 -0.70498751350E+01  0.34000587541E+03  0.12500000000E+03 0.  0.
</event>
<event>
 5    0  0.5713700E-005  0.2552604E+03  0.7546771E-02  0.1110025E+00
         21   -1    0    0  502  501  0.00000000000E+00  0.00000000000E+00  0.12813334458E+03  0.12813334458E+03  0.00000000000E+00 0. -1.
         21   -1    0    0  501  502 -0.00000000000E+00 -0.00000000000E+00 -0.50851626867E+03  0.50851626867E+03  0.00000000000E+00 0. -1.
         25    1    1    2    0    0 -0.38773291530E+02 -0.11760270676E+03 -0.18786094013E+03  0.25739172014E+03  0.12500000000E+03 0.  0.
         25    1    1    2    0    0  0.26475248335E+02  0.14648620651E+03 -0.88245384205E+02  0.21347457766E+03  0.12500000000E+03 0.  0.
         25    1    1    2    0    0  0.12298043194E+02 -0.28883499748E+02 -0.10427659976E+03  0.16578331545E+03  0.12500000000E+03 0.  0.
</event>
<event>
 5    0  0.5713700E-005  0.7266324E+03  0.7546771E-02  0.9672741E-01
         21   -1    0    0  502  501  0.00000000000E+00  0.00000000000E+00  0.17423092216E+04  0.17423092216E+04  0.00000000000E+00 0.  1.
         21   -1    0    0  501  502 -0.00000000000E+00 -0.00000000000E+00 -0.30304305034E+03  0.30304305034E+03  0.00000000000E+00 0.  1.
         25    1    1    2    0    0  0.10054935815E+03 -0.16748462286E+03  0.11763724705E+04  0.11990156219E+04  0.12500000000E+03 0.  0.
         25    1    1    2    0    0 -0.12569480242E+03  0.17552423228E+03 -0.22868815392E+03  0.33842460196E+03  0.12500000000E+03 0.  0.
         25    1    1    2    0    0  0.25145444270E+02 -0.80396094115E+01  0.49158185465E+03  0.50791204800E+03  0.12500000000E+03 0.  0.
</event>
<event>
 5    0  0.5713700E-005  0.5421317E+03  0.7546771E-02  0.1003332E+00
         21   -1    0    0  502  501  0.00000000000E+00  0.00000000000E+00  0.53930637559E+03  0.53930637559E+03  0.00000000000E+00 0. -1.
         21   -1    0    0  501  502 -0.00000000000E+00 -0.00000000000E+00 -0.54497176434E+03  0.54497176434E+03  0.00000000000E+00 0. -1.
         25    1    1    2    0    0 -0.36684889844E+03  0.38694358202E+02 -0.30950336127E+03  0.49748638000E+03  0.12500000000E+03 0.  0.
         25    1    1    2    0    0  0.16185336246E+03  0.46748920395E+02  0.28655870949E+02  0.21172654873E+03  0.12500000000E+03 0.  0.
         25    1    1    2    0    0  0.20499553598E+03 -0.85443278597E+02  0.27518210157E+03  0.37506521121E+03  0.12500000000E+03 0.  0.
</event>
<event>
 5    0  0.5713700E-005  0.2738740E+03  0.7546771E-02  0.1099083E+00
         21   -1    0    0  502  501  0.00000000000E+00  0.00000000000E+00  0.14521744513E+03  0.14521744513E+03  0.00000000000E+00 0. -1.
         21   -1    0    0  501  502 -0.00000000000E+00 -0.00000000000E+00 -0.51651493770E+03  0.51651493770E+03  0.00000000000E+00 0. -1.
         25    1    1    2    0    0 -0.70905419445E+02  0.56307066728E+02 -0.15414092209E+03  0.21813410585E+03  0.12500000000E+03 0.  0.
         25    1    1    2    0    0 -0.87305276868E+02 -0.77542514938E+02 -0.15682432271E+03  0.23206447635E+03  0.12500000000E+03 0.  0.
         25    1    1    2    0    0  0.15821069631E+03  0.21235448211E+02 -0.60332247768E+02  0.21153380063E+03  0.12500000000E+03 0.  0.
</event>
<event>
 5    0  0.5713700E-005  0.3033821E+03  0.7546771E-02  0.1083562E+00
         21   -1    0    0  502  501  0.00000000000E+00  0.00000000000E+00  0.35700647485E+02  0.35700647485E+02  0.00000000000E+00 0.  1.
         21   -1    0    0  501  502 -0.00000000000E+00 -0.00000000000E+00 -0.25781248206E+04  0.25781248206E+04  0.00000000000E+00 0.  1.
         25    1    1    2    0    0 -0.86551315859E+02  0.66211838501E-01 -0.33968377773E+03  0.37215749827E+03  0.12500000000E+03 0.  0.
         25    1    1    2    0    0 -0.10165874487E+03 -0.64240927356E+02 -0.11528630897E+04  0.11658386255E+04  0.12500000000E+03 0.  0.
         25    1    1    2    0    0  0.18821006073E+03  0.64174715518E+02 -0.10498773057E+04  0.10758293443E+04  0.12500000000E+03 0.  0.
</event>
<event>
 5    0  0.5713700E-005  0.2496999E+03  0.7546771E-02  0.1113495E+00
         21   -1    0    0  502  501  0.00000000000E+00  0.00000000000E+00  0.15335005049E+03  0.15335005049E+03  0.00000000000E+00 0.  1.
         21   -1    0    0  501  502 -0.00000000000E+00 -0.00000000000E+00 -0.40658646668E+03  0.40658646668E+03  0.00000000000E+00 0.  1.
         25    1    1    2    0    0 -0.12917084737E+02  0.29461549113E+02 -0.16850706528E+03  0.21226037078E+03  0.12500000000E+03 0.  0.
         25    1    1    2    0    0 -0.52548535413E+02 -0.33327556033E+02 -0.13845533568E+03  0.19663914805E+03  0.12500000000E+03 0.  0.
         25    1    1    2    0    0  0.65465620150E+02  0.38660069205E+01  0.53725984764E+02  0.15103699835E+03  0.12500000000E+03 0.  0.
</event>
<event>
 5    0  0.5713700E-005  0.3458605E+03  0.7546771E-02  0.1064327E+00
         21   -1    0    0  502  501  0.00000000000E+00  0.00000000000E+00  0.44543053274E+03  0.44543053274E+03  0.00000000000E+00 0. -1.
         21   -1    0    0  501  502 -0.00000000000E+00 -0.00000000000E+00 -0.26854808610E+03  0.26854808610E+03  0.00000000000E+00 0. -1.
         25    1    1    2    0    0  0.73381250433E+02 -0.23632628890E+03 -0.41255157458E+02  0.28028897723E+03  0.12500000000E+03 0.  0.
         25    1    1    2    0    0 -0.91467932043E+02  0.91239686694E+02  0.13144677542E+03  0.22269781721E+03  0.12500000000E+03 0.  0.
         25    1    1    2    0    0  0.18086681610E+02  0.14508660220E+03  0.86690828677E+02  0.21099182441E+03  0.12500000000E+03 0.  0.
</event>
<event>
 5    0  0.5713700E-005  0.3086597E+03  0.7546771E-02  0.1080990E+00
         21   -1    0    0  502  501  0.00000000000E+00  0.00000000000E+00  0.93589215406E+03  0.93589215406E+03  0.00000000000E+00 0. -1.
         21   -1    0    0  501  502 -0.00000000000E+00 -0.00000000000E+00 -0.10179678497E+03  0.10179678497E+03  0.00000000000E+00 0. -1.
         25    1    1    2    0    0 -0.15912246321E+02  0.22884048155E+02  0.39604774117E+03  0.41623994586E+03  0.12500000000E+03 0.  0.
         25    1    1    2    0    0  0.22234927524E+02  0.14007744586E+03  0.73221889570E+02  0.20273758397E+03  0.12500000000E+03 0.  0.
         25    1    1    2    0    0 -0.63226812025E+01 -0.16296149402E+03  0.36482573835E+03  0.41871140920E+03  0.12500000000E+03 0.  0.
</event>
<event>
 5    0  0.5713700E-005  0.2934712E+03  0.7546771E-02  0.1088551E+00
         21   -1    0    0  502  501  0.00000000000E+00  0.00000000000E+00  0.31528305490E+02  0.31528305490E+02  0.00000000000E+00 0. -1.
         21   -1    0    0  501  502 -0.00000000000E+00 -0.00000000000E+00 -0.27316829368E+04  0.27316829368E+04  0.00000000000E+00 0. -1.
         25    1    1    2    0    0 -0.18057320993E+02  0.11595108904E+03 -0.14764186012E+04  0.14863403405E+04  0.12500000000E+03 0.  0.
         25    1    1    2    0    0  0.41765973806E+01 -0.18300947173E+03 -0.77068188287E+03  0.80192610338E+03  0.12500000000E+03 0.  0.
         25    1    1    2    0    0  0.13880723613E+02  0.67058382699E+02 -0.45305414725E+03  0.47494479839E+03  0.12500000000E+03 0.  0.
</event>
<event>
 5    0  0.5713700E-005  0.2340233E+03  0.7546771E-02  0.1123840E+00
         21   -1    0    0  502  501  0.00000000000E+00  0.00000000000E+00  0.11923351551E+04  0.11923351551E+04  0.00000000000E+00 0.  1.
         21   -1    0    0  501  502 -0.00000000000E+00 -0.00000000000E+00 -0.45932479390E+02  0.45932479390E+02  0.00000000000E+00 0.  1.
         25    1    1    2    0    0  0.36594927004E+02 -0.11012137871E+03  0.36968217741E+03  0.40713120616E+03  0.12500000000E+03 0.  0.
         25    1    1    2    0    0 -0.69025960081E+02  0.73683030825E+02  0.39026693362E+03  0.42205100601E+03  0.12500000000E+03 0.  0.
         25    1    1    2    0    0  0.32431033077E+02  0.36438347885E+02  0.38645356464E+03  0.40908542229E+03  0.12500000000E+03 0.  0.
</event>
<event>
 5    0  0.5713700E-005  0.4231480E+03  0.7546771E-02  0.1036047E+00
         21   -1    0    0  502  501  0.00000000000E+00  0.00000000000E+00  0.55608449713E+02  0.55608449713E+02  0.00000000000E+00 0. -1.
         21   -1    0    0  501  502 -0.00000000000E+00 -0.00000000000E+00 -0.32199104847E+04  0.32199104847E+04  0.00000000000E+00 0. -1.
         25    1    1    2    0    0 -0.78918966548E+02 -0.61386909378E+02 -0.37708586189E+03  0.40965266161E+03  0.12500000000E+03 0.  0.
         25    1    1    2    0    0  0.27475946629E+03 -0.27988450648E+02 -0.22883353359E+04  0.23083283404E+04  0.12500000000E+03 0.  0.
         25    1    1    2    0    0 -0.19584049974E+03  0.89375360026E+02 -0.49888083718E+03  0.55753793236E+03  0.12500000000E+03 0.  0.
</event>
<event>
 5    0  0.5713700E-005  0.2145797E+03  0.7546771E-02  0.1137990E+00
         21   -1    0    0  502  501  0.00000000000E+00  0.00000000000E+00  0.18427642096E+03  0.18427642096E+03  0.00000000000E+00 0.  1.
         21   -1    0    0  501  502 -0.00000000000E+00 -0.00000000000E+00 -0.24986623933E+03  0.24986623933E+03  0.00000000000E+00 0.  1.
         25    1    1    2    0    0  0.80896577787E+01  0.56560044471E+02 -0.17478363379E+01  0.13745012232E+03  0.12500000000E+03 0.  0.
         25    1    1    2    0    0 -0.92538440938E+01  0.18170285775E+02  0.20640470924E+02  0.12832311544E+03  0.12500000000E+03 0.  0.
         25    1    1    2    0    0  0.11641863151E+01 -0.74730330246E+02 -0.84482452952E+02  0.16836942254E+03  0.12500000000E+03 0.  0.
</event>
<event>
 5    0  0.5713700E-005  0.2087252E+03  0.7546771E-02  0.1142579E+00
         21   -1    0    0  502  501  0.00000000000E+00  0.00000000000E+00  0.74347137801E+03  0.74347137801E+03  0.00000000000E+00 0. -1.
         21   -1    0    0  501  502 -0.00000000000E+00 -0.00000000000E+00 -0.58598388764E+02  0.58598388764E+02  0.00000000000E+00 0. -1.
         25    1    1    2    0    0  0.21672862308E+02 -0.21054310598E+02  0.32314723652E+03  0.34779610899E+03  0.12500000000E+03 0.  0.
         25    1    1    2    0    0 -0.40845494035E+02  0.43081841047E+02  0.24183192760E+03  0.27862534095E+03  0.12500000000E+03 0.  0.
         25    1    1    2    0    0  0.19172631727E+02 -0.22027530449E+02  0.11989382512E+03  0.17564831684E+03  0.12500000000E+03 0.  0.
</event>
<event>
 5    0  0.5713700E-005  0.3937750E+03  0.7546771E-02  0.1045957E+00
         21   -1    0    0  502  501  0.00000000000E+00  0.00000000000E+00  0.37466159650E+03  0.37466159650E+03  0.00000000000E+00 0. -1.
         21   -1    0    0  501  502 -0.00000000000E+00 -0.00000000000E+00 -0.41386345213E+03  0.41386345213E+03  0.00000000000E+00 0. -1.
         25    1    1    2    0    0  0.23777753496E+01 -0.45094397813E+02  0.11420254471E+02  0.13339632957E+03  0.12500000000E+03 0.  0.
         25    1    1    2    0    0  0.27068390766E+03  0.30179189040E+02 -0.15430824561E+03  0.33707060979E+03  0.12500000000E+03 0.  0.
         25    1    1    2    0    0 -0.27306168301E+03  0.14915208773E+02  0.10368613551E+03  0.31805810928E+03  0.12500000000E+03 0.  0.
</event>
<event>
 5    0  0.6470828E-005  0.2775938E+03  0.7546771E-02  0.1097010E+00
         21   -1    0    0  502  501  0.00000000000E+00  0.00000000000E+00  0.20429228725E+03  0.20429228725E+03  0.00000000000E+00 0. -1.
         21   -1    0    0  501  502 -0.00000000000E+00 -0.00000000000E+00 -0.37719645718E+03  0.37719645718E+03  0.00000000000E+00 0. -1.
         25    1    1    2    0    0 -0.62585884304E+02  0.15232701581E+03 -0.87726747766E+02  0.22459184076E+03  0.12500000000E+03 0.  0.
         25    1    1    2    0    0 -0.11201075677E+02 -0.98496550926E+02 -0.11825922882E+03  0.19858821678E+03  0.12500000000E+03 0.  0.
         25    1    1    2    0    0  0.73786959981E+02 -0.53830464888E+02  0.33081806657E+02  0.15830868689E+03  0.12500000000E+03 0.  0.
</event>
<event>
 5    0  0.5713700E-005  0.2481894E+03  0.7546771E-02  0.1114454E+00
         21   -1    0    0  502  501  0.00000000000E+00  0.00000000000E+00  0.32179143991E+03  0.32179143991E+03  0.00000000000E+00 0.  1.
         21   -1    0    0  501  502 -0.00000000000E+00 -0.00000000000E+00 -0.19142203405E+03  0.19142203405E+03  0.00000000000E+00 0. -1.
         25    1    1    2    0    0  0.47333810415E+01  0.13817349352E+02  0.44741120622E+02  0.13356680693E+03  0.12500000000E+03 0.  0.
         25    1    1    2    0    0  0.44508229808E+02 -0.12347630469E+03  0.97514262778E+02  0.20581888102E+03  0.12500000000E+03 0.  0.
         25    1    1    2    0    0 -0.49241610850E+02  0.10965895534E+03 -0.11885977540E+02  0.17382778600E+03  0.12500000000E+03 0.  0.
</event>
<event>
 5    0  0.5713700E-005  0.2492433E+03  0.7546771E-02  0.1113784E+00
         21   -1    0    0  502  501  0.00000000000E+00  0.00000000000E+00  0.21017557900E+04  0.21017557900E+04  0.00000000000E+00 0. -1.
         21   -1    0    0  501  502 -0.00000000000E+00 -0.00000000000E+00 -0.29557304621E+02  0.29557304621E+02  0.00000000000E+00 0. -1.
         25    1    1    2    0    0  0.92084018742E+02 -0.25283937964E+02  0.97874743285E+03  0.99130735967E+03  0.12500000000E+03 0.  0.
         25    1    1    2    0    0 -0.12868425157E+02 -0.69900981541E+02  0.56598374820E+03  0.58396433694E+03  0.12500000000E+03 0.  0.
         25    1    1    2    0    0 -0.79215593584E+02  0.95184919505E+02  0.52746730431E+03  0.55604139799E+03  0.12500000000E+03 0.  0.
</event>
<event>
 5    0  0.5713700E-005  0.6354237E+03  0.7546771E-02  0.9834522E-01
         21   -1    0    0  502  501  0.00000000000E+00  0.00000000000E+00  0.18862546426E+04  0.18862546426E+04  0.00000000000E+00 0.  1.
         21   -1    0    0  501  502 -0.00000000000E+00 -0.00000000000E+00 -0.21405553820E+03  0.21405553820E+03  0.00000000000E+00 0.  1.
         25    1    1    2    0    0  0.22099839436E+03  0.24025344548E+03  0.16170741598E+03  0.38514451412E+03  0.12500000000E+03 0.  0.
         25    1    1    2    0    0  0.17876417391E+03 -0.83800421706E+02  0.13732376779E+03  0.27103866468E+03  0.12500000000E+03 0.  0.
         25    1    1    2    0    0 -0.39976256827E+03 -0.15645302378E+03  0.13731679207E+04  0.14441270020E+04  0.12500000000E+03 0.  0.
</event>
<event>
 5    0  0.5713700E-005  0.2171052E+03  0.7546771E-02  0.1136060E+00
         21   -1    0    0  502  501  0.00000000000E+00  0.00000000000E+00  0.14428033048E+03  0.14428033048E+03  0.00000000000E+00 0.  1.
         21   -1    0    0  501  502 -0.00000000000E+00 -0.00000000000E+00 -0.32668800433E+03  0.32668800433E+03  0.00000000000E+00 0.  1.
         25    1    1    2    0    0 -0.49484239300E+02 -0.26270482034E+02 -0.39342566306E+00  0.13698168837E+03  0.12500000000E+03 0.  0.
         25    1    1    2    0    0  0.73704132664E+02 -0.15610387031E+02 -0.97951862127E+02  0.17577130212E+03  0.12500000000E+03 0.  0.
         25    1    1    2    0    0 -0.24219893364E+02  0.41880869066E+02 -0.84062386065E+02  0.15821534432E+03  0.12500000000E+03 0.  0.
</event>
<event>
 5    0  0.5713700E-005  0.2385870E+03  0.7546771E-02  0.1120738E+00
         21   -1    0    0  502  501  0.00000000000E+00  0.00000000000E+00  0.20359642489E+04  0.20359642489E+04  0.00000000000E+00 0. -1.
         21   -1    0    0  501  502 -0.00000000000E+00 -0.00000000000E+00 -0.27959117207E+02  0.27959117207E+02  0.00000000000E+00 0. -1.
         25    1    1    2    0    0  0.10123943276E+03 -0.36473111361E+02  0.93557341494E+03  0.95000122386E+03  0.12500000000E+03 0.  0.
         25    1    1    2    0    0 -0.69071237793E+02  0.62179427884E+01  0.32827444580E+03  0.35804833538E+03  0.12500000000E+03 0.  0.
         25    1    1    2    0    0 -0.32168194968E+02  0.30255168572E+02  0.74415727100E+03  0.75587380691E+03  0.12500000000E+03 0.  0.
</event>
<event>
 5    0  0.5713700E-005  0.4768749E+03  0.7546771E-02  0.1019998E+00
         21   -1    0    0  502  501  0.00000000000E+00  0.00000000000E+00  0.52462281374E+03  0.52462281374E+03  0.00000000000E+00 0.  1.
         21   -1    0    0  501  502 -0.00000000000E+00 -0.00000000000E+00 -0.43347275912E+03  0.43347275912E+03  0.00000000000E+00 0.  1.
         25    1    1    2    0    0 -0.83154065416E+02  0.38150162781E+03  0.33449337302E+02  0.41134164484E+03  0.12500000000E+03 0.  0.
         25    1    1    2    0    0  0.95654930066E+02 -0.25579893148E+03 -0.92287456404E+02  0.31420524121E+03  0.12500000000E+03 0.  0.
         25    1    1    2    0    0 -0.12500864651E+02 -0.12570269633E+03  0.14998817371E+03  0.23254868681E+03  0.12500000000E+03 0.  0.
</event>
<event>
 5    0  0.5713700E-005  0.3435148E+03  0.7546771E-02  0.1065309E+00
         21   -1    0    0  502  501  0.00000000000E+00  0.00000000000E+00  0.17060325481E+03  0.17060325481E+03  0.00000000000E+00 0. -1.
         21   -1    0    0  501  502 -0.00000000000E+00 -0.00000000000E+00 -0.69167748212E+03  0.69167748212E+03  0.00000000000E+00 0. -1.
         25    1    1    2    0    0  0.34197387327E+02 -0.44256874251E+02  0.91580806931E+02  0.16474275831E+03  0.12500000000E+03 0.  0.
         25    1    1    2    0    0 -0.72534844919E+01  0.12876298271E+03 -0.30944140825E+03  0.35778695322E+03  0.12500000000E+03 0.  0.
         25    1    1    2    0    0 -0.26943902835E+02 -0.84506108462E+02 -0.30321362599E+03  0.33975102539E+03  0.12500000000E+03 0.  0.
</event>
<event>
 5    0  0.5713700E-005  0.5411627E+03  0.7546771E-02  0.1003560E+00
         21   -1    0    0  502  501  0.00000000000E+00  0.00000000000E+00  0.99768745282E+03  0.99768745282E+03  0.00000000000E+00 0. -1.
         21   -1    0    0  501  502 -0.00000000000E+00 -0.00000000000E+00 -0.29353583445E+03  0.29353583445E+03  0.00000000000E+00 0. -1.
         25    1    1    2    0    0  0.95913385145E+02  0.26753742609E+03  0.57516597778E+03  0.65361804886E+03  0.12500000000E+03 0.  0.
         25    1    1    2    0    0  0.25734486361E+02  0.86362427093E+02  0.18315431234E+03  0.23935587466E+03  0.12500000000E+03 0.  0.
         25    1    1    2    0    0 -0.12164787151E+03 -0.35389985318E+03 -0.54168671754E+02  0.39824936375E+03  0.12500000000E+03 0.  0.
</event>
<event>
 5    0  0.5713700E-005  0.2308896E+03  0.7546771E-02  0.1126015E+00
         21   -1    0    0  502  501  0.00000000000E+00  0.00000000000E+00  0.33901757305E+03  0.33901757305E+03  0.00000000000E+00 0.  1.
         21   -1    0    0  501  502 -0.00000000000E+00 -0.00000000000E+00 -0.15724855512E+03  0.15724855512E+03  0.00000000000E+00 0.  1.
         25    1    1    2    0    0 -0.12666225065E+02 -0.55824013029E+02  0.15715695718E+03  0.20880628074E+03  0.12500000000E+03 0.  0.
         25    1    1    2    0    0 -0.95335950119E+00  0.89703251708E+02 -0.48866642724E+01  0.15393655105E+03  0.12500000000E+03 0.  0.
         25    1    1    2    0    0  0.13619584566E+02 -0.33879238679E+02  0.29498725021E+02  0.13352329638E+03  0.12500000000E+03 0.  0.
</event>
<event>
 5    0  0.5713700E-005  0.2719450E+03  0.7546771E-02  0.1100172E+00
         21   -1    0    0  502  501  0.00000000000E+00  0.00000000000E+00  0.12292742317E+03  0.12292742317E+03  0.00000000000E+00 0. -1.
         21   -1    0    0  501  502 -0.00000000000E+00 -0.00000000000E+00 -0.60160773206E+03  0.60160773206E+03  0.00000000000E+00 0. -1.
         25    1    1    2    0    0  0.83263505707E+02  0.83822023097E+02 -0.37074473414E+03  0.40869989091E+03  0.12500000000E+03 0.  0.
         25    1    1    2    0    0  0.80622006053E+01 -0.60681503039E+02 -0.64433656707E+02  0.15337516098E+03  0.12500000000E+03 0.  0.
         25    1    1    2    0    0 -0.91325706312E+02 -0.23140520058E+02 -0.43501918048E+02  0.16246010334E+03  0.12500000000E+03 0.  0.
</event>
<event>
 5    0  0.5880929E-005  0.2571216E+03  0.7546771E-02  0.1108885E+00
         21   -1    0    0  502  501  0.00000000000E+00  0.00000000000E+00  0.73446278076E+02  0.73446278076E+02  0.00000000000E+00 0.  1.
         21   -1    0    0  501  502 -0.00000000000E+00 -0.00000000000E+00 -0.90013444963E+03  0.90013444963E+03  0.00000000000E+00 0.  1.
         25    1    1    2    0    0  0.49500013304E+02 -0.79568681867E+02 -0.44129923357E+03  0.46813613404E+03  0.12500000000E+03 0.  0.
         25    1    1    2    0    0 -0.17368417295E+02  0.65890713544E+02 -0.58835511628E+02  0.15404501121E+03  0.12500000000E+03 0.  0.
         25    1    1    2    0    0 -0.32131596010E+02  0.13677968323E+02 -0.32655342637E+03  0.35139958246E+03  0.12500000000E+03 0.  0.
</event>
<event>
 5    0  0.5713700E-005  0.2946119E+03  0.7546771E-02  0.1087965E+00
         21   -1    0    0  502  501  0.00000000000E+00  0.00000000000E+00  0.61666460560E+03  0.61666460560E+03  0.00000000000E+00 0.  1.
         21   -1    0    0  501  502 -0.00000000000E+00 -0.00000000000E+00 -0.14075103746E+03  0.14075103746E+03  0.00000000000E+00 0.  1.
         25    1    1    2    0    0 -0.35038512828E+02  0.44106641661E+02 -0.39307204103E+01  0.13716247221E+03  0.12500000000E+03 0.  0.
         25    1    1    2    0    0 -0.24865441693E+02 -0.15418860487E+03  0.34076407369E+03  0.39514246795E+03  0.12500000000E+03 0.  0.
         25    1    1    2    0    0  0.59903954522E+02  0.11008196321E+03  0.13908021487E+03  0.22511070289E+03  0.12500000000E+03 0.  0.
</event>
<event>
 5    0  0.5713700E-005  0.2952867E+03  0.7546771E-02  0.1087621E+00
         21   -1    0    0  502  501  0.00000000000E+00  0.00000000000E+00  0.11857924257E+03  0.11857924257E+03  0.00000000000E+00 0.  1.
         21   -1    0    0  501  502 -0.00000000000E+00 -0.00000000000E+00 -0.73532443101E+03  0.73532443101E+03  0.00000000000E+00 0. -1.
         25    1    1    2    0    0 -0.17861915992E+03  0.78449943434E+02 -0.25946751492E+03  0.34786145118E+03  0.12500000000E+03 0.  0.
         25    1    1    2    0    0  0.17866314226E+03 -0.58412465243E+02 -0.27167668119E+03  0.35322196081E+03  0.12500000000E+03 0.  0.
         25    1    1    2    0    0 -0.43982334580E-01 -0.20037478191E+02 -0.85600992322E+02  0.15282026159E+03  0.12500000000E+03 0.  0.
</event>
<event>
 5    0  0.5713700E-005  0.4009641E+03  0.7546771E-02  0.1043446E+00
         21   -1    0    0  502  501  0.00000000000E+00  0.00000000000E+00  0.64453217168E+03  0.64453217168E+03  0.00000000000E+00 0. -1.
         21   -1    0    0  501  502 -0.00000000000E+00 -0.00000000000E+00 -0.24944014382E+03  0.24944014382E+03  0.00000000000E+00 0. -1.
         25    1    1    2    0    0  0.28208263833E+03 -0.92213628006E+02  0.22251081137E+03  0.39142052733E+03  0.12500000000E+03 0.  0.
         25    1    1    2    0    0 -0.14581276067E+03  0.16770071437E+03  0.29099789474E+02  0.25662558041E+03  0.12500000000E+03 0.  0.
         25    1    1    2    0    0 -0.13626987766E+03 -0.75487086363E+02  0.14348142702E+03  0.24592620776E+03  0.12500000000E+03 0.  0.
</event>
<event>
 5    0  0.7117808E-005  0.3340851E+03  0.7546771E-02  0.1069343E+00
         21   -1    0    0  502  501  0.00000000000E+00  0.00000000000E+00  0.54738064833E+03  0.54738064833E+03  0.00000000000E+00 0. -1.
         21   -1    0    0  501  502 -0.00000000000E+00 -0.00000000000E+00 -0.20390356605E+03  0.20390356605E+03  0.00000000000E+00 0. -1.
         25    1    1    2    0    0  0.10640014987E+03 -0.20938660025E+02  0.34121960270E+03  0.37922979398E+03  0.12500000000E+03 0.  0.
         25    1    1    2    0    0 -0.18149413323E+03  0.86842362709E+01  0.31620972466E+02  0.22280130668E+03  0.12500000000E+03 0.  0.
         25    1    1    2    0    0  0.75093983362E+02  0.12254423754E+02 -0.29363492888E+02  0.14925311371E+03  0.12500000000E+03 0.  0.
</event>
<event>
 5    0  0.5713700E-005  0.2319924E+03  0.7546771E-02  0.1125245E+00
         21   -1    0    0  502  501  0.00000000000E+00  0.00000000000E+00  0.61618900436E+03  0.61618900436E+03  0.00000000000E+00 0. -1.
         21   -1    0    0  501  502 -0.00000000000E+00 -0.00000000000E+00 -0.87344127530E+02  0.87344127530E+02  0.00000000000E+00 0. -1.
         25    1    1    2    0    0  0.64511117572E+02  0.10168610951E+02  0.57843962216E+02  0.15243362130E+03  0.12500000000E+03 0.  0.
         25    1    1    2    0    0 -0.63765225418E+01  0.45059880963E+02  0.27205922000E+03  0.30284034094E+03  0.12500000000E+03 0.  0.
         25    1    1    2    0    0 -0.58134595030E+02 -0.55228491914E+02  0.19894169462E+03  0.24825916965E+03  0.12500000000E+03 0.  0.
</event>
<event>
 5    0  0.5713700E-005  0.2406986E+03  0.7546771E-02  0.1119328E+00
         21   -1    0    0  502  501  0.00000000000E+00  0.00000000000E+00  0.47303378745E+03  0.47303378745E+03  0.00000000000E+00 0.  1.
         21   -1    0    0  501  502 -0.00000000000E+00 -0.00000000000E+00 -0.12247711525E+03  0.12247711525E+03  0.00000000000E+00 0.  1.
         25    1    1    2    0    0  0.85390161408E+02 -0.29577201505E+01  0.26240684081E+03  0.30295639600E+03  0.12500000000E+03 0.  0.
         25    1    1    2    0    0 -0.87302046883E+02  0.15052654132E+02  0.43658719076E+02  0.15930886208E+03  0.12500000000E+03 0.  0.
         25    1    1    2    0    0  0.19118854747E+01 -0.12094933981E+02  0.44491112320E+02  0.13324564462E+03  0.12500000000E+03 0.  0.
</event>
<event>
 5    0  0.5713700E-005  0.3953229E+03  0.7546771E-02  0.1045411E+00
         21   -1    0    0  502  501  0.00000000000E+00  0.00000000000E+00  0.56608352773E+03  0.56608352773E+03  0.00000000000E+00 0. -1.
         21   -1    0    0  501  502 -0.00000000000E+00 -0.00000000000E+00 -0.27607270082E+03  0.27607270082E+03  0.00000000000E+00 0. -1.
         25    1    1    2    0    0 -0.24624077533E+02  0.77395299883E+02 -0.93571527161E+02  0.17600286456E+03  0.12500000000E+03 0.  0.
         25    1    1    2    0    0 -0.23932264458E+02  0.10036919374E+03 -0.57556292901E+02  0.17200132321E+03  0.12500000000E+03 0.  0.
         25    1    1    2    0    0  0.48556341992E+02 -0.17776449363E+03  0.44113864697E+03  0.49415204077E+03  0.12500000000E+03 0.  0.
</event>
<event>
 5    0  0.5713700E-005  0.3661776E+03  0.7546771E-02  0.1056164E+00
         21   -1    0    0  502  501  0.00000000000E+00  0.00000000000E+00  0.21777341338E+03  0.21777341338E+03  0.00000000000E+00 0. -1.
         21   -1    0    0  501  502 -0.00000000000E+00 -0.00000000000E+00 -0.61571345236E+03  0.61571345236E+03  0.00000000000E+00 0. -1.
         25    1    1    2    0    0  0.79166686565E+02  0.22854709114E+03 -0.16488365082E+03  0.31829664691E+03  0.12500000000E+03 0.  0.
         25    1    1    2    0    0  0.60627498120E+02 -0.21281134428E+03 -0.63673458091E+02  0.26199937222E+03  0.12500000000E+03 0.  0.
         25    1    1    2    0    0 -0.13979418468E+03 -0.15735746862E+02 -0.16938293007E+03  0.25319084659E+03  0.12500000000E+03 0.  0.
</event>
<event>
 5    0  0.5713700E-005  0.3211646E+03  0.7546771E-02  0.1075115E+00
         21   -1    0    0  502  501  0.00000000000E+00  0.00000000000E+00  0.21405448442E+03  0.21405448442E+03  0.00000000000E+00 0. -1.
         21   -1    0    0  501  502 -0.00000000000E+00 -0.00000000000E+00 -0.48187132184E+03  0.48187132184E+03  0.00000000000E+00 0. -1.
         25    1    1    2    0    0 -0.11309669792E+03 -0.47918333926E+02  0.64035916369E+02  0.18658142564E+03  0.12500000000E+03 0.  0.
         25    1    1    2    0    0 -0.24548402217E+01  0.39654059338E+01 -0.30735769572E+03  0.33183656188E+03  0.12500000000E+03 0.  0.
         25    1    1    2    0    0  0.11555153814E+03  0.43952927992E+02 -0.24495058074E+02  0.17750781875E+03  0.12500000000E+03 0.  0.
</event>
<event>
 5    0  0.5713700E-005  0.3813310E+03  0.7546771E-02  0.1050443E+00
         21   -1    0    0  502  501  0.00000000000E+00  0.00000000000E+00  0.24874711843E+03  0.24874711843E+03  0.00000000000E+00 0. -1.
         21   -1    0    0  501  502 -0.00000000000E+00 -0.00000000000E+00 -0.58458302227E+03  0.58458302227E+03  0.00000000000E+00 0. -1.
         25    1    1    2    0    0 -0.32157770689E+02 -0.15718572119E+02 -0.41182349322E+03  0.43186199797E+03  0.12500000000E+03 0.  0.
         25    1    1    2    0    0 -0.54905921864E+02  0.54064082742E+02  0.16503063811E+03  0.22090200727E+03  0.12500000000E+03 0.  0.
         25    1    1    2    0    0  0.87063692553E+02 -0.38345510623E+02 -0.89043048732E+02  0.18056613546E+03  0.12500000000E+03 0.  0.
</event>
<event>
 5    0  0.5713700E-005  0.3416132E+03  0.7546771E-02  0.1066111E+00
         21   -1    0    0  502  501  0.00000000000E+00  0.00000000000E+00  0.19421865482E+03  0.19421865482E+03  0.00000000000E+00 0.  1.
         21   -1    0    0  501  502 -0.00000000000E+00 -0.00000000000E+00 -0.60086711940E+03  0.60086711940E+03  0.00000000000E+00 0.  1.
         25    1    1    2    0    0 -0.88001052654E+02  0.12858147663E+03 -0.34985731651E+03  0.40286787327E+03  0.12500000000E+03 0.  0.
         25    1    1    2    0    0 -0.13463336395E+02 -0.12608972150E+03 -0.12478831951E+03  0.21743275737E+03  0.12500000000E+03 0.  0.
         25    1    1    2    0    0  0.10146438905E+03 -0.24917551326E+01  0.67997171438E+02  0.17478514357E+03  0.12500000000E+03 0.  0.
</event>
<event>
 5    0  0.5713700E-005  0.3751052E+03  0.7546771E-02  0.1052758E+00
         21   -1    0    0  502  501  0.00000000000E+00  0.00000000000E+00  0.89944596304E+03  0.89944596304E+03  0.00000000000E+00 0. -1.
         21   -1    0    0  501  502 -0.00000000000E+00 -0.00000000000E+00 -0.15643394083E+03  0.15643394083E+03  0.00000000000E+00 0. -1.
         25    1    1    2    0    0 -0.10803215593E+03 -0.17960873463E+03  0.22505382395E+03  0.33197058296E+03  0.12500000000E+03 0.  0.
         25    1    1    2    0    0  0.40366797730E+02  0.26280085636E+03  0.46659819872E+03  0.55139155554E+03  0.12500000000E+03 0.  0.
         25    1    1    2    0    0  0.67665358203E+02 -0.83192121731E+02  0.51359999532E+02  0.17251776538E+03  0.12500000000E+03 0.  0.
</event>
<event>
 5    0  0.5713700E-005  0.3151715E+03  0.7546771E-02  0.1077893E+00
         21   -1    0    0  502  501  0.00000000000E+00  0.00000000000E+00  0.33616426043E+03  0.33616426043E+03  0.00000000000E+00 0.  1.
         21   -1    0    0  501  502 -0.00000000000E+00 -0.00000000000E+00 -0.29548966658E+03  0.29548966658E+03  0.00000000000E+00 0.  1.
         25    1    1    2    0    0  0.57460180708E+02 -0.13238872793E+02 -0.16315206479E+03  0.21382361040E+03  0.12500000000E+03 0.  0.
         25    1    1    2    0    0  0.18349654282E+02  0.45716436532E+02 -0.32331483728E+02  0.13819199406E+03  0.12500000000E+03 0.  0.
         25    1    1    2    0    0 -0.75809834989E+02 -0.32477563740E+02  0.23615814237E+03  0.27963832254E+03  0.12500000000E+03 0.  0.
</event>
<event>
 5    0  0.5713700E-005  0.2762916E+03  0.7546771E-02  0.1097732E+00
         21   -1    0    0  502  501  0.00000000000E+00  0.00000000000E+00  0.27992649558E+02  0.27992649558E+02  0.00000000000E+00 0.  1.
         21   -1    0    0  501  502 -0.00000000000E+00 -0.00000000000E+00 -0.27270398347E+04  0.27270398347E+04  0.00000000000E+00 0.  1.
         25    1    1    2    0    0 -0.52549315205E+02  0.94232815027E+02 -0.16241820612E+04  0.16325543243E+04  0.12500000000E+03 0.  0.
         25    1    1    2    0    0 -0.55153042429E+02 -0.10700620010E+02 -0.40536861229E+03  0.42790778584E+03  0.12500000000E+03 0.  0.
         25    1    1    2    0    0  0.10770235763E+03 -0.83532195017E+02 -0.66949651171E+03  0.69457037414E+03  0.12500000000E+03 0.  0.
</event>
<event>
 5    0  0.5713700E-005  0.3335611E+03  0.7546771E-02  0.1069572E+00
         21   -1    0    0  502  501  0.00000000000E+00  0.00000000000E+00  0.26396978730E+03  0.26396978730E+03  0.00000000000E+00 0. -1.
         21   -1    0    0  501  502 -0.00000000000E+00 -0.00000000000E+00 -0.42149894014E+03  0.42149894014E+03  0.00000000000E+00 0. -1.
         25    1    1    2    0    0  0.25047724243E+02  0.10082195038E+03  0.46827590296E+02  0.16914572824E+03  0.12500000000E+03 0.  0.
         25    1    1    2    0    0  0.17545683196E+02 -0.46056935533E+02 -0.31045957117E+03  0.33828868979E+03  0.12500000000E+03 0.  0.
         25    1    1    2    0    0 -0.42593407439E+02 -0.54765014851E+02  0.10610282804E+03  0.17803430941E+03  0.12500000000E+03 0.  0.
</event>
<event>
 5    0  0.6014726E-005  0.3261827E+03  0.7546771E-02  0.1072839E+00
         21   -1    0    0  502  501  0.00000000000E+00  0.00000000000E+00  0.71131245457E+03  0.71131245457E+03  0.00000000000E+00 0.  1.
         21   -1    0    0  501  502 -0.00000000000E+00 -0.00000000000E+00 -0.14957580451E+03  0.14957580451E+03  0.00000000000E+00 0.  1.
         25    1    1    2    0    0  0.62201465819E+02  0.17516198394E+03  0.10740802004E+03  0.24841945523E+03  0.12500000000E+03 0.  0.
         25    1    1    2    0    0  0.10050460379E+03 -0.96842240866E+02  0.16830248749E+03  0.25185377165E+03  0.12500000000E+03 0.  0.
         25    1    1    2    0    0 -0.16270606960E+03 -0.78319743073E+02  0.28602614254E+03  0.36061503221E+03  0.12500000000E+03 0.  0.
</event>
<event>
 5    0  0.5713700E-005  0.3479470E+03  0.7546771E-02  0.1063461E+00
         21   -1    0    0  502  501  0.00000000000E+00  0.00000000000E+00  0.19648604113E+04  0.19648604113E+04  0.00000000000E+00 0.  1.
         21   -1    0    0  501  502 -0.00000000000E+00 -0.00000000000E+00 -0.61616146803E+02  0.61616146803E+02  0.00000000000E+00 0.  1.
         25    1    1    2    0    0 -0.20904708790E+03  0.43057725612E+02  0.42925081594E+03  0.49541489247E+03  0.12500000000E+03 0.  0.
         25    1    1    2    0    0  0.11229700370E+03 -0.12483945896E+03  0.10593995089E+04  0.10798832469E+04  0.12500000000E+03 0.  0.
         25    1    1    2    0    0  0.96750084198E+02  0.81781733343E+02  0.41459393967E+03  0.45117841871E+03  0.12500000000E+03 0.  0.
</event>
<event>
 5    0  0.5713700E-005  0.3341149E+03  0.7546771E-02  0.1069331E+00
         21   -1    0    0  502  501  0.00000000000E+00  0.00000000000E+00  0.19712446125E+03  0.19712446125E+03  0.00000000000E+00 0.  1.
         21   -1    0    0  501  502 -0.00000000000E+00 -0.00000000000E+00 -0.56630616140E+03  0.56630616140E+03  0.00000000000E+00 0.  1.
         25    1    1    2    0    0 -0.13693811587E+02  0.94023984850E+02 -0.19784813298E+03  0.25258050979E+03  0.12500000000E+03 0.  0.
         25    1    1    2    0    0 -0.18759946106E+03 -0.46664928379E+02 -0.33400709870E+02  0.23261939032E+03  0.12500000000E+03 0.  0.
         25    1    1    2    0    0  0.20129327265E+03 -0.47359056471E+02 -0.13793285729E+03  0.27823072254E+03  0.12500000000E+03 0.  0.
</event>
<event>
 5    0  0.5713700E-005  0.3347755E+03  0.7546771E-02  0.1069043E+00
         21   -1    0    0  502  501  0.00000000000E+00  0.00000000000E+00  0.77948790303E+03  0.77948790303E+03  0.00000000000E+00 0.  1.
         21   -1    0    0  501  502 -0.00000000000E+00 -0.00000000000E+00 -0.14377986855E+03  0.14377986855E+03  0.00000000000E+00 0.  1.
         25    1    1    2    0    0 -0.11423725329E+03 -0.50140268891E+02 -0.23431359110E+02  0.17815225284E+03  0.12500000000E+03 0.  0.
         25    1    1    2    0    0 -0.43232393035E+02  0.46989294839E+02  0.20496428342E+03  0.24841978809E+03  0.12500000000E+03 0.  0.
         25    1    1    2    0    0  0.15746964632E+03  0.31509740515E+01  0.45417511017E+03  0.49669573066E+03  0.12500000000E+03 0.  0.
</event>
<event>
 5    0  0.5713700E-005  0.2774081E+03  0.7546771E-02  0.1097113E+00
         21   -1    0    0  502  501  0.00000000000E+00  0.00000000000E+00  0.19574512014E+03  0.19574512014E+03  0.00000000000E+00 0. -1.
         21   -1    0    0  501  502 -0.00000000000E+00 -0.00000000000E+00 -0.39314012924E+03  0.39314012924E+03  0.00000000000E+00 0. -1.
         25    1    1    2    0    0  0.30128173813E+02 -0.41897538155E+01 -0.22576726784E+03  0.25984826365E+03  0.12500000000E+03 0.  0.
         25    1    1    2    0    0 -0.56769205444E+02 -0.93288142756E+02  0.10069807980E+01  0.16598624725E+03  0.12500000000E+03 0.  0.
         25    1    1    2    0    0  0.26641031631E+02  0.97477896571E+02  0.27365277935E+02  0.16305073849E+03  0.12500000000E+03 0.  0.
</event>
<event>
 5    0  0.5713700E-005  0.4108140E+03  0.7546771E-02  0.1040098E+00
         21   -1    0    0  502  501  0.00000000000E+00  0.00000000000E+00  0.22808893704E+03  0.22808893704E+03  0.00000000000E+00 0.  1.
         21   -1    0    0  501  502 -0.00000000000E+00 -0.00000000000E+00 -0.73992247299E+03  0.73992247299E+03  0.00000000000E+00 0.  1.
         25    1    1    2    0    0 -0.10061021440E+03 -0.49801551767E+02 -0.25322088376E+03  0.30388883786E+03  0.12500000000E+03 0.  0.
         25    1    1    2    0    0 -0.85092545014E+02  0.25559522419E+03 -0.18952227842E+03  0.35229725214E+03  0.12500000000E+03 0.  0.
         25    1    1    2    0    0  0.18570275942E+03 -0.20579367243E+03 -0.69090373773E+02  0.31182532003E+03  0.12500000000E+03 0.  0.
</event>
<event>
 5    0  0.5713700E-005  0.4074469E+03  0.7546771E-02  0.1041231E+00
         21   -1    0    0  502  501  0.00000000000E+00  0.00000000000E+00  0.77086187536E+03  0.77086187536E+03  0.00000000000E+00 0. -1.
         21   -1    0    0  501  502 -0.00000000000E+00 -0.00000000000E+00 -0.21536018152E+03  0.21536018152E+03  0.00000000000E+00 0. -1.
         25    1    1    2    0    0 -0.16229125678E+03 -0.28250434333E+03  0.41070376882E+03  0.53893389368E+03  0.12500000000E+03 0.  0.
         25    1    1    2    0    0  0.89285950221E+02  0.18206606757E+03  0.37905893501E+02  0.24120922584E+03  0.12500000000E+03 0.  0.
         25    1    1    2    0    0  0.73005306563E+02  0.10043827576E+03  0.10689203151E+03  0.20607893736E+03  0.12500000000E+03 0.  0.
</event>
<event>
 5    0  0.5713700E-005  0.3103834E+03  0.7546771E-02  0.1080162E+00
         21   -1    0    0  502  501  0.00000000000E+00  0.00000000000E+00  0.63548180772E+03  0.63548180772E+03  0.00000000000E+00 0.  1.
         21   -1    0    0  501  502 -0.00000000000E+00 -0.00000000000E+00 -0.15159811722E+03  0.15159811722E+03  0.00000000000E+00 0.  1.
         25    1    1    2    0    0  0.95000540711E+02 -0.25405558667E+02  0.20655694371E+02  0.16038142928E+03  0.12500000000E+03 0.  0.
         25    1    1    2    0    0  0.69564172483E+02 -0.31028454717E+02  0.36056709071E+03  0.38914722921E+03  0.12500000000E+03 0.  0.
         25    1    1    2    0    0 -0.16456471319E+03  0.56434013385E+02  0.10266090542E+03  0.23755126646E+03  0.12500000000E+03 0.  0.
</event>
<event>
 5    0  0.5762581E-005  0.4029162E+03  0.7546771E-02  0.1042775E+00
         21   -1    0    0  502  501  0.00000000000E+00  0.00000000000E+00  0.35420843719E+03  0.35420843719E+03  0.00000000000E+00 0. -1.
         21   -1    0    0  501  502 -0.00000000000E+00 -0.00000000000E+00 -0.45832181818E+03  0.45832181818E+03  0.00000000000E+00 0. -1.
         25    1    1    2    0    0  0.17258627009E+02  0.20660109296E+03 -0.19339604994E+03  0.30985303605E+03  0.12500000000E+03 0.  0.
         25    1    1    2    0    0 -0.28812035969E+02  0.30137438547E+02  0.17705378355E+03  0.22070668519E+03  0.12500000000E+03 0.  0.
         25    1    1    2    0    0  0.11553408960E+02 -0.23673853150E+03 -0.87771114601E+02  0.28197053413E+03  0.12500000000E+03 0.  0.
</event>
<event>
 5    0  0.5713700E-005  0.2062394E+03  0.7546771E-02  0.1144579E+00
         21   -1    0    0  502  501  0.00000000000E+00  0.00000000000E+00  0.12686468314E+03  0.12686468314E+03  0.00000000000E+00 0.  1.
         21   -1    0    0  501  502 -0.00000000000E+00 -0.00000000000E+00 -0.33527600876E+03  0.33527600876E+03  0.00000000000E+00 0.  1.
         25    1    1    2    0    0  0.63424165339E+02 -0.31612014571E+01 -0.70640224629E+02  0.15699573013E+03  0.12500000000E+03 0.  0.
         25    1    1    2    0    0 -0.44024493878E+02 -0.36342651319E+02 -0.90040177433E+02  0.16428992032E+03  0.12500000000E+03 0.  0.
         25    1    1    2    0    0 -0.19399671460E+02  0.39503852776E+02 -0.47730923560E+02  0.14085504145E+03  0.12500000000E+03 0.  0.
</event>
<event>
 5    0  0.5713700E-005  0.3525524E+03  0.7546771E-02  0.1061572E+00
         21   -1    0    0  502  501  0.00000000000E+00  0.00000000000E+00  0.23056215774E+03  0.23056215774E+03  0.00000000000E+00 0.  1.
         21   -1    0    0  501  502 -0.00000000000E+00 -0.00000000000E+00 -0.53908753800E+03  0.53908753800E+03  0.00000000000E+00 0.  1.
         25    1    1    2    0    0  0.52087703886E+02 -0.17048027077E+03 -0.19131085291E+03  0.28983011241E+03  0.12500000000E+03 0.  0.
         25    1    1    2    0    0 -0.11736519953E+03 -0.65317080412E+02 -0.88086634352E+02  0.20353173268E+03  0.12500000000E+03 0.  0.
         25    1    1    2    0    0  0.65277495645E+02  0.23579735119E+03 -0.29127892993E+02  0.27628785065E+03  0.12500000000E+03 0.  0.
</event>
<event>
 5    0  0.5713700E-005  0.3675671E+03  0.7546771E-02  0.1055627E+00
         21   -1    0    0  502  501  0.00000000000E+00  0.00000000000E+00  0.87208277764E+02  0.87208277764E+02  0.00000000000E+00 0.  1.
         21   -1    0    0  501  502 -0.00000000000E+00 -0.00000000000E+00 -0.15492289883E+04  0.15492289883E+04  0.00000000000E+00 0.  1.
         25    1    1    2    0    0  0.57295034095E+02 -0.27560938468E+03 -0.48605758410E+03  0.57543047270E+03  0.12500000000E+03 0.  0.
         25    1    1    2    0    0  0.20573102654E+02  0.20748489847E+03 -0.46226101435E+03  0.52228678045E+03  0.12500000000E+03 0.  0.
         25    1    1    2    0    0 -0.77868136749E+02  0.68124486218E+02 -0.51370211205E+03  0.53872001287E+03  0.12500000000E+03 0.  0.
</event>
<event>
 5    0  0.5713700E-005  0.3352238E+03  0.7546771E-02  0.1068849E+00
         21   -1    0    0  502  501  0.00000000000E+00  0.00000000000E+00  0.12066611844E+04  0.12066611844E+04  0.00000000000E+00 0.  1.
         21   -1    0    0  501  502 -0.00000000000E+00 -0.00000000000E+00 -0.93128894170E+02  0.93128894170E+02  0.00000000000E+00 0.  1.
         25    1    1    2    0    0 -0.14615806728E+03 -0.15045712501E+03  0.17564907837E+03  0.30079415857E+03  0.12500000000E+03 0.  0.
         25    1    1    2    0    0  0.54026867768E+02  0.11873371717E+03  0.41504180745E+03  0.45266024783E+03  0.12500000000E+03 0.  0.
         25    1    1    2    0    0  0.92131199509E+02  0.31723407836E+02  0.52284140445E+03  0.54633567221E+03  0.12500000000E+03 0.  0.
</event>
<event>
 5    0  0.5713700E-005  0.3035287E+03  0.7546771E-02  0.1083490E+00
         21   -1    0    0  502  501  0.00000000000E+00  0.00000000000E+00  0.19298620210E+03  0.19298620210E+03  0.00000000000E+00 0.  1.
         21   -1    0    0  501  502 -0.00000000000E+00 -0.00000000000E+00 -0.47738994474E+03  0.47738994474E+03  0.00000000000E+00 0.  1.
         25    1    1    2    0    0 -0.92235891173E+02 -0.12478004764E+03 -0.15477675342E+03  0.25230609051E+03  0.12500000000E+03 0.  0.
         25    1    1    2    0    0 -0.10069370156E+02 -0.50547414150E+02 -0.11789357977E+03  0.17938876621E+03  0.12500000000E+03 0.  0.
         25    1    1    2    0    0  0.10230526133E+03  0.17532746179E+03 -0.11733409452E+02  0.23868129012E+03  0.12500000000E+03 0.  0.
</event>
<event>
 5    0  0.5713700E-005  0.2526457E+03  0.7546771E-02  0.1111644E+00
         21   -1    0    0  502  501  0.00000000000E+00  0.00000000000E+00  0.64234972880E+02  0.64234972880E+02  0.00000000000E+00 0.  1.
         21   -1    0    0  501  502 -0.00000000000E+00 -0.00000000000E+00 -0.99369289584E+03  0.99369289584E+03  0.00000000000E+00 0.  1.
         25    1    1    2    0    0 -0.70134569207E+02  0.57446543315E+02 -0.57300404375E+03  0.59344553018E+03  0.12500000000E+03 0.  0.
         25    1    1    2    0    0 -0.26698885961E+02 -0.41350215457E+02 -0.12355349164E+03  0.18251886513E+03  0.12500000000E+03 0.  0.
         25    1    1    2    0    0  0.96833455168E+02 -0.16096327857E+02 -0.23290038756E+03  0.28196347341E+03  0.12500000000E+03 0.  0.
</event>
<event>
 5    0  0.5713700E-005  0.2480790E+03  0.7546771E-02  0.1114525E+00
         21   -1    0    0  502  501  0.00000000000E+00  0.00000000000E+00  0.14417313673E+03  0.14417313673E+03  0.00000000000E+00 0.  1.
         21   -1    0    0  501  502 -0.00000000000E+00 -0.00000000000E+00 -0.42687018054E+03  0.42687018054E+03  0.00000000000E+00 0.  1.
         25    1    1    2    0    0  0.18710925546E+02  0.10189268166E+03 -0.45526837834E+02  0.16861171452E+03  0.12500000000E+03 0.  0.
         25    1    1    2    0    0 -0.77596068209E+02 -0.72197076353E+02 -0.57157093290E+02  0.17356699268E+03  0.12500000000E+03 0.  0.
         25    1    1    2    0    0  0.58885142663E+02 -0.29695605311E+02 -0.18001311269E+03  0.22886461007E+03  0.12500000000E+03 0.  0.
</event>
<event>
 5    0  0.5713700E-005  0.3762048E+03  0.7546771E-02  0.1052345E+00
         21   -1    0    0  502  501  0.00000000000E+00  0.00000000000E+00  0.23350599401E+03  0.23350599401E+03  0.00000000000E+00 0. -1.
         21   -1    0    0  501  502 -0.00000000000E+00 -0.00000000000E+00 -0.60610871082E+03  0.60610871082E+03  0.00000000000E+00 0.  1.
         25    1    1    2    0    0 -0.74403890965E+02 -0.27875382330E+03 -0.31031986050E+03  0.44177262117E+03  0.12500000000E+03 0.  0.
         25    1    1    2    0    0  0.16162621816E+02  0.17860346275E+03 -0.62686548341E+02  0.22740938986E+03  0.12500000000E+03 0.  0.
         25    1    1    2    0    0  0.58241269149E+02  0.10015036055E+03  0.40369202745E+00  0.17043269380E+03  0.12500000000E+03 0.  0.
</event>
<event>
 5    0  0.5713700E-005  0.3406641E+03  0.7546771E-02  0.1066513E+00
         21   -1    0    0  502  501  0.00000000000E+00  0.00000000000E+00  0.10175847845E+04  0.10175847845E+04  0.00000000000E+00 0.  1.
         21   -1    0    0  501  502 -0.00000000000E+00 -0.00000000000E+00 -0.11404656121E+03  0.11404656121E+03  0.00000000000E+00 0.  1.
         25    1    1    2    0    0  0.17662336142E+03 -0.80135616979E+01  0.35339148493E+03  0.41445213305E+03  0.12500000000E+03 0.  0.
         25    1    1    2    0    0  0.70848096370E+02  0.60654393455E+02  0.98004608497E+02  0.18419639381E+03  0.12500000000E+03 0.  0.
         25    1    1    2    0    0 -0.24747145779E+03 -0.52640831757E+02  0.45214212990E+03  0.53298281888E+03  0.12500000000E+03 0.  0.
</event>
<event>
 5    0  0.5713700E-005  0.2953520E+03  0.7546771E-02  0.1087587E+00
         21   -1    0    0  502  501  0.00000000000E+00  0.00000000000E+00  0.42868857805E+03  0.42868857805E+03  0.00000000000E+00 0. -1.
         21   -1    0    0  501  502 -0.00000000000E+00 -0.00000000000E+00 -0.20348759138E+03  0.20348759138E+03  0.00000000000E+00 0.  1.
         25    1    1    2    0    0 -0.30240570249E+02 -0.67543569728E-01 -0.23986375946E+02  0.13082370917E+03  0.12500000000E+03 0.  0.
         25    1    1    2    0    0 -0.14137071672E+03  0.56269758969E+02  0.19059101303E+03  0.27404725791E+03  0.12500000000E+03 0.  0.
         25    1    1    2    0    0  0.17161128697E+03 -0.56202215399E+02  0.58596349594E+02  0.22730520235E+03  0.12500000000E+03 0.  0.
</event>
<event>
 5    0  0.5713700E-005  0.3046031E+03  0.7546771E-02  0.1082962E+00
         21   -1    0    0  502  501  0.00000000000E+00  0.00000000000E+00  0.15464017543E+03  0.15464017543E+03  0.00000000000E+00 0.  1.
         21   -1    0    0  501  502 -0.00000000000E+00 -0.00000000000E+00 -0.59999333442E+03  0.59999333442E+03  0.00000000000E+00 0.  1.
         25    1    1    2    0    0 -0.39928229601E+02 -0.96707956509E+02 -0.10181803472E+03  0.19219418453E+03  0.12500000000E+03 0.  0.
         25    1    1    2    0    0 -0.69194684450E+02  0.12270046963E+03 -0.34659581018E+03  0.39445781173E+03  0.12500000000E+03 0.  0.
         25    1    1    2    0    0  0.10912291405E+03 -0.25992513119E+02  0.30606859093E+01  0.16798151359E+03  0.12500000000E+03 0.  0.
</event>
<event>
 5    0  0.5713700E-005  0.4375951E+03  0.7546771E-02  0.1031487E+00
         21   -1    0    0  502  501  0.00000000000E+00  0.00000000000E+00  0.45488355163E+03  0.45488355163E+03  0.00000000000E+00 0.  1.
         21   -1    0    0  501  502 -0.00000000000E+00 -0.00000000000E+00 -0.42096375766E+03  0.42096375766E+03  0.00000000000E+00 0.  1.
         25    1    1    2    0    0  0.19613853176E+02 -0.20744738006E+03 -0.25374255298E+03  0.35132520821E+03  0.12500000000E+03 0.  0.
         25    1    1    2    0    0 -0.64769168266E+02 -0.29060021530E+02  0.18538749947E+03  0.23459125084E+03  0.12500000000E+03 0.  0.
         25    1    1    2    0    0  0.45155315089E+02  0.23650740159E+03  0.10227484748E+03  0.28993085023E+03  0.12500000000E+03 0.  0.
</event>
<event>
 5    0  0.5713700E-005  0.2289607E+03  0.7546771E-02  0.1127373E+00
         21   -1    0    0  502  501  0.00000000000E+00  0.00000000000E+00  0.12979511770E+03  0.12979511770E+03  0.00000000000E+00 0.  1.
         21   -1    0    0  501  502 -0.00000000000E+00 -0.00000000000E+00 -0.40389029158E+03  0.40389029158E+03  0.00000000000E+00 0.  1.
         25    1    1    2    0    0  0.33142529797E+01 -0.99235715450E+02 -0.15099933696E+03  0.21973736882E+03  0.12500000000E+03 0.  0.
         25    1    1    2    0    0  0.45891618218E+02  0.36098157034E+02 -0.79564339492E+02  0.15926268139E+03  0.12500000000E+03 0.  0.
         25    1    1    2    0    0 -0.49205871197E+02  0.63137558416E+02 -0.43531497431E+02  0.15468535907E+03  0.12500000000E+03 0.  0.
</event>
<event>
 5    0  0.5713700E-005  0.2408992E+03  0.7546771E-02  0.1119195E+00
         21   -1    0    0  502  501  0.00000000000E+00  0.00000000000E+00  0.36457989123E+02  0.36457989123E+02  0.00000000000E+00 0.  1.
         21   -1    0    0  501  502 -0.00000000000E+00 -0.00000000000E+00 -0.15917610708E+04  0.15917610708E+04  0.00000000000E+00 0.  1.
         25    1    1    2    0    0  0.48536382593E+02 -0.15979045817E+02 -0.24275091690E+03  0.27778430120E+03  0.12500000000E+03 0.  0.
         25    1    1    2    0    0  0.30311894313E+02  0.63243633921E+01 -0.29125471956E+03  0.31845426701E+03  0.12500000000E+03 0.  0.
         25    1    1    2    0    0 -0.78848276906E+02  0.96546824245E+01 -0.10212974452E+04  0.10319804917E+04  0.12500000000E+03 0.  0.
</event>
<event>
 5    0  0.5713700E-005  0.3597735E+03  0.7546771E-02  0.1058674E+00
         21   -1    0    0  502  501  0.00000000000E+00  0.00000000000E+00  0.13281338972E+03  0.13281338972E+03  0.00000000000E+00 0.  1.
         21   -1    0    0  501  502 -0.00000000000E+00 -0.00000000000E+00 -0.97457768305E+03  0.97457768305E+03  0.00000000000E+00 0.  1.
         25    1    1    2    0    0 -0.75445066389E+02 -0.10373650391E+03  0.20720416289E+02  0.18029851895E+03  0.12500000000E+03 0.  0.
         25    1    1    2    0    0  0.21715844837E+02  0.14986692050E+03 -0.49529982484E+03  0.53280257907E+03  0.12500000000E+03 0.  0.
         25    1    1    2    0    0  0.53729221552E+02 -0.46130416589E+02 -0.36718488477E+03  0.39428997475E+03  0.12500000000E+03 0.  0.
</event>
<event>
 5    0  0.6085679E-005  0.2810682E+03  0.7546771E-02  0.1095107E+00
         21   -1    0    0  502  501  0.00000000000E+00  0.00000000000E+00  0.32287285214E+03  0.32287285214E+03  0.00000000000E+00 0. -1.
         21   -1    0    0  501  502 -0.00000000000E+00 -0.00000000000E+00 -0.24467633219E+03  0.24467633219E+03  0.00000000000E+00 0. -1.
         25    1    1    2    0    0  0.35889919182E+02 -0.82331817381E+02  0.37998848101E+01  0.15396770303E+03  0.12500000000E+03 0.  0.
         25    1    1    2    0    0 -0.18193143773E+02  0.10118281379E+03  0.18420344722E+03  0.24520371583E+03  0.12500000000E+03 0.  0.
         25    1    1    2    0    0 -0.17696775409E+02 -0.18850996412E+02 -0.10980681208E+03  0.16837776547E+03  0.12500000000E+03 0.  0.
</event>
<event>
 5    0  0.5713700E-005  0.3848655E+03  0.7546771E-02  0.1049150E+00
         21   -1    0    0  502  501  0.00000000000E+00  0.00000000000E+00  0.32142746087E+03  0.32142746087E+03  0.00000000000E+00 0.  1.
         21   -1    0    0  501  502 -0.00000000000E+00 -0.00000000000E+00 -0.46082389321E+03  0.46082389321E+03  0.00000000000E+00 0.  1.
         25    1    1    2    0    0 -0.45189882332E+01 -0.16962901604E+03  0.45473521462E+02  0.21560905707E+03  0.12500000000E+03 0.  0.
         25    1    1    2    0    0 -0.49445508452E+02 -0.14048261594E+03 -0.41235205255E+02  0.19876007104E+03  0.12500000000E+03 0.  0.
         25    1    1    2    0    0  0.53964496685E+02  0.31011163198E+03 -0.14363474854E+03  0.36788222596E+03  0.12500000000E+03 0.  0.
</event>
<event>
 5    0  0.5713700E-005  0.2949666E+03  0.7546771E-02  0.1087784E+00
         21   -1    0    0  502  501  0.00000000000E+00  0.00000000000E+00  0.63234349513E+03  0.63234349513E+03  0.00000000000E+00 0. -1.
         21   -1    0    0  501  502 -0.00000000000E+00 -0.00000000000E+00 -0.13759179050E+03  0.13759179050E+03  0.00000000000E+00 0. -1.
         25    1    1    2    0    0  0.11817734508E+03  0.79241453802E+02  0.17009632042E+03  0.25456404128E+03  0.12500000000E+03 0.  0.
         25    1    1    2    0    0 -0.81740877961E+02 -0.47318320677E+02  0.34581848063E+03  0.37965249393E+03  0.12500000000E+03 0.  0.
         25    1    1    2    0    0 -0.36436467124E+02 -0.31923133125E+02 -0.21163096426E+02  0.13571875042E+03  0.12500000000E+03 0.  0.
</event>
<event>
 5    0  0.5846795E-005  0.2760907E+03  0.7546771E-02  0.1097843E+00
         21   -1    0    0  502  501  0.00000000000E+00  0.00000000000E+00  0.17436899159E+03  0.17436899159E+03  0.00000000000E+00 0.  1.
         21   -1    0    0  501  502 -0.00000000000E+00 -0.00000000000E+00 -0.43715376309E+03  0.43715376309E+03  0.00000000000E+00 0.  1.
         25    1    1    2    0    0  0.92335256209E+00 -0.10887382477E+03 -0.37051388190E+02  0.16985925841E+03  0.12500000000E+03 0.  0.
         25    1    1    2    0    0  0.35523815779E+02 -0.70442066152E+02 -0.41633114838E+02  0.15356543368E+03  0.12500000000E+03 0.  0.
         25    1    1    2    0    0 -0.36447168341E+02  0.17931589092E+03 -0.18410026847E+03  0.28809806259E+03  0.12500000000E+03 0.  0.
</event>
<event>
 5    0  0.5713700E-005  0.2220944E+03  0.7546771E-02  0.1132331E+00
         21   -1    0    0  502  501  0.00000000000E+00  0.00000000000E+00  0.50038430908E+03  0.50038430908E+03  0.00000000000E+00 0. -1.
         21   -1    0    0  501  502 -0.00000000000E+00 -0.00000000000E+00 -0.98576078191E+02  0.98576078191E+02  0.00000000000E+00 0. -1.
         25    1    1    2    0    0 -0.44358697134E+02  0.97018966268E+02  0.13950975196E+03  0.21556517511E+03  0.12500000000E+03 0.  0.
         25    1    1    2    0    0  0.33987761999E+02 -0.65829313224E+02  0.10225522157E+03  0.17767891485E+03  0.12500000000E+03 0.  0.
         25    1    1    2    0    0  0.10370935135E+02 -0.31189653044E+02  0.16004325735E+03  0.20571629730E+03  0.12500000000E+03 0.  0.
</event>
<event>
 5    0  0.5713700E-005  0.2169269E+03  0.7546771E-02  0.1136195E+00
         21   -1    0    0  502  501  0.00000000000E+00  0.00000000000E+00  0.47722961308E+03  0.47722961308E+03  0.00000000000E+00 0. -1.
         21   -1    0    0  501  502 -0.00000000000E+00 -0.00000000000E+00 -0.98605098031E+02  0.98605098031E+02  0.00000000000E+00 0. -1.
         25    1    1    2    0    0 -0.33234547311E+02 -0.59939124006E+02  0.11683190287E+03  0.18431475049E+03  0.12500000000E+03 0.  0.
         25    1    1    2    0    0 -0.20763683497E+02  0.15329319942E+02  0.19589398982E+03  0.23380670189E+03  0.12500000000E+03 0.  0.
         25    1    1    2    0    0  0.53998230808E+02  0.44609804064E+02  0.65898622366E+02  0.15771325873E+03  0.12500000000E+03 0.  0.
</event>
<event>
 5    0  0.5713700E-005  0.4651934E+03  0.7546771E-02  0.1023286E+00
         21   -1    0    0  502  501  0.00000000000E+00  0.00000000000E+00  0.98511383350E+03  0.98511383350E+03  0.00000000000E+00 0.  1.
         21   -1    0    0  501  502 -0.00000000000E+00 -0.00000000000E+00 -0.21967503882E+03  0.21967503882E+03  0.00000000000E+00 0.  1.
         25    1    1    2    0    0 -0.10145417566E+03 -0.21663862000E+03  0.60470442687E+03  0.66220667870E+03  0.12500000000E+03 0.  0.
         25    1    1    2    0    0  0.17348043379E+03  0.92352993190E+02 -0.70201182860E+02  0.24326475769E+03  0.12500000000E+03 0.  0.
         25    1    1    2    0    0 -0.72026258134E+02  0.12428562681E+03  0.23093555067E+03  0.29931743593E+03  0.12500000000E+03 0.  0.
</event>
<event>
 5    0  0.5960006E-005  0.2867416E+03  0.7546771E-02  0.1092063E+00
         21   -1    0    0  502  501  0.00000000000E+00  0.00000000000E+00  0.12571885570E+03  0.12571885570E+03  0.00000000000E+00 0. -1.
         21   -1    0    0  501  502 -0.00000000000E+00 -0.00000000000E+00 -0.65400473601E+03  0.65400473601E+03  0.00000000000E+00 0. -1.
         25    1    1    2    0    0 -0.53205103784E+02 -0.14358807736E+03 -0.15358015081E+03  0.25032015850E+03  0.12500000000E+03 0.  0.
         25    1    1    2    0    0  0.11205748103E+03  0.14371847524E+03 -0.15522996024E+03  0.27006151103E+03  0.12500000000E+03 0.  0.
         25    1    1    2    0    0 -0.58852377245E+02 -0.13039787840E+00 -0.21947576926E+03  0.25934192218E+03  0.12500000000E+03 0.  0.
</event>
<event>
 5    0  0.5713700E-005  0.2257023E+03  0.7546771E-02  0.1129702E+00
         21   -1    0    0  502  501  0.00000000000E+00  0.00000000000E+00  0.38283249022E+03  0.38283249022E+03  0.00000000000E+00 0.  1.
         21   -1    0    0  501  502 -0.00000000000E+00 -0.00000000000E+00 -0.13306481268E+03  0.13306481268E+03  0.00000000000E+00 0.  1.
         25    1    1    2    0    0  0.10745905105E+03  0.87047664226E+00  0.41790372485E+02  0.17005775670E+03  0.12500000000E+03 0.  0.
         25    1    1    2    0    0 -0.44652307502E+02 -0.11919727054E+02  0.12554681541E+03  0.18309263043E+03  0.12500000000E+03 0.  0.
         25    1    1    2    0    0 -0.62806743549E+02  0.11049250412E+02  0.82430489633E+02  0.16274691576E+03  0.12500000000E+03 0.  0.
</event>
<event>
 5    0  0.5713700E-005  0.2898884E+03  0.7546771E-02  0.1090407E+00
         21   -1    0    0  502  501  0.00000000000E+00  0.00000000000E+00  0.68224346510E+03  0.68224346510E+03  0.00000000000E+00 0. -1.
         21   -1    0    0  501  502 -0.00000000000E+00 -0.00000000000E+00 -0.12317494729E+03  0.12317494729E+03  0.00000000000E+00 0. -1.
         25    1    1    2    0    0 -0.15539700716E+02  0.14025589882E+02  0.60447533557E+02  0.14041760496E+03  0.12500000000E+03 0.  0.
         25    1    1    2    0    0  0.12671574558E+03  0.10736519310E+03  0.13850735674E+03  0.24978681458E+03  0.12500000000E+03 0.  0.
         25    1    1    2    0    0 -0.11117604486E+03 -0.12139078298E+03  0.36011362751E+03  0.41521399285E+03  0.12500000000E+03 0.  0.
</event>
<event>
 5    0  0.5713700E-005  0.2037503E+03  0.7546771E-02  0.1146613E+00
         21   -1    0    0  502  501  0.00000000000E+00  0.00000000000E+00  0.10927354957E+03  0.10927354957E+03  0.00000000000E+00 0.  1.
         21   -1    0    0  501  502 -0.00000000000E+00 -0.00000000000E+00 -0.37991075014E+03  0.37991075014E+03  0.00000000000E+00 0.  1.
         25    1    1    2    0    0 -0.33614815993E+01 -0.25362827057E+02 -0.15220710984E+03  0.19861162312E+03  0.12500000000E+03 0.  0.
         25    1    1    2    0    0 -0.16879297731E+02 -0.11752727915E+02 -0.25616191397E+02  0.12924483188E+03  0.12500000000E+03 0.  0.
         25    1    1    2    0    0  0.20240779330E+02  0.37115554972E+02 -0.92813899332E+02  0.16132784471E+03  0.12500000000E+03 0.  0.
</event>
<event>
 5    0  0.5713700E-005  0.2419177E+03  0.7546771E-02  0.1118522E+00
         21   -1    0    0  502  501  0.00000000000E+00  0.00000000000E+00  0.69931722135E+02  0.69931722135E+02  0.00000000000E+00 0.  1.
         21   -1    0    0  501  502 -0.00000000000E+00 -0.00000000000E+00 -0.83687603375E+03  0.83687603375E+03  0.00000000000E+00 0.  1.
         25    1    1    2    0    0 -0.34362892868E+02 -0.27615398055E+02 -0.94013887137E+02  0.16250239872E+03  0.12500000000E+03 0.  0.
         25    1    1    2    0    0 -0.15275216720E+02 -0.19303825401E+02 -0.12620524589E+03  0.17932856440E+03  0.12500000000E+03 0.  0.
         25    1    1    2    0    0  0.49638109587E+02  0.46919223455E+02 -0.54672517859E+03  0.56497679276E+03  0.12500000000E+03 0.  0.
</event>
<event>
 5    0  0.5713700E-005  0.2772600E+03  0.7546771E-02  0.1097195E+00
         21   -1    0    0  502  501  0.00000000000E+00  0.00000000000E+00  0.62995190703E+03  0.62995190703E+03  0.00000000000E+00 0. -1.
         21   -1    0    0  501  502 -0.00000000000E+00 -0.00000000000E+00 -0.12203008567E+03  0.12203008567E+03  0.00000000000E+00 0. -1.
         25    1    1    2    0    0 -0.66909486677E+02  0.62487537173E+01  0.26765754784E+03  0.30295459932E+03  0.12500000000E+03 0.  0.
         25    1    1    2    0    0  0.92912308111E+02 -0.19895006070E+02  0.27441541525E+03  0.31616028908E+03  0.12500000000E+03 0.  0.
         25    1    1    2    0    0 -0.26002821434E+02  0.13646252353E+02 -0.34151141731E+02  0.13286710431E+03  0.12500000000E+03 0.  0.
</event>
<event>
 5    0  0.5713700E-005  0.3182899E+03  0.7546771E-02  0.1076439E+00
         21   -1    0    0  502  501  0.00000000000E+00  0.00000000000E+00  0.82499358483E+03  0.82499358483E+03  0.00000000000E+00 0. -1.
         21   -1    0    0  501  502 -0.00000000000E+00 -0.00000000000E+00 -0.12279906833E+03  0.12279906833E+03  0.00000000000E+00 0. -1.
         25    1    1    2    0    0  0.80178602484E+02 -0.23774442129E+02  0.10353833138E+03  0.18258975453E+03  0.12500000000E+03 0.  0.
         25    1    1    2    0    0 -0.13556406785E+03 -0.98058610653E+02  0.52993639220E+03  0.56960572977E+03  0.12500000000E+03 0.  0.
         25    1    1    2    0    0  0.55385465370E+02  0.12183305278E+03  0.68719792920E+02  0.19559716885E+03  0.12500000000E+03 0.  0.
</event>
<event>
 5    0  0.5713700E-005  0.5695625E+03  0.7546771E-02  0.9970647E-01
         21   -1    0    0  502  501  0.00000000000E+00  0.00000000000E+00  0.68633640331E+03  0.68633640331E+03  0.00000000000E+00 0. -1.
         21   -1    0    0  501  502 -0.00000000000E+00 -0.00000000000E+00 -0.47265669832E+03  0.47265669832E+03  0.00000000000E+00 0. -1.
         25    1    1    2    0    0 -0.10288220094E+03  0.17613170810E+03  0.20540659819E+03  0.31531570916E+03  0.12500000000E+03 0.  0.
         25    1    1    2    0    0 -0.15140394067E+02  0.28034954295E+03  0.14104870201E+03  0.33814912997E+03  0.12500000000E+03 0.  0.
         25    1    1    2    0    0  0.11802259500E+03 -0.45648125105E+03 -0.13277559520E+03  0.50552826248E+03  0.12500000000E+03 0.  0.
</event>
<event>
 5    0  0.5713700E-005  0.2876854E+03  0.7546771E-02  0.1091564E+00
         21   -1    0    0  502  501  0.00000000000E+00  0.00000000000E+00  0.46773691074E+03  0.46773691074E+03  0.00000000000E+00 0.  1.
         21   -1    0    0  501  502 -0.00000000000E+00 -0.00000000000E+00 -0.17694331068E+03  0.17694331068E+03  0.00000000000E+00 0.  1.
         25    1    1    2    0    0  0.10335327555E+02 -0.35109629022E+02  0.30347555149E+03  0.33024523524E+03  0.12500000000E+03 0.  0.
         25    1    1    2    0    0 -0.75809207838E+02  0.78929668915E+02 -0.13385931071E+02  0.16667666837E+03  0.12500000000E+03 0.  0.
         25    1    1    2    0    0  0.65473880282E+02 -0.43820039892E+02  0.70397963878E+00  0.14775831781E+03  0.12500000000E+03 0.  0.
</event>
<event>
 5    0  0.5713700E-005  0.2695630E+03  0.7546771E-02  0.1101530E+00
         21   -1    0    0  502  501  0.00000000000E+00  0.00000000000E+00  0.65586331106E+03  0.65586331106E+03  0.00000000000E+00 0.  1.
         21   -1    0    0  501  502 -0.00000000000E+00 -0.00000000000E+00 -0.11079169256E+03  0.11079169256E+03  0.00000000000E+00 0.  1.
         25    1    1    2    0    0 -0.13707966224E+03  0.60875985347E+02  0.19449593118E+03  0.27559097706E+03  0.12500000000E+03 0.  0.
         25    1    1    2    0    0  0.16392819510E+03 -0.10415433905E+02  0.20998109465E+03  0.29444523179E+03  0.12500000000E+03 0.  0.
         25    1    1    2    0    0 -0.26848532864E+02 -0.50460551442E+02  0.14059459267E+03  0.19661879477E+03  0.12500000000E+03 0.  0.
</event>
<event>
 5    0  0.5713700E-005  0.3209183E+03  0.7546771E-02  0.1075227E+00
         21   -1    0    0  502  501  0.00000000000E+00  0.00000000000E+00  0.11133801834E+03  0.11133801834E+03  0.00000000000E+00 0. -1.
         21   -1    0    0  501  502 -0.00000000000E+00 -0.00000000000E+00 -0.92500773379E+03  0.92500773379E+03  0.00000000000E+00 0. -1.
         25    1    1    2    0    0  0.10821138663E+03 -0.10836270746E+03 -0.12880703534E+03  0.23594158794E+03  0.12500000000E+03 0.  0.
         25    1    1    2    0    0 -0.35591532254E+02 -0.94170543578E+02 -0.21016505233E+03  0.26444129342E+03  0.12500000000E+03 0.  0.
         25    1    1    2    0    0 -0.72619854380E+02  0.20253325104E+03 -0.47469762778E+03  0.53596287077E+03  0.12500000000E+03 0.  0.
</event>
<event>
 5    0  0.5713700E-005  0.5259796E+03  0.7546771E-02  0.1007212E+00
         21   -1    0    0  502  501  0.00000000000E+00  0.00000000000E+00  0.76213175289E+03  0.76213175289E+03  0.00000000000E+00 0. -1.
         21   -1    0    0  501  502 -0.00000000000E+00 -0.00000000000E+00 -0.36300093914E+03  0.36300093914E+03  0.00000000000E+00 0. -1.
         25    1    1    2    0    0 -0.36684700810E+03  0.24361735593E+02 -0.10482066909E+03  0.40222207073E+03  0.12500000000E+03 0.  0.
         25    1    1    2    0    0  0.31450655705E+03 -0.68316648190E+02  0.23220494709E+03  0.41608373712E+03  0.12500000000E+03 0.  0.
         25    1    1    2    0    0  0.52340451052E+02  0.43954912597E+02  0.27174653575E+03  0.30682688417E+03  0.12500000000E+03 0.  0.
</event>
<event>
 5    0  0.5713700E-005  0.3663356E+03  0.7546771E-02  0.1056103E+00
         21   -1    0    0  502  501  0.00000000000E+00  0.00000000000E+00  0.11827275513E+04  0.11827275513E+04  0.00000000000E+00 0.  1.
         21   -1    0    0  501  502 -0.00000000000E+00 -0.00000000000E+00 -0.11346801352E+03  0.11346801352E+03  0.00000000000E+00 0.  1.
         25    1    1    2    0    0 -0.37248638544E+02 -0.29262176350E+03  0.32905168398E+03  0.45925479669E+03  0.12500000000E+03 0.  0.
         25    1    1    2    0    0  0.22999700150E+02  0.15331463663E+03  0.32311539817E+03  0.37955622053E+03  0.12500000000E+03 0.  0.
         25    1    1    2    0    0  0.14248938394E+02  0.13930712688E+03  0.41709245565E+03  0.45738454762E+03  0.12500000000E+03 0.  0.
</event>
<event>
 5    0  0.5713700E-005  0.4017306E+03  0.7546771E-02  0.1043182E+00
         21   -1    0    0  502  501  0.00000000000E+00  0.00000000000E+00  0.33706236048E+03  0.33706236048E+03  0.00000000000E+00 0. -1.
         21   -1    0    0  501  502 -0.00000000000E+00 -0.00000000000E+00 -0.47880594761E+03  0.47880594761E+03  0.00000000000E+00 0. -1.
         25    1    1    2    0    0 -0.50359057366E+02  0.17060238377E+03  0.22467699985E+02  0.21856579226E+03  0.12500000000E+03 0.  0.
         25    1    1    2    0    0 -0.11904760945E+03 -0.27487461574E+03 -0.16105461034E+03  0.36234234530E+03  0.12500000000E+03 0.  0.
         25    1    1    2    0    0  0.16940666681E+03  0.10427223197E+03 -0.31566767826E+01  0.23496017052E+03  0.12500000000E+03 0.  0.
</event>
<event>
 5    0  0.5713700E-005  0.3777109E+03  0.7546771E-02  0.1051783E+00
         21   -1    0    0  502  501  0.00000000000E+00  0.00000000000E+00  0.22832881396E+03  0.22832881396E+03  0.00000000000E+00 0.  1.
         21   -1    0    0  501  502 -0.00000000000E+00 -0.00000000000E+00 -0.62482482130E+03  0.62482482130E+03  0.00000000000E+00 0.  1.
         25    1    1    2    0    0 -0.29232580130E+03  0.42105062646E+02 -0.74401283635E+02  0.32922296611E+03  0.12500000000E+03 0.  0.
         25    1    1    2    0    0  0.78864584431E+02 -0.48110028237E+01 -0.19083016600E+03  0.24142063019E+03  0.12500000000E+03 0.  0.
         25    1    1    2    0    0  0.21346121687E+03 -0.37294059823E+02 -0.13126455770E+03  0.28251003896E+03  0.12500000000E+03 0.  0.
</event>
<event>
 5    0  0.5713700E-005  0.2920474E+03  0.7546771E-02  0.1089285E+00
         21   -1    0    0  502  501  0.00000000000E+00  0.00000000000E+00  0.60225702203E+02  0.60225702203E+02  0.00000000000E+00 0. -1.
         21   -1    0    0  501  502 -0.00000000000E+00 -0.00000000000E+00 -0.14162004329E+04  0.14162004329E+04  0.00000000000E+00 0. -1.
         25    1    1    2    0    0  0.56154459507E+02 -0.48913416357E+02 -0.34326774846E+03  0.37283185587E+03  0.12500000000E+03 0.  0.
         25    1    1    2    0    0 -0.74624281501E+02  0.17885409759E+03 -0.37145654092E+03  0.43722137803E+03  0.12500000000E+03 0.  0.
         25    1    1    2    0    0  0.18469821994E+02 -0.12994068123E+03 -0.64125044133E+03  0.66637290121E+03  0.12500000000E+03 0.  0.
</event>
<event>
 5    0  0.5713700E-005  0.2861448E+03  0.7546771E-02  0.1092379E+00
         21   -1    0    0  502  501  0.00000000000E+00  0.00000000000E+00  0.18459204140E+04  0.18459204140E+04  0.00000000000E+00 0.  1.
         21   -1    0    0  501  502 -0.00000000000E+00 -0.00000000000E+00 -0.44356639359E+02  0.44356639359E+02  0.00000000000E+00 0.  1.
         25    1    1    2    0    0 -0.85268488654E+02  0.79971388927E+02  0.33647766060E+03  0.37750278713E+03  0.12500000000E+03 0.  0.
         25    1    1    2    0    0  0.11992639189E+02 -0.11675449351E+03  0.37323413649E+03  0.41073611454E+03  0.12500000000E+03 0.  0.
         25    1    1    2    0    0  0.73275849465E+02  0.36783104584E+02  0.10918519776E+04  0.11020381517E+04  0.12500000000E+03 0.  0.
</event>
<event>
 5    0  0.5713700E-005  0.2715183E+03  0.7546771E-02  0.1100414E+00
         21   -1    0    0  502  501  0.00000000000E+00  0.00000000000E+00  0.71769750804E+03  0.71769750804E+03  0.00000000000E+00 0.  1.
         21   -1    0    0  501  502 -0.00000000000E+00 -0.00000000000E+00 -0.10272043519E+03  0.10272043519E+03  0.00000000000E+00 0.  1.
         25    1    1    2    0    0  0.92300417927E+02  0.57488713072E+02  0.29941834594E+03  0.34219974455E+03  0.12500000000E+03 0.  0.
         25    1    1    2    0    0 -0.13259800237E+03 -0.56375040911E+02  0.76622907018E+02  0.20556372577E+03  0.12500000000E+03 0.  0.
         25    1    1    2    0    0  0.40297584445E+02 -0.11136721607E+01  0.23893581988E+03  0.27265447292E+03  0.12500000000E+03 0.  0.
</event>
<event>
 5    0  0.5713700E-005  0.3486501E+03  0.7546771E-02  0.1063170E+00
         21   -1    0    0  502  501  0.00000000000E+00  0.00000000000E+00  0.80834711795E+03  0.80834711795E+03  0.00000000000E+00 0. -1.
         21   -1    0    0  501  502 -0.00000000000E+00 -0.00000000000E+00 -0.15037707846E+03  0.15037707846E+03  0.00000000000E+00 0. -1.
         25    1    1    2    0    0 -0.11982376943E+03 -0.63484945099E+02 -0.21748622827E+02  0.18570427181E+03  0.12500000000E+03 0.  0.
         25    1    1    2    0    0 -0.40870311468E+02  0.66135621670E+02  0.40612549951E+03  0.43198058309E+03  0.12500000000E+03 0.  0.
         25    1    1    2    0    0  0.16069408090E+03 -0.26506765709E+01  0.27359316280E+03  0.34103934151E+03  0.12500000000E+03 0.  0.
</event>
<event>
 5    0  0.5713700E-005  0.3533418E+03  0.7546771E-02  0.1061252E+00
         21   -1    0    0  502  501  0.00000000000E+00  0.00000000000E+00  0.27234204048E+03  0.27234204048E+03  0.00000000000E+00 0. -1.
         21   -1    0    0  501  502 -0.00000000000E+00 -0.00000000000E+00 -0.45843245992E+03  0.45843245992E+03  0.00000000000E+00 0. -1.
         25    1    1    2    0    0  0.11367923530E+03  0.53673723505E+02  0.10148571237E+03  0.20427478295E+03  0.12500000000E+03 0.  0.
         25    1    1    2    0    0 -0.11082508025E+03 -0.73215506571E+02  0.29809871717E+02  0.18481433187E+03  0.12500000000E+03 0.  0.
         25    1    1    2    0    0 -0.28541550477E+01  0.19541783066E+02 -0.31738600353E+03  0.34168538558E+03  0.12500000000E+03 0.  0.
</event>
<event>
 5    0  0.5713700E-005  0.3764224E+03  0.7546771E-02  0.1052264E+00
         21   -1    0    0  502  501  0.00000000000E+00  0.00000000000E+00  0.13493736721E+04  0.13493736721E+04  0.00000000000E+00 0.  1.
         21   -1    0    0  501  502 -0.00000000000E+00 -0.00000000000E+00 -0.10500708899E+03  0.10500708899E+03  0.00000000000E+00 0.  1.
         25    1    1    2    0    0  0.98724546730E+02  0.13146523892E+03  0.71934390903E+02  0.21869888378E+03  0.12500000000E+03 0.  0.
         25    1    1    2    0    0  0.76616004696E+02 -0.73252994720E+02  0.57750765888E+03  0.60031334275E+03  0.12500000000E+03 0.  0.
         25    1    1    2    0    0 -0.17534055143E+03 -0.58212244202E+02  0.59492453330E+03  0.63536853453E+03  0.12500000000E+03 0.  0.
</event>
<event>
 5    0  0.5713700E-005  0.2451572E+03  0.7546771E-02  0.1116404E+00
         21   -1    0    0  502  501  0.00000000000E+00  0.00000000000E+00  0.80062262712E+03  0.80062262712E+03  0.00000000000E+00 0.  1.
         21   -1    0    0  501  502 -0.00000000000E+00 -0.00000000000E+00 -0.75069114001E+02  0.75069114001E+02  0.00000000000E+00 0.  1.
         25    1    1    2    0    0  0.11036729124E+03 -0.26785437918E+02  0.29489105824E+03  0.33982956742E+03  0.12500000000E+03 0.  0.
         25    1    1    2    0    0  0.82018444346E+01 -0.25074026409E+02  0.11192427816E+03  0.16984705206E+03  0.12500000000E+03 0.  0.
         25    1    1    2    0    0 -0.11856913567E+03  0.51859464327E+02  0.31873817672E+03  0.36601512164E+03  0.12500000000E+03 0.  0.
</event>
<event>
 5    0  0.5947779E-005  0.3272265E+03  0.7546771E-02  0.1072371E+00
         21   -1    0    0  502  501  0.00000000000E+00  0.00000000000E+00  0.44052623380E+03  0.44052623380E+03  0.00000000000E+00 0.  1.
         21   -1    0    0  501  502 -0.00000000000E+00 -0.00000000000E+00 -0.24306650594E+03  0.24306650594E+03  0.00000000000E+00 0.  1.
         25    1    1    2    0    0 -0.11379176617E+03 -0.10343336990E+03  0.48653401488E+02  0.20405680957E+03  0.12500000000E+03 0.  0.
         25    1    1    2    0    0  0.21121061259E+03  0.75962506038E+02 -0.50380399285E+01  0.25696421354E+03  0.12500000000E+03 0.  0.
         25    1    1    2    0    0 -0.97418846423E+02  0.27470863861E+02  0.15384436630E+03  0.22257171663E+03  0.12500000000E+03 0.  0.
</event>
<event>
 5    0  0.5713700E-005  0.7309696E+03  0.7546771E-02  0.9665688E-01
         21   -1    0    0  502  501  0.00000000000E+00  0.00000000000E+00  0.24943566290E+03  0.24943566290E+03  0.00000000000E+00 0. -1.
         21   -1    0    0  501  502 -0.00000000000E+00 -0.00000000000E+00 -0.21421018932E+04  0.21421018932E+04  0.00000000000E+00 0. -1.
         25    1    1    2    0    0 -0.24654178048E+03 -0.19049656029E+03 -0.43439226061E+03  0.54899310112E+03  0.12500000000E+03 0.  0.
         25    1    1    2    0    0  0.47801022793E+03  0.40214693959E+03 -0.45194794443E+03  0.78108762856E+03  0.12500000000E+03 0.  0.
         25    1    1    2    0    0 -0.23146844745E+03 -0.21165037930E+03 -0.10063260253E+04  0.10614568264E+04  0.12500000000E+03 0.  0.
</event>
<event>
 5    0  0.5713700E-005  0.2797506E+03  0.7546771E-02  0.1095825E+00
         21   -1    0    0  502  501  0.00000000000E+00  0.00000000000E+00  0.29604946863E+03  0.29604946863E+03  0.00000000000E+00 0. -1.
         21   -1    0    0  501  502 -0.00000000000E+00 -0.00000000000E+00 -0.26434913040E+03  0.26434913040E+03  0.00000000000E+00 0. -1.
         25    1    1    2    0    0  0.27412041876E+02  0.17634775679E+01  0.97203723409E+02  0.16071121223E+03  0.12500000000E+03 0.  0.
         25    1    1    2    0    0 -0.18822246914E+02  0.15085598153E+03 -0.33598310866E+02  0.19966384408E+03  0.12500000000E+03 0.  0.
         25    1    1    2    0    0 -0.85897949625E+01 -0.15261945909E+03 -0.31905074322E+02  0.20002354271E+03  0.12500000000E+03 0.  0.
</event>
<event>
 5    0  0.5713700E-005  0.6324084E+03  0.7546771E-02  0.9840360E-01
         21   -1    0    0  502  501  0.00000000000E+00  0.00000000000E+00  0.34542491527E+03  0.34542491527E+03  0.00000000000E+00 0.  1.
         21   -1    0    0  501  502 -0.00000000000E+00 -0.00000000000E+00 -0.11578214007E+04  0.11578214007E+04  0.00000000000E+00 0.  1.
         25    1    1    2    0    0  0.16355831166E+03 -0.18557928042E+02  0.92102210882E+02  0.22628198173E+03  0.12500000000E+03 0.  0.
         25    1    1    2    0    0 -0.45681532235E+03 -0.19454416325E+03 -0.58872976031E+03  0.78022778780E+03  0.12500000000E+03 0.  0.
         25    1    1    2    0    0  0.29325701069E+03  0.21310209129E+03 -0.31576893605E+03  0.49673654647E+03  0.12500000000E+03 0.  0.
</event>
<event>
 5    0  0.5713700E-005  0.2620117E+03  0.7546771E-02  0.1105941E+00
         21   -1    0    0  502  501  0.00000000000E+00  0.00000000000E+00  0.43905760660E+03  0.43905760660E+03  0.00000000000E+00 0. -1.
         21   -1    0    0  501  502 -0.00000000000E+00 -0.00000000000E+00 -0.15635789483E+03  0.15635789483E+03  0.00000000000E+00 0. -1.
         25    1    1    2    0    0  0.31824579716E+02 -0.44984459149E+02  0.20872341644E+02  0.13819211296E+03  0.12500000000E+03 0.  0.
         25    1    1    2    0    0  0.80742073611E+02  0.11899596533E+03  0.12124729727E+03  0.22584337341E+03  0.12500000000E+03 0.  0.
         25    1    1    2    0    0 -0.11256665333E+03 -0.74011506180E+02  0.14058007285E+03  0.23138001507E+03  0.12500000000E+03 0.  0.
</event>
<event>
 5    0  0.5713700E-005  0.4057390E+03  0.7546771E-02  0.1041810E+00
         21   -1    0    0  502  501  0.00000000000E+00  0.00000000000E+00  0.50382701889E+03  0.50382701889E+03  0.00000000000E+00 0.  1.
         21   -1    0    0  501  502 -0.00000000000E+00 -0.00000000000E+00 -0.32674740191E+03  0.32674740191E+03  0.00000000000E+00 0.  1.
         25    1    1    2    0    0 -0.16513938060E+03  0.43601338141E+02  0.10515241464E+03  0.23633476684E+03  0.12500000000E+03 0.  0.
         25    1    1    2    0    0  0.28938337198E+03  0.11817113028E+03 -0.21681152761E+02  0.33734585279E+03  0.12500000000E+03 0.  0.
         25    1    1    2    0    0 -0.12424399137E+03 -0.16177246842E+03  0.93608355096E+02  0.25689380116E+03  0.12500000000E+03 0.  0.
</event>
<event>
 5    0  0.5713700E-005  0.2595058E+03  0.7546771E-02  0.1107440E+00
         21   -1    0    0  502  501  0.00000000000E+00  0.00000000000E+00  0.63658724878E+03  0.63658724878E+03  0.00000000000E+00 0. -1.
         21   -1    0    0  501  502 -0.00000000000E+00 -0.00000000000E+00 -0.10578798253E+03  0.10578798253E+03  0.00000000000E+00 0. -1.
         25    1    1    2    0    0  0.95084974662E+02 -0.10307310114E+03  0.18970942264E+03  0.26698292384E+03  0.12500000000E+03 0.  0.
         25    1    1    2    0    0  0.32894473017E+02  0.54986526850E+02  0.10538013090E+03  0.17560050250E+03  0.12500000000E+03 0.  0.
         25    1    1    2    0    0 -0.12797944768E+03  0.48086574290E+02  0.23570971272E+03  0.29979180497E+03  0.12500000000E+03 0.  0.
</event>
<event>
 5    0  0.5713700E-005  0.2113602E+03  0.7546771E-02  0.1140493E+00
         21   -1    0    0  502  501  0.00000000000E+00  0.00000000000E+00  0.20672004465E+03  0.20672004465E+03  0.00000000000E+00 0.  1.
         21   -1    0    0  501  502 -0.00000000000E+00 -0.00000000000E+00 -0.21610443330E+03  0.21610443330E+03  0.00000000000E+00 0.  1.
         25    1    1    2    0    0 -0.12997301158E+02 -0.45876399248E+02  0.52574479734E+00  0.13378658473E+03  0.12500000000E+03 0.  0.
         25    1    1    2    0    0 -0.33801821673E+02  0.70001887271E+02  0.24205825095E+02  0.14917690618E+03  0.12500000000E+03 0.  0.
         25    1    1    2    0    0  0.46799122831E+02 -0.24125488024E+02 -0.34115958539E+02  0.13986098704E+03  0.12500000000E+03 0.  0.
</event>
<event>
 5    0  0.5713700E-005  0.3314682E+03  0.7546771E-02  0.1070489E+00
         21   -1    0    0  502  501  0.00000000000E+00  0.00000000000E+00  0.38350129284E+03  0.38350129284E+03  0.00000000000E+00 0.  1.
         21   -1    0    0  501  502 -0.00000000000E+00 -0.00000000000E+00 -0.28649493718E+03  0.28649493718E+03  0.00000000000E+00 0.  1.
         25    1    1    2    0    0  0.29380052875E+02  0.12008402694E+03 -0.58486310855E+02  0.18528089375E+03  0.12500000000E+03 0.  0.
         25    1    1    2    0    0 -0.15461493044E+03  0.24526407034E+02  0.15964003063E+03  0.25615866321E+03  0.12500000000E+03 0.  0.
         25    1    1    2    0    0  0.12523487756E+03 -0.14461043397E+03 -0.41473641146E+01  0.22855667306E+03  0.12500000000E+03 0.  0.
</event>
<event>
 5    0  0.5713700E-005  0.2988672E+03  0.7546771E-02  0.1085808E+00
         21   -1    0    0  502  501  0.00000000000E+00  0.00000000000E+00  0.10632965558E+03  0.10632965558E+03  0.00000000000E+00 0. -1.
         21   -1    0    0  501  502 -0.00000000000E+00 -0.00000000000E+00 -0.84004395743E+03  0.84004395743E+03  0.00000000000E+00 0. -1.
         25    1    1    2    0    0  0.12462950794E+03 -0.58219760917E+02 -0.14992767192E+03  0.23879983588E+03  0.12500000000E+03 0.  0.
         25    1    1    2    0    0 -0.60629335022E+02 -0.45697400235E+02 -0.48565917587E+03  0.50720213304E+03  0.12500000000E+03 0.  0.
         25    1    1    2    0    0 -0.64000172922E+02  0.10391716115E+03 -0.98127454062E+02  0.20037164409E+03  0.12500000000E+03 0.  0.
</event>
<event>
 5    0  0.5713700E-005  0.3604342E+03  0.7546771E-02  0.1058412E+00
         21   -1    0    0  502  501  0.00000000000E+00  0.00000000000E+00  0.16538396436E+03  0.16538396436E+03  0.00000000000E+00 0. -1.
         21   -1    0    0  501  502 -0.00000000000E+00 -0.00000000000E+00 -0.78552233432E+03  0.78552233432E+03  0.00000000000E+00 0. -1.
         25    1    1    2    0    0  0.55565758877E+02 -0.25526518369E+02 -0.17701309627E+03  0.22516170400E+03  0.12500000000E+03 0.  0.
         25    1    1    2    0    0  0.15458403544E+02  0.10934950081E+03 -0.51731208485E+03  0.54353755040E+03  0.12500000000E+03 0.  0.
         25    1    1    2    0    0 -0.71024162421E+02 -0.83822982437E+02  0.74186811164E+02  0.18220704427E+03  0.12500000000E+03 0.  0.
</event>
<event>
 5    0  0.5713700E-005  0.2819446E+03  0.7546771E-02  0.1094632E+00
         21   -1    0    0  502  501  0.00000000000E+00  0.00000000000E+00  0.54947629584E+03  0.54947629584E+03  0.00000000000E+00 0.  1.
         21   -1    0    0  501  502 -0.00000000000E+00 -0.00000000000E+00 -0.14466998878E+03  0.14466998878E+03  0.00000000000E+00 0.  1.
         25    1    1    2    0    0 -0.79698185154E+02 -0.41304169794E+02 -0.52681980843E+02  0.16265984835E+03  0.12500000000E+03 0.  0.
         25    1    1    2    0    0  0.14115609097E+02  0.13305014004E+02  0.22180275870E+03  0.25533847651E+03  0.12500000000E+03 0.  0.
         25    1    1    2    0    0  0.65582576057E+02  0.27999155790E+02  0.23568552920E+03  0.27614795976E+03  0.12500000000E+03 0.  0.
</event>
<event>
 5    0  0.5713700E-005  0.3434418E+03  0.7546771E-02  0.1065339E+00
         21   -1    0    0  502  501  0.00000000000E+00  0.00000000000E+00  0.57061659539E+03  0.57061659539E+03  0.00000000000E+00 0.  1.
         21   -1    0    0  501  502 -0.00000000000E+00 -0.00000000000E+00 -0.20671019907E+03  0.20671019907E+03  0.00000000000E+00 0.  1.
         25    1    1    2    0    0 -0.10238667709E+03  0.24498611885E+02 -0.28460055908E+02  0.16588607058E+03  0.12500000000E+03 0.  0.
         25    1    1    2    0    0 -0.54313528866E+02 -0.15844202794E+03  0.97656216632E+02  0.23068500663E+03  0.12500000000E+03 0.  0.
         25    1    1    2    0    0  0.15670020595E+03  0.13394341606E+03  0.29471023560E+03  0.38075571725E+03  0.12500000000E+03 0.  0.
</event>
<event>
 5    0  0.5713700E-005  0.3036442E+03  0.7546771E-02  0.1083433E+00
         21   -1    0    0  502  501  0.00000000000E+00  0.00000000000E+00  0.76009711502E+02  0.76009711502E+02  0.00000000000E+00 0.  1.
         21   -1    0    0  501  502 -0.00000000000E+00 -0.00000000000E+00 -0.12130005254E+04  0.12130005254E+04  0.00000000000E+00 0.  1.
         25    1    1    2    0    0  0.47216967670E+01  0.19505556258E+02 -0.35596447533E+02  0.13150995484E+03  0.12500000000E+03 0.  0.
         25    1    1    2    0    0 -0.20879256037E+02  0.94004577854E+02 -0.30674356110E+03  0.34494842551E+03  0.12500000000E+03 0.  0.
         25    1    1    2    0    0  0.16157559270E+02 -0.11351013411E+03 -0.79465080532E+03  0.81255185660E+03  0.12500000000E+03 0.  0.
</event>
<event>
 5    0  0.5713700E-005  0.3158423E+03  0.7546771E-02  0.1077579E+00
         21   -1    0    0  502  501  0.00000000000E+00  0.00000000000E+00  0.13192001064E+03  0.13192001064E+03  0.00000000000E+00 0.  1.
         21   -1    0    0  501  502 -0.00000000000E+00 -0.00000000000E+00 -0.75618810982E+03  0.75618810982E+03  0.00000000000E+00 0.  1.
         25    1    1    2    0    0  0.65192427993E+02 -0.10870760260E+02 -0.71591612042E+02  0.15848843810E+03  0.12500000000E+03 0.  0.
         25    1    1    2    0    0  0.10964548342E+03 -0.11803117085E+03 -0.35907597440E+03  0.41293346282E+03  0.12500000000E+03 0.  0.
         25    1    1    2    0    0 -0.17483791141E+03  0.12890193111E+03 -0.19360051273E+03  0.31668621953E+03  0.12500000000E+03 0.  0.
</event>
<event>
 5    0  0.5713700E-005  0.4093191E+03  0.7546771E-02  0.1040600E+00
         21   -1    0    0  502  501  0.00000000000E+00  0.00000000000E+00  0.51028406511E+03  0.51028406511E+03  0.00000000000E+00 0.  1.
         21   -1    0    0  501  502 -0.00000000000E+00 -0.00000000000E+00 -0.32833103095E+03  0.32833103095E+03  0.00000000000E+00 0.  1.
         25    1    1    2    0    0  0.23060807452E+03  0.26996008829E+02 -0.90278871537E+01  0.26384724989E+03  0.12500000000E+03 0.  0.
         25    1    1    2    0    0 -0.10582678412E+03  0.16469242113E+03  0.21039780196E+03  0.31339294326E+03  0.12500000000E+03 0.  0.
         25    1    1    2    0    0 -0.12478129040E+03 -0.19168842996E+03 -0.19416880645E+02  0.26137490291E+03  0.12500000000E+03 0.  0.
</event>
<event>
 5    0  0.5713700E-005  0.3104921E+03  0.7546771E-02  0.1080110E+00
         21   -1    0    0  502  501  0.00000000000E+00  0.00000000000E+00  0.25777381254E+03  0.25777381254E+03  0.00000000000E+00 0. -1.
         21   -1    0    0  501  502 -0.00000000000E+00 -0.00000000000E+00 -0.37399212116E+03  0.37399212116E+03  0.00000000000E+00 0.  1.
         25    1    1    2    0    0 -0.19835989148E+02 -0.29448717414E+02  0.22416636984E+01  0.12996429694E+03  0.12500000000E+03 0.  0.
         25    1    1    2    0    0  0.67054137757E+02  0.21584029818E+03 -0.62447512060E+02  0.26572162778E+03  0.12500000000E+03 0.  0.
         25    1    1    2    0    0 -0.47218148609E+02 -0.18639158077E+03 -0.56012460259E+02  0.23608000899E+03  0.12500000000E+03 0.  0.
</event>
<event>
 5    0  0.5713700E-005  0.3771151E+03  0.7546771E-02  0.1052005E+00
         21   -1    0    0  502  501  0.00000000000E+00  0.00000000000E+00  0.19941362610E+04  0.19941362610E+04  0.00000000000E+00 0. -1.
         21   -1    0    0  501  502 -0.00000000000E+00 -0.00000000000E+00 -0.71316980009E+02  0.71316980009E+02  0.00000000000E+00 0. -1.
         25    1    1    2    0    0  0.15323920320E+03  0.10936213787E+02  0.43828858659E+03  0.48096126591E+03  0.12500000000E+03 0.  0.
         25    1    1    2    0    0 -0.26373497782E+03 -0.12462141819E+02  0.44939471006E+03  0.53599631429E+03  0.12500000000E+03 0.  0.
         25    1    1    2    0    0  0.11049577462E+03  0.15259280312E+01  0.10351359844E+04  0.10484956608E+04  0.12500000000E+03 0.  0.
</event>
<event>
 5    0  0.5713700E-005  0.2618880E+03  0.7546771E-02  0.1106014E+00
         21   -1    0    0  502  501  0.00000000000E+00  0.00000000000E+00  0.66764939650E+03  0.66764939650E+03  0.00000000000E+00 0.  1.
         21   -1    0    0  501  502 -0.00000000000E+00 -0.00000000000E+00 -0.10272653151E+03  0.10272653151E+03  0.00000000000E+00 0.  1.
         25    1    1    2    0    0 -0.11748476929E+03  0.29704809281E+02  0.95224651646E+02  0.19843835565E+03  0.12500000000E+03 0.  0.
         25    1    1    2    0    0  0.25008626685E+02 -0.29723097866E+01  0.35407499231E+03  0.37633544374E+03  0.12500000000E+03 0.  0.
         25    1    1    2    0    0  0.92476142607E+02 -0.26732499495E+02  0.11562322103E+03  0.19560212862E+03  0.12500000000E+03 0.  0.
</event>
<event>
 5    0  0.5713700E-005  0.3563918E+03  0.7546771E-02  0.1060022E+00
         21   -1    0    0  502  501  0.00000000000E+00  0.00000000000E+00  0.13909826907E+04  0.13909826907E+04  0.00000000000E+00 0.  1.
         21   -1    0    0  501  502 -0.00000000000E+00 -0.00000000000E+00 -0.91313207790E+02  0.91313207790E+02  0.00000000000E+00 0.  1.
         25    1    1    2    0    0  0.64679190437E+01  0.88025919243E+02  0.26561281022E+03  0.30653802601E+03  0.12500000000E+03 0.  0.
         25    1    1    2    0    0 -0.70821978806E+02 -0.23530104798E+03  0.87494653691E+03  0.91735422729E+03  0.12500000000E+03 0.  0.
         25    1    1    2    0    0  0.64354059763E+02  0.14727512874E+03  0.15911013581E+03  0.25840364523E+03  0.12500000000E+03 0.  0.
</event>
<event>
 5    0  0.5713700E-005  0.3182777E+03  0.7546771E-02  0.1076445E+00
         21   -1    0    0  502  501  0.00000000000E+00  0.00000000000E+00  0.15053631760E+04  0.15053631760E+04  0.00000000000E+00 0.  1.
         21   -1    0    0  501  502 -0.00000000000E+00 -0.00000000000E+00 -0.67293177783E+02  0.67293177783E+02  0.00000000000E+00 0.  1.
         25    1    1    2    0    0 -0.20347471224E+03 -0.13663375336E+03  0.53067318982E+03  0.59775394225E+03  0.12500000000E+03 0.  0.
         25    1    1    2    0    0  0.71278232663E+02  0.85808292518E+02  0.42093620613E+03  0.45305180625E+03  0.12500000000E+03 0.  0.
         25    1    1    2    0    0  0.13219647957E+03  0.50825460840E+02  0.48646060228E+03  0.52185060530E+03  0.12500000000E+03 0.  0.
</event>
<event>
 5    0  0.6594564E-005  0.5495032E+03  0.7546771E-02  0.1001609E+00
         21   -1    0    0  502  501  0.00000000000E+00  0.00000000000E+00  0.57139436804E+03  0.57139436804E+03  0.00000000000E+00 0. -1.
         21   -1    0    0  501  502 -0.00000000000E+00 -0.00000000000E+00 -0.52845068233E+03  0.52845068233E+03  0.00000000000E+00 0. -1.
         25    1    1    2    0    0  0.81338594915E+02 -0.15856739812E+03  0.22994023377E+03  0.31663401250E+03  0.12500000000E+03 0.  0.
         25    1    1    2    0    0 -0.27345906148E+03  0.17834912594E+03  0.14568527184E+03  0.37873139223E+03  0.12500000000E+03 0.  0.
         25    1    1    2    0    0  0.19212046657E+03 -0.19781727826E+02 -0.33268181991E+03  0.40447964563E+03  0.12500000000E+03 0.  0.
</event>
<event>
 5    0  0.5713700E-005  0.2632883E+03  0.7546771E-02  0.1105183E+00
         21   -1    0    0  502  501  0.00000000000E+00  0.00000000000E+00  0.35955567868E+03  0.35955567868E+03  0.00000000000E+00 0. -1.
         21   -1    0    0  501  502 -0.00000000000E+00 -0.00000000000E+00 -0.19279556120E+03  0.19279556120E+03  0.00000000000E+00 0. -1.
         25    1    1    2    0    0 -0.21492432849E+02  0.47835012941E+02  0.15680350293E+03  0.20727385669E+03  0.12500000000E+03 0.  0.
         25    1    1    2    0    0 -0.27712427352E+02 -0.11171554620E+03 -0.60648272939E+02  0.18042049469E+03  0.12500000000E+03 0.  0.
         25    1    1    2    0    0  0.49204860201E+02  0.63880533258E+02  0.70604887487E+02  0.16465688851E+03  0.12500000000E+03 0.  0.
</event>
<event>
 5    0  0.5713700E-005  0.3226383E+03  0.7546771E-02  0.1074441E+00
         21   -1    0    0  502  501  0.00000000000E+00  0.00000000000E+00  0.42842558075E+03  0.42842558075E+03  0.00000000000E+00 0. -1.
         21   -1    0    0  501  502 -0.00000000000E+00 -0.00000000000E+00 -0.24297216529E+03  0.24297216529E+03  0.00000000000E+00 0. -1.
         25    1    1    2    0    0 -0.78919657328E+02 -0.13635906937E+03 -0.84466525516E+02  0.21813230399E+03  0.12500000000E+03 0.  0.
         25    1    1    2    0    0  0.11434809611E+03  0.14166146028E+03  0.22608807996E+03  0.31604473784E+03  0.12500000000E+03 0.  0.
         25    1    1    2    0    0 -0.35428438787E+02 -0.53023909134E+01  0.43831861012E+02  0.13722070421E+03  0.12500000000E+03 0.  0.
</event>
<event>
 5    0  0.5713700E-005  0.3134833E+03  0.7546771E-02  0.1078688E+00
         21   -1    0    0  502  501  0.00000000000E+00  0.00000000000E+00  0.54364872466E+03  0.54364872466E+03  0.00000000000E+00 0.  1.
         21   -1    0    0  501  502 -0.00000000000E+00 -0.00000000000E+00 -0.18076337590E+03  0.18076337590E+03  0.00000000000E+00 0.  1.
         25    1    1    2    0    0 -0.80906419531E+01 -0.33846026391E+00 -0.46969705131E+02  0.13377864644E+03  0.12500000000E+03 0.  0.
         25    1    1    2    0    0  0.16987389349E+03 -0.61614994815E+01  0.14514369976E+03  0.25609919434E+03  0.12500000000E+03 0.  0.
         25    1    1    2    0    0 -0.16178325153E+03  0.64999597454E+01  0.26471135414E+03  0.33453425978E+03  0.12500000000E+03 0.  0.
</event>
<event>
 5    0  0.5713700E-005  0.3698266E+03  0.7546771E-02  0.1054759E+00
         21   -1    0    0  502  501  0.00000000000E+00  0.00000000000E+00  0.24530824483E+04  0.24530824483E+04  0.00000000000E+00 0.  1.
         21   -1    0    0  501  502 -0.00000000000E+00 -0.00000000000E+00 -0.55755053452E+02  0.55755053452E+02  0.00000000000E+00 0.  1.
         25    1    1    2    0    0 -0.11056258580E+02  0.20862941603E+03  0.97149429952E+03  0.10015361442E+04  0.12500000000E+03 0.  0.
         25    1    1    2    0    0  0.13657534793E+02 -0.17739330061E+03  0.28132613069E+03  0.35556195405E+03  0.12500000000E+03 0.  0.
         25    1    1    2    0    0 -0.26012762133E+01 -0.31236115422E+02  0.11445069646E+04  0.11517394035E+04  0.12500000000E+03 0.  0.
</event>
<event>
 5    0  0.5713700E-005  0.2402856E+03  0.7546771E-02  0.1119603E+00
         21   -1    0    0  502  501  0.00000000000E+00  0.00000000000E+00  0.20297089761E+04  0.20297089761E+04  0.00000000000E+00 0.  1.
         21   -1    0    0  501  502 -0.00000000000E+00 -0.00000000000E+00 -0.28446045098E+02  0.28446045098E+02  0.00000000000E+00 0.  1.
         25    1    1    2    0    0  0.37275166994E+02 -0.34849514141E+02  0.11329976876E+04  0.11410138855E+04  0.12500000000E+03 0.  0.
         25    1    1    2    0    0  0.14255072805E+02 -0.50177822056E+02  0.41682010853E+03  0.43827505496E+03  0.12500000000E+03 0.  0.
         25    1    1    2    0    0 -0.51530239798E+02  0.85027336198E+02  0.45144513483E+03  0.47886608074E+03  0.12500000000E+03 0.  0.
</event>
<event>
 5    0  0.5713700E-005  0.3547373E+03  0.7546771E-02  0.1060687E+00
         21   -1    0    0  502  501  0.00000000000E+00  0.00000000000E+00  0.13629797365E+04  0.13629797365E+04  0.00000000000E+00 0.  1.
         21   -1    0    0  501  502 -0.00000000000E+00 -0.00000000000E+00 -0.92326079900E+02  0.92326079900E+02  0.00000000000E+00 0.  1.
         25    1    1    2    0    0  0.12083307545E+03 -0.30172756217E+01  0.33345015745E+03  0.37606348344E+03  0.12500000000E+03 0.  0.
         25    1    1    2    0    0 -0.13013532245E+03 -0.20901983043E+03  0.61089361002E+03  0.67040323271E+03  0.12500000000E+03 0.  0.
         25    1    1    2    0    0  0.93022470019E+01  0.21203710606E+03  0.32630988910E+03  0.40883910022E+03  0.12500000000E+03 0.  0.
</event>
<event>
 5    0  0.5713700E-005  0.2770152E+03  0.7546771E-02  0.1097330E+00
         21   -1    0    0  502  501  0.00000000000E+00  0.00000000000E+00  0.35337104202E+02  0.35337104202E+02  0.00000000000E+00 0.  1.
         21   -1    0    0  501  502 -0.00000000000E+00 -0.00000000000E+00 -0.21715816405E+04  0.21715816405E+04  0.00000000000E+00 0.  1.
         25    1    1    2    0    0  0.67152866603E+02 -0.38164818949E+02 -0.15994729856E+04  0.16062082345E+04  0.12500000000E+03 0.  0.
         25    1    1    2    0    0 -0.12597716397E+02 -0.60027933711E+01 -0.27001202998E+03  0.29786948874E+03  0.12500000000E+03 0.  0.
         25    1    1    2    0    0 -0.54555150206E+02  0.44167612321E+02 -0.26675952073E+03  0.30284102148E+03  0.12500000000E+03 0.  0.
</event>
<event>
 5    0  0.5713700E-005  0.2105831E+03  0.7546771E-02  0.1141105E+00
         21   -1    0    0  502  501  0.00000000000E+00  0.00000000000E+00  0.27944200826E+03  0.27944200826E+03  0.00000000000E+00 0.  1.
         21   -1    0    0  501  502 -0.00000000000E+00 -0.00000000000E+00 -0.15869216263E+03  0.15869216263E+03  0.00000000000E+00 0.  1.
         25    1    1    2    0    0 -0.34080600243E+02 -0.57055410022E+02  0.42332068139E+02  0.14776268514E+03  0.12500000000E+03 0.  0.
         25    1    1    2    0    0  0.31145673539E+02 -0.33390175550E+01  0.79679861086E+02  0.15150934717E+03  0.12500000000E+03 0.  0.
         25    1    1    2    0    0  0.29349267046E+01  0.60394427577E+02 -0.12620835967E+01  0.13886213858E+03  0.12500000000E+03 0.  0.
</event>
<event>
 5    0  0.5713700E-005  0.2895861E+03  0.7546771E-02  0.1090565E+00
         21   -1    0    0  502  501  0.00000000000E+00  0.00000000000E+00  0.12323359000E+04  0.12323359000E+04  0.00000000000E+00 0. -1.
         21   -1    0    0  501  502 -0.00000000000E+00 -0.00000000000E+00 -0.68049724690E+02  0.68049724690E+02  0.00000000000E+00 0. -1.
         25    1    1    2    0    0 -0.65350428383E+02  0.10881138050E+03  0.54930808168E+03  0.57747291158E+03  0.12500000000E+03 0.  0.
         25    1    1    2    0    0  0.10245574802E+03 -0.13865950215E+03  0.51065234259E+03  0.55327610904E+03  0.12500000000E+03 0.  0.
         25    1    1    2    0    0 -0.37105319635E+02  0.29848121645E+02  0.10432575105E+03  0.16963660408E+03  0.12500000000E+03 0.  0.
</event>
<event>
 5    0  0.5713700E-005  0.3332624E+03  0.7546771E-02  0.1069702E+00
         21   -1    0    0  502  501  0.00000000000E+00  0.00000000000E+00  0.44924415615E+03  0.44924415615E+03  0.00000000000E+00 0. -1.
         21   -1    0    0  501  502 -0.00000000000E+00 -0.00000000000E+00 -0.24722378374E+03  0.24722378374E+03  0.00000000000E+00 0. -1.
         25    1    1    2    0    0  0.12041778370E+02 -0.24742469445E+02  0.30136706420E+03  0.32742067987E+03  0.12500000000E+03 0.  0.
         25    1    1    2    0    0  0.16411567500E+02  0.13533475092E+03 -0.66713956756E+02  0.19662295486E+03  0.12500000000E+03 0.  0.
         25    1    1    2    0    0 -0.28453345869E+02 -0.11059228147E+03 -0.32632735042E+02  0.17242430516E+03  0.12500000000E+03 0.  0.
</event>
<event>
 5    0  0.5713700E-005  0.2744391E+03  0.7546771E-02  0.1098766E+00
         21   -1    0    0  502  501  0.00000000000E+00  0.00000000000E+00  0.59782798725E+03  0.59782798725E+03  0.00000000000E+00 0. -1.
         21   -1    0    0  501  502 -0.00000000000E+00 -0.00000000000E+00 -0.12598406959E+03  0.12598406959E+03  0.00000000000E+00 0. -1.
         25    1    1    2    0    0  0.10368614650E+03  0.55494956609E+02  0.10099691322E+03  0.19913785091E+03  0.12500000000E+03 0.  0.
         25    1    1    2    0    0 -0.17847671819E+03 -0.34603480232E+02  0.18721890221E+03  0.28935662620E+03  0.12500000000E+03 0.  0.
         25    1    1    2    0    0  0.74790571690E+02 -0.20891476377E+02  0.18362810223E+03  0.23531757972E+03  0.12500000000E+03 0.  0.
</event>
<event>
 5    0  0.5713700E-005  0.2794942E+03  0.7546771E-02  0.1095966E+00
         21   -1    0    0  502  501  0.00000000000E+00  0.00000000000E+00  0.13508560813E+03  0.13508560813E+03  0.00000000000E+00 0. -1.
         21   -1    0    0  501  502 -0.00000000000E+00 -0.00000000000E+00 -0.57827761137E+03  0.57827761137E+03  0.00000000000E+00 0. -1.
         25    1    1    2    0    0  0.42917739927E+02  0.47568609381E+02 -0.12264293035E+03  0.18646981891E+03  0.12500000000E+03 0.  0.
         25    1    1    2    0    0 -0.16847084920E+03  0.48586647164E+02 -0.18592411819E+03  0.28449229697E+03  0.12500000000E+03 0.  0.
         25    1    1    2    0    0  0.12555310927E+03 -0.96155256545E+02 -0.13462495469E+03  0.24240110362E+03  0.12500000000E+03 0.  0.
</event>
<event>
 5    0  0.5713700E-005  0.2812528E+03  0.7546771E-02  0.1095007E+00
         21   -1    0    0  502  501  0.00000000000E+00  0.00000000000E+00  0.47660131774E+03  0.47660131774E+03  0.00000000000E+00 0.  1.
         21   -1    0    0  501  502 -0.00000000000E+00 -0.00000000000E+00 -0.16597339799E+03  0.16597339799E+03  0.00000000000E+00 0.  1.
         25    1    1    2    0    0 -0.12322766723E+03  0.61319686375E+02  0.21526876446E+02  0.18717256294E+03  0.12500000000E+03 0.  0.
         25    1    1    2    0    0  0.64812519888E+02 -0.14467802588E+02  0.11660709222E+02  0.14202447742E+03  0.12500000000E+03 0.  0.
         25    1    1    2    0    0  0.58415147340E+02 -0.46851883787E+02  0.27744033407E+03  0.31337767538E+03  0.12500000000E+03 0.  0.
</event>
<event>
 5    0  0.5713700E-005  0.3238449E+03  0.7546771E-02  0.1073893E+00
         21   -1    0    0  502  501  0.00000000000E+00  0.00000000000E+00  0.12172713157E+04  0.12172713157E+04  0.00000000000E+00 0. -1.
         21   -1    0    0  501  502 -0.00000000000E+00 -0.00000000000E+00 -0.86156253436E+02  0.86156253436E+02  0.00000000000E+00 0. -1.
         25    1    1    2    0    0  0.18130293223E+03 -0.16268674787E+03  0.48542307237E+03  0.55731345790E+03  0.12500000000E+03 0.  0.
         25    1    1    2    0    0 -0.36898312389E+02  0.72112129282E+02  0.17284960323E+03  0.22817456033E+03  0.12500000000E+03 0.  0.
         25    1    1    2    0    0 -0.14440461984E+03  0.90574618584E+02  0.47284238668E+03  0.51793955091E+03  0.12500000000E+03 0.  0.
</event>
<event>
 5    0  0.5713700E-005  0.4276915E+03  0.7546771E-02  0.1034592E+00
         21   -1    0    0  502  501  0.00000000000E+00  0.00000000000E+00  0.16491373233E+03  0.16491373233E+03  0.00000000000E+00 0. -1.
         21   -1    0    0  501  502 -0.00000000000E+00 -0.00000000000E+00 -0.11091862892E+04  0.11091862892E+04  0.00000000000E+00 0. -1.
         25    1    1    2    0    0  0.43645723866E+02  0.86818903344E+02 -0.33838874048E+03  0.37359658841E+03  0.12500000000E+03 0.  0.
         25    1    1    2    0    0  0.11903464694E+02  0.24781309915E+03 -0.39200280668E+03  0.48046251157E+03  0.12500000000E+03 0.  0.
         25    1    1    2    0    0 -0.55549188561E+02 -0.33463200249E+03 -0.21388100969E+03  0.42004092151E+03  0.12500000000E+03 0.  0.
</event>
<event>
 5    0  0.5713700E-005  0.3285094E+03  0.7546771E-02  0.1071798E+00
         21   -1    0    0  502  501  0.00000000000E+00  0.00000000000E+00  0.62523483519E+02  0.62523483519E+02  0.00000000000E+00 0.  1.
         21   -1    0    0  501  502 -0.00000000000E+00 -0.00000000000E+00 -0.17260463823E+04  0.17260463823E+04  0.00000000000E+00 0.  1.
         25    1    1    2    0    0 -0.12003264081E+03  0.20517515460E+03 -0.77714804415E+03  0.82224616840E+03  0.12500000000E+03 0.  0.
         25    1    1    2    0    0  0.13759114504E+03 -0.12289205421E+03 -0.63821934184E+03  0.67600496188E+03  0.12500000000E+03 0.  0.
         25    1    1    2    0    0 -0.17558504223E+02 -0.82283100384E+02 -0.24815551280E+03  0.29031873556E+03  0.12500000000E+03 0.  0.
</event>
<event>
 5    0  0.5713700E-005  0.4062010E+03  0.7546771E-02  0.1041653E+00
         21   -1    0    0  502  501  0.00000000000E+00  0.00000000000E+00  0.17106932345E+03  0.17106932345E+03  0.00000000000E+00 0. -1.
         21   -1    0    0  501  502 -0.00000000000E+00 -0.00000000000E+00 -0.96451688439E+03  0.96451688439E+03  0.00000000000E+00 0.  1.
         25    1    1    2    0    0  0.22595864562E+02  0.53816401592E+02 -0.70089237446E+02  0.15473939182E+03  0.12500000000E+03 0.  0.
         25    1    1    2    0    0 -0.14369432400E+03 -0.29230891041E+03 -0.50427624583E+03  0.61319824687E+03  0.12500000000E+03 0.  0.
         25    1    1    2    0    0  0.12109845943E+03  0.23849250882E+03 -0.21908207766E+03  0.36764856914E+03  0.12500000000E+03 0.  0.
</event>
<event>
 5    0  0.5713700E-005  0.2486170E+03  0.7546771E-02  0.1114182E+00
         21   -1    0    0  502  501  0.00000000000E+00  0.00000000000E+00  0.19251048801E+03  0.19251048801E+03  0.00000000000E+00 0. -1.
         21   -1    0    0  501  502 -0.00000000000E+00 -0.00000000000E+00 -0.32107568676E+03  0.32107568676E+03  0.00000000000E+00 0. -1.
         25    1    1    2    0    0 -0.29892412724E+02  0.78325798961E+01 -0.14244517945E+03  0.19201701694E+03  0.12500000000E+03 0.  0.
         25    1    1    2    0    0 -0.65360487493E+02 -0.27952331420E+02  0.61101999726E+02  0.15624269752E+03  0.12500000000E+03 0.  0.
         25    1    1    2    0    0  0.95252900216E+02  0.20119751524E+02 -0.47222019031E+02  0.16532646032E+03  0.12500000000E+03 0.  0.
</event>
<event>
 5    0  0.6608951E-005  0.2738164E+03  0.7546771E-02  0.1099115E+00
         21   -1    0    0  502  501  0.00000000000E+00  0.00000000000E+00  0.43916351420E+03  0.43916351420E+03  0.00000000000E+00 0. -1.
         21   -1    0    0  501  502 -0.00000000000E+00 -0.00000000000E+00 -0.17072329914E+03  0.17072329914E+03  0.00000000000E+00 0. -1.
         25    1    1    2    0    0  0.11007914882E+03  0.25576879495E+02  0.10578483630E+03  0.19896488977E+03  0.12500000000E+03 0.  0.
         25    1    1    2    0    0  0.10795856092E+02  0.10766629691E+02  0.19325687145E+03  0.23066358444E+03  0.12500000000E+03 0.  0.
         25    1    1    2    0    0 -0.12087500491E+03 -0.36343509185E+02 -0.30601492689E+02  0.18025833913E+03  0.12500000000E+03 0.  0.
</event>
<event>
 5    0  0.5713700E-005  0.2272053E+03  0.7546771E-02  0.1128622E+00
         21   -1    0    0  502  501  0.00000000000E+00  0.00000000000E+00  0.19452374217E+03  0.19452374217E+03  0.00000000000E+00 0.  1.
         21   -1    0    0  501  502 -0.00000000000E+00 -0.00000000000E+00 -0.26537771323E+03  0.26537771323E+03  0.00000000000E+00 0.  1.
         25    1    1    2    0    0 -0.56090567761E+02  0.36436081754E+02 -0.77465217812E+02  0.16155370567E+03  0.12500000000E+03 0.  0.
         25    1    1    2    0    0  0.38206756423E+01  0.44432133892E+02 -0.30672743646E+02  0.13621537831E+03  0.12500000000E+03 0.  0.
         25    1    1    2    0    0  0.52269892118E+02 -0.80868215646E+02  0.37283990398E+02  0.16213237143E+03  0.12500000000E+03 0.  0.
</event>
<event>
 5    0  0.5713700E-005  0.3089211E+03  0.7546771E-02  0.1080864E+00
         21   -1    0    0  502  501  0.00000000000E+00  0.00000000000E+00  0.28958594745E+04  0.28958594745E+04  0.00000000000E+00 0. -1.
         21   -1    0    0  501  502 -0.00000000000E+00 -0.00000000000E+00 -0.32954728337E+02  0.32954728337E+02  0.00000000000E+00 0. -1.
         25    1    1    2    0    0  0.18321511950E+03  0.52517925385E+02  0.11493548192E+04  0.11717369214E+04  0.12500000000E+03 0.  0.
         25    1    1    2    0    0  0.94701026018E+01  0.31591915254E+02  0.38293707453E+03  0.40417018074E+03  0.12500000000E+03 0.  0.
         25    1    1    2    0    0 -0.19268522210E+03 -0.84109840638E+02  0.13306128524E+04  0.13529071007E+04  0.12500000000E+03 0.  0.
</event>
<event>
 5    0  0.6101500E-005  0.3542957E+03  0.7546771E-02  0.1060866E+00
         21   -1    0    0  502  501  0.00000000000E+00  0.00000000000E+00  0.30567423963E+03  0.30567423963E+03  0.00000000000E+00 0.  1.
         21   -1    0    0  501  502 -0.00000000000E+00 -0.00000000000E+00 -0.41065096308E+03  0.41065096308E+03  0.00000000000E+00 0.  1.
         25    1    1    2    0    0  0.26856905985E+03  0.15694543527E+02  0.42644579085E+01  0.29667969969E+03  0.12500000000E+03 0.  0.
         25    1    1    2    0    0 -0.94790832857E+02 -0.86806745602E+02 -0.40138529790E+02  0.18373027690E+03  0.12500000000E+03 0.  0.
         25    1    1    2    0    0 -0.17377822699E+03  0.71112202076E+02 -0.69102651574E+02  0.23591522612E+03  0.12500000000E+03 0.  0.
</event>
<event>
 5    0  0.5713700E-005  0.2099408E+03  0.7546771E-02  0.1141613E+00
         21   -1    0    0  502  501  0.00000000000E+00  0.00000000000E+00  0.65207856299E+02  0.65207856299E+02  0.00000000000E+00 0. -1.
         21   -1    0    0  501  502 -0.00000000000E+00 -0.00000000000E+00 -0.67591763525E+03  0.67591763525E+03  0.00000000000E+00 0. -1.
         25    1    1    2    0    0 -0.68835658651E+01  0.13518191710E+02 -0.96410248740E+02  0.15858770775E+03  0.12500000000E+03 0.  0.
         25    1    1    2    0    0 -0.33464235755E+02 -0.38219775544E+02 -0.20289900833E+03  0.24366701438E+03  0.12500000000E+03 0.  0.
         25    1    1    2    0    0  0.40347801620E+02  0.24701583834E+02 -0.31140052189E+03  0.33887076943E+03  0.12500000000E+03 0.  0.
</event>
<event>
 5    0  0.5713700E-005  0.3560335E+03  0.7546771E-02  0.1060166E+00
         21   -1    0    0  502  501  0.00000000000E+00  0.00000000000E+00  0.62482489744E+03  0.62482489744E+03  0.00000000000E+00 0.  1.
         21   -1    0    0  501  502 -0.00000000000E+00 -0.00000000000E+00 -0.20287263084E+03  0.20287263084E+03  0.00000000000E+00 0.  1.
         25    1    1    2    0    0  0.44745867444E+02 -0.38262525630E+02  0.48061313959E+03  0.50008019704E+03  0.12500000000E+03 0.  0.
         25    1    1    2    0    0 -0.11716889583E+02 -0.35103637361E+02  0.53989031240E+02  0.14110055404E+03  0.12500000000E+03 0.  0.
         25    1    1    2    0    0 -0.33028977861E+02  0.73366162990E+02 -0.11264990424E+03  0.18651677719E+03  0.12500000000E+03 0.  0.
</event>
<event>
 5    0  0.5713700E-005  0.2089476E+03  0.7546771E-02  0.1142402E+00
         21   -1    0    0  502  501  0.00000000000E+00  0.00000000000E+00  0.85720144736E+02  0.85720144736E+02  0.00000000000E+00 0. -1.
         21   -1    0    0  501  502 -0.00000000000E+00 -0.00000000000E+00 -0.50932134268E+03  0.50932134268E+03  0.00000000000E+00 0. -1.
         25    1    1    2    0    0  0.34520916874E+02 -0.29800284643E+02 -0.89214365253E+02  0.16019973044E+03  0.12500000000E+03 0.  0.
         25    1    1    2    0    0 -0.42157546199E+02  0.26522319827E+02 -0.24963642385E+03  0.28359131909E+03  0.12500000000E+03 0.  0.
         25    1    1    2    0    0  0.76366293252E+01  0.32779648161E+01 -0.84750408838E+02  0.15125043788E+03  0.12500000000E+03 0.  0.
</event>
<event>
 5    0  0.5713700E-005  0.2591250E+03  0.7546771E-02  0.1107670E+00
         21   -1    0    0  502  501  0.00000000000E+00  0.00000000000E+00  0.22474621672E+03  0.22474621672E+03  0.00000000000E+00 0. -1.
         21   -1    0    0  501  502 -0.00000000000E+00 -0.00000000000E+00 -0.29876249441E+03  0.29876249441E+03  0.00000000000E+00 0. -1.
         25    1    1    2    0    0 -0.20513771155E+02 -0.26437870266E+02  0.74388355667E+02  0.14925951645E+03  0.12500000000E+03 0.  0.
         25    1    1    2    0    0  0.92329118581E+02  0.35558493906E+02 -0.16429841260E+03  0.22892802583E+03  0.12500000000E+03 0.  0.
         25    1    1    2    0    0 -0.71815347426E+02 -0.91206236398E+01  0.15893779243E+02  0.14532116886E+03  0.12500000000E+03 0.  0.
</event>
<event>
 5    0  0.5713700E-005  0.4439251E+03  0.7546771E-02  0.1029549E+00
         21   -1    0    0  502  501  0.00000000000E+00  0.00000000000E+00  0.60828254571E+03  0.60828254571E+03  0.00000000000E+00 0.  1.
         21   -1    0    0  501  502 -0.00000000000E+00 -0.00000000000E+00 -0.32397686852E+03  0.32397686852E+03  0.00000000000E+00 0.  1.
         25    1    1    2    0    0 -0.12588059937E+03  0.30603098949E+03  0.54797858622E+02  0.35795069093E+03  0.12500000000E+03 0.  0.
         25    1    1    2    0    0  0.19248312029E+03 -0.30855199039E+03  0.17548092087E+03  0.42269686060E+03  0.12500000000E+03 0.  0.
         25    1    1    2    0    0 -0.66602520922E+02  0.25210009010E+01  0.54026897702E+02  0.15161186271E+03  0.12500000000E+03 0.  0.
</event>
<event>
 5    0  0.5713700E-005  0.3612780E+03  0.7546771E-02  0.1058079E+00
         21   -1    0    0  502  501  0.00000000000E+00  0.00000000000E+00  0.70294708111E+03  0.70294708111E+03  0.00000000000E+00 0.  1.
         21   -1    0    0  501  502 -0.00000000000E+00 -0.00000000000E+00 -0.18567801000E+03  0.18567801000E+03  0.00000000000E+00 0.  1.
         25    1    1    2    0    0  0.19054237067E+02  0.17883295099E+03  0.31359977683E+03  0.38251027220E+03  0.12500000000E+03 0.  0.
         25    1    1    2    0    0 -0.90328146107E+02 -0.25499868984E+03  0.10622279487E+03  0.31637286222E+03  0.12500000000E+03 0.  0.
         25    1    1    2    0    0  0.71273909040E+02  0.76165738842E+02  0.97446499405E+02  0.18974195669E+03  0.12500000000E+03 0.  0.
</event>
<event>
 5    0  0.1050282E-004  0.7343910E+03  0.7546771E-02  0.9660162E-01
         21   -1    0    0  502  501  0.00000000000E+00  0.00000000000E+00  0.10009452513E+04  0.10009452513E+04  0.00000000000E+00 0. -1.
         21   -1    0    0  501  502 -0.00000000000E+00 -0.00000000000E+00 -0.53882075607E+03  0.53882075607E+03  0.00000000000E+00 0. -1.
         25    1    1    2    0    0  0.21553467956E+03 -0.44130806040E+02 -0.31072791943E+03  0.40072380270E+03  0.12500000000E+03 0.  0.
         25    1    1    2    0    0  0.53131428982E+02 -0.32980182346E+03  0.37825688725E+03  0.51989947515E+03  0.12500000000E+03 0.  0.
         25    1    1    2    0    0 -0.26866610855E+03  0.37393262950E+03  0.39459552745E+03  0.61914272956E+03  0.12500000000E+03 0.  0.
</event>
<event>
 5    0  0.5713700E-005  0.4189128E+03  0.7546771E-02  0.1037421E+00
         21   -1    0    0  502  501  0.00000000000E+00  0.00000000000E+00  0.34204514770E+03  0.34204514770E+03  0.00000000000E+00 0. -1.
         21   -1    0    0  501  502 -0.00000000000E+00 -0.00000000000E+00 -0.51305485164E+03  0.51305485164E+03  0.00000000000E+00 0. -1.
         25    1    1    2    0    0 -0.49125294114E+02  0.36222008633E+01 -0.36791871312E+03  0.39168302787E+03  0.12500000000E+03 0.  0.
         25    1    1    2    0    0  0.93831835615E+02 -0.11734741235E+02  0.26959671846E+03  0.31184853396E+03  0.12500000000E+03 0.  0.
         25    1    1    2    0    0 -0.44706541500E+02  0.81125403715E+01 -0.72687709288E+02  0.15156843750E+03  0.12500000000E+03 0.  0.
</event>
<event>
 5    0  0.5713700E-005  0.3250181E+03  0.7546771E-02  0.1073363E+00
         21   -1    0    0  502  501  0.00000000000E+00  0.00000000000E+00  0.89156150454E+02  0.89156150454E+02  0.00000000000E+00 0. -1.
         21   -1    0    0  501  502 -0.00000000000E+00 -0.00000000000E+00 -0.11848510389E+04  0.11848510389E+04  0.00000000000E+00 0. -1.
         25    1    1    2    0    0  0.14132992318E+03  0.13384574359E+03 -0.40114597758E+03  0.46306794921E+03  0.12500000000E+03 0.  0.
         25    1    1    2    0    0 -0.31156120575E+02 -0.42923560217E+02 -0.59719282712E+02  0.14833923486E+03  0.12500000000E+03 0.  0.
         25    1    1    2    0    0 -0.11017380261E+03 -0.90922183370E+02 -0.63482962813E+03  0.66260000525E+03  0.12500000000E+03 0.  0.
</event>
<event>
 5    0  0.5713700E-005  0.3579281E+03  0.7546771E-02  0.1059407E+00
         21   -1    0    0  502  501  0.00000000000E+00  0.00000000000E+00  0.25095132637E+03  0.25095132637E+03  0.00000000000E+00 0. -1.
         21   -1    0    0  501  502 -0.00000000000E+00 -0.00000000000E+00 -0.51050746410E+03  0.51050746410E+03  0.00000000000E+00 0. -1.
         25    1    1    2    0    0  0.10572604019E+03 -0.79878757153E+02 -0.20389391418E+03  0.27341605596E+03  0.12500000000E+03 0.  0.
         25    1    1    2    0    0 -0.12612898217E+03  0.93735384668E+02  0.14686256056E+03  0.24877390172E+03  0.12500000000E+03 0.  0.
         25    1    1    2    0    0  0.20402941979E+02 -0.13856627515E+02 -0.20252478411E+03  0.23926883279E+03  0.12500000000E+03 0.  0.
</event>
<event>
 5    0  0.5713700E-005  0.3701047E+03  0.7546771E-02  0.1054653E+00
         21   -1    0    0  502  501  0.00000000000E+00  0.00000000000E+00  0.45352294936E+03  0.45352294936E+03  0.00000000000E+00 0.  1.
         21   -1    0    0  501  502 -0.00000000000E+00 -0.00000000000E+00 -0.30202982568E+03  0.30202982568E+03  0.00000000000E+00 0.  1.
         25    1    1    2    0    0 -0.22528483308E+03 -0.38549726286E+02  0.12778690893E+03  0.29016173336E+03  0.12500000000E+03 0.  0.
         25    1    1    2    0    0  0.90741138286E+02 -0.16316738538E+02 -0.14318053106E+03  0.21124832451E+03  0.12500000000E+03 0.  0.
         25    1    1    2    0    0  0.13454369479E+03  0.54866464824E+02  0.16688674580E+03  0.25414271717E+03  0.12500000000E+03 0.  0.
</event>
<event>
 5    0  0.5713700E-005  0.3706560E+03  0.7546771E-02  0.1054442E+00
         21   -1    0    0  502  501  0.00000000000E+00  0.00000000000E+00  0.97073783277E+03  0.97073783277E+03  0.00000000000E+00 0. -1.
         21   -1    0    0  501  502 -0.00000000000E+00 -0.00000000000E+00 -0.14152728509E+03  0.14152728509E+03  0.00000000000E+00 0. -1.
         25    1    1    2    0    0 -0.37084959178E+02  0.70391507290E+02  0.27888623348E+03  0.31580498685E+03  0.12500000000E+03 0.  0.
         25    1    1    2    0    0 -0.12720000036E+03 -0.13154506495E+03  0.53679028507E+03  0.58073466777E+03  0.12500000000E+03 0.  0.
         25    1    1    2    0    0  0.16428495954E+03  0.61153557660E+02  0.13534029131E+02  0.21572546324E+03  0.12500000000E+03 0.  0.
</event>
<event>
 5    0  0.5713700E-005  0.2119447E+03  0.7546771E-02  0.1140035E+00
         21   -1    0    0  502  501  0.00000000000E+00  0.00000000000E+00  0.11665836191E+03  0.11665836191E+03  0.00000000000E+00 0. -1.
         21   -1    0    0  501  502 -0.00000000000E+00 -0.00000000000E+00 -0.38506089879E+03  0.38506089879E+03  0.00000000000E+00 0. -1.
         25    1    1    2    0    0 -0.99488339482E+01  0.35492297241E+02 -0.11624522264E+03  0.17463285558E+03  0.12500000000E+03 0.  0.
         25    1    1    2    0    0 -0.52687551106E+02 -0.43014117596E+02 -0.11294898673E+03  0.18168287195E+03  0.12500000000E+03 0.  0.
         25    1    1    2    0    0  0.62636385054E+02  0.75218203546E+01 -0.39208327507E+02  0.14540353318E+03  0.12500000000E+03 0.  0.
</event>
<event>
 5    0  0.5713700E-005  0.3820961E+03  0.7546771E-02  0.1050162E+00
         21   -1    0    0  502  501  0.00000000000E+00  0.00000000000E+00  0.23903677132E+03  0.23903677132E+03  0.00000000000E+00 0.  1.
         21   -1    0    0  501  502 -0.00000000000E+00 -0.00000000000E+00 -0.61077382912E+03  0.61077382912E+03  0.00000000000E+00 0.  1.
         25    1    1    2    0    0  0.20834097286E+03  0.16443721869E+03 -0.15400900852E+03  0.33134473674E+03  0.12500000000E+03 0.  0.
         25    1    1    2    0    0  0.62015795277E+02 -0.25774192961E+02 -0.70185858736E+02  0.15830768349E+03  0.12500000000E+03 0.  0.
         25    1    1    2    0    0 -0.27035676813E+03 -0.13866302572E+03 -0.14754219054E+03  0.36015818020E+03  0.12500000000E+03 0.  0.
</event>
<event>
 5    0  0.5713700E-005  0.2327514E+03  0.7546771E-02  0.1124718E+00
         21   -1    0    0  502  501  0.00000000000E+00  0.00000000000E+00  0.31898066534E+03  0.31898066534E+03  0.00000000000E+00 0. -1.
         21   -1    0    0  501  502 -0.00000000000E+00 -0.00000000000E+00 -0.16983226189E+03  0.16983226189E+03  0.00000000000E+00 0. -1.
         25    1    1    2    0    0  0.81060895303E+02  0.43096595202E+01 -0.51287329678E+01  0.14913331557E+03  0.12500000000E+03 0.  0.
         25    1    1    2    0    0 -0.35304811683E+02  0.11866580469E+02  0.15881751366E+03  0.20551216048E+03  0.12500000000E+03 0.  0.
         25    1    1    2    0    0 -0.45756083620E+02 -0.16176239989E+02 -0.45403772490E+01  0.13416745117E+03  0.12500000000E+03 0.  0.
</event>
<event>
 5    0  0.5713700E-005  0.5270214E+03  0.7546771E-02  0.1006957E+00
         21   -1    0    0  502  501  0.00000000000E+00  0.00000000000E+00  0.11665287756E+04  0.11665287756E+04  0.00000000000E+00 0.  1.
         21   -1    0    0  501  502 -0.00000000000E+00 -0.00000000000E+00 -0.23810086924E+03  0.23810086924E+03  0.00000000000E+00 0.  1.
         25    1    1    2    0    0  0.24548404249E+03 -0.16175884085E+03  0.11214499881E+03  0.33857028586E+03  0.12500000000E+03 0.  0.
         25    1    1    2    0    0 -0.13869171167E+03  0.36624435395E+03  0.59285604069E+03  0.72143856472E+03  0.12500000000E+03 0.  0.
         25    1    1    2    0    0 -0.10679233083E+03 -0.20448551309E+03  0.22342686681E+03  0.34462079421E+03  0.12500000000E+03 0.  0.
</event>
<event>
 5    0  0.5856080E-005  0.3633778E+03  0.7546771E-02  0.1057254E+00
         21   -1    0    0  502  501  0.00000000000E+00  0.00000000000E+00  0.24139370960E+03  0.24139370960E+03  0.00000000000E+00 0. -1.
         21   -1    0    0  501  502 -0.00000000000E+00 -0.00000000000E+00 -0.54700446474E+03  0.54700446474E+03  0.00000000000E+00 0. -1.
         25    1    1    2    0    0 -0.13005602127E+03 -0.59393130642E+02 -0.29696273992E+03  0.35249678231E+03  0.12500000000E+03 0.  0.
         25    1    1    2    0    0  0.93615397212E+02  0.18936809565E+03 -0.41723601550E+02  0.24897786483E+03  0.12500000000E+03 0.  0.
         25    1    1    2    0    0  0.36440624062E+02 -0.12997496501E+03  0.33075586333E+02  0.18692352721E+03  0.12500000000E+03 0.  0.
</event>
<event>
 5    0  0.5713700E-005  0.4331016E+03  0.7546771E-02  0.1032885E+00
         21   -1    0    0  502  501  0.00000000000E+00  0.00000000000E+00  0.32168817168E+03  0.32168817168E+03  0.00000000000E+00 0.  1.
         21   -1    0    0  501  502 -0.00000000000E+00 -0.00000000000E+00 -0.58310186633E+03  0.58310186633E+03  0.00000000000E+00 0.  1.
         25    1    1    2    0    0  0.17244770574E+02  0.86843109096E+02 -0.25037150412E+03  0.29351319865E+03  0.12500000000E+03 0.  0.
         25    1    1    2    0    0 -0.61228406788E+02  0.41193239434E+02  0.25158394571E+03  0.29045702352E+03  0.12500000000E+03 0.  0.
         25    1    1    2    0    0  0.43983636215E+02 -0.12803634853E+03 -0.26262613624E+03  0.32081981584E+03  0.12500000000E+03 0.  0.
</event>
<event>
 5    0  0.5713700E-005  0.2299608E+03  0.7546771E-02  0.1126667E+00
         21   -1    0    0  502  501  0.00000000000E+00  0.00000000000E+00  0.10822939299E+03  0.10822939299E+03  0.00000000000E+00 0.  1.
         21   -1    0    0  501  502 -0.00000000000E+00 -0.00000000000E+00 -0.48861002940E+03  0.48861002940E+03  0.00000000000E+00 0.  1.
         25    1    1    2    0    0  0.17704988227E+01 -0.75629454322E+02 -0.11445186327E+03  0.18559950979E+03  0.12500000000E+03 0.  0.
         25    1    1    2    0    0 -0.50316849244E+02  0.10371905473E+03 -0.10482517502E+03  0.19975671441E+03  0.12500000000E+03 0.  0.
         25    1    1    2    0    0  0.48546350421E+02 -0.28089600411E+02 -0.16110359812E+03  0.21148319819E+03  0.12500000000E+03 0.  0.
</event>
<event>
 5    0  0.5713700E-005  0.2286572E+03  0.7546771E-02  0.1127588E+00
         21   -1    0    0  502  501  0.00000000000E+00  0.00000000000E+00  0.25845301015E+02  0.25845301015E+02  0.00000000000E+00 0.  1.
         21   -1    0    0  501  502 -0.00000000000E+00 -0.00000000000E+00 -0.20229636347E+04  0.20229636347E+04  0.00000000000E+00 0.  1.
         25    1    1    2    0    0  0.65332448344E+02 -0.38881957812E+02 -0.42651494188E+03  0.45091033598E+03  0.12500000000E+03 0.  0.
         25    1    1    2    0    0 -0.93133090704E+02  0.17703505217E+02 -0.10332403553E+04  0.10450826850E+04  0.12500000000E+03 0.  0.
         25    1    1    2    0    0  0.27800642360E+02  0.21178452595E+02 -0.53736303648E+03  0.55281591470E+03  0.12500000000E+03 0.  0.
</event>
<event>
 5    0  0.5713700E-005  0.3027738E+03  0.7546771E-02  0.1083862E+00
         21   -1    0    0  502  501  0.00000000000E+00  0.00000000000E+00  0.15693918161E+03  0.15693918161E+03  0.00000000000E+00 0.  1.
         21   -1    0    0  501  502 -0.00000000000E+00 -0.00000000000E+00 -0.58412420282E+03  0.58412420282E+03  0.00000000000E+00 0.  1.
         25    1    1    2    0    0  0.58158498869E+02  0.58721455000E+02  0.67415873214E+01  0.15000356418E+03  0.12500000000E+03 0.  0.
         25    1    1    2    0    0 -0.86482713535E+01  0.12127997609E+03 -0.22107727588E+03  0.28157376850E+03  0.12500000000E+03 0.  0.
         25    1    1    2    0    0 -0.49510227515E+02 -0.18000143109E+03 -0.21284933265E+03  0.30948605175E+03  0.12500000000E+03 0.  0.
</event>
<event>
 5    0  0.5713700E-005  0.4242229E+03  0.7546771E-02  0.1035701E+00
         21   -1    0    0  502  501  0.00000000000E+00  0.00000000000E+00  0.26462249679E+04  0.26462249679E+04  0.00000000000E+00 0.  1.
         21   -1    0    0  501  502 -0.00000000000E+00 -0.00000000000E+00 -0.68008238691E+02  0.68008238691E+02  0.00000000000E+00 0.  1.
         25    1    1    2    0    0  0.23704795115E+02 -0.23483674555E+02  0.61132743564E+03  0.62486769307E+03  0.12500000000E+03 0.  0.
         25    1    1    2    0    0  0.18587416983E+03 -0.11957053532E+03  0.27620090880E+03  0.37517764052E+03  0.12500000000E+03 0.  0.
         25    1    1    2    0    0 -0.20957896495E+03  0.14305420988E+03  0.16906883847E+04  0.17141878729E+04  0.12500000000E+03 0.  0.
</event>
<event>
 5    0  0.5713700E-005  0.3466898E+03  0.7546771E-02  0.1063982E+00
         21   -1    0    0  502  501  0.00000000000E+00  0.00000000000E+00  0.28160996416E+04  0.28160996416E+04  0.00000000000E+00 0.  1.
         21   -1    0    0  501  502 -0.00000000000E+00 -0.00000000000E+00 -0.42680945826E+02  0.42680945826E+02  0.00000000000E+00 0.  1.
         25    1    1    2    0    0 -0.40481865634E+02 -0.19174095062E+03  0.89499009667E+03  0.92468137578E+03  0.12500000000E+03 0.  0.
         25    1    1    2    0    0  0.67735338476E+02  0.27223011740E+03  0.13488833702E+04  0.13834047345E+04  0.12500000000E+03 0.  0.
         25    1    1    2    0    0 -0.27253472842E+02 -0.80489166777E+02  0.52954522889E+03  0.55069447718E+03  0.12500000000E+03 0.  0.
</event>
<event>
 5    0  0.5713700E-005  0.2910231E+03  0.7546771E-02  0.1089816E+00
         21   -1    0    0  502  501  0.00000000000E+00  0.00000000000E+00  0.33024973892E+02  0.33024973892E+02  0.00000000000E+00 0. -1.
         21   -1    0    0  501  502 -0.00000000000E+00 -0.00000000000E+00 -0.25645571373E+04  0.25645571373E+04  0.00000000000E+00 0. -1.
         25    1    1    2    0    0 -0.41057631167E+02 -0.25299727747E+02 -0.10344477542E+04  0.10430881849E+04  0.12500000000E+03 0.  0.
         25    1    1    2    0    0  0.91635498148E+02  0.14628950301E+03 -0.54235885235E+03  0.58273133427E+03  0.12500000000E+03 0.  0.
         25    1    1    2    0    0 -0.50577866981E+02 -0.12098977527E+03 -0.95472555683E+03  0.97176259200E+03  0.12500000000E+03 0.  0.
</event>
<event>
 5    0  0.5713700E-005  0.3869471E+03  0.7546771E-02  0.1048396E+00
         21   -1    0    0  502  501  0.00000000000E+00  0.00000000000E+00  0.23557745609E+04  0.23557745609E+04  0.00000000000E+00 0. -1.
         21   -1    0    0  501  502 -0.00000000000E+00 -0.00000000000E+00 -0.63557881347E+02  0.63557881347E+02  0.00000000000E+00 0. -1.
         25    1    1    2    0    0 -0.96533337729E+02  0.11340179344E+03  0.19209957273E+04  0.19308102538E+04  0.12500000000E+03 0.  0.
         25    1    1    2    0    0 -0.13525539368E+00 -0.41409649189E+02  0.95453069410E+02  0.16263783631E+03  0.12500000000E+03 0.  0.
         25    1    1    2    0    0  0.96668593123E+02 -0.71992144254E+02  0.27576788284E+03  0.32588435209E+03  0.12500000000E+03 0.  0.
</event>
<event>
 5    0  0.5713700E-005  0.6428441E+03  0.7546771E-02  0.9820300E-01
         21   -1    0    0  502  501  0.00000000000E+00  0.00000000000E+00  0.78705428881E+03  0.78705428881E+03  0.00000000000E+00 0. -1.
         21   -1    0    0  501  502 -0.00000000000E+00 -0.00000000000E+00 -0.52505724438E+03  0.52505724438E+03  0.00000000000E+00 0. -1.
         25    1    1    2    0    0 -0.14996622152E+03 -0.10345554158E+03 -0.29942170061E+03  0.37211728188E+03  0.12500000000E+03 0.  0.
         25    1    1    2    0    0  0.48478313701E+02 -0.24102654015E+03  0.17530586297E+02  0.27636255429E+03  0.12500000000E+03 0.  0.
         25    1    1    2    0    0  0.10148790781E+03  0.34448208174E+03  0.54388815874E+03  0.66363169702E+03  0.12500000000E+03 0.  0.
</event>
<event>
 5    0  0.5713700E-005  0.3391261E+03  0.7546771E-02  0.1067169E+00
         21   -1    0    0  502  501  0.00000000000E+00  0.00000000000E+00  0.16016808985E+04  0.16016808985E+04  0.00000000000E+00 0.  1.
         21   -1    0    0  501  502 -0.00000000000E+00 -0.00000000000E+00 -0.71803645560E+02  0.71803645560E+02  0.00000000000E+00 0.  1.
         25    1    1    2    0    0  0.99922670371E+02  0.97560832621E+02  0.66424044648E+03  0.69017608395E+03  0.12500000000E+03 0.  0.
         25    1    1    2    0    0 -0.81202199625E+02  0.10486080117E+03  0.59595901469E+03  0.62320280169E+03  0.12500000000E+03 0.  0.
         25    1    1    2    0    0 -0.18720470746E+02 -0.20242163379E+03  0.26967779176E+03  0.36010565841E+03  0.12500000000E+03 0.  0.
</event>
<event>
 5    0  0.5713700E-005  0.3721879E+03  0.7546771E-02  0.1053860E+00
         21   -1    0    0  502  501  0.00000000000E+00  0.00000000000E+00  0.54321530385E+03  0.54321530385E+03  0.00000000000E+00 0.  1.
         21   -1    0    0  501  502 -0.00000000000E+00 -0.00000000000E+00 -0.25500723356E+03  0.25500723356E+03  0.00000000000E+00 0.  1.
         25    1    1    2    0    0  0.59272695382E+02 -0.84889150930E+02  0.41352155062E+02  0.16749454048E+03  0.12500000000E+03 0.  0.
         25    1    1    2    0    0 -0.10936261628E+03  0.22652678473E+03  0.31657849978E+03  0.42322749505E+03  0.12500000000E+03 0.  0.
         25    1    1    2    0    0  0.50089920894E+02 -0.14163763380E+03 -0.69722584543E+02  0.20750050188E+03  0.12500000000E+03 0.  0.
</event>
<event>
 5    0  0.5713700E-005  0.3040345E+03  0.7546771E-02  0.1083241E+00
         21   -1    0    0  502  501  0.00000000000E+00  0.00000000000E+00  0.13994800562E+03  0.13994800562E+03  0.00000000000E+00 0.  1.
         21   -1    0    0  501  502 -0.00000000000E+00 -0.00000000000E+00 -0.66050952263E+03  0.66050952263E+03  0.00000000000E+00 0.  1.
         25    1    1    2    0    0  0.97662063232E+01 -0.11101941128E+03 -0.22034025883E+03  0.27675895311E+03  0.12500000000E+03 0.  0.
         25    1    1    2    0    0  0.12729922013E+03  0.65105228419E+02 -0.27017716498E+03  0.33024912216E+03  0.12500000000E+03 0.  0.
         25    1    1    2    0    0 -0.13706542646E+03  0.45914182864E+02 -0.30044093202E+02  0.19344945297E+03  0.12500000000E+03 0.  0.
</event>
<event>
 5    0  0.5713700E-005  0.3373798E+03  0.7546771E-02  0.1067917E+00
         21   -1    0    0  502  501  0.00000000000E+00  0.00000000000E+00  0.36926759921E+03  0.36926759921E+03  0.00000000000E+00 0. -1.
         21   -1    0    0  501  502 -0.00000000000E+00 -0.00000000000E+00 -0.30824563653E+03  0.30824563653E+03  0.00000000000E+00 0. -1.
         25    1    1    2    0    0 -0.30080831624E+02  0.57373927067E+02 -0.78810385692E+02  0.16134652408E+03  0.12500000000E+03 0.  0.
         25    1    1    2    0    0 -0.18144391765E+03 -0.18375106177E+02 -0.17543109416E+02  0.22179337337E+03  0.12500000000E+03 0.  0.
         25    1    1    2    0    0  0.21152474928E+03 -0.38998820890E+02  0.15737545778E+03  0.29437333830E+03  0.12500000000E+03 0.  0.
</event>
<event>
 5    0  0.5713700E-005  0.3646619E+03  0.7546771E-02  0.1056753E+00
         21   -1    0    0  502  501  0.00000000000E+00  0.00000000000E+00  0.14138538335E+03  0.14138538335E+03  0.00000000000E+00 0.  1.
         21   -1    0    0  501  502 -0.00000000000E+00 -0.00000000000E+00 -0.94053791443E+03  0.94053791443E+03  0.00000000000E+00 0.  1.
         25    1    1    2    0    0 -0.12668235374E+02  0.19991479120E+03 -0.18530124303E+03  0.30014656186E+03  0.12500000000E+03 0.  0.
         25    1    1    2    0    0  0.10393937221E+03 -0.38064234893E+01 -0.58492768638E+02  0.17281286392E+03  0.12500000000E+03 0.  0.
         25    1    1    2    0    0 -0.91271136836E+02 -0.19610836771E+03 -0.55535851942E+03  0.60896387200E+03  0.12500000000E+03 0.  0.
</event>
<event>
 5    0  0.5713700E-005  0.3607256E+03  0.7546771E-02  0.1058297E+00
         21   -1    0    0  502  501  0.00000000000E+00  0.00000000000E+00  0.84905942454E+02  0.84905942454E+02  0.00000000000E+00 0. -1.
         21   -1    0    0  501  502 -0.00000000000E+00 -0.00000000000E+00 -0.15325542352E+04  0.15325542352E+04  0.00000000000E+00 0. -1.
         25    1    1    2    0    0 -0.24511917533E+03 -0.36743868034E+02 -0.43655012910E+03  0.51733406728E+03  0.12500000000E+03 0.  0.
         25    1    1    2    0    0 -0.14121690580E+02 -0.35685055328E+02 -0.23035635274E+03  0.26488090639E+03  0.12500000000E+03 0.  0.
         25    1    1    2    0    0  0.25924086591E+03  0.72428923361E+02 -0.78074181090E+03  0.83524520399E+03  0.12500000000E+03 0.  0.
</event>
<event>
 5    0  0.5713700E-005  0.3019847E+03  0.7546771E-02  0.1084253E+00
         21   -1    0    0  502  501  0.00000000000E+00  0.00000000000E+00  0.27225918586E+03  0.27225918586E+03  0.00000000000E+00 0. -1.
         21   -1    0    0  501  502 -0.00000000000E+00 -0.00000000000E+00 -0.33495563002E+03  0.33495563002E+03  0.00000000000E+00 0. -1.
         25    1    1    2    0    0  0.36955289525E+02 -0.21281417947E+03 -0.68616244885E+02  0.25882186435E+03  0.12500000000E+03 0.  0.
         25    1    1    2    0    0  0.76180989825E+01  0.88017768035E+02  0.49884770585E+02  0.16099271182E+03  0.12500000000E+03 0.  0.
         25    1    1    2    0    0 -0.44573388508E+02  0.12479641143E+03 -0.43964969859E+02  0.18740023971E+03  0.12500000000E+03 0.  0.
</event>
<event>
 5    0  0.5713700E-005  0.2717685E+03  0.7546771E-02  0.1100272E+00
         21   -1    0    0  502  501  0.00000000000E+00  0.00000000000E+00  0.33852468447E+03  0.33852468447E+03  0.00000000000E+00 0. -1.
         21   -1    0    0  501  502 -0.00000000000E+00 -0.00000000000E+00 -0.21817644860E+03  0.21817644860E+03  0.00000000000E+00 0. -1.
         25    1    1    2    0    0 -0.13153012009E+03 -0.19437249787E+02  0.10227270161E+03  0.20919532658E+03  0.12500000000E+03 0.  0.
         25    1    1    2    0    0  0.30722031958E+02 -0.30112122478E+02 -0.78432506974E+02  0.15371155232E+03  0.12500000000E+03 0.  0.
         25    1    1    2    0    0  0.10080808813E+03  0.49549372265E+02  0.96508041230E+02  0.19379425416E+03  0.12500000000E+03 0.  0.
</event>
<event>
 5    0  0.5713700E-005  0.4262663E+03  0.7546771E-02  0.1035046E+00
         21   -1    0    0  502  501  0.00000000000E+00  0.00000000000E+00  0.31098392704E+03  0.31098392704E+03  0.00000000000E+00 0.  1.
         21   -1    0    0  501  502 -0.00000000000E+00 -0.00000000000E+00 -0.58428403261E+03  0.58428403261E+03  0.00000000000E+00 0.  1.
         25    1    1    2    0    0 -0.30087187800E+03 -0.14425337258E+03 -0.11264558298E+03  0.37369365774E+03  0.12500000000E+03 0.  0.
         25    1    1    2    0    0  0.24183448798E+03  0.20679310530E+03 -0.86219383872E+02  0.35257068814E+03  0.12500000000E+03 0.  0.
         25    1    1    2    0    0  0.59037390022E+02 -0.62539732726E+02 -0.74435138713E+02  0.16900361376E+03  0.12500000000E+03 0.  0.
</event>
<event>
 5    0  0.5713700E-005  0.2903501E+03  0.7546771E-02  0.1090167E+00
         21   -1    0    0  502  501  0.00000000000E+00  0.00000000000E+00  0.10496953067E+04  0.10496953067E+04  0.00000000000E+00 0. -1.
         21   -1    0    0  501  502 -0.00000000000E+00 -0.00000000000E+00 -0.80312041348E+02  0.80312041348E+02  0.00000000000E+00 0. -1.
         25    1    1    2    0    0  0.91925685717E+02 -0.40926213134E+02  0.73119423612E+02  0.17634266848E+03  0.12500000000E+03 0.  0.
         25    1    1    2    0    0 -0.12178146620E+03  0.45254029145E+02  0.36549946664E+03  0.40754571864E+03  0.12500000000E+03 0.  0.
         25    1    1    2    0    0  0.29855780482E+02 -0.43278160116E+01  0.53076437508E+03  0.54611896092E+03  0.12500000000E+03 0.  0.
</event>
<event>
 5    0  0.5713700E-005  0.4503523E+03  0.7546771E-02  0.1027617E+00
         21   -1    0    0  502  501  0.00000000000E+00  0.00000000000E+00  0.11021802578E+04  0.11021802578E+04  0.00000000000E+00 0. -1.
         21   -1    0    0  501  502 -0.00000000000E+00 -0.00000000000E+00 -0.18401453724E+03  0.18401453724E+03  0.00000000000E+00 0. -1.
         25    1    1    2    0    0  0.15898835146E+03 -0.18514595407E+03  0.41270983468E+03  0.49549039127E+03  0.12500000000E+03 0.  0.
         25    1    1    2    0    0 -0.15274547482E+03  0.21853366467E+03  0.27781427234E+02  0.29577854955E+03  0.12500000000E+03 0.  0.
         25    1    1    2    0    0 -0.62428766352E+01 -0.33387710606E+02  0.47767445865E+03  0.49492585422E+03  0.12500000000E+03 0.  0.
</event>
<event>
 5    0  0.5713700E-005  0.2760149E+03  0.7546771E-02  0.1097886E+00
         21   -1    0    0  502  501  0.00000000000E+00  0.00000000000E+00  0.20579395432E+03  0.20579395432E+03  0.00000000000E+00 0. -1.
         21   -1    0    0  501  502 -0.00000000000E+00 -0.00000000000E+00 -0.37019654855E+03  0.37019654855E+03  0.00000000000E+00 0. -1.
         25    1    1    2    0    0  0.95610587781E+02 -0.51397526496E+02 -0.11985010058E+03  0.20438233005E+03  0.12500000000E+03 0.  0.
         25    1    1    2    0    0 -0.35638531277E+02  0.14765164461E+03  0.12762516260E+01  0.19671741633E+03  0.12500000000E+03 0.  0.
         25    1    1    2    0    0 -0.59972056503E+02 -0.96254118114E+02 -0.45828745278E+02  0.17489075650E+03  0.12500000000E+03 0.  0.
</event>
<event>
 5    0  0.5713700E-005  0.2259046E+03  0.7546771E-02  0.1129556E+00
         21   -1    0    0  502  501  0.00000000000E+00  0.00000000000E+00  0.23900544211E+03  0.23900544211E+03  0.00000000000E+00 0.  1.
         21   -1    0    0  501  502 -0.00000000000E+00 -0.00000000000E+00 -0.21352196064E+03  0.21352196064E+03  0.00000000000E+00 0.  1.
         25    1    1    2    0    0 -0.46354958538E+02  0.26973781083E+02 -0.23223442334E+02  0.13798802601E+03  0.12500000000E+03 0.  0.
         25    1    1    2    0    0  0.71376013802E+01  0.71798455388E+02  0.42067644025E+02  0.15033512638E+03  0.12500000000E+03 0.  0.
         25    1    1    2    0    0  0.39217357158E+02 -0.98772236471E+02  0.66392797818E+01  0.16420425036E+03  0.12500000000E+03 0.  0.
</event>
<event>
 5    0  0.5713700E-005  0.2609923E+03  0.7546771E-02  0.1106549E+00
         21   -1    0    0  502  501  0.00000000000E+00  0.00000000000E+00  0.28856507498E+03  0.28856507498E+03  0.00000000000E+00 0.  1.
         21   -1    0    0  501  502 -0.00000000000E+00 -0.00000000000E+00 -0.23605405930E+03  0.23605405930E+03  0.00000000000E+00 0.  1.
         25    1    1    2    0    0 -0.16771708243E+02 -0.40622732208E+01  0.33576492871E+02  0.13057631154E+03  0.12500000000E+03 0.  0.
         25    1    1    2    0    0  0.58066746918E+02 -0.56852813518E+02 -0.12135967467E+03  0.19224245145E+03  0.12500000000E+03 0.  0.
         25    1    1    2    0    0 -0.41295038675E+02  0.60915086739E+02  0.14029419748E+03  0.20180037130E+03  0.12500000000E+03 0.  0.
</event>
<event>
 5    0  0.5713700E-005  0.2142297E+03  0.7546771E-02  0.1138260E+00
         21   -1    0    0  502  501  0.00000000000E+00  0.00000000000E+00  0.74232175266E+03  0.74232175266E+03  0.00000000000E+00 0.  1.
         21   -1    0    0  501  502 -0.00000000000E+00 -0.00000000000E+00 -0.61825430149E+02  0.61825430149E+02  0.00000000000E+00 0.  1.
         25    1    1    2    0    0 -0.82467817264E+01 -0.77836690721E+02  0.23918186941E+03  0.28099737807E+03  0.12500000000E+03 0.  0.
         25    1    1    2    0    0  0.24789187988E+02  0.86332810984E+02  0.25979795627E+03  0.30197323751E+03  0.12500000000E+03 0.  0.
         25    1    1    2    0    0 -0.16542406262E+02 -0.84961202636E+01  0.18151649684E+03  0.22117656722E+03  0.12500000000E+03 0.  0.
</event>
<event>
 5    0  0.6443168E-005  0.3258257E+03  0.7546771E-02  0.1072999E+00
         21   -1    0    0  502  501  0.00000000000E+00  0.00000000000E+00  0.72300402702E+03  0.72300402702E+03  0.00000000000E+00 0. -1.
         21   -1    0    0  501  502 -0.00000000000E+00 -0.00000000000E+00 -0.14683510276E+03  0.14683510276E+03  0.00000000000E+00 0. -1.
         25    1    1    2    0    0  0.22065074155E+03  0.56409544403E+02  0.13577490162E+03  0.29313582237E+03  0.12500000000E+03 0.  0.
         25    1    1    2    0    0 -0.66110421550E+02 -0.81829065504E+02  0.26006892440E+03  0.30712770836E+03  0.12500000000E+03 0.  0.
         25    1    1    2    0    0 -0.15454032000E+03  0.25419521101E+02  0.18032509823E+03  0.26957559906E+03  0.12500000000E+03 0.  0.
</event>
<event>
 5    0  0.5713700E-005  0.2219485E+03  0.7546771E-02  0.1132439E+00
         21   -1    0    0  502  501  0.00000000000E+00  0.00000000000E+00  0.14704187250E+03  0.14704187250E+03  0.00000000000E+00 0.  1.
         21   -1    0    0  501  502 -0.00000000000E+00 -0.00000000000E+00 -0.33501428481E+03  0.33501428481E+03  0.00000000000E+00 0.  1.
         25    1    1    2    0    0  0.10949541659E+02 -0.18776924907E+02  0.38282658779E+02  0.13252557238E+03  0.12500000000E+03 0.  0.
         25    1    1    2    0    0 -0.17935549590E+02 -0.33597236927E+02 -0.10798416686E+03  0.16951707454E+03  0.12500000000E+03 0.  0.
         25    1    1    2    0    0  0.69860079303E+01  0.52374161834E+02 -0.11827090422E+03  0.18001351038E+03  0.12500000000E+03 0.  0.
</event>
<event>
 5    0  0.6011327E-005  0.4217921E+03  0.7546771E-02  0.1036485E+00
         21   -1    0    0  502  501  0.00000000000E+00  0.00000000000E+00  0.30180263786E+03  0.30180263786E+03  0.00000000000E+00 0. -1.
         21   -1    0    0  501  502 -0.00000000000E+00 -0.00000000000E+00 -0.58948639635E+03  0.58948639635E+03  0.00000000000E+00 0. -1.
         25    1    1    2    0    0  0.73308525934E+02 -0.18583890166E+03 -0.68392942030E+02  0.24538303092E+03  0.12500000000E+03 0.  0.
         25    1    1    2    0    0 -0.14932270477E+03  0.47639725492E+02 -0.35182408506E+03  0.40493456315E+03  0.12500000000E+03 0.  0.
         25    1    1    2    0    0  0.76014178832E+02  0.13819917617E+03  0.13253326860E+03  0.24097144014E+03  0.12500000000E+03 0.  0.
</event>
<event>
 5    0  0.5713700E-005  0.2791897E+03  0.7546771E-02  0.1096132E+00
         21   -1    0    0  502  501  0.00000000000E+00  0.00000000000E+00  0.28209561003E+04  0.28209561003E+04  0.00000000000E+00 0.  1.
         21   -1    0    0  501  502 -0.00000000000E+00 -0.00000000000E+00 -0.27631371244E+02  0.27631371244E+02  0.00000000000E+00 0.  1.
         25    1    1    2    0    0 -0.50431004225E+01  0.95688678893E+02  0.15099722949E+04  0.15181643809E+04  0.12500000000E+03 0.  0.
         25    1    1    2    0    0  0.90291345662E+02  0.22345752326E+02  0.48913405171E+03  0.51335073808E+03  0.12500000000E+03 0.  0.
         25    1    1    2    0    0 -0.85248245240E+02 -0.11803443122E+03  0.79421838245E+03  0.81707235254E+03  0.12500000000E+03 0.  0.
</event>
<event>
 5    0  0.6855480E-005  0.2979930E+03  0.7546771E-02  0.1086248E+00
         21   -1    0    0  502  501  0.00000000000E+00  0.00000000000E+00  0.35730241976E+03  0.35730241976E+03  0.00000000000E+00 0.  1.
         21   -1    0    0  501  502 -0.00000000000E+00 -0.00000000000E+00 -0.24852840526E+03  0.24852840526E+03  0.00000000000E+00 0.  1.
         25    1    1    2    0    0 -0.13535282853E+03  0.40191126233E+01  0.60523993017E+02  0.19397086170E+03  0.12500000000E+03 0.  0.
         25    1    1    2    0    0 -0.61088065121E+01 -0.87300756062E+01  0.15145311893E+03  0.19666361882E+03  0.12500000000E+03 0.  0.
         25    1    1    2    0    0  0.14146163504E+03  0.47109629829E+01 -0.10320309745E+03  0.21519634449E+03  0.12500000000E+03 0.  0.
</event>
<event>
 5    0  0.5713700E-005  0.3291899E+03  0.7546771E-02  0.1071496E+00
         21   -1    0    0  502  501  0.00000000000E+00  0.00000000000E+00  0.23298321053E+03  0.23298321053E+03  0.00000000000E+00 0. -1.
         21   -1    0    0  501  502 -0.00000000000E+00 -0.00000000000E+00 -0.46512348343E+03  0.46512348343E+03  0.00000000000E+00 0. -1.
         25    1    1    2    0    0  0.17019413624E+03  0.93208107104E+02 -0.37810275843E+02  0.23389829456E+03  0.12500000000E+03 0.  0.
         25    1    1    2    0    0 -0.12077853813E+03  0.84764670512E+02 -0.54291844232E+02  0.20086091952E+03  0.12500000000E+03 0.  0.
         25    1    1    2    0    0 -0.49415598111E+02 -0.17797277762E+03 -0.14003815283E+03  0.26334747988E+03  0.12500000000E+03 0.  0.
</event>
<event>
 5    0  0.5713700E-005  0.3217401E+03  0.7546771E-02  0.1074851E+00
         21   -1    0    0  502  501  0.00000000000E+00  0.00000000000E+00  0.17708459507E+03  0.17708459507E+03  0.00000000000E+00 0. -1.
         21   -1    0    0  501  502 -0.00000000000E+00 -0.00000000000E+00 -0.58456084439E+03  0.58456084439E+03  0.00000000000E+00 0. -1.
         25    1    1    2    0    0 -0.12959684045E+03  0.14297335247E+03 -0.18680795120E+03  0.29624133946E+03  0.12500000000E+03 0.  0.
         25    1    1    2    0    0 -0.57043208954E+02 -0.82195184929E+02 -0.26414139892E+02  0.16227348181E+03  0.12500000000E+03 0.  0.
         25    1    1    2    0    0  0.18664004941E+03 -0.60778167543E+02 -0.19425415823E+03  0.30313061819E+03  0.12500000000E+03 0.  0.
</event>
<event>
 5    0  0.5713700E-005  0.3739105E+03  0.7546771E-02  0.1053208E+00
         21   -1    0    0  502  501  0.00000000000E+00  0.00000000000E+00  0.26390411898E+03  0.26390411898E+03  0.00000000000E+00 0. -1.
         21   -1    0    0  501  502 -0.00000000000E+00 -0.00000000000E+00 -0.52977208487E+03  0.52977208487E+03  0.00000000000E+00 0. -1.
         25    1    1    2    0    0 -0.10997333920E+03 -0.23307588084E+03 -0.11371750837E+02  0.28665801625E+03  0.12500000000E+03 0.  0.
         25    1    1    2    0    0 -0.34461121101E+02  0.88089765354E+01 -0.13983327075E+03  0.19090183484E+03  0.12500000000E+03 0.  0.
         25    1    1    2    0    0  0.14443446030E+03  0.22426690430E+03 -0.11466294430E+03  0.31611635276E+03  0.12500000000E+03 0.  0.
</event>
<event>
 5    0  0.5713700E-005  0.2860298E+03  0.7546771E-02  0.1092440E+00
         21   -1    0    0  502  501  0.00000000000E+00  0.00000000000E+00  0.53667216503E+02  0.53667216503E+02  0.00000000000E+00 0. -1.
         21   -1    0    0  501  502 -0.00000000000E+00 -0.00000000000E+00 -0.15244515781E+04  0.15244515781E+04  0.00000000000E+00 0. -1.
         25    1    1    2    0    0  0.20826626305E+02  0.52669740545E+02 -0.15820355698E+03  0.20943069348E+03  0.12500000000E+03 0.  0.
         25    1    1    2    0    0  0.11718336220E+03 -0.95188071469E+02 -0.61910377179E+03  0.64938985946E+03  0.12500000000E+03 0.  0.
         25    1    1    2    0    0 -0.13800998851E+03  0.42518330924E+02 -0.69347703286E+03  0.71929824169E+03  0.12500000000E+03 0.  0.
</event>
<event>
 5    0  0.5713700E-005  0.2379089E+03  0.7546771E-02  0.1121194E+00
         21   -1    0    0  502  501  0.00000000000E+00  0.00000000000E+00  0.70589713522E+03  0.70589713522E+03  0.00000000000E+00 0.  1.
         21   -1    0    0  501  502 -0.00000000000E+00 -0.00000000000E+00 -0.80182568983E+02  0.80182568983E+02  0.00000000000E+00 0.  1.
         25    1    1    2    0    0 -0.89497028645E+02  0.54227986873E+01  0.12961757999E+03  0.20115874807E+03  0.12500000000E+03 0.  0.
         25    1    1    2    0    0  0.98333698419E+02  0.31545748676E+02  0.36712474150E+03  0.40133555328E+03  0.12500000000E+03 0.  0.
         25    1    1    2    0    0 -0.88366697733E+01 -0.36968547363E+02  0.12897224475E+03  0.18358540286E+03  0.12500000000E+03 0.  0.
</event>
<event>
 5    0  0.5713700E-005  0.6586863E+03  0.7546771E-02  0.9790615E-01
         21   -1    0    0  502  501  0.00000000000E+00  0.00000000000E+00  0.99509087059E+03  0.99509087059E+03  0.00000000000E+00 0.  1.
         21   -1    0    0  501  502 -0.00000000000E+00 -0.00000000000E+00 -0.43600810081E+03  0.43600810081E+03  0.00000000000E+00 0.  1.
         25    1    1    2    0    0 -0.98897236702E+02  0.23093142322E+03  0.10194463066E+03  0.29854261569E+03  0.12500000000E+03 0.  0.
         25    1    1    2    0    0  0.10484341175E+02  0.33014636121E+03 -0.55225199629E+02  0.35746519258E+03  0.12500000000E+03 0.  0.
         25    1    1    2    0    0  0.88412895528E+02 -0.56107778444E+03  0.51236333875E+03  0.77509116314E+03  0.12500000000E+03 0.  0.
</event>
<event>
 5    0  0.5713700E-005  0.4259467E+03  0.7546771E-02  0.1035148E+00
         21   -1    0    0  502  501  0.00000000000E+00  0.00000000000E+00  0.60008493663E+03  0.60008493663E+03  0.00000000000E+00 0. -1.
         21   -1    0    0  501  502 -0.00000000000E+00 -0.00000000000E+00 -0.30234146909E+03  0.30234146909E+03  0.00000000000E+00 0. -1.
         25    1    1    2    0    0 -0.53423540761E+02 -0.79064196533E+01 -0.10607670895E+02  0.13658004562E+03  0.12500000000E+03 0.  0.
         25    1    1    2    0    0  0.28637516672E+02  0.10788233310E+03 -0.18320667420E+03  0.24829093948E+03  0.12500000000E+03 0.  0.
         25    1    1    2    0    0  0.24786024089E+02 -0.99975913447E+02  0.49155781264E+03  0.51755542063E+03  0.12500000000E+03 0.  0.
</event>
<event>
 5    0  0.5713700E-005  0.2235785E+03  0.7546771E-02  0.1131243E+00
         21   -1    0    0  502  501  0.00000000000E+00  0.00000000000E+00  0.49550236350E+02  0.49550236350E+02  0.00000000000E+00 0. -1.
         21   -1    0    0  501  502 -0.00000000000E+00 -0.00000000000E+00 -0.10088218521E+04  0.10088218521E+04  0.00000000000E+00 0. -1.
         25    1    1    2    0    0  0.48008221222E+01  0.65989516060E+02 -0.56141443894E+03  0.57895495194E+03  0.12500000000E+03 0.  0.
         25    1    1    2    0    0 -0.97810080521E+01 -0.58565429446E+02 -0.16837763274E+03  0.21794862893E+03  0.12500000000E+03 0.  0.
         25    1    1    2    0    0  0.49801859299E+01 -0.74240866145E+01 -0.22947954411E+03  0.26146850762E+03  0.12500000000E+03 0.  0.
</event>
<event>
 5    0  0.5713700E-005  0.3180368E+03  0.7546771E-02  0.1076556E+00
         21   -1    0    0  502  501  0.00000000000E+00  0.00000000000E+00  0.18645652039E+03  0.18645652039E+03  0.00000000000E+00 0.  1.
         21   -1    0    0  501  502 -0.00000000000E+00 -0.00000000000E+00 -0.54247169946E+03  0.54247169946E+03  0.00000000000E+00 0.  1.
         25    1    1    2    0    0 -0.44178934726E+02 -0.99306473642E+01  0.65960534693E+02  0.14841222378E+03  0.12500000000E+03 0.  0.
         25    1    1    2    0    0  0.93756259585E+02  0.11619917709E+03 -0.10765255901E+03  0.22250069310E+03  0.12500000000E+03 0.  0.
         25    1    1    2    0    0 -0.49577324859E+02 -0.10626852972E+03 -0.31432315475E+03  0.35801530297E+03  0.12500000000E+03 0.  0.
</event>
<event>
 5    0  0.5713700E-005  0.3093763E+03  0.7546771E-02  0.1080645E+00
         21   -1    0    0  502  501  0.00000000000E+00  0.00000000000E+00  0.72828330725E+02  0.72828330725E+02  0.00000000000E+00 0. -1.
         21   -1    0    0  501  502 -0.00000000000E+00 -0.00000000000E+00 -0.13142368837E+04  0.13142368837E+04  0.00000000000E+00 0. -1.
         25    1    1    2    0    0  0.14942129118E+02 -0.42765307245E+02 -0.43527908211E+03  0.45513186886E+03  0.12500000000E+03 0.  0.
         25    1    1    2    0    0 -0.32467034889E+02 -0.50603618544E+02 -0.75377560661E+03  0.76643166667E+03  0.12500000000E+03 0.  0.
         25    1    1    2    0    0  0.17524905771E+02  0.93368925789E+02 -0.52353864305E+02  0.16550167894E+03  0.12500000000E+03 0.  0.
</event>
<event>
 5    0  0.5713700E-005  0.5854134E+03  0.7546771E-02  0.9936139E-01
         21   -1    0    0  502  501  0.00000000000E+00  0.00000000000E+00  0.27520658630E+03  0.27520658630E+03  0.00000000000E+00 0. -1.
         21   -1    0    0  501  502 -0.00000000000E+00 -0.00000000000E+00 -0.12452784408E+04  0.12452784408E+04  0.00000000000E+00 0. -1.
         25    1    1    2    0    0  0.72984877376E+02  0.10068914210E+03  0.47124737805E+02  0.18251256553E+03  0.12500000000E+03 0.  0.
         25    1    1    2    0    0  0.31828432162E+03 -0.25710117556E+03 -0.45827130302E+03  0.62693182327E+03  0.12500000000E+03 0.  0.
         25    1    1    2    0    0 -0.39126919899E+03  0.15641203346E+03 -0.55892528924E+03  0.71104063825E+03  0.12500000000E+03 0.  0.
</event>
<event>
 5    0  0.6053682E-005  0.2529793E+03  0.7546771E-02  0.1111436E+00
         21   -1    0    0  502  501  0.00000000000E+00  0.00000000000E+00  0.20063502047E+03  0.20063502047E+03  0.00000000000E+00 0.  1.
         21   -1    0    0  501  502 -0.00000000000E+00 -0.00000000000E+00 -0.31897977713E+03  0.31897977713E+03  0.00000000000E+00 0.  1.
         25    1    1    2    0    0  0.59001742090E+02 -0.84183687075E+02 -0.94837606946E+02  0.18758270291E+03  0.12500000000E+03 0.  0.
         25    1    1    2    0    0 -0.10941108826E+03  0.93540130900E+02 -0.43254830225E+02  0.19549046693E+03  0.12500000000E+03 0.  0.
         25    1    1    2    0    0  0.50409346175E+02 -0.93564438254E+01  0.19747680511E+02  0.13654162775E+03  0.12500000000E+03 0.  0.
</event>
<event>
 5    0  0.5713700E-005  0.3015858E+03  0.7546771E-02  0.1084451E+00
         21   -1    0    0  502  501  0.00000000000E+00  0.00000000000E+00  0.78884620638E+02  0.78884620638E+02  0.00000000000E+00 0.  1.
         21   -1    0    0  501  502 -0.00000000000E+00 -0.00000000000E+00 -0.11530005504E+04  0.11530005504E+04  0.00000000000E+00 0.  1.
         25    1    1    2    0    0  0.15302057562E+03 -0.38029193813E+02 -0.59022878777E+03  0.62358362555E+03  0.12500000000E+03 0.  0.
         25    1    1    2    0    0 -0.16396570777E+03  0.10337019287E+02 -0.16426789905E+03  0.26381916145E+03  0.12500000000E+03 0.  0.
         25    1    1    2    0    0  0.10945132145E+02  0.27692174526E+02 -0.31961924291E+03  0.34448238400E+03  0.12500000000E+03 0.  0.
</event>
<event>
 5    0  0.5713700E-005  0.2877990E+03  0.7546771E-02  0.1091504E+00
         21   -1    0    0  502  501  0.00000000000E+00  0.00000000000E+00  0.43722794448E+02  0.43722794448E+02  0.00000000000E+00 0.  1.
         21   -1    0    0  501  502 -0.00000000000E+00 -0.00000000000E+00 -0.18943958202E+04  0.18943958202E+04  0.00000000000E+00 0.  1.
         25    1    1    2    0    0 -0.63215153122E+02 -0.18259029788E+02 -0.62701265670E+03  0.64272810691E+03  0.12500000000E+03 0.  0.
         25    1    1    2    0    0  0.67143246729E+02  0.16783686232E+03 -0.50499610285E+03  0.55074812013E+03  0.12500000000E+03 0.  0.
         25    1    1    2    0    0 -0.39280936065E+01 -0.14957783253E+03 -0.71866426625E+03  0.74464238765E+03  0.12500000000E+03 0.  0.
</event>
<event>
 5    0  0.5713700E-005  0.3500812E+03  0.7546771E-02  0.1062582E+00
         21   -1    0    0  502  501  0.00000000000E+00  0.00000000000E+00  0.36413975657E+03  0.36413975657E+03  0.00000000000E+00 0. -1.
         21   -1    0    0  501  502 -0.00000000000E+00 -0.00000000000E+00 -0.33656543494E+03  0.33656543494E+03  0.00000000000E+00 0. -1.
         25    1    1    2    0    0  0.35709039669E+02  0.56256678272E+00  0.50919829962E+02  0.13961834077E+03  0.12500000000E+03 0.  0.
         25    1    1    2    0    0  0.17638049366E+03  0.15244402599E+03 -0.52769960228E+02  0.26973862962E+03  0.12500000000E+03 0.  0.
         25    1    1    2    0    0 -0.21208953333E+03 -0.15300659278E+03  0.29424451892E+02  0.29134822112E+03  0.12500000000E+03 0.  0.
</event>
<event>
 5    0  0.5713700E-005  0.2898146E+03  0.7546771E-02  0.1090446E+00
         21   -1    0    0  502  501  0.00000000000E+00  0.00000000000E+00  0.26530187090E+03  0.26530187090E+03  0.00000000000E+00 0.  1.
         21   -1    0    0  501  502 -0.00000000000E+00 -0.00000000000E+00 -0.31659209845E+03  0.31659209845E+03  0.00000000000E+00 0.  1.
         25    1    1    2    0    0 -0.89959955966E+02 -0.14296774737E+03 -0.13553684373E+03  0.25005560676E+03  0.12500000000E+03 0.  0.
         25    1    1    2    0    0  0.60375121000E+02  0.11059256845E+03  0.51683464668E+01  0.17756008346E+03  0.12500000000E+03 0.  0.
         25    1    1    2    0    0  0.29584834966E+02  0.32375178913E+02  0.79078269714E+02  0.15427827913E+03  0.12500000000E+03 0.  0.
</event>
<event>
 5    0  0.5713700E-005  0.3957416E+03  0.7546771E-02  0.1045264E+00
         21   -1    0    0  502  501  0.00000000000E+00  0.00000000000E+00  0.10730745986E+04  0.10730745986E+04  0.00000000000E+00 0.  1.
         21   -1    0    0  501  502 -0.00000000000E+00 -0.00000000000E+00 -0.14594643771E+03  0.14594643771E+03  0.00000000000E+00 0.  1.
         25    1    1    2    0    0  0.23444944426E+03  0.44895426374E+01  0.67733748110E+03  0.72759725207E+03  0.12500000000E+03 0.  0.
         25    1    1    2    0    0 -0.13566669600E+03 -0.75165958037E+02  0.16037247163E+02  0.19984385642E+03  0.12500000000E+03 0.  0.
         25    1    1    2    0    0 -0.98782748258E+02  0.70676415400E+02  0.23375343267E+03  0.29157992786E+03  0.12500000000E+03 0.  0.
</event>
<event>
 5    0  0.5713700E-005  0.3839993E+03  0.7546771E-02  0.1049465E+00
         21   -1    0    0  502  501  0.00000000000E+00  0.00000000000E+00  0.25182650029E+03  0.25182650029E+03  0.00000000000E+00 0.  1.
         21   -1    0    0  501  502 -0.00000000000E+00 -0.00000000000E+00 -0.58554375761E+03  0.58554375761E+03  0.00000000000E+00 0.  1.
         25    1    1    2    0    0 -0.15324830139E+03  0.13712423480E+03 -0.87042569209E+02  0.25590917628E+03  0.12500000000E+03 0.  0.
         25    1    1    2    0    0  0.20343367042E+03 -0.43582743212E+02  0.44995964045E+02  0.24684884149E+03  0.12500000000E+03 0.  0.
         25    1    1    2    0    0 -0.50185369026E+02 -0.93541491592E+02 -0.29167065216E+03  0.33461224013E+03  0.12500000000E+03 0.  0.
</event>
<event>
 5    0  0.5713700E-005  0.4077340E+03  0.7546771E-02  0.1041134E+00
         21   -1    0    0  502  501  0.00000000000E+00  0.00000000000E+00  0.10555299099E+04  0.10555299099E+04  0.00000000000E+00 0.  1.
         21   -1    0    0  501  502 -0.00000000000E+00 -0.00000000000E+00 -0.15750101628E+03  0.15750101628E+03  0.00000000000E+00 0.  1.
         25    1    1    2    0    0 -0.13664077000E+03 -0.79673226894E+02  0.24651333522E+03  0.31845305393E+03  0.12500000000E+03 0.  0.
         25    1    1    2    0    0  0.14206567492E+03  0.26487100412E+03  0.57051856975E+03  0.65685290837E+03  0.12500000000E+03 0.  0.
         25    1    1    2    0    0 -0.54249049167E+01 -0.18519777723E+03  0.80996988661E+02  0.23772496389E+03  0.12500000000E+03 0.  0.
</event>
<event>
 5    0  0.5713700E-005  0.2407093E+03  0.7546771E-02  0.1119321E+00
         21   -1    0    0  502  501  0.00000000000E+00  0.00000000000E+00  0.50330226289E+03  0.50330226289E+03  0.00000000000E+00 0.  1.
         21   -1    0    0  501  502 -0.00000000000E+00 -0.00000000000E+00 -0.11512158787E+03  0.11512158787E+03  0.00000000000E+00 0.  1.
         25    1    1    2    0    0 -0.20552538523E+02 -0.88579253177E+01  0.64714561580E+02  0.14252664369E+03  0.12500000000E+03 0.  0.
         25    1    1    2    0    0  0.97227076957E+01  0.12368131545E+03  0.19497001855E+03  0.26273543151E+03  0.12500000000E+03 0.  0.
         25    1    1    2    0    0  0.10829830827E+02 -0.11482339013E+03  0.12849609489E+03  0.21316177556E+03  0.12500000000E+03 0.  0.
</event>
<event>
 5    0  0.5713700E-005  0.3172212E+03  0.7546771E-02  0.1076935E+00
         21   -1    0    0  502  501  0.00000000000E+00  0.00000000000E+00  0.21451258850E+03  0.21451258850E+03  0.00000000000E+00 0. -1.
         21   -1    0    0  501  502 -0.00000000000E+00 -0.00000000000E+00 -0.46910679736E+03  0.46910679736E+03  0.00000000000E+00 0. -1.
         25    1    1    2    0    0 -0.82305306867E+02 -0.15358851059E+03 -0.43967112235E+01  0.21449458080E+03  0.12500000000E+03 0.  0.
         25    1    1    2    0    0 -0.13396972488E+02  0.15265475634E+03 -0.24054143750E+03  0.31139707234E+03  0.12500000000E+03 0.  0.
         25    1    1    2    0    0  0.95702279356E+02  0.93375425070E+00 -0.96560601263E+01  0.15772773272E+03  0.12500000000E+03 0.  0.
</event>
<event>
 5    0  0.5713700E-005  0.5822946E+03  0.7546771E-02  0.9942836E-01
         21   -1    0    0  502  501  0.00000000000E+00  0.00000000000E+00  0.34634627566E+03  0.34634627566E+03  0.00000000000E+00 0. -1.
         21   -1    0    0  501  502 -0.00000000000E+00 -0.00000000000E+00 -0.97898267227E+03  0.97898267227E+03  0.00000000000E+00 0. -1.
         25    1    1    2    0    0 -0.95890329561E+02  0.19002009559E+03 -0.35849229998E+03  0.43525202030E+03  0.12500000000E+03 0.  0.
         25    1    1    2    0    0 -0.61979068203E+02 -0.83459484795E+02  0.26154382630E+03  0.30795626893E+03  0.12500000000E+03 0.  0.
         25    1    1    2    0    0  0.15786939776E+03 -0.10656061080E+03 -0.53568792292E+03  0.58212065870E+03  0.12500000000E+03 0.  0.
</event>
<event>
 5    0  0.5713700E-005  0.4324344E+03  0.7546771E-02  0.1033094E+00
         21   -1    0    0  502  501  0.00000000000E+00  0.00000000000E+00  0.26797174336E+03  0.26797174336E+03  0.00000000000E+00 0.  1.
         21   -1    0    0  501  502 -0.00000000000E+00 -0.00000000000E+00 -0.69783279682E+03  0.69783279682E+03  0.00000000000E+00 0.  1.
         25    1    1    2    0    0  0.20948896422E+02 -0.28368173041E+03  0.87235018345E+02  0.32272144158E+03  0.12500000000E+03 0.  0.
         25    1    1    2    0    0 -0.26772816454E+02  0.13425280709E+03 -0.21902663137E+03  0.28694644999E+03  0.12500000000E+03 0.  0.
         25    1    1    2    0    0  0.58239200321E+01  0.14942892332E+03 -0.29806944043E+03  0.35613664862E+03  0.12500000000E+03 0.  0.
</event>
<event>
 5    0  0.5713700E-005  0.4679973E+03  0.7546771E-02  0.1022487E+00
         21   -1    0    0  502  501  0.00000000000E+00  0.00000000000E+00  0.23998542570E+03  0.23998542570E+03  0.00000000000E+00 0.  1.
         21   -1    0    0  501  502 -0.00000000000E+00 -0.00000000000E+00 -0.91264486036E+03  0.91264486036E+03  0.00000000000E+00 0. -1.
         25    1    1    2    0    0 -0.15260545296E+03  0.11279694045E+03 -0.24227046439E+03  0.33216193636E+03  0.12500000000E+03 0.  0.
         25    1    1    2    0    0 -0.20640587253E+03  0.56735776883E+02 -0.42485192032E+02  0.25150014739E+03  0.12500000000E+03 0.  0.
         25    1    1    2    0    0  0.35901132549E+03 -0.16953271733E+03 -0.38790377824E+03  0.56896820232E+03  0.12500000000E+03 0.  0.
</event>
<event>
 5    0  0.5713700E-005  0.3271712E+03  0.7546771E-02  0.1072395E+00
         21   -1    0    0  502  501  0.00000000000E+00  0.00000000000E+00  0.29704982505E+03  0.29704982505E+03  0.00000000000E+00 0.  1.
         21   -1    0    0  501  502 -0.00000000000E+00 -0.00000000000E+00 -0.36034701019E+03  0.36034701019E+03  0.00000000000E+00 0.  1.
         25    1    1    2    0    0  0.17562239458E+03  0.11658251469E+02 -0.40842029966E+02  0.21970938013E+03  0.12500000000E+03 0.  0.
         25    1    1    2    0    0 -0.76970183788E+02  0.10215321507E+03  0.10185977586E+03  0.20581570028E+03  0.12500000000E+03 0.  0.
         25    1    1    2    0    0 -0.98652210788E+02 -0.11381146654E+03 -0.12431493104E+03  0.23187175484E+03  0.12500000000E+03 0.  0.
</event>
<event>
 5    0  0.5713700E-005  0.3606732E+03  0.7546771E-02  0.1058318E+00
         21   -1    0    0  502  501  0.00000000000E+00  0.00000000000E+00  0.59289019702E+02  0.59289019702E+02  0.00000000000E+00 0. -1.
         21   -1    0    0  501  502 -0.00000000000E+00 -0.00000000000E+00 -0.21940856935E+04  0.21940856935E+04  0.00000000000E+00 0. -1.
         25    1    1    2    0    0  0.78011232573E+02  0.20921508731E+01 -0.18152391265E+03  0.23380774231E+03  0.12500000000E+03 0.  0.
         25    1    1    2    0    0 -0.95553721716E+02  0.17535116781E+03 -0.53365242204E+03  0.58334248374E+03  0.12500000000E+03 0.  0.
         25    1    1    2    0    0  0.17542489143E+02 -0.17744331868E+03 -0.14196203391E+04  0.14362244871E+04  0.12500000000E+03 0.  0.
</event>
<event>
 5    0  0.5713700E-005  0.2518116E+03  0.7546771E-02  0.1112165E+00
         21   -1    0    0  502  501  0.00000000000E+00  0.00000000000E+00  0.81855812476E+03  0.81855812476E+03  0.00000000000E+00 0. -1.
         21   -1    0    0  501  502 -0.00000000000E+00 -0.00000000000E+00 -0.77464368869E+02  0.77464368869E+02  0.00000000000E+00 0. -1.
         25    1    1    2    0    0  0.35546791048E+02  0.37103489678E+02  0.22518842120E+03  0.26263104984E+03  0.12500000000E+03 0.  0.
         25    1    1    2    0    0  0.67440113108E+01  0.10679439263E+03  0.30099342477E+03  0.34303435067E+03  0.12500000000E+03 0.  0.
         25    1    1    2    0    0 -0.42290802359E+02 -0.14389788231E+03  0.21491190992E+03  0.29035709312E+03  0.12500000000E+03 0.  0.
</event>
<event>
 5    0  0.5713700E-005  0.3329897E+03  0.7546771E-02  0.1069822E+00
         21   -1    0    0  502  501  0.00000000000E+00  0.00000000000E+00  0.19326136653E+03  0.19326136653E+03  0.00000000000E+00 0.  1.
         21   -1    0    0  501  502 -0.00000000000E+00 -0.00000000000E+00 -0.57374172904E+03  0.57374172904E+03  0.00000000000E+00 0.  1.
         25    1    1    2    0    0 -0.82077302293E+02 -0.56242841725E+01 -0.34566852268E+03  0.37666967451E+03  0.12500000000E+03 0.  0.
         25    1    1    2    0    0 -0.40086523212E+02  0.12166391646E+03 -0.16621396526E+02  0.17975068493E+03  0.12500000000E+03 0.  0.
         25    1    1    2    0    0  0.12216382550E+03 -0.11603963229E+03 -0.18190443305E+02  0.21058273612E+03  0.12500000000E+03 0.  0.
</event>
<event>
 5    0  0.5713700E-005  0.3015644E+03  0.7546771E-02  0.1084461E+00
         21   -1    0    0  502  501  0.00000000000E+00  0.00000000000E+00  0.19244228758E+03  0.19244228758E+03  0.00000000000E+00 0. -1.
         21   -1    0    0  501  502 -0.00000000000E+00 -0.00000000000E+00 -0.47256306570E+03  0.47256306570E+03  0.00000000000E+00 0. -1.
         25    1    1    2    0    0  0.98069990191E+02  0.11044098249E+03 -0.13806524358E+03  0.23770137794E+03  0.12500000000E+03 0.  0.
         25    1    1    2    0    0 -0.35122818313E+02  0.45495316633E+02  0.46699067314E+02  0.14529018924E+03  0.12500000000E+03 0.  0.
         25    1    1    2    0    0 -0.62947171877E+02 -0.15593629912E+03 -0.18875460185E+03  0.28201378610E+03  0.12500000000E+03 0.  0.
</event>
<event>
 5    0  0.5713700E-005  0.2495363E+03  0.7546771E-02  0.1113598E+00
         21   -1    0    0  502  501  0.00000000000E+00  0.00000000000E+00  0.64201100377E+03  0.64201100377E+03  0.00000000000E+00 0.  1.
         21   -1    0    0  501  502 -0.00000000000E+00 -0.00000000000E+00 -0.96989561644E+02  0.96989561644E+02  0.00000000000E+00 0.  1.
         25    1    1    2    0    0 -0.14946113011E+02 -0.69902021707E+02  0.19033892179E+03  0.23867045079E+03  0.12500000000E+03 0.  0.
         25    1    1    2    0    0 -0.12009225093E+02 -0.85170548839E+02  0.16004281305E+03  0.22053785590E+03  0.12500000000E+03 0.  0.
         25    1    1    2    0    0  0.26955338104E+02  0.15507257055E+03  0.19463970729E+03  0.27979225872E+03  0.12500000000E+03 0.  0.
</event>
<event>
 5    0  0.5713700E-005  0.2505739E+03  0.7546771E-02  0.1112943E+00
         21   -1    0    0  502  501  0.00000000000E+00  0.00000000000E+00  0.13572675053E+03  0.13572675053E+03  0.00000000000E+00 0.  1.
         21   -1    0    0  501  502 -0.00000000000E+00 -0.00000000000E+00 -0.46260056790E+03  0.46260056790E+03  0.00000000000E+00 0.  1.
         25    1    1    2    0    0 -0.18238808138E+02  0.12780972260E+02 -0.27762939864E+03  0.30528526064E+03  0.12500000000E+03 0.  0.
         25    1    1    2    0    0 -0.91252511300E+01 -0.32507159729E+01 -0.94479078669E+02  0.15698768636E+03  0.12500000000E+03 0.  0.
         25    1    1    2    0    0  0.27364059268E+02 -0.95302562869E+01  0.45234659940E+02  0.13605437143E+03  0.12500000000E+03 0.  0.
</event>
<event>
 5    0  0.5713700E-005  0.2473853E+03  0.7546771E-02  0.1114968E+00
         21   -1    0    0  502  501  0.00000000000E+00  0.00000000000E+00  0.16334701529E+04  0.16334701529E+04  0.00000000000E+00 0. -1.
         21   -1    0    0  501  502 -0.00000000000E+00 -0.00000000000E+00 -0.37465928086E+02  0.37465928086E+02  0.00000000000E+00 0. -1.
         25    1    1    2    0    0 -0.86438422109E+01 -0.10752391935E+03  0.44137909946E+03  0.47125005961E+03  0.12500000000E+03 0.  0.
         25    1    1    2    0    0  0.61263899674E+02 -0.17565951930E+02  0.45510120737E+03  0.47623936945E+03  0.12500000000E+03 0.  0.
         25    1    1    2    0    0 -0.52620057464E+02  0.12508987128E+03  0.69952391796E+03  0.72344665190E+03  0.12500000000E+03 0.  0.
</event>
<event>
 5    0  0.6017018E-005  0.4911364E+03  0.7546771E-02  0.1016119E+00
         21   -1    0    0  502  501  0.00000000000E+00  0.00000000000E+00  0.28975183088E+03  0.28975183088E+03  0.00000000000E+00 0.  1.
         21   -1    0    0  501  502 -0.00000000000E+00 -0.00000000000E+00 -0.83248799048E+03  0.83248799048E+03  0.00000000000E+00 0.  1.
         25    1    1    2    0    0 -0.10185143927E+03  0.57331753678E+02  0.33683626491E+02  0.17441396835E+03  0.12500000000E+03 0.  0.
         25    1    1    2    0    0 -0.21291394321E+03  0.11512544946E+03 -0.48602874925E+03  0.55716708573E+03  0.12500000000E+03 0.  0.
         25    1    1    2    0    0  0.31476538248E+03 -0.17245720314E+03 -0.90391036842E+02  0.39065876729E+03  0.12500000000E+03 0.  0.
</event>
<event>
 5    0  0.5713700E-005  0.2853597E+03  0.7546771E-02  0.1092797E+00
         21   -1    0    0  502  501  0.00000000000E+00  0.00000000000E+00  0.15812322619E+03  0.15812322619E+03  0.00000000000E+00 0.  1.
         21   -1    0    0  501  502 -0.00000000000E+00 -0.00000000000E+00 -0.51497911528E+03  0.51497911528E+03  0.00000000000E+00 0.  1.
         25    1    1    2    0    0  0.14125652557E+03 -0.23406347266E+02 -0.23327375434E+02  0.19149524682E+03  0.12500000000E+03 0.  0.
         25    1    1    2    0    0 -0.91312622376E+02 -0.52454027558E+02 -0.73668487411E+02  0.17928041178E+03  0.12500000000E+03 0.  0.
         25    1    1    2    0    0 -0.49943903193E+02  0.75860374824E+02 -0.25986002625E+03  0.30232668287E+03  0.12500000000E+03 0.  0.
</event>
<event>
 5    0  0.5713700E-005  0.2932492E+03  0.7546771E-02  0.1088665E+00
         21   -1    0    0  502  501  0.00000000000E+00  0.00000000000E+00  0.42166217860E+02  0.42166217860E+02  0.00000000000E+00 0. -1.
         21   -1    0    0  501  502 -0.00000000000E+00 -0.00000000000E+00 -0.20394311343E+04  0.20394311343E+04  0.00000000000E+00 0. -1.
         25    1    1    2    0    0 -0.17448416752E+01  0.74268591550E+02 -0.86426810118E+03  0.87641498098E+03  0.12500000000E+03 0.  0.
         25    1    1    2    0    0 -0.45674579256E+02  0.93604684261E+02 -0.26427247650E+03  0.31034327114E+03  0.12500000000E+03 0.  0.
         25    1    1    2    0    0  0.47419420931E+02 -0.16787327581E+03 -0.86872433871E+03  0.89483910000E+03  0.12500000000E+03 0.  0.
</event>
<event>
 5    0  0.5713700E-005  0.5558489E+03  0.7546771E-02  0.1000149E+00
         21   -1    0    0  502  501  0.00000000000E+00  0.00000000000E+00  0.86136706374E+03  0.86136706374E+03  0.00000000000E+00 0. -1.
         21   -1    0    0  501  502 -0.00000000000E+00 -0.00000000000E+00 -0.35869493214E+03  0.35869493214E+03  0.00000000000E+00 0. -1.
         25    1    1    2    0    0 -0.16798365487E+03  0.12526617708E+02 -0.25320684662E+03  0.32880713440E+03  0.12500000000E+03 0.  0.
         25    1    1    2    0    0  0.52772842273E+02 -0.16144131733E+03  0.19771789272E+03  0.28907721620E+03  0.12500000000E+03 0.  0.
         25    1    1    2    0    0  0.11521081260E+03  0.14891469962E+03  0.55816108550E+03  0.60217764528E+03  0.12500000000E+03 0.  0.
</event>
<event>
 5    0  0.5713700E-005  0.2907945E+03  0.7546771E-02  0.1089935E+00
         21   -1    0    0  502  501  0.00000000000E+00  0.00000000000E+00  0.35071649948E+03  0.35071649948E+03  0.00000000000E+00 0.  1.
         21   -1    0    0  501  502 -0.00000000000E+00 -0.00000000000E+00 -0.24111051272E+03  0.24111051272E+03  0.00000000000E+00 0.  1.
         25    1    1    2    0    0  0.25552189061E+02  0.98361296475E+02  0.17998533116E+03  0.24155243415E+03  0.12500000000E+03 0.  0.
         25    1    1    2    0    0 -0.95626873025E+02 -0.39376371530E+02 -0.10265221839E+03  0.19198300816E+03  0.12500000000E+03 0.  0.
         25    1    1    2    0    0  0.70074683964E+02 -0.58984924946E+02  0.32272873996E+02  0.15829156989E+03  0.12500000000E+03 0.  0.
</event>
<event>
 5    0  0.5713700E-005  0.2340626E+03  0.7546771E-02  0.1123813E+00
         21   -1    0    0  502  501  0.00000000000E+00  0.00000000000E+00  0.10501621444E+03  0.10501621444E+03  0.00000000000E+00 0. -1.
         21   -1    0    0  501  502 -0.00000000000E+00 -0.00000000000E+00 -0.52168405433E+03  0.52168405433E+03  0.00000000000E+00 0. -1.
         25    1    1    2    0    0  0.50449588617E+02 -0.11036262535E+03 -0.21972454991E+03  0.28040853749E+03  0.12500000000E+03 0.  0.
         25    1    1    2    0    0 -0.27695585183E+02  0.88427003500E+02 -0.99748102489E+02  0.18482712013E+03  0.12500000000E+03 0.  0.
         25    1    1    2    0    0 -0.22754003434E+02  0.21935621854E+02 -0.97195187501E+02  0.16146461114E+03  0.12500000000E+03 0.  0.
</event>
<event>
 5    0  0.6364599E-005  0.2915135E+03  0.7546771E-02  0.1089562E+00
         21   -1    0    0  502  501  0.00000000000E+00  0.00000000000E+00  0.14068563096E+03  0.14068563096E+03  0.00000000000E+00 0.  1.
         21   -1    0    0  501  502 -0.00000000000E+00 -0.00000000000E+00 -0.60404243862E+03  0.60404243862E+03  0.00000000000E+00 0.  1.
         25    1    1    2    0    0  0.18762513453E+02  0.13618391250E+03 -0.47182889144E+01  0.18586380009E+03  0.12500000000E+03 0.  0.
         25    1    1    2    0    0 -0.79580242241E+02 -0.62469010085E+02 -0.25585409773E+03  0.30219482375E+03  0.12500000000E+03 0.  0.
         25    1    1    2    0    0  0.60817728788E+02 -0.73714902413E+02 -0.20278442101E+03  0.25666944574E+03  0.12500000000E+03 0.  0.
</event>
<event>
 5    0  0.5713700E-005  0.3510970E+03  0.7546771E-02  0.1062166E+00
         21   -1    0    0  502  501  0.00000000000E+00  0.00000000000E+00  0.54568991687E+03  0.54568991687E+03  0.00000000000E+00 0. -1.
         21   -1    0    0  501  502 -0.00000000000E+00 -0.00000000000E+00 -0.22589592577E+03  0.22589592577E+03  0.00000000000E+00 0. -1.
         25    1    1    2    0    0  0.88162606225E+02 -0.12055723736E+03  0.34694239392E+03  0.39787022672E+03  0.12500000000E+03 0.  0.
         25    1    1    2    0    0 -0.93830257456E+02  0.16604882510E+03  0.27710038683E+02  0.22971542346E+03  0.12500000000E+03 0.  0.
         25    1    1    2    0    0  0.56676512317E+01 -0.45491587741E+02 -0.54858441495E+02  0.14400019246E+03  0.12500000000E+03 0.  0.
</event>
<event>
 5    0  0.5713700E-005  0.3794341E+03  0.7546771E-02  0.1051143E+00
         21   -1    0    0  502  501  0.00000000000E+00  0.00000000000E+00  0.29167600336E+03  0.29167600336E+03  0.00000000000E+00 0. -1.
         21   -1    0    0  501  502 -0.00000000000E+00 -0.00000000000E+00 -0.49359632856E+03  0.49359632856E+03  0.00000000000E+00 0. -1.
         25    1    1    2    0    0 -0.22133974129E+03 -0.19583088408E+03 -0.25841925602E+02  0.32192207342E+03  0.12500000000E+03 0.  0.
         25    1    1    2    0    0  0.82983578944E+02  0.15546070359E+03 -0.20218527423E+02  0.21699791148E+03  0.12500000000E+03 0.  0.
         25    1    1    2    0    0  0.13835616235E+03  0.40370180486E+02 -0.15585987217E+03  0.24635234703E+03  0.12500000000E+03 0.  0.
</event>
<event>
 5    0  0.5713700E-005  0.2790724E+03  0.7546771E-02  0.1096197E+00
         21   -1    0    0  502  501  0.00000000000E+00  0.00000000000E+00  0.25282551285E+03  0.25282551285E+03  0.00000000000E+00 0.  1.
         21   -1    0    0  501  502 -0.00000000000E+00 -0.00000000000E+00 -0.30804400764E+03  0.30804400764E+03  0.00000000000E+00 0.  1.
         25    1    1    2    0    0  0.11236892623E+03  0.70997691612E+01 -0.95322076460E+01  0.16850235988E+03  0.12500000000E+03 0.  0.
         25    1    1    2    0    0 -0.13813216967E+03 -0.11348717277E+03 -0.58118854059E+02  0.22574905510E+03  0.12500000000E+03 0.  0.
         25    1    1    2    0    0  0.25763243443E+02  0.10638740361E+03  0.12432566916E+02  0.16661810550E+03  0.12500000000E+03 0.  0.
</event>
<event>
 5    0  0.5713700E-005  0.2602514E+03  0.7546771E-02  0.1106992E+00
         21   -1    0    0  502  501  0.00000000000E+00  0.00000000000E+00  0.51263003642E+03  0.51263003642E+03  0.00000000000E+00 0.  1.
         21   -1    0    0  501  502 -0.00000000000E+00 -0.00000000000E+00 -0.13212408774E+03  0.13212408774E+03  0.00000000000E+00 0.  1.
         25    1    1    2    0    0  0.42141953054E+01 -0.10302373521E+03  0.36234401249E+02  0.16604090247E+03  0.12500000000E+03 0.  0.
         25    1    1    2    0    0  0.96091839623E+01  0.12977818256E+03  0.10958311728E+03  0.21111175400E+03  0.12500000000E+03 0.  0.
         25    1    1    2    0    0 -0.13823379268E+02 -0.26754447355E+02  0.23468843015E+03  0.26760146770E+03  0.12500000000E+03 0.  0.
</event>
<event>
 5    0  0.5713700E-005  0.2309402E+03  0.7546771E-02  0.1125980E+00
         21   -1    0    0  502  501  0.00000000000E+00  0.00000000000E+00  0.20584560185E+02  0.20584560185E+02  0.00000000000E+00 0.  1.
         21   -1    0    0  501  502 -0.00000000000E+00 -0.00000000000E+00 -0.25909409357E+04  0.25909409357E+04  0.00000000000E+00 0.  1.
         25    1    1    2    0    0 -0.12114378047E+03  0.17172824764E+02 -0.94905883700E+03  0.96504321020E+03  0.12500000000E+03 0.  0.
         25    1    1    2    0    0  0.31072962368E+02 -0.28541113288E+02 -0.79339056409E+03  0.80428459598E+03  0.12500000000E+03 0.  0.
         25    1    1    2    0    0  0.90070818098E+02  0.11368288525E+02 -0.82790697438E+03  0.84219768967E+03  0.12500000000E+03 0.  0.
</event>
<event>
 5    0  0.5713700E-005  0.1921509E+03  0.7546771E-02  0.1156536E+00
         21   -1    0    0  502  501  0.00000000000E+00  0.00000000000E+00  0.52701687041E+03  0.52701687041E+03  0.00000000000E+00 0.  1.
         21   -1    0    0  501  502 -0.00000000000E+00 -0.00000000000E+00 -0.70058424207E+02  0.70058424207E+02  0.00000000000E+00 0.  1.
         25    1    1    2    0    0 -0.35087392512E+01 -0.57304630302E+01  0.12968706895E+03  0.18024673453E+03  0.12500000000E+03 0.  0.
         25    1    1    2    0    0  0.26469307607E+02 -0.25193556836E+01  0.13227630434E+03  0.18392659429E+03  0.12500000000E+03 0.  0.
         25    1    1    2    0    0 -0.22960568356E+02  0.82498187138E+01  0.19499507292E+03  0.23290196579E+03  0.12500000000E+03 0.  0.
</event>
<event>
 5    0  0.5713700E-005  0.4142905E+03  0.7546771E-02  0.1038941E+00
         21   -1    0    0  502  501  0.00000000000E+00  0.00000000000E+00  0.21420109612E+03  0.21420109612E+03  0.00000000000E+00 0.  1.
         21   -1    0    0  501  502 -0.00000000000E+00 -0.00000000000E+00 -0.80128711019E+03  0.80128711019E+03  0.00000000000E+00 0.  1.
         25    1    1    2    0    0  0.30488635937E+03 -0.91719831988E+02 -0.21842010243E+03  0.40583316874E+03  0.12500000000E+03 0.  0.
         25    1    1    2    0    0 -0.27388849747E+03  0.15859901339E+03 -0.25133976018E+03  0.42304282424E+03  0.12500000000E+03 0.  0.
         25    1    1    2    0    0 -0.30997861898E+02 -0.66879181405E+02 -0.11732615145E+03  0.18661221333E+03  0.12500000000E+03 0.  0.
</event>
<event>
 5    0  0.5713700E-005  0.4491622E+03  0.7546771E-02  0.1027972E+00
         21   -1    0    0  502  501  0.00000000000E+00  0.00000000000E+00  0.71012606002E+03  0.71012606002E+03  0.00000000000E+00 0.  1.
         21   -1    0    0  501  502 -0.00000000000E+00 -0.00000000000E+00 -0.28409987760E+03  0.28409987760E+03  0.00000000000E+00 0.  1.
         25    1    1    2    0    0 -0.25827295034E+03  0.53037423357E+02  0.62754975352E+02  0.29846452400E+03  0.12500000000E+03 0.  0.
         25    1    1    2    0    0  0.31727167238E+03  0.67870256318E+02  0.77753421026E+02  0.35628398823E+03  0.12500000000E+03 0.  0.
         25    1    1    2    0    0 -0.58998722039E+02 -0.12090767967E+03  0.28551778604E+03  0.33947742539E+03  0.12500000000E+03 0.  0.
</event>
<event>
 5    0  0.5713700E-005  0.3987469E+03  0.7546771E-02  0.1044214E+00
         21   -1    0    0  502  501  0.00000000000E+00  0.00000000000E+00  0.32721386433E+03  0.32721386433E+03  0.00000000000E+00 0.  1.
         21   -1    0    0  501  502 -0.00000000000E+00 -0.00000000000E+00 -0.48591799447E+03  0.48591799447E+03  0.00000000000E+00 0.  1.
         25    1    1    2    0    0  0.27075607629E+03 -0.55737758498E+02  0.26505593613E+02  0.30453751339E+03  0.12500000000E+03 0.  0.
         25    1    1    2    0    0 -0.80031088665E+02  0.89757985479E+00 -0.22615106952E+03  0.27050894079E+03  0.12500000000E+03 0.  0.
         25    1    1    2    0    0 -0.19072498763E+03  0.54840178643E+02  0.40941345758E+02  0.23808540462E+03  0.12500000000E+03 0.  0.
</event>
<event>
 5    0  0.5713700E-005  0.2342215E+03  0.7546771E-02  0.1123703E+00
         21   -1    0    0  502  501  0.00000000000E+00  0.00000000000E+00  0.22320013209E+03  0.22320013209E+03  0.00000000000E+00 0. -1.
         21   -1    0    0  501  502 -0.00000000000E+00 -0.00000000000E+00 -0.24578711050E+03  0.24578711050E+03  0.00000000000E+00 0. -1.
         25    1    1    2    0    0  0.25663063068E+01  0.39176768054E+02 -0.39249651809E+01  0.13107940508E+03  0.12500000000E+03 0.  0.
         25    1    1    2    0    0  0.27110696805E+02  0.30476332115E+02  0.86917734972E+02  0.15761817583E+03  0.12500000000E+03 0.  0.
         25    1    1    2    0    0 -0.29677003111E+02 -0.69653100168E+02 -0.10557974820E+03  0.18028966168E+03  0.12500000000E+03 0.  0.
</event>
<event>
 5    0  0.5713700E-005  0.3006330E+03  0.7546771E-02  0.1084925E+00
         21   -1    0    0  502  501  0.00000000000E+00  0.00000000000E+00  0.82384722952E+03  0.82384722952E+03  0.00000000000E+00 0.  1.
         21   -1    0    0  501  502 -0.00000000000E+00 -0.00000000000E+00 -0.10970503696E+03  0.10970503696E+03  0.00000000000E+00 0.  1.
         25    1    1    2    0    0  0.62408084309E+02  0.29750997310E+02  0.53019831519E+02  0.15236795386E+03  0.12500000000E+03 0.  0.
         25    1    1    2    0    0  0.13075310761E+03 -0.36792747378E+02  0.26319730996E+03  0.32147769033E+03  0.12500000000E+03 0.  0.
         25    1    1    2    0    0 -0.19316119192E+03  0.70417500674E+01  0.39792505107E+03  0.45970662229E+03  0.12500000000E+03 0.  0.
</event>
<event>
 5    0  0.5713700E-005  0.3322826E+03  0.7546771E-02  0.1070131E+00
         21   -1    0    0  502  501  0.00000000000E+00  0.00000000000E+00  0.22743902602E+03  0.22743902602E+03  0.00000000000E+00 0. -1.
         21   -1    0    0  501  502 -0.00000000000E+00 -0.00000000000E+00 -0.48545633098E+03  0.48545633098E+03  0.00000000000E+00 0. -1.
         25    1    1    2    0    0 -0.18609974573E+01  0.84566656845E+02 -0.31730146124E+02  0.15422964998E+03  0.12500000000E+03 0.  0.
         25    1    1    2    0    0 -0.74896699970E+02  0.16560048140E+03 -0.10549622483E+03  0.24451480233E+03  0.12500000000E+03 0.  0.
         25    1    1    2    0    0  0.76757697427E+02 -0.25016713825E+03 -0.12079093401E+03  0.31415090468E+03  0.12500000000E+03 0.  0.
</event>
<event>
 5    0  0.5713700E-005  0.4976669E+03  0.7546771E-02  0.1014390E+00
         21   -1    0    0  502  501  0.00000000000E+00  0.00000000000E+00  0.16468343874E+04  0.16468343874E+04  0.00000000000E+00 0. -1.
         21   -1    0    0  501  502 -0.00000000000E+00 -0.00000000000E+00 -0.15039301688E+03  0.15039301688E+03  0.00000000000E+00 0. -1.
         25    1    1    2    0    0  0.16219598077E+03 -0.17917642445E+03  0.12529399749E+04  0.12821448077E+04  0.12500000000E+03 0.  0.
         25    1    1    2    0    0 -0.55811191939E+02  0.10577309605E+03  0.28234311118E+03  0.33112757273E+03  0.12500000000E+03 0.  0.
         25    1    1    2    0    0 -0.10638478883E+03  0.73403328402E+02 -0.38841715586E+02  0.18395502381E+03  0.12500000000E+03 0.  0.
</event>
<event>
 5    0  0.5713700E-005  0.2641200E+03  0.7546771E-02  0.1104693E+00
         21   -1    0    0  502  501  0.00000000000E+00  0.00000000000E+00  0.12998473192E+03  0.12998473192E+03  0.00000000000E+00 0.  1.
         21   -1    0    0  501  502 -0.00000000000E+00 -0.00000000000E+00 -0.53667380563E+03  0.53667380563E+03  0.00000000000E+00 0.  1.
         25    1    1    2    0    0  0.96849010740E+02  0.60024586571E+02 -0.17084362954E+03  0.24040638018E+03  0.12500000000E+03 0.  0.
         25    1    1    2    0    0 -0.96881333865E+02  0.60490342093E+02 -0.61370615350E+02  0.18010115704E+03  0.12500000000E+03 0.  0.
         25    1    1    2    0    0  0.32323125399E-01 -0.12051492866E+03 -0.17447482882E+03  0.24615100034E+03  0.12500000000E+03 0.  0.
</event>
<event>
 5    0  0.5713700E-005  0.3593294E+03  0.7546771E-02  0.1058850E+00
         21   -1    0    0  502  501  0.00000000000E+00  0.00000000000E+00  0.16116358926E+04  0.16116358926E+04  0.00000000000E+00 0.  1.
         21   -1    0    0  501  502 -0.00000000000E+00 -0.00000000000E+00 -0.80115869553E+02  0.80115869553E+02  0.00000000000E+00 0.  1.
         25    1    1    2    0    0 -0.11624649965E+03  0.17837561054E+03  0.10397722097E+04  0.10686825324E+04  0.12500000000E+03 0.  0.
         25    1    1    2    0    0  0.13110428073E+03 -0.17243724609E+03  0.37836387508E+03  0.45354951023E+03  0.12500000000E+03 0.  0.
         25    1    1    2    0    0 -0.14857781083E+02 -0.59383644481E+01  0.11338393827E+03  0.16951971947E+03  0.12500000000E+03 0.  0.
</event>
<event>
 5    0  0.5713700E-005  0.3152053E+03  0.7546771E-02  0.1077877E+00
         21   -1    0    0  502  501  0.00000000000E+00  0.00000000000E+00  0.38004893223E+03  0.38004893223E+03  0.00000000000E+00 0.  1.
         21   -1    0    0  501  502 -0.00000000000E+00 -0.00000000000E+00 -0.26142523226E+03  0.26142523226E+03  0.00000000000E+00 0.  1.
         25    1    1    2    0    0 -0.96596893886E+01  0.10129209685E+03  0.17158912874E+03  0.23541713528E+03  0.12500000000E+03 0.  0.
         25    1    1    2    0    0  0.18300423716E+02 -0.72508606648E+02  0.12126250228E+03  0.18953099484E+03  0.12500000000E+03 0.  0.
         25    1    1    2    0    0 -0.86407343273E+01 -0.28783490205E+02 -0.17422793105E+03  0.21652603436E+03  0.12500000000E+03 0.  0.
</event>
<event>
 5    0  0.5713700E-005  0.3664122E+03  0.7546771E-02  0.1056073E+00
         21   -1    0    0  502  501  0.00000000000E+00  0.00000000000E+00  0.85249666372E+03  0.85249666372E+03  0.00000000000E+00 0. -1.
         21   -1    0    0  501  502 -0.00000000000E+00 -0.00000000000E+00 -0.15748792670E+03  0.15748792670E+03  0.00000000000E+00 0. -1.
         25    1    1    2    0    0  0.12215141843E+03 -0.82666465001E+02  0.10059085339E+03  0.21794089393E+03  0.12500000000E+03 0.  0.
         25    1    1    2    0    0 -0.22127324831E+03 -0.16433050014E+02  0.53915571001E+03  0.59627659285E+03  0.12500000000E+03 0.  0.
         25    1    1    2    0    0  0.99121829872E+02  0.99099515015E+02  0.55262173624E+02  0.19576710364E+03  0.12500000000E+03 0.  0.
</event>
<event>
 5    0  0.5713700E-005  0.2496219E+03  0.7546771E-02  0.1113544E+00
         21   -1    0    0  502  501  0.00000000000E+00  0.00000000000E+00  0.46078702156E+03  0.46078702156E+03  0.00000000000E+00 0.  1.
         21   -1    0    0  501  502 -0.00000000000E+00 -0.00000000000E+00 -0.13522753400E+03  0.13522753400E+03  0.00000000000E+00 0.  1.
         25    1    1    2    0    0 -0.13977542542E+02 -0.25370581693E+02  0.18237345621E+03  0.22298904825E+03  0.12500000000E+03 0.  0.
         25    1    1    2    0    0  0.84164445350E+02 -0.12243769808E+02  0.16434752822E+03  0.22331295034E+03  0.12500000000E+03 0.  0.
         25    1    1    2    0    0 -0.70186902808E+02  0.37614351501E+02 -0.21161496865E+02  0.14971255697E+03  0.12500000000E+03 0.  0.
</event>
<event>
 5    0  0.5713700E-005  0.3036719E+03  0.7546771E-02  0.1083419E+00
         21   -1    0    0  502  501  0.00000000000E+00  0.00000000000E+00  0.82416797324E+03  0.82416797324E+03  0.00000000000E+00 0. -1.
         21   -1    0    0  501  502 -0.00000000000E+00 -0.00000000000E+00 -0.11189053371E+03  0.11189053371E+03  0.00000000000E+00 0. -1.
         25    1    1    2    0    0  0.10176627571E+03 -0.63981418136E+02  0.44014073735E+01  0.17347728706E+03  0.12500000000E+03 0.  0.
         25    1    1    2    0    0 -0.67288452061E+02  0.47172833626E+02  0.31951211066E+03  0.35279739352E+03  0.12500000000E+03 0.  0.
         25    1    1    2    0    0 -0.34477823645E+02  0.16808584510E+02  0.38836392150E+03  0.40978382637E+03  0.12500000000E+03 0.  0.
</event>
<event>
 5    0  0.5713700E-005  0.4302324E+03  0.7546771E-02  0.1033787E+00
         21   -1    0    0  502  501  0.00000000000E+00  0.00000000000E+00  0.15124035267E+03  0.15124035267E+03  0.00000000000E+00 0.  1.
         21   -1    0    0  501  502 -0.00000000000E+00 -0.00000000000E+00 -0.12238789571E+04  0.12238789571E+04  0.00000000000E+00 0.  1.
         25    1    1    2    0    0  0.13497737974E+02  0.73937903950E+02 -0.83041455378E+03  0.84312652295E+03  0.12500000000E+03 0.  0.
         25    1    1    2    0    0 -0.12830934955E+03  0.11478377167E+03 -0.65118901466E+02  0.22249511174E+03  0.12500000000E+03 0.  0.
         25    1    1    2    0    0  0.11481161158E+03 -0.18872167562E+03 -0.17710514915E+03  0.30949767504E+03  0.12500000000E+03 0.  0.
</event>
<event>
 5    0  0.5713700E-005  0.2974090E+03  0.7546771E-02  0.1086543E+00
         21   -1    0    0  502  501  0.00000000000E+00  0.00000000000E+00  0.76343751337E+02  0.76343751337E+02  0.00000000000E+00 0.  1.
         21   -1    0    0  501  502 -0.00000000000E+00 -0.00000000000E+00 -0.11586034237E+04  0.11586034237E+04  0.00000000000E+00 0.  1.
         25    1    1    2    0    0  0.93872957483E+02 -0.11987959083E+03 -0.61401011682E+03  0.64483848521E+03  0.12500000000E+03 0.  0.
         25    1    1    2    0    0 -0.18685330334E+02  0.13692861309E+03 -0.14861431502E+03  0.23834806750E+03  0.12500000000E+03 0.  0.
         25    1    1    2    0    0 -0.75187627149E+02 -0.17049022267E+02 -0.31963524049E+03  0.35176062229E+03  0.12500000000E+03 0.  0.
</event>
<event>
 5    0  0.5713700E-005  0.5919187E+03  0.7546771E-02  0.9922315E-01
         21   -1    0    0  502  501  0.00000000000E+00  0.00000000000E+00  0.81756961147E+03  0.81756961147E+03  0.00000000000E+00 0.  1.
         21   -1    0    0  501  502 -0.00000000000E+00 -0.00000000000E+00 -0.42854791502E+03  0.42854791502E+03  0.00000000000E+00 0.  1.
         25    1    1    2    0    0  0.66368658290E+02 -0.44840930246E+03 -0.14039867284E+03  0.49072649069E+03  0.12500000000E+03 0.  0.
         25    1    1    2    0    0 -0.29753822608E+02  0.10451067211E+03  0.21611813471E+03  0.27228628077E+03  0.12500000000E+03 0.  0.
         25    1    1    2    0    0 -0.36614835681E+02  0.34389863034E+03  0.31330223457E+03  0.48310475503E+03  0.12500000000E+03 0.  0.
</event>
<event>
 5    0  0.5713700E-005  0.3332586E+03  0.7546771E-02  0.1069704E+00
         21   -1    0    0  502  501  0.00000000000E+00  0.00000000000E+00  0.21313935804E+03  0.21313935804E+03  0.00000000000E+00 0. -1.
         21   -1    0    0  501  502 -0.00000000000E+00 -0.00000000000E+00 -0.52107351506E+03  0.52107351506E+03  0.00000000000E+00 0. -1.
         25    1    1    2    0    0 -0.24472566446E+02 -0.43539426421E+02  0.40820297411E+02  0.14066230782E+03  0.12500000000E+03 0.  0.
         25    1    1    2    0    0  0.10536020750E+03  0.18092865243E+03 -0.79269617160E+02  0.25640714265E+03  0.12500000000E+03 0.  0.
         25    1    1    2    0    0 -0.80887641058E+02 -0.13738922601E+03 -0.26948483728E+03  0.33714342263E+03  0.12500000000E+03 0.  0.
</event>
<event>
 5    0  0.5713700E-005  0.2625759E+03  0.7546771E-02  0.1105605E+00
         21   -1    0    0  502  501  0.00000000000E+00  0.00000000000E+00  0.91784120600E+03  0.91784120600E+03  0.00000000000E+00 0. -1.
         21   -1    0    0  501  502 -0.00000000000E+00 -0.00000000000E+00 -0.75117677029E+02  0.75117677029E+02  0.00000000000E+00 0. -1.
         25    1    1    2    0    0  0.51045691308E+02  0.11884610774E+03  0.17392555590E+03  0.25021022945E+03  0.12500000000E+03 0.  0.
         25    1    1    2    0    0  0.40735704107E+02 -0.71430716716E+02  0.22458342592E+03  0.26986007500E+03  0.12500000000E+03 0.  0.
         25    1    1    2    0    0 -0.91781395416E+02 -0.47415391026E+02  0.44421454715E+03  0.47288857858E+03  0.12500000000E+03 0.  0.
</event>
<event>
 5    0  0.5713700E-005  0.2735872E+03  0.7546771E-02  0.1099244E+00
         21   -1    0    0  502  501  0.00000000000E+00  0.00000000000E+00  0.68316291864E+03  0.68316291864E+03  0.00000000000E+00 0. -1.
         21   -1    0    0  501  502 -0.00000000000E+00 -0.00000000000E+00 -0.10956384357E+03  0.10956384357E+03  0.00000000000E+00 0. -1.
         25    1    1    2    0    0  0.12776893883E+02  0.10655360725E+02  0.33406438046E+03  0.35707253608E+03  0.12500000000E+03 0.  0.
         25    1    1    2    0    0 -0.82844372485E+02  0.10156306275E+03  0.10534425815E+03  0.20952483980E+03  0.12500000000E+03 0.  0.
         25    1    1    2    0    0  0.70067478602E+02 -0.11221842347E+03  0.13419043645E+03  0.22612938633E+03  0.12500000000E+03 0.  0.
</event>
<event>
 5    0  0.5713700E-005  0.4393511E+03  0.7546771E-02  0.1030946E+00
         21   -1    0    0  502  501  0.00000000000E+00  0.00000000000E+00  0.10384709952E+04  0.10384709952E+04  0.00000000000E+00 0.  1.
         21   -1    0    0  501  502 -0.00000000000E+00 -0.00000000000E+00 -0.18587842060E+03  0.18587842060E+03  0.00000000000E+00 0.  1.
         25    1    1    2    0    0 -0.10270434797E+02  0.16572540786E+02  0.63570605442E+02  0.14158514334E+03  0.12500000000E+03 0.  0.
         25    1    1    2    0    0 -0.15637384405E+03 -0.23480095509E+03  0.70503331025E+03  0.76959810043E+03  0.12500000000E+03 0.  0.
         25    1    1    2    0    0  0.16664427885E+03  0.21822841430E+03  0.83988658909E+02  0.31316617204E+03  0.12500000000E+03 0.  0.
</event>
<event>
 5    0  0.5713700E-005  0.3076001E+03  0.7546771E-02  0.1081502E+00
         21   -1    0    0  502  501  0.00000000000E+00  0.00000000000E+00  0.12725067187E+04  0.12725067187E+04  0.00000000000E+00 0. -1.
         21   -1    0    0  501  502 -0.00000000000E+00 -0.00000000000E+00 -0.74355450504E+02  0.74355450504E+02  0.00000000000E+00 0. -1.
         25    1    1    2    0    0 -0.57183714729E+02 -0.14227113429E+03  0.37438940766E+03  0.42344241810E+03  0.12500000000E+03 0.  0.
         25    1    1    2    0    0  0.25985014752E+02  0.10307973415E+03  0.75421276390E+03  0.77185655780E+03  0.12500000000E+03 0.  0.
         25    1    1    2    0    0  0.31198699977E+02  0.39191400133E+02  0.69549096658E+02  0.15156319332E+03  0.12500000000E+03 0.  0.
</event>
<event>
 5    0  0.5713700E-005  0.2659944E+03  0.7546771E-02  0.1103594E+00
         21   -1    0    0  502  501  0.00000000000E+00  0.00000000000E+00  0.62520522037E+02  0.62520522037E+02  0.00000000000E+00 0. -1.
         21   -1    0    0  501  502 -0.00000000000E+00 -0.00000000000E+00 -0.11316763809E+04  0.11316763809E+04  0.00000000000E+00 0. -1.
         25    1    1    2    0    0 -0.28916883067E+02 -0.12893631049E+03 -0.16573640222E+03  0.24607786026E+03  0.12500000000E+03 0.  0.
         25    1    1    2    0    0  0.76961015766E+01  0.54495728962E+02 -0.35603950717E+03  0.38133731147E+03  0.12500000000E+03 0.  0.
         25    1    1    2    0    0  0.21220781490E+02  0.74440581526E+02 -0.54737994951E+03  0.56678173125E+03  0.12500000000E+03 0.  0.
</event>
<event>
 5    0  0.5713700E-005  0.3132647E+03  0.7546771E-02  0.1078792E+00
         21   -1    0    0  502  501  0.00000000000E+00  0.00000000000E+00  0.13189169131E+04  0.13189169131E+04  0.00000000000E+00 0.  1.
         21   -1    0    0  501  502 -0.00000000000E+00 -0.00000000000E+00 -0.74405573753E+02  0.74405573753E+02  0.00000000000E+00 0.  1.
         25    1    1    2    0    0 -0.92549762522E+02  0.56047368041E+02  0.21711026034E+03  0.27288941194E+03  0.12500000000E+03 0.  0.
         25    1    1    2    0    0 -0.70813037344E+02  0.70903960094E+02  0.18841455883E+03  0.24731943675E+03  0.12500000000E+03 0.  0.
         25    1    1    2    0    0  0.16336279987E+03 -0.12695132813E+03  0.83898652016E+03  0.87311363814E+03  0.12500000000E+03 0.  0.
</event>
<event>
 5    0  0.5713700E-005  0.6412336E+03  0.7546771E-02  0.9823369E-01
         21   -1    0    0  502  501  0.00000000000E+00  0.00000000000E+00  0.20102931962E+04  0.20102931962E+04  0.00000000000E+00 0.  1.
         21   -1    0    0  501  502 -0.00000000000E+00 -0.00000000000E+00 -0.20453760822E+03  0.20453760822E+03  0.00000000000E+00 0.  1.
         25    1    1    2    0    0  0.77796730999E+02 -0.56706640544E+02  0.11295742054E+03  0.19404214308E+03  0.12500000000E+03 0.  0.
         25    1    1    2    0    0 -0.89437306649E+02 -0.47105525980E+03  0.11554903593E+04  0.12572490047E+04  0.12500000000E+03 0.  0.
         25    1    1    2    0    0  0.11640575651E+02  0.52776190034E+03  0.53730780821E+03  0.76353965661E+03  0.12500000000E+03 0.  0.
</event>
<event>
 5    0  0.5713700E-005  0.2233661E+03  0.7546771E-02  0.1131398E+00
         21   -1    0    0  502  501  0.00000000000E+00  0.00000000000E+00  0.74361649650E+03  0.74361649650E+03  0.00000000000E+00 0.  1.
         21   -1    0    0  501  502 -0.00000000000E+00 -0.00000000000E+00 -0.67094266935E+02  0.67094266935E+02  0.00000000000E+00 0.  1.
         25    1    1    2    0    0 -0.32618683276E+02  0.41169699343E+02  0.23718450152E+03  0.27320397216E+03  0.12500000000E+03 0.  0.
         25    1    1    2    0    0  0.10055409627E+03  0.34753700744E+01  0.22091297329E+03  0.27303982538E+03  0.12500000000E+03 0.  0.
         25    1    1    2    0    0 -0.67935412991E+02 -0.44645069418E+02  0.21842475475E+03  0.26446696589E+03  0.12500000000E+03 0.  0.
</event>
<event>
 5    0  0.5713700E-005  0.2426241E+03  0.7546771E-02  0.1118057E+00
         21   -1    0    0  502  501  0.00000000000E+00  0.00000000000E+00  0.13188689952E+03  0.13188689952E+03  0.00000000000E+00 0.  1.
         21   -1    0    0  501  502 -0.00000000000E+00 -0.00000000000E+00 -0.44634034034E+03  0.44634034034E+03  0.00000000000E+00 0.  1.
         25    1    1    2    0    0 -0.21495811146E+02 -0.62747274015E+01 -0.45858961208E+02  0.13501661536E+03  0.12500000000E+03 0.  0.
         25    1    1    2    0    0  0.69313875926E+02 -0.44057119330E+02 -0.26002019614E+03  0.29996824092E+03  0.12500000000E+03 0.  0.
         25    1    1    2    0    0 -0.47818064780E+02  0.50331846731E+02 -0.85742834762E+01  0.14324238357E+03  0.12500000000E+03 0.  0.
</event>
<event>
 5    0  0.5713700E-005  0.4013795E+03  0.7546771E-02  0.1043303E+00
         21   -1    0    0  502  501  0.00000000000E+00  0.00000000000E+00  0.12274876257E+04  0.12274876257E+04  0.00000000000E+00 0. -1.
         21   -1    0    0  501  502 -0.00000000000E+00 -0.00000000000E+00 -0.13124816522E+03  0.13124816522E+03  0.00000000000E+00 0. -1.
         25    1    1    2    0    0  0.48278524546E+02 -0.73124948154E+02 -0.45050753628E+02  0.15916232085E+03  0.12500000000E+03 0.  0.
         25    1    1    2    0    0  0.17897968787E+02 -0.26154947989E+02  0.17185243587E+03  0.21485501694E+03  0.12500000000E+03 0.  0.
         25    1    1    2    0    0 -0.66176493333E+02  0.99279896143E+02  0.96943777820E+03  0.98471845308E+03  0.12500000000E+03 0.  0.
</event>
<event>
 5    0  0.5713700E-005  0.2427146E+03  0.7546771E-02  0.1117998E+00
         21   -1    0    0  502  501  0.00000000000E+00  0.00000000000E+00  0.79974715800E+03  0.79974715800E+03  0.00000000000E+00 0.  1.
         21   -1    0    0  501  502 -0.00000000000E+00 -0.00000000000E+00 -0.73661257391E+02  0.73661257391E+02  0.00000000000E+00 0.  1.
         25    1    1    2    0    0 -0.90993562225E+02  0.11245488558E+02  0.47528466253E+03  0.49992679446E+03  0.12500000000E+03 0.  0.
         25    1    1    2    0    0  0.10193818467E+02  0.85761417579E+01  0.12919106172E+03  0.18025757840E+03  0.12500000000E+03 0.  0.
         25    1    1    2    0    0  0.80799743758E+02 -0.19821630316E+02  0.12161017636E+03  0.19322404254E+03  0.12500000000E+03 0.  0.
</event>
<event>
 5    0  0.5959149E-005  0.4087906E+03  0.7546771E-02  0.1040778E+00
         21   -1    0    0  502  501  0.00000000000E+00  0.00000000000E+00  0.81253567546E+03  0.81253567546E+03  0.00000000000E+00 0.  1.
         21   -1    0    0  501  502 -0.00000000000E+00 -0.00000000000E+00 -0.20566448541E+03  0.20566448541E+03  0.00000000000E+00 0.  1.
         25    1    1    2    0    0 -0.84068998709E+02 -0.40445381957E+02  0.33006099973E+03  0.36505984305E+03  0.12500000000E+03 0.  0.
         25    1    1    2    0    0 -0.11627630595E+03  0.22690861796E+03  0.18361596974E+03  0.33815310818E+03  0.12500000000E+03 0.  0.
         25    1    1    2    0    0  0.20034530466E+03 -0.18646323601E+03  0.93194220578E+02  0.31498720963E+03  0.12500000000E+03 0.  0.
</event>
<event>
 5    0  0.5713700E-005  0.4092011E+03  0.7546771E-02  0.1040639E+00
         21   -1    0    0  502  501  0.00000000000E+00  0.00000000000E+00  0.32075298924E+03  0.32075298924E+03  0.00000000000E+00 0.  1.
         21   -1    0    0  501  502 -0.00000000000E+00 -0.00000000000E+00 -0.52203902866E+03  0.52203902866E+03  0.00000000000E+00 0.  1.
         25    1    1    2    0    0 -0.38884422499E+02  0.12173475935E+03  0.14316675541E+03  0.22902635176E+03  0.12500000000E+03 0.  0.
         25    1    1    2    0    0 -0.27309933701E+02  0.35252793761E+02  0.68898029213E+02  0.14953437858E+03  0.12500000000E+03 0.  0.
         25    1    1    2    0    0  0.66194356200E+02 -0.15698755311E+03 -0.41335082404E+03  0.46423128757E+03  0.12500000000E+03 0.  0.
</event>
<event>
 5    0  0.5713700E-005  0.2506440E+03  0.7546771E-02  0.1112899E+00
         21   -1    0    0  502  501  0.00000000000E+00  0.00000000000E+00  0.44697966742E+03  0.44697966742E+03  0.00000000000E+00 0.  1.
         21   -1    0    0  501  502 -0.00000000000E+00 -0.00000000000E+00 -0.14054871205E+03  0.14054871205E+03  0.00000000000E+00 0.  1.
         25    1    1    2    0    0 -0.94334236333E+02 -0.33737009710E+02  0.30345704325E+02  0.16304292606E+03  0.12500000000E+03 0.  0.
         25    1    1    2    0    0  0.27765418578E+01  0.93746684444E+02  0.13481593958E+03  0.20638916540E+03  0.12500000000E+03 0.  0.
         25    1    1    2    0    0  0.91557694475E+02 -0.60009674735E+02  0.14126931146E+03  0.21809628800E+03  0.12500000000E+03 0.  0.
</event>
<event>
 5    0  0.5713700E-005  0.3402366E+03  0.7546771E-02  0.1066695E+00
         21   -1    0    0  502  501  0.00000000000E+00  0.00000000000E+00  0.26893659644E+03  0.26893659644E+03  0.00000000000E+00 0.  1.
         21   -1    0    0  501  502 -0.00000000000E+00 -0.00000000000E+00 -0.43043948503E+03  0.43043948503E+03  0.00000000000E+00 0.  1.
         25    1    1    2    0    0 -0.18771237345E+02 -0.12914406961E+03 -0.90549539527E+02  0.20212562721E+03  0.12500000000E+03 0.  0.
         25    1    1    2    0    0 -0.13878313856E+03  0.54170102753E+02  0.10382426195E+03  0.22045325343E+03  0.12500000000E+03 0.  0.
         25    1    1    2    0    0  0.15755437590E+03  0.74973966854E+02 -0.17477761102E+03  0.27679720083E+03  0.12500000000E+03 0.  0.
</event>
<event>
 5    0  0.5713700E-005  0.3938151E+03  0.7546771E-02  0.1045943E+00
         21   -1    0    0  502  501  0.00000000000E+00  0.00000000000E+00  0.29263012475E+03  0.29263012475E+03  0.00000000000E+00 0.  1.
         21   -1    0    0  501  502 -0.00000000000E+00 -0.00000000000E+00 -0.52998753439E+03  0.52998753439E+03  0.00000000000E+00 0. -1.
         25    1    1    2    0    0 -0.56077923279E+02  0.15949050926E+03 -0.14894048239E+03  0.25766300339E+03  0.12500000000E+03 0.  0.
         25    1    1    2    0    0 -0.62896372896E+02 -0.26840019245E+03  0.65082726227E+02  0.30960519744E+03  0.12500000000E+03 0.  0.
         25    1    1    2    0    0  0.11897429617E+03  0.10890968319E+03 -0.15349965347E+03  0.25534945831E+03  0.12500000000E+03 0.  0.
</event>
