<event>
 5    0  0.5619558E-005  0.2922708E+03  0.7546771E-02  0.1089169E+00
         21   -1    0    0  502  501  0.00000000000E+00  0.00000000000E+00  0.25404315759E+03  0.25404315759E+03  0.00000000000E+00 0.  1.
         21   -1    0    0  501  502 -0.00000000000E+00 -0.00000000000E+00 -0.33625070941E+03  0.33625070941E+03  0.00000000000E+00 0.  1.
         25    1    1    2    0    0  0.13706395096E+03  0.87369885998E+02 -0.80167055385E+02  0.22016307684E+03  0.12500000000E+03 0.  0.
         25    1    1    2    0    0 -0.14628303704E+03  0.24198118833E+02 -0.40178954325E+02  0.19804954999E+03  0.12500000000E+03 0.  0.
         25    1    1    2    0    0  0.92190860801E+01 -0.11156800483E+03  0.38138457885E+02  0.17208124017E+03  0.12500000000E+03 0.  0.
</event>
<event>
 5    0  0.5619558E-005  0.2736569E+03  0.7546771E-02  0.1099205E+00
         21   -1    0    0  502  501  0.00000000000E+00  0.00000000000E+00  0.13377051561E+03  0.13377051561E+03  0.00000000000E+00 0. -1.
         21   -1    0    0  501  502 -0.00000000000E+00 -0.00000000000E+00 -0.55982530244E+03  0.55982530244E+03  0.00000000000E+00 0. -1.
         25    1    1    2    0    0 -0.29972957494E+02 -0.13366192072E+03 -0.19158560915E+03  0.26663445551E+03  0.12500000000E+03 0.  0.
         25    1    1    2    0    0  0.81710343214E+02  0.65056570882E+02 -0.19774516184E+02  0.16408829664E+03  0.12500000000E+03 0.  0.
         25    1    1    2    0    0 -0.51737385720E+02  0.68605349834E+02 -0.21469466150E+03  0.26287306591E+03  0.12500000000E+03 0.  0.
</event>
<event>
 5    0  0.5619558E-005  0.2175703E+03  0.7546771E-02  0.1135708E+00
         21   -1    0    0  502  501  0.00000000000E+00  0.00000000000E+00  0.32908346941E+03  0.32908346941E+03  0.00000000000E+00 0. -1.
         21   -1    0    0  501  502 -0.00000000000E+00 -0.00000000000E+00 -0.14384442499E+03  0.14384442499E+03  0.00000000000E+00 0. -1.
         25    1    1    2    0    0 -0.14034327767E+01  0.65782375704E+02  0.48818035011E+02  0.14945732207E+03  0.12500000000E+03 0.  0.
         25    1    1    2    0    0 -0.49365873351E+01 -0.73148878119E+02  0.97479216468E+01  0.14524169595E+03  0.12500000000E+03 0.  0.
         25    1    1    2    0    0  0.63400201118E+01  0.73665024151E+01  0.12667308777E+03  0.17822887638E+03  0.12500000000E+03 0.  0.
</event>
<event>
 5    0  0.5619558E-005  0.2236097E+03  0.7546771E-02  0.1131220E+00
         21   -1    0    0  502  501  0.00000000000E+00  0.00000000000E+00  0.18001275864E+03  0.18001275864E+03  0.00000000000E+00 0. -1.
         21   -1    0    0  501  502 -0.00000000000E+00 -0.00000000000E+00 -0.27776529692E+03  0.27776529692E+03  0.00000000000E+00 0. -1.
         25    1    1    2    0    0 -0.75578477563E+01 -0.84421308497E+01 -0.55291793924E+02  0.13715164276E+03  0.12500000000E+03 0.  0.
         25    1    1    2    0    0  0.93757749418E+02 -0.28921966956E+02 -0.12351943290E+01  0.15891356598E+03  0.12500000000E+03 0.  0.
         25    1    1    2    0    0 -0.86199901662E+02  0.37364097805E+02 -0.41225550025E+02  0.16171284682E+03  0.12500000000E+03 0.  0.
</event>
<event>
 5    0  0.5988600E-005  0.2956101E+03  0.7546771E-02  0.1087456E+00
         21   -1    0    0  502  501  0.00000000000E+00  0.00000000000E+00  0.40159475369E+03  0.40159475369E+03  0.00000000000E+00 0. -1.
         21   -1    0    0  501  502 -0.00000000000E+00 -0.00000000000E+00 -0.21759573140E+03  0.21759573140E+03  0.00000000000E+00 0. -1.
         25    1    1    2    0    0  0.22907690183E+02 -0.12922841986E+02 -0.78601058908E+02  0.14998296095E+03  0.12500000000E+03 0.  0.
         25    1    1    2    0    0 -0.52588562104E+02 -0.64929440518E+01 -0.38624079423E+02  0.14115429394E+03  0.12500000000E+03 0.  0.
         25    1    1    2    0    0  0.29680871921E+02  0.19415786038E+02  0.30122416062E+03  0.32805323020E+03  0.12500000000E+03 0.  0.
</event>
<event>
 5    0  0.5619558E-005  0.2088299E+03  0.7546771E-02  0.1142496E+00
         21   -1    0    0  502  501  0.00000000000E+00  0.00000000000E+00  0.12141378176E+04  0.12141378176E+04  0.00000000000E+00 0.  1.
         21   -1    0    0  501  502 -0.00000000000E+00 -0.00000000000E+00 -0.35918423657E+02  0.35918423657E+02  0.00000000000E+00 0.  1.
         25    1    1    2    0    0  0.27659366235E+02  0.40938211776E+02  0.37853341325E+03  0.40168834022E+03  0.12500000000E+03 0.  0.
         25    1    1    2    0    0 -0.62791631565E+02 -0.18717880841E+02  0.29887018939E+03  0.33051707696E+03  0.12500000000E+03 0.  0.
         25    1    1    2    0    0  0.35132265331E+02 -0.22220330936E+02  0.50081579129E+03  0.51785082406E+03  0.12500000000E+03 0.  0.
</event>
<event>
 5    0  0.5619558E-005  0.4785873E+03  0.7546771E-02  0.1019524E+00
         21   -1    0    0  502  501  0.00000000000E+00  0.00000000000E+00  0.20430127557E+03  0.20430127557E+03  0.00000000000E+00 0. -1.
         21   -1    0    0  501  502 -0.00000000000E+00 -0.00000000000E+00 -0.11211179234E+04  0.11211179234E+04  0.00000000000E+00 0. -1.
         25    1    1    2    0    0  0.40748693709E+02  0.40992835046E+03 -0.51972549715E+03  0.67486391290E+03  0.12500000000E+03 0.  0.
         25    1    1    2    0    0 -0.12077686469E+02 -0.53894046898E+02 -0.97024570059E+02  0.16759834724E+03  0.12500000000E+03 0.  0.
         25    1    1    2    0    0 -0.28671007241E+02 -0.35603430356E+03 -0.30006658066E+03  0.48295693886E+03  0.12500000000E+03 0.  0.
</event>
<event>
 5    0  0.5619558E-005  0.2978918E+03  0.7546771E-02  0.1086299E+00
         21   -1    0    0  502  501  0.00000000000E+00  0.00000000000E+00  0.15900197112E+03  0.15900197112E+03  0.00000000000E+00 0. -1.
         21   -1    0    0  501  502 -0.00000000000E+00 -0.00000000000E+00 -0.55810324078E+03  0.55810324078E+03  0.00000000000E+00 0. -1.
         25    1    1    2    0    0  0.52776440251E+01  0.43827632889E+02 -0.98703789890E+01  0.13293283760E+03  0.12500000000E+03 0.  0.
         25    1    1    2    0    0  0.14756775633E+03 -0.11004378362E+02 -0.67252253120E+02  0.20504927359E+03  0.12500000000E+03 0.  0.
         25    1    1    2    0    0 -0.15284540035E+03 -0.32823254527E+02 -0.32197863756E+03  0.37912310071E+03  0.12500000000E+03 0.  0.
</event>
<event>
 5    0  0.5619558E-005  0.5397610E+03  0.7546771E-02  0.1003892E+00
         21   -1    0    0  502  501  0.00000000000E+00  0.00000000000E+00  0.16126447069E+04  0.16126447069E+04  0.00000000000E+00 0.  1.
         21   -1    0    0  501  502 -0.00000000000E+00 -0.00000000000E+00 -0.18066093724E+03  0.18066093724E+03  0.00000000000E+00 0.  1.
         25    1    1    2    0    0 -0.22046892041E+02 -0.11538036607E+03  0.64048337090E+02  0.18310074770E+03  0.12500000000E+03 0.  0.
         25    1    1    2    0    0  0.38933364905E+03 -0.16577002400E+02  0.47016368520E+03  0.62332525873E+03  0.12500000000E+03 0.  0.
         25    1    1    2    0    0 -0.36728675701E+03  0.13195736847E+03  0.89777174738E+03  0.98687963773E+03  0.12500000000E+03 0.  0.
</event>
<event>
 5    0  0.5619558E-005  0.2420528E+03  0.7546771E-02  0.1118433E+00
         21   -1    0    0  502  501  0.00000000000E+00  0.00000000000E+00  0.13454694458E+03  0.13454694458E+03  0.00000000000E+00 0.  1.
         21   -1    0    0  501  502 -0.00000000000E+00 -0.00000000000E+00 -0.43545824115E+03  0.43545824115E+03  0.00000000000E+00 0.  1.
         25    1    1    2    0    0  0.56226750106E+02 -0.79574179511E+02 -0.92108856667E+02  0.18330995322E+03  0.12500000000E+03 0.  0.
         25    1    1    2    0    0 -0.22297113929E+01  0.10509974265E+03 -0.18386711119E+03  0.24593300326E+03  0.12500000000E+03 0.  0.
         25    1    1    2    0    0 -0.53997038713E+02 -0.25525563142E+02 -0.24935328724E+02  0.14076222925E+03  0.12500000000E+03 0.  0.
</event>
<event>
 5    0  0.5619558E-005  0.2713685E+03  0.7546771E-02  0.1100499E+00
         21   -1    0    0  502  501  0.00000000000E+00  0.00000000000E+00  0.99697924670E+03  0.99697924670E+03  0.00000000000E+00 0. -1.
         21   -1    0    0  501  502 -0.00000000000E+00 -0.00000000000E+00 -0.73864013289E+02  0.73864013289E+02  0.00000000000E+00 0. -1.
         25    1    1    2    0    0 -0.25051091623E+02  0.11152947998E+03  0.12490848850E+03  0.21046023994E+03  0.12500000000E+03 0.  0.
         25    1    1    2    0    0  0.82755575444E+02 -0.10389354981E+03  0.48523253793E+03  0.51838014123E+03  0.12500000000E+03 0.  0.
         25    1    1    2    0    0 -0.57704483821E+02 -0.76359301708E+01  0.31297420698E+03  0.34200287882E+03  0.12500000000E+03 0.  0.
</event>
<event>
 5    0  0.5619558E-005  0.3150947E+03  0.7546771E-02  0.1077929E+00
         21   -1    0    0  502  501  0.00000000000E+00  0.00000000000E+00  0.82126326931E+03  0.82126326931E+03  0.00000000000E+00 0.  1.
         21   -1    0    0  501  502 -0.00000000000E+00 -0.00000000000E+00 -0.12089265136E+03  0.12089265136E+03  0.00000000000E+00 0.  1.
         25    1    1    2    0    0  0.17501422110E+02 -0.60236931479E+02  0.80530325242E+02  0.16138438888E+03  0.12500000000E+03 0.  0.
         25    1    1    2    0    0 -0.18916810542E+03 -0.54767720110E+02  0.30182957899E+03  0.38145795315E+03  0.12500000000E+03 0.  0.
         25    1    1    2    0    0  0.17166668331E+03  0.11500465159E+03  0.31801071372E+03  0.39931357864E+03  0.12500000000E+03 0.  0.
</event>
<event>
 5    0  0.5619558E-005  0.2719799E+03  0.7546771E-02  0.1100152E+00
         21   -1    0    0  502  501  0.00000000000E+00  0.00000000000E+00  0.91217744017E+02  0.91217744017E+02  0.00000000000E+00 0. -1.
         21   -1    0    0  501  502 -0.00000000000E+00 -0.00000000000E+00 -0.81095050330E+03  0.81095050330E+03  0.00000000000E+00 0. -1.
         25    1    1    2    0    0  0.13723925671E+03  0.68497011454E+02 -0.20561609478E+03  0.28535842828E+03  0.12500000000E+03 0.  0.
         25    1    1    2    0    0 -0.57856689402E+02 -0.20392360938E+02 -0.40064999543E+03  0.42415641423E+03  0.12500000000E+03 0.  0.
         25    1    1    2    0    0 -0.79382567304E+02 -0.48104650516E+02 -0.11346666908E+03  0.19265340481E+03  0.12500000000E+03 0.  0.
</event>
<event>
 5    0  0.5619558E-005  0.2013176E+03  0.7546771E-02  0.1148632E+00
         21   -1    0    0  502  501  0.00000000000E+00  0.00000000000E+00  0.13287832880E+03  0.13287832880E+03  0.00000000000E+00 0. -1.
         21   -1    0    0  501  502 -0.00000000000E+00 -0.00000000000E+00 -0.30500653204E+03  0.30500653204E+03  0.00000000000E+00 0. -1.
         25    1    1    2    0    0 -0.26335452481E+02  0.28094356251E+01 -0.93365286246E+02  0.15825146338E+03  0.12500000000E+03 0.  0.
         25    1    1    2    0    0 -0.29275812542E+02  0.15408531840E+02 -0.50088093791E+02  0.13866619340E+03  0.12500000000E+03 0.  0.
         25    1    1    2    0    0  0.55611265022E+02 -0.18217967466E+02 -0.28674823202E+02  0.14096720406E+03  0.12500000000E+03 0.  0.
</event>
<event>
 5    0  0.5619558E-005  0.2602717E+03  0.7546771E-02  0.1106980E+00
         21   -1    0    0  502  501  0.00000000000E+00  0.00000000000E+00  0.42754094022E+03  0.42754094022E+03  0.00000000000E+00 0. -1.
         21   -1    0    0  501  502 -0.00000000000E+00 -0.00000000000E+00 -0.15844416341E+03  0.15844416341E+03  0.00000000000E+00 0. -1.
         25    1    1    2    0    0  0.12751169030E+03  0.98772166059E+02  0.98967015465E+02  0.22679206799E+03  0.12500000000E+03 0.  0.
         25    1    1    2    0    0 -0.60989136700E+02 -0.56163825765E+02  0.14608593747E+03  0.20938039843E+03  0.12500000000E+03 0.  0.
         25    1    1    2    0    0 -0.66522553601E+02 -0.42608340294E+02  0.24043823870E+02  0.14981263721E+03  0.12500000000E+03 0.  0.
</event>
<event>
 5    0  0.5619558E-005  0.4161907E+03  0.7546771E-02  0.1038313E+00
         21   -1    0    0  502  501  0.00000000000E+00  0.00000000000E+00  0.55278151642E+03  0.55278151642E+03  0.00000000000E+00 0.  1.
         21   -1    0    0  501  502 -0.00000000000E+00 -0.00000000000E+00 -0.31335115487E+03  0.31335115487E+03  0.00000000000E+00 0.  1.
         25    1    1    2    0    0 -0.11790622752E+03 -0.17670378882E+03 -0.17889124770E+03  0.30455407726E+03  0.12500000000E+03 0.  0.
         25    1    1    2    0    0 -0.27614575949E+02  0.71676224412E+02  0.10911062850E+03  0.18283920587E+03  0.12500000000E+03 0.  0.
         25    1    1    2    0    0  0.14552080346E+03  0.10502756440E+03  0.30921098075E+03  0.37873938816E+03  0.12500000000E+03 0.  0.
</event>
<event>
 5    0  0.5619558E-005  0.3601350E+03  0.7546771E-02  0.1058530E+00
         21   -1    0    0  502  501  0.00000000000E+00  0.00000000000E+00  0.55562509913E+02  0.55562509913E+02  0.00000000000E+00 0.  1.
         21   -1    0    0  501  502 -0.00000000000E+00 -0.00000000000E+00 -0.23342576693E+04  0.23342576693E+04  0.00000000000E+00 0.  1.
         25    1    1    2    0    0 -0.15191953596E+03  0.13713913100E+03 -0.75560139305E+03  0.79274532597E+03  0.12500000000E+03 0.  0.
         25    1    1    2    0    0  0.50071391783E+02 -0.14294924721E+03 -0.27125744398E+03  0.33488390894E+03  0.12500000000E+03 0.  0.
         25    1    1    2    0    0  0.10184814418E+03  0.58101162137E+01 -0.12518363224E+04  0.12621909444E+04  0.12500000000E+03 0.  0.
</event>
<event>
 5    0  0.5619558E-005  0.3445319E+03  0.7546771E-02  0.1064882E+00
         21   -1    0    0  502  501  0.00000000000E+00  0.00000000000E+00  0.15389694550E+04  0.15389694550E+04  0.00000000000E+00 0. -1.
         21   -1    0    0  501  502 -0.00000000000E+00 -0.00000000000E+00 -0.77130985015E+02  0.77130985015E+02  0.00000000000E+00 0. -1.
         25    1    1    2    0    0  0.83501015855E+02 -0.10878917759E+03  0.21204366294E+03  0.28177121890E+03  0.12500000000E+03 0.  0.
         25    1    1    2    0    0  0.30199686636E+02  0.91050273766E+01  0.88008082106E+02  0.15609402651E+03  0.12500000000E+03 0.  0.
         25    1    1    2    0    0 -0.11370070249E+03  0.99684150211E+02  0.11617867250E+04  0.11782351946E+04  0.12500000000E+03 0.  0.
</event>
<event>
 5    0  0.5619558E-005  0.2885982E+03  0.7546771E-02  0.1091083E+00
         21   -1    0    0  502  501  0.00000000000E+00  0.00000000000E+00  0.76471391995E+02  0.76471391995E+02  0.00000000000E+00 0. -1.
         21   -1    0    0  501  502 -0.00000000000E+00 -0.00000000000E+00 -0.10891513430E+04  0.10891513430E+04  0.00000000000E+00 0. -1.
         25    1    1    2    0    0 -0.12427834492E+02 -0.10670226485E+03 -0.64744584219E+02  0.17707819059E+03  0.12500000000E+03 0.  0.
         25    1    1    2    0    0  0.31908229496E+02  0.32713472120E+02 -0.48802939946E+03  0.50585175804E+03  0.12500000000E+03 0.  0.
         25    1    1    2    0    0 -0.19480395004E+02  0.73988792735E+02 -0.45990596735E+03  0.48269278640E+03  0.12500000000E+03 0.  0.
</event>
<event>
 5    0  0.5619558E-005  0.3047063E+03  0.7546771E-02  0.1082911E+00
         21   -1    0    0  502  501  0.00000000000E+00  0.00000000000E+00  0.23692261383E+03  0.23692261383E+03  0.00000000000E+00 0.  1.
         21   -1    0    0  501  502 -0.00000000000E+00 -0.00000000000E+00 -0.39188286784E+03  0.39188286784E+03  0.00000000000E+00 0.  1.
         25    1    1    2    0    0 -0.10705297378E+03  0.16608156119E+02 -0.67688403050E+02  0.17872573948E+03  0.12500000000E+03 0.  0.
         25    1    1    2    0    0 -0.82713896372E+02  0.95967291969E+02  0.10507899566E+02  0.17828832192E+03  0.12500000000E+03 0.  0.
         25    1    1    2    0    0  0.18976687015E+03 -0.11257544809E+03 -0.97779750526E+02  0.27179142027E+03  0.12500000000E+03 0.  0.
</event>
<event>
 5    0  0.5619558E-005  0.2274355E+03  0.7546771E-02  0.1128458E+00
         21   -1    0    0  502  501  0.00000000000E+00  0.00000000000E+00  0.99502570762E+03  0.99502570762E+03  0.00000000000E+00 0. -1.
         21   -1    0    0  501  502 -0.00000000000E+00 -0.00000000000E+00 -0.51985499938E+02  0.51985499938E+02  0.00000000000E+00 0. -1.
         25    1    1    2    0    0 -0.18873691364E+02 -0.42403990349E+01  0.42909513687E+03  0.44734978898E+03  0.12500000000E+03 0.  0.
         25    1    1    2    0    0 -0.44611274228E+02 -0.93282331485E+01  0.11254503167E+03  0.17426579089E+03  0.12500000000E+03 0.  0.
         25    1    1    2    0    0  0.63484965592E+02  0.13568632183E+02  0.40140003914E+03  0.42539562769E+03  0.12500000000E+03 0.  0.
</event>
<event>
 5    0  0.5619558E-005  0.2487362E+03  0.7546771E-02  0.1114106E+00
         21   -1    0    0  502  501  0.00000000000E+00  0.00000000000E+00  0.38580386022E+03  0.38580386022E+03  0.00000000000E+00 0.  1.
         21   -1    0    0  501  502 -0.00000000000E+00 -0.00000000000E+00 -0.16036564010E+03  0.16036564010E+03  0.00000000000E+00 0.  1.
         25    1    1    2    0    0  0.41857126656E+02  0.70825240919E+02  0.18349439076E+03  0.23677716369E+03  0.12500000000E+03 0.  0.
         25    1    1    2    0    0  0.26015410594E+02 -0.66575702215E+02 -0.34200525255E+02  0.14799932987E+03  0.12500000000E+03 0.  0.
         25    1    1    2    0    0 -0.67872537250E+02 -0.42495387042E+01  0.76144354616E+02  0.16139300676E+03  0.12500000000E+03 0.  0.
</event>
<event>
 5    0  0.5619558E-005  0.2327255E+03  0.7546771E-02  0.1124736E+00
         21   -1    0    0  502  501  0.00000000000E+00  0.00000000000E+00  0.59799120344E+02  0.59799120344E+02  0.00000000000E+00 0.  1.
         21   -1    0    0  501  502 -0.00000000000E+00 -0.00000000000E+00 -0.90571815744E+03  0.90571815744E+03  0.00000000000E+00 0.  1.
         25    1    1    2    0    0  0.10715229887E+02 -0.38426977652E+02 -0.38538533061E+03  0.40710969260E+03  0.12500000000E+03 0.  0.
         25    1    1    2    0    0 -0.46987968353E+02 -0.65968811366E+02 -0.21780075222E+03  0.26385966139E+03  0.12500000000E+03 0.  0.
         25    1    1    2    0    0  0.36272738466E+02  0.10439578902E+03 -0.24273295427E+03  0.29454792379E+03  0.12500000000E+03 0.  0.
</event>
<event>
 5    0  0.5619558E-005  0.2501138E+03  0.7546771E-02  0.1113233E+00
         21   -1    0    0  502  501  0.00000000000E+00  0.00000000000E+00  0.61611450454E+03  0.61611450454E+03  0.00000000000E+00 0.  1.
         21   -1    0    0  501  502 -0.00000000000E+00 -0.00000000000E+00 -0.10153457564E+03  0.10153457564E+03  0.00000000000E+00 0.  1.
         25    1    1    2    0    0  0.10973838407E+03  0.18839701629E+02  0.27862083733E+03  0.32504156394E+03  0.12500000000E+03 0.  0.
         25    1    1    2    0    0 -0.94454770079E+02  0.29881947019E+01  0.21027677150E+03  0.26224407244E+03  0.12500000000E+03 0.  0.
         25    1    1    2    0    0 -0.15283613992E+02 -0.21827896330E+02  0.25682320063E+02  0.13036344380E+03  0.12500000000E+03 0.  0.
</event>
<event>
 5    0  0.5619558E-005  0.4438170E+03  0.7546771E-02  0.1029582E+00
         21   -1    0    0  502  501  0.00000000000E+00  0.00000000000E+00  0.10326338674E+04  0.10326338674E+04  0.00000000000E+00 0. -1.
         21   -1    0    0  501  502 -0.00000000000E+00 -0.00000000000E+00 -0.19074862041E+03  0.19074862041E+03  0.00000000000E+00 0. -1.
         25    1    1    2    0    0  0.12918604280E+03 -0.61475969518E+02  0.26296674789E+03  0.32441460969E+03  0.12500000000E+03 0.  0.
         25    1    1    2    0    0  0.36462028885E+02  0.29316215080E+03  0.47076633063E+03  0.56966609893E+03  0.12500000000E+03 0.  0.
         25    1    1    2    0    0 -0.16564807169E+03 -0.23168618129E+03  0.10815216850E+03  0.32930177923E+03  0.12500000000E+03 0.  0.
</event>
<event>
 5    0  0.5619558E-005  0.2780499E+03  0.7546771E-02  0.1096759E+00
         21   -1    0    0  502  501  0.00000000000E+00  0.00000000000E+00  0.13210197715E+03  0.13210197715E+03  0.00000000000E+00 0. -1.
         21   -1    0    0  501  502 -0.00000000000E+00 -0.00000000000E+00 -0.58524311776E+03  0.58524311776E+03  0.00000000000E+00 0.  1.
         25    1    1    2    0    0 -0.18802834642E+03 -0.25910100077E+02 -0.23603338047E+03  0.32766255361E+03  0.12500000000E+03 0.  0.
         25    1    1    2    0    0  0.68628221513E+02  0.45218496227E+02 -0.96517638685E+02  0.17803145724E+03  0.12500000000E+03 0.  0.
         25    1    1    2    0    0  0.11940012491E+03 -0.19308396150E+02 -0.12059012145E+03  0.21165108406E+03  0.12500000000E+03 0.  0.
</event>
<event>
 5    0  0.5619558E-005  0.2439907E+03  0.7546771E-02  0.1117163E+00
         21   -1    0    0  502  501  0.00000000000E+00  0.00000000000E+00  0.78722823204E+02  0.78722823204E+02  0.00000000000E+00 0.  1.
         21   -1    0    0  501  502 -0.00000000000E+00 -0.00000000000E+00 -0.75621607805E+03  0.75621607805E+03  0.00000000000E+00 0.  1.
         25    1    1    2    0    0  0.45086598031E+02 -0.73573909220E+02 -0.37252643399E+03  0.40230195806E+03  0.12500000000E+03 0.  0.
         25    1    1    2    0    0 -0.29209643711E+01  0.63583887464E+02 -0.56658063214E+02  0.15128310846E+03  0.12500000000E+03 0.  0.
         25    1    1    2    0    0 -0.42165633660E+02  0.99900217559E+01 -0.24830875764E+03  0.28135383473E+03  0.12500000000E+03 0.  0.
</event>
<event>
 5    0  0.5619558E-005  0.2969056E+03  0.7546771E-02  0.1086798E+00
         21   -1    0    0  502  501  0.00000000000E+00  0.00000000000E+00  0.14497686231E+04  0.14497686231E+04  0.00000000000E+00 0.  1.
         21   -1    0    0  501  502 -0.00000000000E+00 -0.00000000000E+00 -0.60804832125E+02  0.60804832125E+02  0.00000000000E+00 0.  1.
         25    1    1    2    0    0  0.45347285324E+02  0.57194228102E+02  0.64890507067E+02  0.15862954933E+03  0.12500000000E+03 0.  0.
         25    1    1    2    0    0 -0.83183410660E+01 -0.48466036138E+02  0.83416671086E+03  0.84491257120E+03  0.12500000000E+03 0.  0.
         25    1    1    2    0    0 -0.37028944257E+02 -0.87281919637E+01  0.48990657305E+03  0.50703133470E+03  0.12500000000E+03 0.  0.
</event>
<event>
 5    0  0.5619558E-005  0.4167694E+03  0.7546771E-02  0.1038123E+00
         21   -1    0    0  502  501  0.00000000000E+00  0.00000000000E+00  0.10737479512E+04  0.10737479512E+04  0.00000000000E+00 0.  1.
         21   -1    0    0  501  502 -0.00000000000E+00 -0.00000000000E+00 -0.16176673549E+03  0.16176673549E+03  0.00000000000E+00 0.  1.
         25    1    1    2    0    0 -0.29842537621E+03  0.10046722558E+03  0.47485227331E+03  0.58331899510E+03  0.12500000000E+03 0.  0.
         25    1    1    2    0    0  0.95886865049E+02 -0.11844951346E+03  0.60274028595E+02  0.20611292209E+03  0.12500000000E+03 0.  0.
         25    1    1    2    0    0  0.20253851116E+03  0.17982287888E+02  0.37685491378E+03  0.44608276948E+03  0.12500000000E+03 0.  0.
</event>
<event>
 5    0  0.5619558E-005  0.3330252E+03  0.7546771E-02  0.1069806E+00
         21   -1    0    0  502  501  0.00000000000E+00  0.00000000000E+00  0.10470510290E+04  0.10470510290E+04  0.00000000000E+00 0. -1.
         21   -1    0    0  501  502 -0.00000000000E+00 -0.00000000000E+00 -0.10592206501E+03  0.10592206501E+03  0.00000000000E+00 0. -1.
         25    1    1    2    0    0 -0.21604117990E+03  0.61751665073E+02  0.40617635334E+03  0.48071955397E+03  0.12500000000E+03 0.  0.
         25    1    1    2    0    0  0.76383697040E+02 -0.13654060244E+03  0.31935418616E+03  0.37694814166E+03  0.12500000000E+03 0.  0.
         25    1    1    2    0    0  0.13965748286E+03  0.74788937370E+02  0.21559842452E+03  0.29530539840E+03  0.12500000000E+03 0.  0.
</event>
<event>
 5    0  0.5619558E-005  0.2681799E+03  0.7546771E-02  0.1102326E+00
         21   -1    0    0  502  501  0.00000000000E+00  0.00000000000E+00  0.16581000135E+03  0.16581000135E+03  0.00000000000E+00 0. -1.
         21   -1    0    0  501  502 -0.00000000000E+00 -0.00000000000E+00 -0.43375218034E+03  0.43375218034E+03  0.00000000000E+00 0. -1.
         25    1    1    2    0    0 -0.24681964866E+02 -0.48423224072E+02 -0.58167585343E+02  0.14819742239E+03  0.12500000000E+03 0.  0.
         25    1    1    2    0    0  0.92288727543E+02 -0.29697743849E+02  0.30873681907E+02  0.16117490331E+03  0.12500000000E+03 0.  0.
         25    1    1    2    0    0 -0.67606762677E+02  0.78120967921E+02 -0.24064827556E+03  0.29018985599E+03  0.12500000000E+03 0.  0.
</event>
<event>
 5    0  0.5619558E-005  0.2573725E+03  0.7546771E-02  0.1108732E+00
         21   -1    0    0  502  501  0.00000000000E+00  0.00000000000E+00  0.23532269879E+03  0.23532269879E+03  0.00000000000E+00 0.  1.
         21   -1    0    0  501  502 -0.00000000000E+00 -0.00000000000E+00 -0.28148842743E+03  0.28148842743E+03  0.00000000000E+00 0.  1.
         25    1    1    2    0    0  0.47068374503E+02  0.16399709310E+01 -0.10529649645E+03  0.17008960447E+03  0.12500000000E+03 0.  0.
         25    1    1    2    0    0 -0.90368108874E+01  0.11201054023E+03  0.37361765356E+02  0.17218863663E+03  0.12500000000E+03 0.  0.
         25    1    1    2    0    0 -0.38031563616E+02 -0.11365051116E+03  0.21769002460E+02  0.17453288511E+03  0.12500000000E+03 0.  0.
</event>
<event>
 5    0  0.5619558E-005  0.3215388E+03  0.7546771E-02  0.1074943E+00
         21   -1    0    0  502  501  0.00000000000E+00  0.00000000000E+00  0.40368135285E+03  0.40368135285E+03  0.00000000000E+00 0. -1.
         21   -1    0    0  501  502 -0.00000000000E+00 -0.00000000000E+00 -0.25611093829E+03  0.25611093829E+03  0.00000000000E+00 0.  1.
         25    1    1    2    0    0  0.17139333757E+03 -0.47620930758E+01  0.11293439925E+03  0.24036957426E+03  0.12500000000E+03 0.  0.
         25    1    1    2    0    0  0.43140608017E+02 -0.77106557840E+02 -0.13192728896E+02  0.15364107985E+03  0.12500000000E+03 0.  0.
         25    1    1    2    0    0 -0.21453394559E+03  0.81868650916E+02  0.47828744208E+02  0.26578163704E+03  0.12500000000E+03 0.  0.
</event>
<event>
 5    0  0.5619558E-005  0.5209524E+03  0.7546771E-02  0.1008450E+00
         21   -1    0    0  502  501  0.00000000000E+00  0.00000000000E+00  0.73160123536E+03  0.73160123536E+03  0.00000000000E+00 0.  1.
         21   -1    0    0  501  502 -0.00000000000E+00 -0.00000000000E+00 -0.37095541066E+03  0.37095541066E+03  0.00000000000E+00 0. -1.
         25    1    1    2    0    0  0.23247778524E+03  0.33748427081E+03  0.24625274109E+03  0.49417301238E+03  0.12500000000E+03 0.  0.
         25    1    1    2    0    0 -0.26473550467E+03 -0.24906589719E+03 -0.42602940097E+02  0.38672822379E+03  0.12500000000E+03 0.  0.
         25    1    1    2    0    0  0.32257719429E+02 -0.88418373626E+02  0.15699602371E+03  0.22165540986E+03  0.12500000000E+03 0.  0.
</event>
<event>
 5    0  0.5619558E-005  0.3413502E+03  0.7546771E-02  0.1066222E+00
         21   -1    0    0  502  501  0.00000000000E+00  0.00000000000E+00  0.81335255749E+03  0.81335255749E+03  0.00000000000E+00 0.  1.
         21   -1    0    0  501  502 -0.00000000000E+00 -0.00000000000E+00 -0.14325888462E+03  0.14325888462E+03  0.00000000000E+00 0.  1.
         25    1    1    2    0    0 -0.84854978291E+02  0.78847034377E+02  0.15949354934E+03  0.23341039920E+03  0.12500000000E+03 0.  0.
         25    1    1    2    0    0 -0.13262395577E+03  0.48730197883E+02  0.71677990051E+02  0.20180802781E+03  0.12500000000E+03 0.  0.
         25    1    1    2    0    0  0.21747893406E+03 -0.12757723226E+03  0.43892213347E+03  0.52139301511E+03  0.12500000000E+03 0.  0.
</event>
<event>
 5    0  0.5619558E-005  0.2836568E+03  0.7546771E-02  0.1093708E+00
         21   -1    0    0  502  501  0.00000000000E+00  0.00000000000E+00  0.19108347127E+03  0.19108347127E+03  0.00000000000E+00 0.  1.
         21   -1    0    0  501  502 -0.00000000000E+00 -0.00000000000E+00 -0.42107863116E+03  0.42107863116E+03  0.00000000000E+00 0.  1.
         25    1    1    2    0    0  0.66362367356E+02 -0.48755911552E+02 -0.26479868253E+02  0.15201080927E+03  0.12500000000E+03 0.  0.
         25    1    1    2    0    0 -0.18168006206E+03  0.87313938103E+02 -0.10037789452E+03  0.25755017073E+03  0.12500000000E+03 0.  0.
         25    1    1    2    0    0  0.11531769470E+03 -0.38558026551E+02 -0.10313739712E+03  0.20260112243E+03  0.12500000000E+03 0.  0.
</event>
<event>
 5    0  0.5619558E-005  0.2755468E+03  0.7546771E-02  0.1098146E+00
         21   -1    0    0  502  501  0.00000000000E+00  0.00000000000E+00  0.57473161124E+03  0.57473161124E+03  0.00000000000E+00 0.  1.
         21   -1    0    0  501  502 -0.00000000000E+00 -0.00000000000E+00 -0.13210693835E+03  0.13210693835E+03  0.00000000000E+00 0.  1.
         25    1    1    2    0    0 -0.59261898783E+02 -0.14648819394E+01  0.30654447093E+03  0.33631626660E+03  0.12500000000E+03 0.  0.
         25    1    1    2    0    0 -0.50569146711E+02  0.80018427249E+02  0.90167678850E+02  0.18087398267E+03  0.12500000000E+03 0.  0.
         25    1    1    2    0    0  0.10983104549E+03 -0.78553545309E+02  0.45912523113E+02  0.18964830032E+03  0.12500000000E+03 0.  0.
</event>
<event>
 5    0  0.5619558E-005  0.3655035E+03  0.7546771E-02  0.1056426E+00
         21   -1    0    0  502  501  0.00000000000E+00  0.00000000000E+00  0.35048136499E+03  0.35048136499E+03  0.00000000000E+00 0.  1.
         21   -1    0    0  501  502 -0.00000000000E+00 -0.00000000000E+00 -0.38116951577E+03  0.38116951577E+03  0.00000000000E+00 0.  1.
         25    1    1    2    0    0 -0.11252490834E+03  0.21908517438E+02  0.27061450573E+03  0.31937289936E+03  0.12500000000E+03 0.  0.
         25    1    1    2    0    0  0.51816975071E+02 -0.12963219330E+02 -0.19202492560E+03  0.23526924153E+03  0.12500000000E+03 0.  0.
         25    1    1    2    0    0  0.60707933272E+02 -0.89452981082E+01 -0.10927773091E+03  0.17700873988E+03  0.12500000000E+03 0.  0.
</event>
<event>
 5    0  0.5619558E-005  0.2382538E+03  0.7546771E-02  0.1120962E+00
         21   -1    0    0  502  501  0.00000000000E+00  0.00000000000E+00  0.16448822470E+03  0.16448822470E+03  0.00000000000E+00 0. -1.
         21   -1    0    0  501  502 -0.00000000000E+00 -0.00000000000E+00 -0.34509990887E+03  0.34509990887E+03  0.00000000000E+00 0. -1.
         25    1    1    2    0    0 -0.87313088782E+02  0.40696147282E+02 -0.13156814177E+03  0.20546271634E+03  0.12500000000E+03 0.  0.
         25    1    1    2    0    0  0.11222398769E+03 -0.72540715758E+01 -0.21578008245E+02  0.16952125356E+03  0.12500000000E+03 0.  0.
         25    1    1    2    0    0 -0.24910898912E+02 -0.33442075706E+02 -0.27465534158E+02  0.13460416368E+03  0.12500000000E+03 0.  0.
</event>
<event>
 5    0  0.5619558E-005  0.3292729E+03  0.7546771E-02  0.1071459E+00
         21   -1    0    0  502  501  0.00000000000E+00  0.00000000000E+00  0.16287508364E+03  0.16287508364E+03  0.00000000000E+00 0.  1.
         21   -1    0    0  501  502 -0.00000000000E+00 -0.00000000000E+00 -0.66566733647E+03  0.66566733647E+03  0.00000000000E+00 0.  1.
         25    1    1    2    0    0  0.16039629576E+03  0.17664509076E+03 -0.34871161011E+03  0.44063051053E+03  0.12500000000E+03 0.  0.
         25    1    1    2    0    0 -0.53339812288E+02 -0.51241551895E+02 -0.91832799549E+02  0.17184031916E+03  0.12500000000E+03 0.  0.
         25    1    1    2    0    0 -0.10705648347E+03 -0.12540353886E+03 -0.62247843172E+02  0.21607159043E+03  0.12500000000E+03 0.  0.
</event>
<event>
 5    0  0.5619558E-005  0.3555189E+03  0.7546771E-02  0.1060372E+00
         21   -1    0    0  502  501  0.00000000000E+00  0.00000000000E+00  0.23226906204E+03  0.23226906204E+03  0.00000000000E+00 0.  1.
         21   -1    0    0  501  502 -0.00000000000E+00 -0.00000000000E+00 -0.54416935380E+03  0.54416935380E+03  0.00000000000E+00 0.  1.
         25    1    1    2    0    0 -0.59975609449E+02 -0.10401670721E+03 -0.11984156450E+03  0.21072149793E+03  0.12500000000E+03 0.  0.
         25    1    1    2    0    0 -0.42934352602E+01  0.11129398179E+03  0.13148920656E+03  0.21288305571E+03  0.12500000000E+03 0.  0.
         25    1    1    2    0    0  0.64269044709E+02 -0.72772745791E+01 -0.32354793382E+03  0.35283386220E+03  0.12500000000E+03 0.  0.
</event>
<event>
 5    0  0.5619558E-005  0.3245790E+03  0.7546771E-02  0.1073561E+00
         21   -1    0    0  502  501  0.00000000000E+00  0.00000000000E+00  0.18999649863E+03  0.18999649863E+03  0.00000000000E+00 0. -1.
         21   -1    0    0  501  502 -0.00000000000E+00 -0.00000000000E+00 -0.55449180996E+03  0.55449180996E+03  0.00000000000E+00 0.  1.
         25    1    1    2    0    0 -0.32372153463E+02  0.26143729149E+02 -0.10884655534E+03  0.17089184738E+03  0.12500000000E+03 0.  0.
         25    1    1    2    0    0  0.23435311631E+03  0.22972511156E+02 -0.96670328616E+02  0.28358291879E+03  0.12500000000E+03 0.  0.
         25    1    1    2    0    0 -0.20198096285E+03 -0.49116240305E+02 -0.15897842737E+03  0.29001354242E+03  0.12500000000E+03 0.  0.
</event>
<event>
 5    0  0.5619558E-005  0.3015739E+03  0.7546771E-02  0.1084456E+00
         21   -1    0    0  502  501  0.00000000000E+00  0.00000000000E+00  0.15220264139E+04  0.15220264139E+04  0.00000000000E+00 0.  1.
         21   -1    0    0  501  502 -0.00000000000E+00 -0.00000000000E+00 -0.59753760641E+02  0.59753760641E+02  0.00000000000E+00 0.  1.
         25    1    1    2    0    0  0.88832701377E+02 -0.88103474576E+01  0.85978412595E+02  0.17602885698E+03  0.12500000000E+03 0.  0.
         25    1    1    2    0    0 -0.85628837990E+02  0.20003993951E+02  0.58872008967E+03  0.60823416679E+03  0.12500000000E+03 0.  0.
         25    1    1    2    0    0 -0.32038633871E+01 -0.11193646494E+02  0.78757415095E+03  0.79751715073E+03  0.12500000000E+03 0.  0.
</event>
<event>
 5    0  0.5619558E-005  0.2452237E+03  0.7546771E-02  0.1116361E+00
         21   -1    0    0  502  501  0.00000000000E+00  0.00000000000E+00  0.77064536289E+02  0.77064536289E+02  0.00000000000E+00 0.  1.
         21   -1    0    0  501  502 -0.00000000000E+00 -0.00000000000E+00 -0.78031592450E+03  0.78031592450E+03  0.00000000000E+00 0.  1.
         25    1    1    2    0    0  0.55471239164E+02 -0.11108644284E+03 -0.17726295876E+03  0.24992881528E+03  0.12500000000E+03 0.  0.
         25    1    1    2    0    0 -0.11945257534E+02 -0.68858198669E+01 -0.24022753011E+03  0.27115377540E+03  0.12500000000E+03 0.  0.
         25    1    1    2    0    0 -0.43525981630E+02  0.11797226271E+03 -0.28576089935E+03  0.33629787011E+03  0.12500000000E+03 0.  0.
</event>
<event>
 5    0  0.5619558E-005  0.3074052E+03  0.7546771E-02  0.1081596E+00
         21   -1    0    0  502  501  0.00000000000E+00  0.00000000000E+00  0.25718488776E+03  0.25718488776E+03  0.00000000000E+00 0.  1.
         21   -1    0    0  501  502 -0.00000000000E+00 -0.00000000000E+00 -0.36743195582E+03  0.36743195582E+03  0.00000000000E+00 0.  1.
         25    1    1    2    0    0 -0.27404150988E+02  0.48625643194E+02 -0.19526763453E+03  0.23847408614E+03  0.12500000000E+03 0.  0.
         25    1    1    2    0    0 -0.27471350990E+02 -0.15681360474E+03  0.42006645176E+02  0.20672382542E+03  0.12500000000E+03 0.  0.
         25    1    1    2    0    0  0.54875501978E+02  0.10818796155E+03  0.43013921295E+02  0.17941893202E+03  0.12500000000E+03 0.  0.
</event>
<event>
 5    0  0.5619558E-005  0.4065698E+03  0.7546771E-02  0.1041528E+00
         21   -1    0    0  502  501  0.00000000000E+00  0.00000000000E+00  0.59603741306E+02  0.59603741306E+02  0.00000000000E+00 0.  1.
         21   -1    0    0  501  502 -0.00000000000E+00 -0.00000000000E+00 -0.27732985685E+04  0.27732985685E+04  0.00000000000E+00 0.  1.
         25    1    1    2    0    0  0.11927294519E+03 -0.51691253033E+02 -0.21976898339E+04  0.22050767849E+04  0.12500000000E+03 0.  0.
         25    1    1    2    0    0 -0.25077270127E+02  0.11367037928E+03 -0.16006874103E+03  0.23408721976E+03  0.12500000000E+03 0.  0.
         25    1    1    2    0    0 -0.94195675064E+02 -0.61979126244E+02 -0.35593625224E+03  0.39373830516E+03  0.12500000000E+03 0.  0.
</event>
<event>
 5    0  0.5619558E-005  0.3426419E+03  0.7546771E-02  0.1065676E+00
         21   -1    0    0  502  501  0.00000000000E+00  0.00000000000E+00  0.12079342670E+03  0.12079342670E+03  0.00000000000E+00 0.  1.
         21   -1    0    0  501  502 -0.00000000000E+00 -0.00000000000E+00 -0.97193615103E+03  0.97193615103E+03  0.00000000000E+00 0.  1.
         25    1    1    2    0    0  0.27422338638E+02  0.94275478446E+02 -0.49325835879E+03  0.51823610354E+03  0.12500000000E+03 0.  0.
         25    1    1    2    0    0  0.15162915859E+03 -0.98557906928E+02 -0.11590778232E+03  0.24852500227E+03  0.12500000000E+03 0.  0.
         25    1    1    2    0    0 -0.17905149723E+03  0.42824284817E+01 -0.24197658322E+03  0.32596847191E+03  0.12500000000E+03 0.  0.
</event>
<event>
 5    0  0.5619558E-005  0.2249645E+03  0.7546771E-02  0.1130235E+00
         21   -1    0    0  502  501  0.00000000000E+00  0.00000000000E+00  0.20593315209E+03  0.20593315209E+03  0.00000000000E+00 0. -1.
         21   -1    0    0  501  502 -0.00000000000E+00 -0.00000000000E+00 -0.24575464861E+03  0.24575464861E+03  0.00000000000E+00 0. -1.
         25    1    1    2    0    0 -0.81880417070E+02  0.24974330131E+02 -0.64876172258E+02  0.16480909438E+03  0.12500000000E+03 0.  0.
         25    1    1    2    0    0  0.95987177232E+01 -0.40624761187E+02  0.47152825765E+02  0.13996748044E+03  0.12500000000E+03 0.  0.
         25    1    1    2    0    0  0.72281699347E+02  0.15650431055E+02 -0.22098150037E+02  0.14691122587E+03  0.12500000000E+03 0.  0.
</event>
<event>
 5    0  0.5619558E-005  0.2739271E+03  0.7546771E-02  0.1099053E+00
         21   -1    0    0  502  501  0.00000000000E+00  0.00000000000E+00  0.49391337673E+03  0.49391337673E+03  0.00000000000E+00 0.  1.
         21   -1    0    0  501  502 -0.00000000000E+00 -0.00000000000E+00 -0.15192149208E+03  0.15192149208E+03  0.00000000000E+00 0.  1.
         25    1    1    2    0    0 -0.62119703907E+02 -0.22796280037E+02 -0.40870969899E+02  0.14722080076E+03  0.12500000000E+03 0.  0.
         25    1    1    2    0    0  0.53558804324E+02 -0.71856456119E+02  0.13213033623E+03  0.20276913364E+03  0.12500000000E+03 0.  0.
         25    1    1    2    0    0  0.85608995824E+01  0.94652736156E+02  0.25073251833E+03  0.29584493440E+03  0.12500000000E+03 0.  0.
</event>
<event>
 5    0  0.5619558E-005  0.3483362E+03  0.7546771E-02  0.1063300E+00
         21   -1    0    0  502  501  0.00000000000E+00  0.00000000000E+00  0.68550852292E+02  0.68550852292E+02  0.00000000000E+00 0.  1.
         21   -1    0    0  501  502 -0.00000000000E+00 -0.00000000000E+00 -0.17700453386E+04  0.17700453386E+04  0.00000000000E+00 0.  1.
         25    1    1    2    0    0 -0.18137131103E+03 -0.13136984495E+03 -0.11302575135E+04  0.11589912145E+04  0.12500000000E+03 0.  0.
         25    1    1    2    0    0  0.37418905621E+02  0.10994773032E+03 -0.20996730057E+03  0.27055488391E+03  0.12500000000E+03 0.  0.
         25    1    1    2    0    0  0.14395240541E+03  0.21422114623E+02 -0.36126967224E+03  0.40905009241E+03  0.12500000000E+03 0.  0.
</event>
<event>
 5    0  0.5619558E-005  0.3023961E+03  0.7546771E-02  0.1084049E+00
         21   -1    0    0  502  501  0.00000000000E+00  0.00000000000E+00  0.34828034042E+03  0.34828034042E+03  0.00000000000E+00 0.  1.
         21   -1    0    0  501  502 -0.00000000000E+00 -0.00000000000E+00 -0.26255680261E+03  0.26255680261E+03  0.00000000000E+00 0.  1.
         25    1    1    2    0    0  0.33250963829E+02 -0.55931745073E+02 -0.13445029004E+03  0.19477132025E+03  0.12500000000E+03 0.  0.
         25    1    1    2    0    0 -0.29052245173E+02  0.11660401389E+03  0.21600901280E+03  0.27699354256E+03  0.12500000000E+03 0.  0.
         25    1    1    2    0    0 -0.41987186557E+01 -0.60672268822E+02  0.41648150449E+01  0.13907228022E+03  0.12500000000E+03 0.  0.
</event>
<event>
 5    0  0.5619558E-005  0.3703306E+03  0.7546771E-02  0.1054567E+00
         21   -1    0    0  502  501  0.00000000000E+00  0.00000000000E+00  0.20274399210E+03  0.20274399210E+03  0.00000000000E+00 0. -1.
         21   -1    0    0  501  502 -0.00000000000E+00 -0.00000000000E+00 -0.67644302124E+03  0.67644302124E+03  0.00000000000E+00 0. -1.
         25    1    1    2    0    0 -0.15722992748E+03 -0.74581735762E+02 -0.31677618742E+03  0.38243409670E+03  0.12500000000E+03 0.  0.
         25    1    1    2    0    0 -0.84571608573E+02 -0.11932377942E+02 -0.14691567477E+03  0.21095960304E+03  0.12500000000E+03 0.  0.
         25    1    1    2    0    0  0.24180153605E+03  0.86514113704E+02 -0.10007166944E+02  0.28579331360E+03  0.12500000000E+03 0.  0.
</event>
<event>
 5    0  0.5843857E-005  0.3415785E+03  0.7546771E-02  0.1066126E+00
         21   -1    0    0  502  501  0.00000000000E+00  0.00000000000E+00  0.64298836541E+03  0.64298836541E+03  0.00000000000E+00 0.  1.
         21   -1    0    0  501  502 -0.00000000000E+00 -0.00000000000E+00 -0.18145872692E+03  0.18145872692E+03  0.00000000000E+00 0.  1.
         25    1    1    2    0    0 -0.85495124257E+02 -0.15278325249E+03  0.18083301779E+03  0.28102974725E+03  0.12500000000E+03 0.  0.
         25    1    1    2    0    0  0.15899026304E+03 -0.57149863056E+02  0.12694162737E+03  0.24552634757E+03  0.12500000000E+03 0.  0.
         25    1    1    2    0    0 -0.73495138786E+02  0.20993311555E+03  0.15375499332E+03  0.29789099752E+03  0.12500000000E+03 0.  0.
</event>
<event>
 5    0  0.5619558E-005  0.2350042E+03  0.7546771E-02  0.1123166E+00
         21   -1    0    0  502  501  0.00000000000E+00  0.00000000000E+00  0.85877645234E+02  0.85877645234E+02  0.00000000000E+00 0.  1.
         21   -1    0    0  501  502 -0.00000000000E+00 -0.00000000000E+00 -0.64308892329E+03  0.64308892329E+03  0.00000000000E+00 0.  1.
         25    1    1    2    0    0 -0.58087564335E+00  0.80406621190E+01 -0.19926459584E+03  0.23536433209E+03  0.12500000000E+03 0.  0.
         25    1    1    2    0    0 -0.51524469857E+02  0.73979715961E+02 -0.27406699049E+03  0.31442882286E+03  0.12500000000E+03 0.  0.
         25    1    1    2    0    0  0.52105345501E+02 -0.82020378080E+02 -0.83879691730E+02  0.17917341358E+03  0.12500000000E+03 0.  0.
</event>
<event>
 5    0  0.5619558E-005  0.4229724E+03  0.7546771E-02  0.1036103E+00
         21   -1    0    0  502  501  0.00000000000E+00  0.00000000000E+00  0.58060935259E+03  0.58060935259E+03  0.00000000000E+00 0. -1.
         21   -1    0    0  501  502 -0.00000000000E+00 -0.00000000000E+00 -0.30813422564E+03  0.30813422564E+03  0.00000000000E+00 0. -1.
         25    1    1    2    0    0  0.23283432884E+03  0.77808249603E+02  0.18821978204E+03  0.33364297496E+03  0.12500000000E+03 0.  0.
         25    1    1    2    0    0 -0.26580566797E+03 -0.21134248494E+03  0.71075680515E+02  0.36877506888E+03  0.12500000000E+03 0.  0.
         25    1    1    2    0    0  0.32971339131E+02  0.13353423534E+03  0.13179664400E+02  0.18632553439E+03  0.12500000000E+03 0.  0.
</event>
<event>
 5    0  0.5619558E-005  0.3924641E+03  0.7546771E-02  0.1046421E+00
         21   -1    0    0  502  501  0.00000000000E+00  0.00000000000E+00  0.22683751619E+03  0.22683751619E+03  0.00000000000E+00 0. -1.
         21   -1    0    0  501  502 -0.00000000000E+00 -0.00000000000E+00 -0.67902393835E+03  0.67902393835E+03  0.00000000000E+00 0. -1.
         25    1    1    2    0    0  0.80345659619E+02 -0.16503331956E+03 -0.72603049758E+02  0.23363994611E+03  0.12500000000E+03 0.  0.
         25    1    1    2    0    0 -0.92285972931E+02 -0.10890660828E+03 -0.30917819400E+03  0.36275819188E+03  0.12500000000E+03 0.  0.
         25    1    1    2    0    0  0.11940313311E+02  0.27393992784E+03 -0.70405178398E+02  0.30946331655E+03  0.12500000000E+03 0.  0.
</event>
<event>
 5    0  0.5619558E-005  0.2813135E+03  0.7546771E-02  0.1094974E+00
         21   -1    0    0  502  501  0.00000000000E+00  0.00000000000E+00  0.58791156091E+03  0.58791156091E+03  0.00000000000E+00 0. -1.
         21   -1    0    0  501  502 -0.00000000000E+00 -0.00000000000E+00 -0.13460749693E+03  0.13460749693E+03  0.00000000000E+00 0. -1.
         25    1    1    2    0    0  0.63129803555E+01 -0.17669874155E+03  0.11364297874E+03  0.24454452683E+03  0.12500000000E+03 0.  0.
         25    1    1    2    0    0 -0.65114756433E+02  0.10669754823E+03  0.14122168295E+03  0.22625839662E+03  0.12500000000E+03 0.  0.
         25    1    1    2    0    0  0.58801776077E+02  0.70001193322E+02  0.19843940228E+03  0.25171613440E+03  0.12500000000E+03 0.  0.
</event>
<event>
 5    0  0.5619558E-005  0.2558940E+03  0.7546771E-02  0.1109636E+00
         21   -1    0    0  502  501  0.00000000000E+00  0.00000000000E+00  0.26490868838E+03  0.26490868838E+03  0.00000000000E+00 0. -1.
         21   -1    0    0  501  502 -0.00000000000E+00 -0.00000000000E+00 -0.24718613804E+03  0.24718613804E+03  0.00000000000E+00 0. -1.
         25    1    1    2    0    0  0.23566452564E+02 -0.26828235747E+02  0.82763332613E+02  0.15411002935E+03  0.12500000000E+03 0.  0.
         25    1    1    2    0    0 -0.10850380517E+03  0.54090319219E+02  0.30977603449E+02  0.17687128168E+03  0.12500000000E+03 0.  0.
         25    1    1    2    0    0  0.84937352602E+02 -0.27262083472E+02 -0.96018385713E+02  0.18111351539E+03  0.12500000000E+03 0.  0.
</event>
<event>
 5    0  0.5619558E-005  0.4197646E+03  0.7546771E-02  0.1037143E+00
         21   -1    0    0  502  501  0.00000000000E+00  0.00000000000E+00  0.32215433519E+03  0.32215433519E+03  0.00000000000E+00 0.  1.
         21   -1    0    0  501  502 -0.00000000000E+00 -0.00000000000E+00 -0.54694994707E+03  0.54694994707E+03  0.00000000000E+00 0.  1.
         25    1    1    2    0    0 -0.99172236024E+02  0.18108485937E+02  0.10604685673E+03  0.19244216140E+03  0.12500000000E+03 0.  0.
         25    1    1    2    0    0  0.29942801626E+03 -0.10063991707E+03 -0.20383650314E+03  0.39618158695E+03  0.12500000000E+03 0.  0.
         25    1    1    2    0    0 -0.20025578023E+03  0.82531431128E+02 -0.12700596547E+03  0.28048053391E+03  0.12500000000E+03 0.  0.
</event>
<event>
 5    0  0.5619558E-005  0.2588208E+03  0.7546771E-02  0.1107854E+00
         21   -1    0    0  502  501  0.00000000000E+00  0.00000000000E+00  0.24941312967E+03  0.24941312967E+03  0.00000000000E+00 0.  1.
         21   -1    0    0  501  502 -0.00000000000E+00 -0.00000000000E+00 -0.26858330311E+03  0.26858330311E+03  0.00000000000E+00 0.  1.
         25    1    1    2    0    0  0.54656282237E+02 -0.64613379771E+02 -0.15534686754E+03  0.21660989656E+03  0.12500000000E+03 0.  0.
         25    1    1    2    0    0 -0.39509811912E+02  0.53879934589E+02  0.83277046714E+02  0.16439020378E+03  0.12500000000E+03 0.  0.
         25    1    1    2    0    0 -0.15146470325E+02  0.10733445182E+02  0.52899647382E+02  0.13699633244E+03  0.12500000000E+03 0.  0.
</event>
<event>
 5    0  0.5619558E-005  0.3267995E+03  0.7546771E-02  0.1072562E+00
         21   -1    0    0  502  501  0.00000000000E+00  0.00000000000E+00  0.39538815302E+03  0.39538815302E+03  0.00000000000E+00 0. -1.
         21   -1    0    0  501  502 -0.00000000000E+00 -0.00000000000E+00 -0.27010899231E+03  0.27010899231E+03  0.00000000000E+00 0. -1.
         25    1    1    2    0    0 -0.14157336464E+02 -0.31501568920E+02 -0.14954508184E+03  0.19794320024E+03  0.12500000000E+03 0.  0.
         25    1    1    2    0    0  0.30907030476E+02  0.14716012566E+03  0.88693442769E+02  0.21471579799E+03  0.12500000000E+03 0.  0.
         25    1    1    2    0    0 -0.16749694012E+02 -0.11565855674E+03  0.18613079978E+03  0.25283814709E+03  0.12500000000E+03 0.  0.
</event>
<event>
 5    0  0.5619558E-005  0.2032922E+03  0.7546771E-02  0.1146991E+00
         21   -1    0    0  502  501  0.00000000000E+00  0.00000000000E+00  0.10750696927E+03  0.10750696927E+03  0.00000000000E+00 0.  1.
         21   -1    0    0  501  502 -0.00000000000E+00 -0.00000000000E+00 -0.38441892470E+03  0.38441892470E+03  0.00000000000E+00 0.  1.
         25    1    1    2    0    0 -0.19586142379E+02  0.26577110004E+01 -0.36449198790E+02  0.13169747338E+03  0.12500000000E+03 0.  0.
         25    1    1    2    0    0 -0.37935897548E+01  0.17002649435E+02 -0.63098697205E+02  0.14110254073E+03  0.12500000000E+03 0.  0.
         25    1    1    2    0    0  0.23379732133E+02 -0.19660360435E+02 -0.17736405944E+03  0.21912587987E+03  0.12500000000E+03 0.  0.
</event>
<event>
 5    0  0.5619558E-005  0.4573421E+03  0.7546771E-02  0.1025555E+00
         21   -1    0    0  502  501  0.00000000000E+00  0.00000000000E+00  0.75699750220E+03  0.75699750220E+03  0.00000000000E+00 0.  1.
         21   -1    0    0  501  502 -0.00000000000E+00 -0.00000000000E+00 -0.27630446050E+03  0.27630446050E+03  0.00000000000E+00 0.  1.
         25    1    1    2    0    0 -0.51217388972E+02  0.10487783872E+03  0.44198208024E+02  0.17663822797E+03  0.12500000000E+03 0.  0.
         25    1    1    2    0    0 -0.20052883600E+03 -0.23572031009E+02 -0.90304401728E+02  0.25406168480E+03  0.12500000000E+03 0.  0.
         25    1    1    2    0    0  0.25174622497E+03 -0.81305807712E+02  0.52679923541E+03  0.60260204993E+03  0.12500000000E+03 0.  0.
</event>
<event>
 5    0  0.5619558E-005  0.3051770E+03  0.7546771E-02  0.1082681E+00
         21   -1    0    0  502  501  0.00000000000E+00  0.00000000000E+00  0.47949712810E+03  0.47949712810E+03  0.00000000000E+00 0. -1.
         21   -1    0    0  501  502 -0.00000000000E+00 -0.00000000000E+00 -0.19423060515E+03  0.19423060515E+03  0.00000000000E+00 0. -1.
         25    1    1    2    0    0  0.21502449446E+02 -0.16290464815E+03  0.39817503730E+02  0.21026343792E+03  0.12500000000E+03 0.  0.
         25    1    1    2    0    0 -0.21446381193E+02  0.26613937014E+02 -0.28740653908E+02  0.13273761372E+03  0.12500000000E+03 0.  0.
         25    1    1    2    0    0 -0.56068253013E-01  0.13629071113E+03  0.27418967312E+03  0.33072668161E+03  0.12500000000E+03 0.  0.
</event>
<event>
 5    0  0.5619558E-005  0.2794873E+03  0.7546771E-02  0.1095969E+00
         21   -1    0    0  502  501  0.00000000000E+00  0.00000000000E+00  0.14510878307E+03  0.14510878307E+03  0.00000000000E+00 0.  1.
         21   -1    0    0  501  502 -0.00000000000E+00 -0.00000000000E+00 -0.53830735493E+03  0.53830735493E+03  0.00000000000E+00 0.  1.
         25    1    1    2    0    0  0.51039794353E+02 -0.11028501789E+03 -0.93114762913E+02  0.19764413690E+03  0.12500000000E+03 0.  0.
         25    1    1    2    0    0  0.10429830739E+03  0.52637023109E+02 -0.16780431635E+03  0.23964991490E+03  0.12500000000E+03 0.  0.
         25    1    1    2    0    0 -0.15533810174E+03  0.57647994783E+02 -0.13227949258E+03  0.24612208620E+03  0.12500000000E+03 0.  0.
</event>
<event>
 5    0  0.5908437E-005  0.2487652E+03  0.7546771E-02  0.1114088E+00
         21   -1    0    0  502  501  0.00000000000E+00  0.00000000000E+00  0.65456182436E+03  0.65456182436E+03  0.00000000000E+00 0. -1.
         21   -1    0    0  501  502 -0.00000000000E+00 -0.00000000000E+00 -0.94542816776E+02  0.94542816776E+02  0.00000000000E+00 0. -1.
         25    1    1    2    0    0 -0.88358023416E+02 -0.40272419566E+02  0.96233232597E+02  0.18524266014E+03  0.12500000000E+03 0.  0.
         25    1    1    2    0    0  0.13339883303E+03  0.36178452466E+01  0.26190367825E+03  0.31941645878E+03  0.12500000000E+03 0.  0.
         25    1    1    2    0    0 -0.45040809615E+02  0.36654574320E+02  0.20188209674E+03  0.24444552222E+03  0.12500000000E+03 0.  0.
</event>
<event>
 5    0  0.5619558E-005  0.4173797E+03  0.7546771E-02  0.1037923E+00
         21   -1    0    0  502  501  0.00000000000E+00  0.00000000000E+00  0.32807411249E+03  0.32807411249E+03  0.00000000000E+00 0. -1.
         21   -1    0    0  501  502 -0.00000000000E+00 -0.00000000000E+00 -0.53099518650E+03  0.53099518650E+03  0.00000000000E+00 0. -1.
         25    1    1    2    0    0 -0.51630376462E+02 -0.59910922347E+02 -0.13903672740E+03  0.20300548258E+03  0.12500000000E+03 0.  0.
         25    1    1    2    0    0  0.91015919100E+02  0.30836884818E+03  0.58088247965E+02  0.34982065207E+03  0.12500000000E+03 0.  0.
         25    1    1    2    0    0 -0.39385542638E+02 -0.24845792584E+03 -0.12197259458E+03  0.30624316435E+03  0.12500000000E+03 0.  0.
</event>
<event>
 5    0  0.5619558E-005  0.2978903E+03  0.7546771E-02  0.1086300E+00
         21   -1    0    0  502  501  0.00000000000E+00  0.00000000000E+00  0.28431840855E+03  0.28431840855E+03  0.00000000000E+00 0. -1.
         21   -1    0    0  501  502 -0.00000000000E+00 -0.00000000000E+00 -0.31211010083E+03  0.31211010083E+03  0.00000000000E+00 0. -1.
         25    1    1    2    0    0 -0.36357441633E+02 -0.31667960818E+02  0.27248637161E+02  0.13671946289E+03  0.12500000000E+03 0.  0.
         25    1    1    2    0    0 -0.33632883128E+02  0.17291689825E+03 -0.12150533926E+03  0.24783053080E+03  0.12500000000E+03 0.  0.
         25    1    1    2    0    0  0.69990324762E+02 -0.14124893743E+03  0.66465009817E+02  0.21187851570E+03  0.12500000000E+03 0.  0.
</event>
<event>
 5    0  0.5619558E-005  0.3119961E+03  0.7546771E-02  0.1079393E+00
         21   -1    0    0  502  501  0.00000000000E+00  0.00000000000E+00  0.27542707476E+03  0.27542707476E+03  0.00000000000E+00 0. -1.
         21   -1    0    0  501  502 -0.00000000000E+00 -0.00000000000E+00 -0.35342055638E+03  0.35342055638E+03  0.00000000000E+00 0. -1.
         25    1    1    2    0    0  0.38086488306E+02 -0.99984001150E+02 -0.11048492262E+03  0.19819005829E+03  0.12500000000E+03 0.  0.
         25    1    1    2    0    0 -0.59005819795E+02 -0.12856520519E+02  0.16480142140E+03  0.21547966350E+03  0.12500000000E+03 0.  0.
         25    1    1    2    0    0  0.20919331489E+02  0.11284052167E+03 -0.13230998040E+03  0.21517790935E+03  0.12500000000E+03 0.  0.
</event>
<event>
 5    0  0.5619558E-005  0.2243777E+03  0.7546771E-02  0.1130661E+00
         21   -1    0    0  502  501  0.00000000000E+00  0.00000000000E+00  0.11222497128E+04  0.11222497128E+04  0.00000000000E+00 0. -1.
         21   -1    0    0  501  502 -0.00000000000E+00 -0.00000000000E+00 -0.44861092725E+02  0.44861092725E+02  0.00000000000E+00 0. -1.
         25    1    1    2    0    0  0.44656468440E+02 -0.83321731744E+02  0.29763022053E+03  0.33637101440E+03  0.12500000000E+03 0.  0.
         25    1    1    2    0    0 -0.16981302181E+02 -0.70291750573E+01  0.41343075879E+03  0.43230517721E+03  0.12500000000E+03 0.  0.
         25    1    1    2    0    0 -0.27675166259E+02  0.90350906801E+02  0.36632764072E+03  0.39843461389E+03  0.12500000000E+03 0.  0.
</event>
<event>
 5    0  0.5619558E-005  0.3279527E+03  0.7546771E-02  0.1072046E+00
         21   -1    0    0  502  501  0.00000000000E+00  0.00000000000E+00  0.14376597268E+03  0.14376597268E+03  0.00000000000E+00 0.  1.
         21   -1    0    0  501  502 -0.00000000000E+00 -0.00000000000E+00 -0.74811124620E+03  0.74811124620E+03  0.00000000000E+00 0.  1.
         25    1    1    2    0    0  0.14605403527E+03  0.54911679788E+02 -0.52221972552E+03  0.55918289988E+03  0.12500000000E+03 0.  0.
         25    1    1    2    0    0 -0.51378888568E+02 -0.53119864432E+02  0.18475121921E+02  0.14638251370E+03  0.12500000000E+03 0.  0.
         25    1    1    2    0    0 -0.94675146704E+02 -0.17918153558E+01 -0.10060066992E+03  0.18631180530E+03  0.12500000000E+03 0.  0.
</event>
<event>
 5    0  0.5619558E-005  0.5650859E+03  0.7546771E-02  0.9980612E-01
         21   -1    0    0  502  501  0.00000000000E+00  0.00000000000E+00  0.97968108990E+03  0.97968108990E+03  0.00000000000E+00 0. -1.
         21   -1    0    0  501  502 -0.00000000000E+00 -0.00000000000E+00 -0.32594495154E+03  0.32594495154E+03  0.00000000000E+00 0. -1.
         25    1    1    2    0    0 -0.32733536901E+03  0.12259697071E+02  0.18569712197E+03  0.39674571842E+03  0.12500000000E+03 0.  0.
         25    1    1    2    0    0 -0.35639010503E+02 -0.27138120754E+03  0.27312975151E+03  0.40637760770E+03  0.12500000000E+03 0.  0.
         25    1    1    2    0    0  0.36297437951E+03  0.25912151047E+03  0.19490926489E+03  0.50250271533E+03  0.12500000000E+03 0.  0.
</event>
<event>
 5    0  0.5619558E-005  0.3099473E+03  0.7546771E-02  0.1080371E+00
         21   -1    0    0  502  501  0.00000000000E+00  0.00000000000E+00  0.95613516630E+02  0.95613516630E+02  0.00000000000E+00 0. -1.
         21   -1    0    0  501  502 -0.00000000000E+00 -0.00000000000E+00 -0.10047466020E+04  0.10047466020E+04  0.00000000000E+00 0. -1.
         25    1    1    2    0    0 -0.38681152559E+02 -0.88689615167E+02 -0.87227465793E+02  0.18054282093E+03  0.12500000000E+03 0.  0.
         25    1    1    2    0    0  0.29730097654E+02  0.78112403195E+02 -0.76868538099E+03  0.78325451878E+03  0.12500000000E+03 0.  0.
         25    1    1    2    0    0  0.89510549056E+01  0.10577211972E+02 -0.53220238624E+02  0.13656277896E+03  0.12500000000E+03 0.  0.
</event>
<event>
 5    0  0.5619558E-005  0.3972709E+03  0.7546771E-02  0.1044729E+00
         21   -1    0    0  502  501  0.00000000000E+00  0.00000000000E+00  0.84169037421E+03  0.84169037421E+03  0.00000000000E+00 0. -1.
         21   -1    0    0  501  502 -0.00000000000E+00 -0.00000000000E+00 -0.18750861551E+03  0.18750861551E+03  0.00000000000E+00 0. -1.
         25    1    1    2    0    0  0.10993017685E+02  0.68200884301E+02 -0.10133420506E+03  0.17511661307E+03  0.12500000000E+03 0.  0.
         25    1    1    2    0    0  0.11100327875E+03 -0.10245196615E+03  0.24727923968E+03  0.31557907985E+03  0.12500000000E+03 0.  0.
         25    1    1    2    0    0 -0.12199629643E+03  0.34251081849E+02  0.50823672409E+03  0.53850329680E+03  0.12500000000E+03 0.  0.
</event>
<event>
 5    0  0.5619558E-005  0.4457304E+03  0.7546771E-02  0.1029003E+00
         21   -1    0    0  502  501  0.00000000000E+00  0.00000000000E+00  0.35798420584E+03  0.35798420584E+03  0.00000000000E+00 0.  1.
         21   -1    0    0  501  502 -0.00000000000E+00 -0.00000000000E+00 -0.55498411581E+03  0.55498411581E+03  0.00000000000E+00 0.  1.
         25    1    1    2    0    0  0.26464125977E+02 -0.19473990800E+03 -0.28725188703E+03  0.36981431602E+03  0.12500000000E+03 0.  0.
         25    1    1    2    0    0  0.32820543807E+02 -0.49797721237E+02 -0.12706557054E+03  0.18795653847E+03  0.12500000000E+03 0.  0.
         25    1    1    2    0    0 -0.59284669784E+02  0.24453762923E+03  0.21731754760E+03  0.35519746716E+03  0.12500000000E+03 0.  0.
</event>
<event>
 5    0  0.5619558E-005  0.2607377E+03  0.7546771E-02  0.1106701E+00
         21   -1    0    0  502  501  0.00000000000E+00  0.00000000000E+00  0.45572285542E+03  0.45572285542E+03  0.00000000000E+00 0. -1.
         21   -1    0    0  501  502 -0.00000000000E+00 -0.00000000000E+00 -0.14917867812E+03  0.14917867812E+03  0.00000000000E+00 0. -1.
         25    1    1    2    0    0  0.11535539963E+03  0.12085209075E+03  0.12799136246E+03  0.24478334283E+03  0.12500000000E+03 0.  0.
         25    1    1    2    0    0 -0.99576108970E+02 -0.83108854425E+02  0.11787788488E+03  0.21527349792E+03  0.12500000000E+03 0.  0.
         25    1    1    2    0    0 -0.15779290665E+02 -0.37743236327E+02  0.60674929956E+02  0.14484469278E+03  0.12500000000E+03 0.  0.
</event>
<event>
 5    0  0.6292073E-005  0.2963593E+03  0.7546771E-02  0.1087075E+00
         21   -1    0    0  502  501  0.00000000000E+00  0.00000000000E+00  0.65176685049E+03  0.65176685049E+03  0.00000000000E+00 0. -1.
         21   -1    0    0  501  502 -0.00000000000E+00 -0.00000000000E+00 -0.13475502009E+03  0.13475502009E+03  0.00000000000E+00 0. -1.
         25    1    1    2    0    0 -0.17636040711E+03 -0.80481591655E+01  0.21067421767E+03  0.30195428802E+03  0.12500000000E+03 0.  0.
         25    1    1    2    0    0  0.15673824557E+03  0.10014176748E+02  0.63155537128E+02  0.21042999604E+03  0.12500000000E+03 0.  0.
         25    1    1    2    0    0  0.19622161540E+02 -0.19660175829E+01  0.24318207561E+03  0.27413758653E+03  0.12500000000E+03 0.  0.
</event>
<event>
 5    0  0.5619558E-005  0.3157098E+03  0.7546771E-02  0.1077641E+00
         21   -1    0    0  502  501  0.00000000000E+00  0.00000000000E+00  0.31217069738E+03  0.31217069738E+03  0.00000000000E+00 0.  1.
         21   -1    0    0  501  502 -0.00000000000E+00 -0.00000000000E+00 -0.31928907584E+03  0.31928907584E+03  0.00000000000E+00 0.  1.
         25    1    1    2    0    0 -0.14899462658E+03  0.60484370272E+02 -0.77601339312E+02  0.21795578831E+03  0.12500000000E+03 0.  0.
         25    1    1    2    0    0  0.11271864282E+03 -0.12259312893E+03 -0.62423667557E+02  0.21738510062E+03  0.12500000000E+03 0.  0.
         25    1    1    2    0    0  0.36275983761E+02  0.62108758655E+02  0.13290662841E+03  0.19611888429E+03  0.12500000000E+03 0.  0.
</event>
<event>
 5    0  0.5619558E-005  0.2363277E+03  0.7546771E-02  0.1122264E+00
         21   -1    0    0  502  501  0.00000000000E+00  0.00000000000E+00  0.77817149073E+02  0.77817149073E+02  0.00000000000E+00 0.  1.
         21   -1    0    0  501  502 -0.00000000000E+00 -0.00000000000E+00 -0.71771825001E+03  0.71771825001E+03  0.00000000000E+00 0.  1.
         25    1    1    2    0    0  0.67970163309E+02 -0.84022948958E+02 -0.15398640334E+03  0.22586857122E+03  0.12500000000E+03 0.  0.
         25    1    1    2    0    0 -0.57067244119E+02 -0.72781974380E+01 -0.17924565724E+03  0.22597267124E+03  0.12500000000E+03 0.  0.
         25    1    1    2    0    0 -0.10902919190E+02  0.91301146396E+02 -0.30666904036E+03  0.34369415662E+03  0.12500000000E+03 0.  0.
</event>
<event>
 5    0  0.5619558E-005  0.2865891E+03  0.7546771E-02  0.1092144E+00
         21   -1    0    0  502  501  0.00000000000E+00  0.00000000000E+00  0.10583688127E+04  0.10583688127E+04  0.00000000000E+00 0. -1.
         21   -1    0    0  501  502 -0.00000000000E+00 -0.00000000000E+00 -0.77603660895E+02  0.77603660895E+02  0.00000000000E+00 0. -1.
         25    1    1    2    0    0 -0.93779480167E+02 -0.50019245392E+02  0.17954466033E+03  0.24322376706E+03  0.12500000000E+03 0.  0.
         25    1    1    2    0    0  0.20369184694E+02  0.16541677157E+03  0.41214775744E+03  0.46180990242E+03  0.12500000000E+03 0.  0.
         25    1    1    2    0    0  0.73410295473E+02 -0.11539752618E+03  0.38907273401E+03  0.43093880410E+03  0.12500000000E+03 0.  0.
</event>
<event>
 5    0  0.5619558E-005  0.3495895E+03  0.7546771E-02  0.1062784E+00
         21   -1    0    0  502  501  0.00000000000E+00  0.00000000000E+00  0.10321264152E+04  0.10321264152E+04  0.00000000000E+00 0.  1.
         21   -1    0    0  501  502 -0.00000000000E+00 -0.00000000000E+00 -0.11840879185E+03  0.11840879185E+03  0.00000000000E+00 0.  1.
         25    1    1    2    0    0 -0.98509465729E+02  0.49792028331E+02  0.25779154228E+03  0.30702579728E+03  0.12500000000E+03 0.  0.
         25    1    1    2    0    0 -0.17153700837E+02  0.30196761816E+02  0.64185162392E+03  0.65483173488E+03  0.12500000000E+03 0.  0.
         25    1    1    2    0    0  0.11566316657E+03 -0.79988790147E+02  0.14074457132E+02  0.18867767487E+03  0.12500000000E+03 0.  0.
</event>
<event>
 5    0  0.5619558E-005  0.2897203E+03  0.7546771E-02  0.1090495E+00
         21   -1    0    0  502  501  0.00000000000E+00  0.00000000000E+00  0.16648941415E+03  0.16648941415E+03  0.00000000000E+00 0. -1.
         21   -1    0    0  501  502 -0.00000000000E+00 -0.00000000000E+00 -0.50416330905E+03  0.50416330905E+03  0.00000000000E+00 0. -1.
         25    1    1    2    0    0 -0.12277193378E+03  0.24096623805E+02 -0.20145543268E+02  0.17800123010E+03  0.12500000000E+03 0.  0.
         25    1    1    2    0    0  0.19474091266E+02 -0.12934988774E+03 -0.18142837767E+03  0.25622624751E+03  0.12500000000E+03 0.  0.
         25    1    1    2    0    0  0.10329784252E+03  0.10525326394E+03 -0.13609997397E+03  0.23642524559E+03  0.12500000000E+03 0.  0.
</event>
<event>
 5    0  0.5619558E-005  0.3654547E+03  0.7546771E-02  0.1056445E+00
         21   -1    0    0  502  501  0.00000000000E+00  0.00000000000E+00  0.10316012131E+04  0.10316012131E+04  0.00000000000E+00 0.  1.
         21   -1    0    0  501  502 -0.00000000000E+00 -0.00000000000E+00 -0.12946584730E+03  0.12946584730E+03  0.00000000000E+00 0.  1.
         25    1    1    2    0    0 -0.71476820527E+02  0.16983707210E+03  0.10419209436E+03  0.24583441471E+03  0.12500000000E+03 0.  0.
         25    1    1    2    0    0  0.99296928087E+02 -0.14603387137E+03  0.74301129384E+03  0.77387114838E+03  0.12500000000E+03 0.  0.
         25    1    1    2    0    0 -0.27820107561E+02 -0.23803200722E+02  0.54931977551E+02  0.14136149726E+03  0.12500000000E+03 0.  0.
</event>
<event>
 5    0  0.5619558E-005  0.3209005E+03  0.7546771E-02  0.1075236E+00
         21   -1    0    0  502  501  0.00000000000E+00  0.00000000000E+00  0.12863628650E+03  0.12863628650E+03  0.00000000000E+00 0. -1.
         21   -1    0    0  501  502 -0.00000000000E+00 -0.00000000000E+00 -0.80052941630E+03  0.80052941630E+03  0.00000000000E+00 0. -1.
         25    1    1    2    0    0  0.25687475553E+01 -0.13300877865E+02 -0.15249442743E+03  0.19764377606E+03  0.12500000000E+03 0.  0.
         25    1    1    2    0    0 -0.19790316584E+03  0.10984070343E+03 -0.31598641010E+03  0.40829285390E+03  0.12500000000E+03 0.  0.
         25    1    1    2    0    0  0.19533441829E+03 -0.96539825568E+02 -0.20341229227E+03  0.32322907285E+03  0.12500000000E+03 0.  0.
</event>
<event>
 5    0  0.5619558E-005  0.3191001E+03  0.7546771E-02  0.1076064E+00
         21   -1    0    0  502  501  0.00000000000E+00  0.00000000000E+00  0.33284978394E+03  0.33284978394E+03  0.00000000000E+00 0.  1.
         21   -1    0    0  501  502 -0.00000000000E+00 -0.00000000000E+00 -0.30591838454E+03  0.30591838454E+03  0.00000000000E+00 0.  1.
         25    1    1    2    0    0 -0.17007257605E+03 -0.46735077555E+02  0.16791640867E+02  0.21683128879E+03  0.12500000000E+03 0.  0.
         25    1    1    2    0    0  0.19575607083E+03 -0.71107785462E+02 -0.26724320479E+02  0.24436846303E+03  0.12500000000E+03 0.  0.
         25    1    1    2    0    0 -0.25683494786E+02  0.11784286302E+03  0.36864079010E+02  0.17756841665E+03  0.12500000000E+03 0.  0.
</event>
<event>
 5    0  0.5619558E-005  0.3110505E+03  0.7546771E-02  0.1079843E+00
         21   -1    0    0  502  501  0.00000000000E+00  0.00000000000E+00  0.12156403693E+04  0.12156403693E+04  0.00000000000E+00 0.  1.
         21   -1    0    0  501  502 -0.00000000000E+00 -0.00000000000E+00 -0.79589648982E+02  0.79589648982E+02  0.00000000000E+00 0.  1.
         25    1    1    2    0    0 -0.12859425550E+00  0.12526170398E+03  0.17497194145E+03  0.24885877786E+03  0.12500000000E+03 0.  0.
         25    1    1    2    0    0  0.69808654278E+02 -0.11269912538E+03  0.83682387282E+03  0.85643069492E+03  0.12500000000E+03 0.  0.
         25    1    1    2    0    0 -0.69680060022E+02 -0.12562578597E+02  0.12425490600E+03  0.18994054546E+03  0.12500000000E+03 0.  0.
</event>
<event>
 5    0  0.5653382E-005  0.2983523E+03  0.7546771E-02  0.1086067E+00
         21   -1    0    0  502  501  0.00000000000E+00  0.00000000000E+00  0.17683343085E+03  0.17683343085E+03  0.00000000000E+00 0. -1.
         21   -1    0    0  501  502 -0.00000000000E+00 -0.00000000000E+00 -0.50337812320E+03  0.50337812320E+03  0.00000000000E+00 0. -1.
         25    1    1    2    0    0 -0.42541839576E+02 -0.12442704731E+03 -0.81937882258E+02  0.19907464622E+03  0.12500000000E+03 0.  0.
         25    1    1    2    0    0  0.77414952212E+02  0.19027400063E+03 -0.63304659232E+02  0.24865588676E+03  0.12500000000E+03 0.  0.
         25    1    1    2    0    0 -0.34873112636E+02 -0.65846953316E+02 -0.18130215087E+03  0.23248102106E+03  0.12500000000E+03 0.  0.
</event>
<event>
 5    0  0.5619558E-005  0.2640308E+03  0.7546771E-02  0.1104745E+00
         21   -1    0    0  502  501  0.00000000000E+00  0.00000000000E+00  0.49518974783E+03  0.49518974783E+03  0.00000000000E+00 0.  1.
         21   -1    0    0  501  502 -0.00000000000E+00 -0.00000000000E+00 -0.14077892838E+03  0.14077892838E+03  0.00000000000E+00 0.  1.
         25    1    1    2    0    0 -0.44571621401E+02 -0.65369834544E+02  0.21140884777E+03  0.25802818765E+03  0.12500000000E+03 0.  0.
         25    1    1    2    0    0  0.12841652186E+03  0.72993059870E+02  0.11361704240E+03  0.22439389965E+03  0.12500000000E+03 0.  0.
         25    1    1    2    0    0 -0.83844900458E+02 -0.76232253266E+01  0.29384929269E+02  0.15354658891E+03  0.12500000000E+03 0.  0.
</event>
<event>
 5    0  0.5619558E-005  0.2643138E+03  0.7546771E-02  0.1104579E+00
         21   -1    0    0  502  501  0.00000000000E+00  0.00000000000E+00  0.24512086083E+04  0.24512086083E+04  0.00000000000E+00 0.  1.
         21   -1    0    0  501  502 -0.00000000000E+00 -0.00000000000E+00 -0.28500952006E+02  0.28500952006E+02  0.00000000000E+00 0.  1.
         25    1    1    2    0    0 -0.65446545880E+02 -0.12653622684E+03  0.10490710045E+04  0.10660533005E+04  0.12500000000E+03 0.  0.
         25    1    1    2    0    0  0.74904140714E+02 -0.11754080375E+02  0.54607568237E+03  0.56530738503E+03  0.12500000000E+03 0.  0.
         25    1    1    2    0    0 -0.94575948340E+01  0.13829030722E+03  0.82756096943E+03  0.84834887475E+03  0.12500000000E+03 0.  0.
</event>
<event>
 5    0  0.5619558E-005  0.3370085E+03  0.7546771E-02  0.1068077E+00
         21   -1    0    0  502  501  0.00000000000E+00  0.00000000000E+00  0.21835210185E+04  0.21835210185E+04  0.00000000000E+00 0.  1.
         21   -1    0    0  501  502 -0.00000000000E+00 -0.00000000000E+00 -0.52014476341E+02  0.52014476341E+02  0.00000000000E+00 0.  1.
         25    1    1    2    0    0  0.81507117296E+02  0.12108176191E+03  0.42079818460E+03  0.46260168114E+03  0.12500000000E+03 0.  0.
         25    1    1    2    0    0  0.32099444380E+02 -0.55039669444E+02  0.16484814946E+03  0.21647090318E+03  0.12500000000E+03 0.  0.
         25    1    1    2    0    0 -0.11360656168E+03 -0.66042092465E+02  0.15458602081E+04  0.15564629105E+04  0.12500000000E+03 0.  0.
</event>
<event>
 5    0  0.5619558E-005  0.5483602E+03  0.7546771E-02  0.1001874E+00
         21   -1    0    0  502  501  0.00000000000E+00  0.00000000000E+00  0.10272827600E+04  0.10272827600E+04  0.00000000000E+00 0.  1.
         21   -1    0    0  501  502 -0.00000000000E+00 -0.00000000000E+00 -0.29271292535E+03  0.29271292535E+03  0.00000000000E+00 0.  1.
         25    1    1    2    0    0 -0.10483959379E+03 -0.36309815493E+02  0.84523100927E+03  0.86159747107E+03  0.12500000000E+03 0.  0.
         25    1    1    2    0    0  0.14584038376E+03 -0.12856070017E+03 -0.83410250761E+02  0.24572248797E+03  0.12500000000E+03 0.  0.
         25    1    1    2    0    0 -0.41000789967E+02  0.16487051566E+03 -0.27250923851E+02  0.21267572631E+03  0.12500000000E+03 0.  0.
</event>
<event>
 5    0  0.6477704E-005  0.4502260E+03  0.7546771E-02  0.1027655E+00
         21   -1    0    0  502  501  0.00000000000E+00  0.00000000000E+00  0.27095395972E+03  0.27095395972E+03  0.00000000000E+00 0.  1.
         21   -1    0    0  501  502 -0.00000000000E+00 -0.00000000000E+00 -0.74811041381E+03  0.74811041381E+03  0.00000000000E+00 0.  1.
         25    1    1    2    0    0  0.10670806679E+03 -0.19139875661E+03 -0.43531171664E+03  0.50313157940E+03  0.12500000000E+03 0.  0.
         25    1    1    2    0    0  0.66264504011E+02  0.71012321424E+02  0.13958303162E+03  0.21105012912E+03  0.12500000000E+03 0.  0.
         25    1    1    2    0    0 -0.17297257081E+03  0.12038643518E+03 -0.18142776907E+03  0.30488266500E+03  0.12500000000E+03 0.  0.
</event>
<event>
 5    0  0.5619558E-005  0.2649862E+03  0.7546771E-02  0.1104184E+00
         21   -1    0    0  502  501  0.00000000000E+00  0.00000000000E+00  0.27321346061E+04  0.27321346061E+04  0.00000000000E+00 0.  1.
         21   -1    0    0  501  502 -0.00000000000E+00 -0.00000000000E+00 -0.25700659453E+02  0.25700659453E+02  0.00000000000E+00 0.  1.
         25    1    1    2    0    0 -0.66482230086E+02  0.75716979621E+02  0.16708461594E+04  0.16785424738E+04  0.12500000000E+03 0.  0.
         25    1    1    2    0    0  0.82693652655E+01 -0.13513858073E+02  0.69912929687E+03  0.71039269457E+03  0.12500000000E+03 0.  0.
         25    1    1    2    0    0  0.58212864820E+02 -0.62203121547E+02  0.33645849035E+03  0.36890009716E+03  0.12500000000E+03 0.  0.
</event>
<event>
 5    0  0.6000907E-005  0.6173750E+03  0.7546771E-02  0.9870000E-01
         21   -1    0    0  502  501  0.00000000000E+00  0.00000000000E+00  0.33638624225E+03  0.33638624225E+03  0.00000000000E+00 0.  1.
         21   -1    0    0  501  502 -0.00000000000E+00 -0.00000000000E+00 -0.11330782304E+04  0.11330782304E+04  0.00000000000E+00 0.  1.
         25    1    1    2    0    0 -0.12180592231E+03 -0.27790451484E+03 -0.82314327208E+02  0.33833156894E+03  0.12500000000E+03 0.  0.
         25    1    1    2    0    0  0.43709619803E+03  0.98197591212E+02 -0.24791483461E+03  0.52705086896E+03  0.12500000000E+03 0.  0.
         25    1    1    2    0    0 -0.31529027572E+03  0.17970692363E+03 -0.46646282636E+03  0.60408203477E+03  0.12500000000E+03 0.  0.
</event>
<event>
 5    0  0.5830617E-005  0.3216575E+03  0.7546771E-02  0.1074889E+00
         21   -1    0    0  502  501  0.00000000000E+00  0.00000000000E+00  0.45845082487E+03  0.45845082487E+03  0.00000000000E+00 0.  1.
         21   -1    0    0  501  502 -0.00000000000E+00 -0.00000000000E+00 -0.22568080557E+03  0.22568080557E+03  0.00000000000E+00 0.  1.
         25    1    1    2    0    0  0.48567107476E+02 -0.58897484187E+02 -0.55322669186E+02  0.15656715907E+03  0.12500000000E+03 0.  0.
         25    1    1    2    0    0 -0.17546411153E+03 -0.26949661578E+02  0.24085627528E+03  0.32426946207E+03  0.12500000000E+03 0.  0.
         25    1    1    2    0    0  0.12689700405E+03  0.85847145764E+02  0.47236413207E+02  0.20329500930E+03  0.12500000000E+03 0.  0.
</event>
<event>
 5    0  0.5619558E-005  0.5179259E+03  0.7546771E-02  0.1009203E+00
         21   -1    0    0  502  501  0.00000000000E+00  0.00000000000E+00  0.12474092304E+04  0.12474092304E+04  0.00000000000E+00 0.  1.
         21   -1    0    0  501  502 -0.00000000000E+00 -0.00000000000E+00 -0.21504347460E+03  0.21504347460E+03  0.00000000000E+00 0.  1.
         25    1    1    2    0    0 -0.42625873787E+03  0.28128819422E+02  0.48089304217E+03  0.65526396215E+03  0.12500000000E+03 0.  0.
         25    1    1    2    0    0  0.10348885816E+03  0.12049846783E+03  0.26838324150E+03  0.33598272103E+03  0.12500000000E+03 0.  0.
         25    1    1    2    0    0  0.32276987971E+03 -0.14862728725E+03  0.28308947213E+03  0.47120602181E+03  0.12500000000E+03 0.  0.
</event>
<event>
 5    0  0.5619558E-005  0.2271477E+03  0.7546771E-02  0.1128664E+00
         21   -1    0    0  502  501  0.00000000000E+00  0.00000000000E+00  0.66619145323E+02  0.66619145323E+02  0.00000000000E+00 0. -1.
         21   -1    0    0  501  502 -0.00000000000E+00 -0.00000000000E+00 -0.77449311195E+03  0.77449311195E+03  0.00000000000E+00 0. -1.
         25    1    1    2    0    0 -0.89171489426E+01  0.48641093627E+01 -0.64158151077E+02  0.14087030721E+03  0.12500000000E+03 0.  0.
         25    1    1    2    0    0  0.30915543818E+02  0.56915995848E+01 -0.19457908033E+03  0.23339705152E+03  0.12500000000E+03 0.  0.
         25    1    1    2    0    0 -0.21998394876E+02 -0.10555708947E+02 -0.44913673522E+03  0.46684489854E+03  0.12500000000E+03 0.  0.
</event>
<event>
 5    0  0.5619558E-005  0.2555370E+03  0.7546771E-02  0.1109855E+00
         21   -1    0    0  502  501  0.00000000000E+00  0.00000000000E+00  0.98822591049E+02  0.98822591049E+02  0.00000000000E+00 0. -1.
         21   -1    0    0  501  502 -0.00000000000E+00 -0.00000000000E+00 -0.66077165243E+03  0.66077165243E+03  0.00000000000E+00 0. -1.
         25    1    1    2    0    0 -0.12097816665E+03 -0.11446698217E+02 -0.19245036746E+03  0.25967072927E+03  0.12500000000E+03 0.  0.
         25    1    1    2    0    0 -0.12303993635E+02  0.58614592668E+02 -0.21607131509E+03  0.25670775589E+03  0.12500000000E+03 0.  0.
         25    1    1    2    0    0  0.13328216028E+03 -0.47167894450E+02 -0.15342737884E+03  0.24321575832E+03  0.12500000000E+03 0.  0.
</event>
<event>
 5    0  0.5619558E-005  0.2325850E+03  0.7546771E-02  0.1124833E+00
         21   -1    0    0  502  501  0.00000000000E+00  0.00000000000E+00  0.49897312041E+03  0.49897312041E+03  0.00000000000E+00 0. -1.
         21   -1    0    0  501  502 -0.00000000000E+00 -0.00000000000E+00 -0.10841419736E+03  0.10841419736E+03  0.00000000000E+00 0. -1.
         25    1    1    2    0    0  0.53856967365E+02  0.17430259722E+02  0.22882547230E+03  0.26681544869E+03  0.12500000000E+03 0.  0.
         25    1    1    2    0    0 -0.23229996744E+02  0.33471660638E+00  0.16778304491E+03  0.21051340799E+03  0.12500000000E+03 0.  0.
         25    1    1    2    0    0 -0.30626970621E+02 -0.17764976328E+02 -0.60495941547E+01  0.13005846110E+03  0.12500000000E+03 0.  0.
</event>
<event>
 5    0  0.5619558E-005  0.3744706E+03  0.7546771E-02  0.1052997E+00
         21   -1    0    0  502  501  0.00000000000E+00  0.00000000000E+00  0.61701256633E+03  0.61701256633E+03  0.00000000000E+00 0. -1.
         21   -1    0    0  501  502 -0.00000000000E+00 -0.00000000000E+00 -0.22726967130E+03  0.22726967130E+03  0.00000000000E+00 0. -1.
         25    1    1    2    0    0 -0.79252525440E+02  0.24151819976E+02  0.15272999414E+03  0.21404607987E+03  0.12500000000E+03 0.  0.
         25    1    1    2    0    0 -0.18910368618E+03  0.55524855762E+02  0.22384177388E+03  0.32337803492E+03  0.12500000000E+03 0.  0.
         25    1    1    2    0    0  0.26835621162E+03 -0.79676675738E+02  0.13171127011E+02  0.30685812285E+03  0.12500000000E+03 0.  0.
</event>
<event>
 5    0  0.5619558E-005  0.2671683E+03  0.7546771E-02  0.1102911E+00
         21   -1    0    0  502  501  0.00000000000E+00  0.00000000000E+00  0.84469967171E+03  0.84469967171E+03  0.00000000000E+00 0. -1.
         21   -1    0    0  501  502 -0.00000000000E+00 -0.00000000000E+00 -0.84502134940E+02  0.84502134940E+02  0.00000000000E+00 0. -1.
         25    1    1    2    0    0  0.82663431110E+02 -0.13482995417E+03  0.27964918552E+03  0.34473326841E+03  0.12500000000E+03 0.  0.
         25    1    1    2    0    0 -0.11219973452E+03  0.53948347521E+02  0.21019267370E+03  0.27441786513E+03  0.12500000000E+03 0.  0.
         25    1    1    2    0    0  0.29536303406E+02  0.80881606652E+02  0.27035567755E+03  0.31005067311E+03  0.12500000000E+03 0.  0.
</event>
<event>
 5    0  0.5840755E-005  0.2921318E+03  0.7546771E-02  0.1089241E+00
         21   -1    0    0  502  501  0.00000000000E+00  0.00000000000E+00  0.47549989498E+03  0.47549989498E+03  0.00000000000E+00 0. -1.
         21   -1    0    0  501  502 -0.00000000000E+00 -0.00000000000E+00 -0.17947638769E+03  0.17947638769E+03  0.00000000000E+00 0. -1.
         25    1    1    2    0    0  0.15727374135E+03  0.55140997813E+02  0.27395267712E+03  0.34416657109E+03  0.12500000000E+03 0.  0.
         25    1    1    2    0    0 -0.92843173136E+02  0.93511367832E-01  0.33573058566E+02  0.15928594980E+03  0.12500000000E+03 0.  0.
         25    1    1    2    0    0 -0.64430568214E+02 -0.55234509181E+02 -0.11502228396E+02  0.15152376178E+03  0.12500000000E+03 0.  0.
</event>
<event>
 5    0  0.5619558E-005  0.4450814E+03  0.7546771E-02  0.1029199E+00
         21   -1    0    0  502  501  0.00000000000E+00  0.00000000000E+00  0.16837396857E+04  0.16837396857E+04  0.00000000000E+00 0. -1.
         21   -1    0    0  501  502 -0.00000000000E+00 -0.00000000000E+00 -0.11765325358E+03  0.11765325358E+03  0.00000000000E+00 0. -1.
         25    1    1    2    0    0 -0.14859285819E+03 -0.96141985905E+02  0.68037577461E+03  0.71404433591E+03  0.12500000000E+03 0.  0.
         25    1    1    2    0    0  0.30174547619E+03  0.21815096375E+03  0.62487100536E+03  0.73805755110E+03  0.12500000000E+03 0.  0.
         25    1    1    2    0    0 -0.15315261800E+03 -0.12200897784E+03  0.26083965217E+03  0.34929105230E+03  0.12500000000E+03 0.  0.
</event>
<event>
 5    0  0.5619558E-005  0.4657794E+03  0.7546771E-02  0.1023118E+00
         21   -1    0    0  502  501  0.00000000000E+00  0.00000000000E+00  0.11963781954E+03  0.11963781954E+03  0.00000000000E+00 0. -1.
         21   -1    0    0  501  502 -0.00000000000E+00 -0.00000000000E+00 -0.18133934960E+04  0.18133934960E+04  0.00000000000E+00 0. -1.
         25    1    1    2    0    0 -0.68642456976E+02  0.19605307804E+03 -0.99407993561E+03  0.10232147940E+04  0.12500000000E+03 0.  0.
         25    1    1    2    0    0  0.73843495024E+02  0.14761310195E+03 -0.33163651044E+03  0.39096069455E+03  0.12500000000E+03 0.  0.
         25    1    1    2    0    0 -0.52010380482E+01 -0.34366617999E+03 -0.36803923042E+03  0.51885582698E+03  0.12500000000E+03 0.  0.
</event>
<event>
 5    0  0.5619558E-005  0.4408910E+03  0.7546771E-02  0.1030474E+00
         21   -1    0    0  502  501  0.00000000000E+00  0.00000000000E+00  0.46663746092E+03  0.46663746092E+03  0.00000000000E+00 0.  1.
         21   -1    0    0  501  502 -0.00000000000E+00 -0.00000000000E+00 -0.41656505602E+03  0.41656505602E+03  0.00000000000E+00 0.  1.
         25    1    1    2    0    0 -0.49289669999E+02  0.21635114902E+03 -0.24341895567E+03  0.35229970087E+03  0.12500000000E+03 0.  0.
         25    1    1    2    0    0 -0.10272325062E+03 -0.17994328784E+03  0.16988574007E+03  0.29566504314E+03  0.12500000000E+03 0.  0.
         25    1    1    2    0    0  0.15201292062E+03 -0.36407861184E+02  0.12360562050E+03  0.23523777292E+03  0.12500000000E+03 0.  0.
</event>
<event>
 5    0  0.6089151E-005  0.3082790E+03  0.7546771E-02  0.1081174E+00
         21   -1    0    0  502  501  0.00000000000E+00  0.00000000000E+00  0.36390048986E+03  0.36390048986E+03  0.00000000000E+00 0.  1.
         21   -1    0    0  501  502 -0.00000000000E+00 -0.00000000000E+00 -0.26115907586E+03  0.26115907586E+03  0.00000000000E+00 0.  1.
         25    1    1    2    0    0 -0.17702367701E+03  0.31761903609E+02 -0.54185717555E+02  0.22562644510E+03  0.12500000000E+03 0.  0.
         25    1    1    2    0    0  0.57490534291E+02  0.21384586692E+02  0.16794996227E+03  0.21816198548E+03  0.12500000000E+03 0.  0.
         25    1    1    2    0    0  0.11953314272E+03 -0.53146490302E+02 -0.11022830709E+02  0.18127113514E+03  0.12500000000E+03 0.  0.
</event>
<event>
 5    0  0.5619558E-005  0.2650092E+03  0.7546771E-02  0.1104170E+00
         21   -1    0    0  502  501  0.00000000000E+00  0.00000000000E+00  0.43101013562E+02  0.43101013562E+02  0.00000000000E+00 0.  1.
         21   -1    0    0  501  502 -0.00000000000E+00 -0.00000000000E+00 -0.16294256260E+04  0.16294256260E+04  0.00000000000E+00 0.  1.
         25    1    1    2    0    0  0.69576331891E+01  0.86401028056E+02 -0.57588311484E+03  0.59563403888E+03  0.12500000000E+03 0.  0.
         25    1    1    2    0    0  0.53506448613E+02 -0.16385436862E+03 -0.55033384263E+03  0.59008773289E+03  0.12500000000E+03 0.  0.
         25    1    1    2    0    0 -0.60464081802E+02  0.77453340565E+02 -0.46010765494E+03  0.48680486777E+03  0.12500000000E+03 0.  0.
</event>
<event>
 5    0  0.5619558E-005  0.2865384E+03  0.7546771E-02  0.1092170E+00
         21   -1    0    0  502  501  0.00000000000E+00  0.00000000000E+00  0.98377390267E+03  0.98377390267E+03  0.00000000000E+00 0. -1.
         21   -1    0    0  501  502 -0.00000000000E+00 -0.00000000000E+00 -0.83458472359E+02  0.83458472359E+02  0.00000000000E+00 0. -1.
         25    1    1    2    0    0 -0.70931186657E+02 -0.29832657494E+02  0.27574525406E+03  0.31238064253E+03  0.12500000000E+03 0.  0.
         25    1    1    2    0    0  0.64111752179E+02 -0.69414710623E+02  0.59466353212E+02  0.16760061451E+03  0.12500000000E+03 0.  0.
         25    1    1    2    0    0  0.68194344777E+01  0.99247368118E+02  0.56510382304E+03  0.58725111799E+03  0.12500000000E+03 0.  0.
</event>
<event>
 5    0  0.5619558E-005  0.3320780E+03  0.7546771E-02  0.1070221E+00
         21   -1    0    0  502  501  0.00000000000E+00  0.00000000000E+00  0.11779579723E+04  0.11779579723E+04  0.00000000000E+00 0. -1.
         21   -1    0    0  501  502 -0.00000000000E+00 -0.00000000000E+00 -0.93616051162E+02  0.93616051162E+02  0.00000000000E+00 0.  1.
         25    1    1    2    0    0 -0.18773896490E+03  0.14205315876E+03  0.42420603060E+03  0.50099977570E+03  0.12500000000E+03 0.  0.
         25    1    1    2    0    0  0.12230061848E+03 -0.14073811813E+02  0.16820637225E+03  0.24305122325E+03  0.12500000000E+03 0.  0.
         25    1    1    2    0    0  0.65438346423E+02 -0.12797934695E+03  0.49192951830E+03  0.52752302453E+03  0.12500000000E+03 0.  0.
</event>
<event>
 5    0  0.5619558E-005  0.6085142E+03  0.7546771E-02  0.9887898E-01
         21   -1    0    0  502  501  0.00000000000E+00  0.00000000000E+00  0.62729777017E+03  0.62729777017E+03  0.00000000000E+00 0.  1.
         21   -1    0    0  501  502 -0.00000000000E+00 -0.00000000000E+00 -0.59029303990E+03  0.59029303990E+03  0.00000000000E+00 0.  1.
         25    1    1    2    0    0  0.18378354495E+03 -0.20732717918E+03  0.43047865978E+03  0.52697042341E+03  0.12500000000E+03 0.  0.
         25    1    1    2    0    0 -0.13666744670E+03 -0.97307267777E+02 -0.25619871193E+03  0.33077103159E+03  0.12500000000E+03 0.  0.
         25    1    1    2    0    0 -0.47116098251E+02  0.30463444695E+03 -0.13727521759E+03  0.35984935508E+03  0.12500000000E+03 0.  0.
</event>
<event>
 5    0  0.5619558E-005  0.2401706E+03  0.7546771E-02  0.1119679E+00
         21   -1    0    0  502  501  0.00000000000E+00  0.00000000000E+00  0.54153974829E+03  0.54153974829E+03  0.00000000000E+00 0. -1.
         21   -1    0    0  501  502 -0.00000000000E+00 -0.00000000000E+00 -0.10651466639E+03  0.10651466639E+03  0.00000000000E+00 0. -1.
         25    1    1    2    0    0 -0.33119907901E+01  0.83681245476E+02  0.20603790560E+03  0.25512769092E+03  0.12500000000E+03 0.  0.
         25    1    1    2    0    0 -0.28391947071E+02 -0.10748185638E+03  0.19604769082E+03  0.25771718838E+03  0.12500000000E+03 0.  0.
         25    1    1    2    0    0  0.31703937861E+02  0.23800610905E+02  0.32939485478E+02  0.13520953538E+03  0.12500000000E+03 0.  0.
</event>
<event>
 5    0  0.5619558E-005  0.3685178E+03  0.7546771E-02  0.1055261E+00
         21   -1    0    0  502  501  0.00000000000E+00  0.00000000000E+00  0.11454604737E+03  0.11454604737E+03  0.00000000000E+00 0. -1.
         21   -1    0    0  501  502 -0.00000000000E+00 -0.00000000000E+00 -0.11855964144E+04  0.11855964144E+04  0.00000000000E+00 0. -1.
         25    1    1    2    0    0 -0.12169124782E+03  0.28837712980E+01 -0.35842026617E+03  0.39863161332E+03  0.12500000000E+03 0.  0.
         25    1    1    2    0    0 -0.80916255355E+02  0.91226347662E+02 -0.59442791475E+03  0.61954760328E+03  0.12500000000E+03 0.  0.
         25    1    1    2    0    0  0.20260750318E+03 -0.94110118960E+02 -0.11820218613E+03  0.28196324519E+03  0.12500000000E+03 0.  0.
</event>
<event>
 5    0  0.5633629E-005  0.3454241E+03  0.7546771E-02  0.1064509E+00
         21   -1    0    0  502  501  0.00000000000E+00  0.00000000000E+00  0.30544974445E+03  0.30544974445E+03  0.00000000000E+00 0. -1.
         21   -1    0    0  501  502 -0.00000000000E+00 -0.00000000000E+00 -0.39062985342E+03  0.39062985342E+03  0.00000000000E+00 0. -1.
         25    1    1    2    0    0  0.54249626869E+01  0.69213180110E+02 -0.18328094054E+03  0.23245816331E+03  0.12500000000E+03 0.  0.
         25    1    1    2    0    0  0.38727453208E+02 -0.21070708441E+03  0.10560408517E+03  0.26958210968E+03  0.12500000000E+03 0.  0.
         25    1    1    2    0    0 -0.44152415895E+02  0.14149390430E+03 -0.75032535996E+01  0.19403932488E+03  0.12500000000E+03 0.  0.
</event>
<event>
 5    0  0.5619558E-005  0.2742289E+03  0.7546771E-02  0.1098883E+00
         21   -1    0    0  502  501  0.00000000000E+00  0.00000000000E+00  0.85604166575E+02  0.85604166575E+02  0.00000000000E+00 0.  1.
         21   -1    0    0  501  502 -0.00000000000E+00 -0.00000000000E+00 -0.87847951873E+03  0.87847951873E+03  0.00000000000E+00 0.  1.
         25    1    1    2    0    0 -0.53294583146E+01  0.48173706976E+02 -0.95991278203E+02  0.16488915871E+03  0.12500000000E+03 0.  0.
         25    1    1    2    0    0  0.94779917682E+01  0.11593569545E+03 -0.42394596618E+03  0.45704058906E+03  0.12500000000E+03 0.  0.
         25    1    1    2    0    0 -0.41485334536E+01 -0.16410940243E+03 -0.27293810776E+03  0.34215393753E+03  0.12500000000E+03 0.  0.
</event>
<event>
 5    0  0.5619558E-005  0.3275251E+03  0.7546771E-02  0.1072237E+00
         21   -1    0    0  502  501  0.00000000000E+00  0.00000000000E+00  0.12326469015E+03  0.12326469015E+03  0.00000000000E+00 0.  1.
         21   -1    0    0  501  502 -0.00000000000E+00 -0.00000000000E+00 -0.87026281609E+03  0.87026281609E+03  0.00000000000E+00 0.  1.
         25    1    1    2    0    0 -0.25672379853E+02  0.19484334963E+03 -0.39701136770E+03  0.46028907011E+03  0.12500000000E+03 0.  0.
         25    1    1    2    0    0 -0.10407204856E+03 -0.50748015246E+02 -0.12829190033E+03  0.21328423297E+03  0.12500000000E+03 0.  0.
         25    1    1    2    0    0  0.12974442842E+03 -0.14409533439E+03 -0.22169485791E+03  0.31995420316E+03  0.12500000000E+03 0.  0.
</event>
<event>
 5    0  0.5619558E-005  0.2778031E+03  0.7546771E-02  0.1096895E+00
         21   -1    0    0  502  501  0.00000000000E+00  0.00000000000E+00  0.68396327882E+03  0.68396327882E+03  0.00000000000E+00 0. -1.
         21   -1    0    0  501  502 -0.00000000000E+00 -0.00000000000E+00 -0.11283435424E+03  0.11283435424E+03  0.00000000000E+00 0. -1.
         25    1    1    2    0    0 -0.42719720187E+02 -0.64449412011E+01  0.22860794351E+02  0.13421671907E+03  0.12500000000E+03 0.  0.
         25    1    1    2    0    0  0.61727221274E+02 -0.15477660495E+02  0.50960940327E+03  0.52856083068E+03  0.12500000000E+03 0.  0.
         25    1    1    2    0    0 -0.19007501087E+02  0.21922601696E+02  0.38658726950E+02  0.13402008332E+03  0.12500000000E+03 0.  0.
</event>
<event>
 5    0  0.5619558E-005  0.3797327E+03  0.7546771E-02  0.1051033E+00
         21   -1    0    0  502  501  0.00000000000E+00  0.00000000000E+00  0.69218758075E+03  0.69218758075E+03  0.00000000000E+00 0. -1.
         21   -1    0    0  501  502 -0.00000000000E+00 -0.00000000000E+00 -0.20832063591E+03  0.20832063591E+03  0.00000000000E+00 0. -1.
         25    1    1    2    0    0  0.78964864390E+02 -0.85133908181E+02  0.21340501607E+03  0.27322139926E+03  0.12500000000E+03 0.  0.
         25    1    1    2    0    0  0.20390967459E+03 -0.13131598784E+02  0.14073654495E+03  0.27781895069E+03  0.12500000000E+03 0.  0.
         25    1    1    2    0    0 -0.28287453897E+03  0.98265506965E+02  0.12972538382E+03  0.34946786672E+03  0.12500000000E+03 0.  0.
</event>
<event>
 5    0  0.5619558E-005  0.3831539E+03  0.7546771E-02  0.1049774E+00
         21   -1    0    0  502  501  0.00000000000E+00  0.00000000000E+00  0.71520153301E+03  0.71520153301E+03  0.00000000000E+00 0. -1.
         21   -1    0    0  501  502 -0.00000000000E+00 -0.00000000000E+00 -0.20526645657E+03  0.20526645657E+03  0.00000000000E+00 0. -1.
         25    1    1    2    0    0  0.24223699220E+02 -0.20022016862E+03  0.16033922509E+03  0.28637138584E+03  0.12500000000E+03 0.  0.
         25    1    1    2    0    0 -0.14903050274E+03  0.27014656709E+02  0.33244241810E+03  0.38611247555E+03  0.12500000000E+03 0.  0.
         25    1    1    2    0    0  0.12480680352E+03  0.17320551191E+03  0.17153433256E+02  0.24798412819E+03  0.12500000000E+03 0.  0.
</event>
<event>
 5    0  0.5619558E-005  0.2745744E+03  0.7546771E-02  0.1098690E+00
         21   -1    0    0  502  501  0.00000000000E+00  0.00000000000E+00  0.26843163783E+04  0.26843163783E+04  0.00000000000E+00 0.  1.
         21   -1    0    0  501  502 -0.00000000000E+00 -0.00000000000E+00 -0.28085778911E+02  0.28085778911E+02  0.00000000000E+00 0.  1.
         25    1    1    2    0    0  0.67608467891E+02  0.10212246225E+03  0.93471659507E+03  0.95095742035E+03  0.12500000000E+03 0.  0.
         25    1    1    2    0    0 -0.67037244066E+02 -0.49386859428E+02  0.32127685751E+03  0.35465035337E+03  0.12500000000E+03 0.  0.
         25    1    1    2    0    0 -0.57122382559E+00 -0.52735602818E+02  0.14002371468E+04  0.14067943835E+04  0.12500000000E+03 0.  0.
</event>
<event>
 5    0  0.5619558E-005  0.2602784E+03  0.7546771E-02  0.1106976E+00
         21   -1    0    0  502  501  0.00000000000E+00  0.00000000000E+00  0.27600303873E+03  0.27600303873E+03  0.00000000000E+00 0. -1.
         21   -1    0    0  501  502 -0.00000000000E+00 -0.00000000000E+00 -0.24544964224E+03  0.24544964224E+03  0.00000000000E+00 0. -1.
         25    1    1    2    0    0 -0.77171487807E+02  0.68130576377E+00  0.65248244899E+02  0.16074276397E+03  0.12500000000E+03 0.  0.
         25    1    1    2    0    0 -0.42334402955E+02  0.85023045610E+02 -0.55663020999E+02  0.16656677900E+03  0.12500000000E+03 0.  0.
         25    1    1    2    0    0  0.11950589076E+03 -0.85704351373E+02  0.20968172596E+02  0.19414313800E+03  0.12500000000E+03 0.  0.
</event>
<event>
 5    0  0.5619558E-005  0.2933808E+03  0.7546771E-02  0.1088597E+00
         21   -1    0    0  502  501  0.00000000000E+00  0.00000000000E+00  0.44656877153E+02  0.44656877153E+02  0.00000000000E+00 0.  1.
         21   -1    0    0  501  502 -0.00000000000E+00 -0.00000000000E+00 -0.19274143355E+04  0.19274143355E+04  0.00000000000E+00 0.  1.
         25    1    1    2    0    0 -0.77972196921E+02  0.27068504702E+02 -0.50619986115E+03  0.52789740183E+03  0.12500000000E+03 0.  0.
         25    1    1    2    0    0  0.64948356969E+02 -0.18228707813E+03 -0.86090681770E+03  0.89119718171E+03  0.12500000000E+03 0.  0.
         25    1    1    2    0    0  0.13023839952E+02  0.15521857343E+03 -0.51565077956E+03  0.55297662916E+03  0.12500000000E+03 0.  0.
</event>
<event>
 5    0  0.5619558E-005  0.2839182E+03  0.7546771E-02  0.1093568E+00
         21   -1    0    0  502  501  0.00000000000E+00  0.00000000000E+00  0.19478617584E+04  0.19478617584E+04  0.00000000000E+00 0. -1.
         21   -1    0    0  501  502 -0.00000000000E+00 -0.00000000000E+00 -0.41383618682E+02  0.41383618682E+02  0.00000000000E+00 0. -1.
         25    1    1    2    0    0  0.73450309341E+02 -0.11954554090E+03  0.76036823375E+03  0.78324385423E+03  0.12500000000E+03 0.  0.
         25    1    1    2    0    0  0.61097368235E+02 -0.24527424282E+02  0.46647281464E+03  0.48739754795E+03  0.12500000000E+03 0.  0.
         25    1    1    2    0    0 -0.13454767758E+03  0.14407296518E+03  0.67963709129E+03  0.71860397487E+03  0.12500000000E+03 0.  0.
</event>
<event>
 5    0  0.5619558E-005  0.2535884E+03  0.7546771E-02  0.1111058E+00
         21   -1    0    0  502  501  0.00000000000E+00  0.00000000000E+00  0.11355402548E+04  0.11355402548E+04  0.00000000000E+00 0. -1.
         21   -1    0    0  501  502 -0.00000000000E+00 -0.00000000000E+00 -0.56631255770E+02  0.56631255770E+02  0.00000000000E+00 0. -1.
         25    1    1    2    0    0  0.89652849805E+02 -0.31477907700E+02  0.70507682734E+03  0.72234813255E+03  0.12500000000E+03 0.  0.
         25    1    1    2    0    0 -0.44105612030E+02  0.80732968243E+01  0.10622985420E+03  0.17005959267E+03  0.12500000000E+03 0.  0.
         25    1    1    2    0    0 -0.45547237775E+02  0.23404610876E+02  0.26760231744E+03  0.29976378530E+03  0.12500000000E+03 0.  0.
</event>
<event>
 5    0  0.5619558E-005  0.7000566E+03  0.7546771E-02  0.9717135E-01
         21   -1    0    0  502  501  0.00000000000E+00  0.00000000000E+00  0.16251429300E+04  0.16251429300E+04  0.00000000000E+00 0. -1.
         21   -1    0    0  501  502 -0.00000000000E+00 -0.00000000000E+00 -0.30156072340E+03  0.30156072340E+03  0.00000000000E+00 0. -1.
         25    1    1    2    0    0 -0.48452318378E+03  0.16028090715E+03  0.27309459976E+03  0.59216412019E+03  0.12500000000E+03 0.  0.
         25    1    1    2    0    0  0.48659081280E+03 -0.48443500561E+02  0.34988211759E+03  0.61413344483E+03  0.12500000000E+03 0.  0.
         25    1    1    2    0    0 -0.20676290166E+01 -0.11183740659E+03  0.70060548922E+03  0.72040608835E+03  0.12500000000E+03 0.  0.
</event>
<event>
 5    0  0.5619558E-005  0.4037948E+03  0.7546771E-02  0.1042474E+00
         21   -1    0    0  502  501  0.00000000000E+00  0.00000000000E+00  0.39006595459E+03  0.39006595459E+03  0.00000000000E+00 0. -1.
         21   -1    0    0  501  502 -0.00000000000E+00 -0.00000000000E+00 -0.41800681017E+03  0.41800681017E+03  0.00000000000E+00 0. -1.
         25    1    1    2    0    0 -0.12660514409E+03  0.72095564675E+02  0.69492329847E+02  0.20415880305E+03  0.12500000000E+03 0.  0.
         25    1    1    2    0    0  0.11873532524E+03  0.21712083280E+03 -0.78643852535E+02  0.28818290900E+03  0.12500000000E+03 0.  0.
         25    1    1    2    0    0  0.78698188462E+01 -0.28921639748E+03 -0.18789332895E+02  0.31573105271E+03  0.12500000000E+03 0.  0.
</event>
<event>
 5    0  0.5619558E-005  0.2174338E+03  0.7546771E-02  0.1135811E+00
         21   -1    0    0  502  501  0.00000000000E+00  0.00000000000E+00  0.18546474663E+03  0.18546474663E+03  0.00000000000E+00 0.  1.
         21   -1    0    0  501  502 -0.00000000000E+00 -0.00000000000E+00 -0.25491350018E+03  0.25491350018E+03  0.00000000000E+00 0.  1.
         25    1    1    2    0    0 -0.72961513607E+02 -0.29205874396E+00 -0.81681169746E+02  0.16619350546E+03  0.12500000000E+03 0.  0.
         25    1    1    2    0    0  0.52542177308E+02 -0.33738379130E+02 -0.14034944622E+02  0.14043125825E+03  0.12500000000E+03 0.  0.
         25    1    1    2    0    0  0.20419336299E+02  0.34030437874E+02  0.26267360824E+02  0.13375348310E+03  0.12500000000E+03 0.  0.
</event>
<event>
 5    0  0.5619558E-005  0.3227080E+03  0.7546771E-02  0.1074410E+00
         21   -1    0    0  502  501  0.00000000000E+00  0.00000000000E+00  0.12920401620E+03  0.12920401620E+03  0.00000000000E+00 0. -1.
         21   -1    0    0  501  502 -0.00000000000E+00 -0.00000000000E+00 -0.80601561836E+03  0.80601561836E+03  0.00000000000E+00 0. -1.
         25    1    1    2    0    0  0.60238942650E+02 -0.12041217105E+02 -0.21291248174E+03  0.25442178759E+03  0.12500000000E+03 0.  0.
         25    1    1    2    0    0 -0.79918827552E+02 -0.12071174356E+03 -0.10322615387E+02  0.19154607910E+03  0.12500000000E+03 0.  0.
         25    1    1    2    0    0  0.19679884902E+02  0.13275296067E+03 -0.45357650504E+03  0.48925176786E+03  0.12500000000E+03 0.  0.
</event>
<event>
 5    0  0.5619558E-005  0.2327610E+03  0.7546771E-02  0.1124711E+00
         21   -1    0    0  502  501  0.00000000000E+00  0.00000000000E+00  0.29650727978E+03  0.29650727978E+03  0.00000000000E+00 0. -1.
         21   -1    0    0  501  502 -0.00000000000E+00 -0.00000000000E+00 -0.18271958247E+03  0.18271958247E+03  0.00000000000E+00 0. -1.
         25    1    1    2    0    0  0.52274564751E+02 -0.33207213633E+02  0.34905248417E+02  0.14380099278E+03  0.12500000000E+03 0.  0.
         25    1    1    2    0    0 -0.84682735186E+02  0.93117160506E+02  0.76157307483E+02  0.19304638485E+03  0.12500000000E+03 0.  0.
         25    1    1    2    0    0  0.32408170435E+02 -0.59909946874E+02  0.27251414092E+01  0.14237948462E+03  0.12500000000E+03 0.  0.
</event>
<event>
 5    0  0.5619558E-005  0.4063142E+03  0.7546771E-02  0.1041615E+00
         21   -1    0    0  502  501  0.00000000000E+00  0.00000000000E+00  0.47474770665E+03  0.47474770665E+03  0.00000000000E+00 0.  1.
         21   -1    0    0  501  502 -0.00000000000E+00 -0.00000000000E+00 -0.34774521254E+03  0.34774521254E+03  0.00000000000E+00 0.  1.
         25    1    1    2    0    0 -0.11766823739E+03 -0.12066802124E+03 -0.94177902640E+02  0.23000231039E+03  0.12500000000E+03 0.  0.
         25    1    1    2    0    0  0.28593496415E+02  0.25398027380E+03 -0.99280486673E+01  0.28468778278E+03  0.12500000000E+03 0.  0.
         25    1    1    2    0    0  0.89074740970E+02 -0.13331225256E+03  0.23110844541E+03  0.30780282601E+03  0.12500000000E+03 0.  0.
</event>
<event>
 5    0  0.5619558E-005  0.3419995E+03  0.7546771E-02  0.1065947E+00
         21   -1    0    0  502  501  0.00000000000E+00  0.00000000000E+00  0.34077485160E+03  0.34077485160E+03  0.00000000000E+00 0.  1.
         21   -1    0    0  501  502 -0.00000000000E+00 -0.00000000000E+00 -0.34322864477E+03  0.34322864477E+03  0.00000000000E+00 0.  1.
         25    1    1    2    0    0  0.11880576517E+03 -0.83018889812E+02 -0.20059495755E+03  0.27725490599E+03  0.12500000000E+03 0.  0.
         25    1    1    2    0    0  0.45390647930E+02  0.59536317105E+02  0.10214687051E+03  0.17794343801E+03  0.12500000000E+03 0.  0.
         25    1    1    2    0    0 -0.16419641310E+03  0.23482572707E+02  0.95994293858E+02  0.22880515237E+03  0.12500000000E+03 0.  0.
</event>
<event>
 5    0  0.5619558E-005  0.2532983E+03  0.7546771E-02  0.1111238E+00
         21   -1    0    0  502  501  0.00000000000E+00  0.00000000000E+00  0.12569869431E+03  0.12569869431E+03  0.00000000000E+00 0.  1.
         21   -1    0    0  501  502 -0.00000000000E+00 -0.00000000000E+00 -0.51042709246E+03  0.51042709246E+03  0.00000000000E+00 0.  1.
         25    1    1    2    0    0  0.37307869985E+02 -0.42841345110E+02 -0.54265093714E+02  0.14763793012E+03  0.12500000000E+03 0.  0.
         25    1    1    2    0    0  0.10652378499E+03  0.28163356832E+02 -0.17963506477E+03  0.24501887260E+03  0.12500000000E+03 0.  0.
         25    1    1    2    0    0 -0.14383165497E+03  0.14677988278E+02 -0.15082823968E+03  0.24346898405E+03  0.12500000000E+03 0.  0.
</event>
<event>
 5    0  0.5619558E-005  0.2899760E+03  0.7546771E-02  0.1090362E+00
         21   -1    0    0  502  501  0.00000000000E+00  0.00000000000E+00  0.12655320370E+03  0.12655320370E+03  0.00000000000E+00 0. -1.
         21   -1    0    0  501  502 -0.00000000000E+00 -0.00000000000E+00 -0.66443281468E+03  0.66443281468E+03  0.00000000000E+00 0. -1.
         25    1    1    2    0    0 -0.23811440705E+02 -0.43689358365E+02 -0.14925256964E+03  0.20094047448E+03  0.12500000000E+03 0.  0.
         25    1    1    2    0    0 -0.16541071556E+03 -0.16610142746E+02 -0.15990609822E+03  0.26235769840E+03  0.12500000000E+03 0.  0.
         25    1    1    2    0    0  0.18922215626E+03  0.60299501111E+02 -0.22872094313E+03  0.32768784549E+03  0.12500000000E+03 0.  0.
</event>
<event>
 5    0  0.5619558E-005  0.2996674E+03  0.7546771E-02  0.1085407E+00
         21   -1    0    0  502  501  0.00000000000E+00  0.00000000000E+00  0.24299719860E+03  0.24299719860E+03  0.00000000000E+00 0. -1.
         21   -1    0    0  501  502 -0.00000000000E+00 -0.00000000000E+00 -0.36955397287E+03  0.36955397287E+03  0.00000000000E+00 0. -1.
         25    1    1    2    0    0  0.25428661659E+02 -0.33345306794E+02 -0.10627620402E+03  0.16934626616E+03  0.12500000000E+03 0.  0.
         25    1    1    2    0    0  0.20370253096E+01  0.18623989847E+03  0.53503412901E+02  0.23060152742E+03  0.12500000000E+03 0.  0.
         25    1    1    2    0    0 -0.27465686969E+02 -0.15289459168E+03 -0.73783983148E+02  0.21260337790E+03  0.12500000000E+03 0.  0.
</event>
<event>
 5    0  0.5619558E-005  0.2241619E+03  0.7546771E-02  0.1130818E+00
         21   -1    0    0  502  501  0.00000000000E+00  0.00000000000E+00  0.10297172294E+03  0.10297172294E+03  0.00000000000E+00 0.  1.
         21   -1    0    0  501  502 -0.00000000000E+00 -0.00000000000E+00 -0.48798406653E+03  0.48798406653E+03  0.00000000000E+00 0.  1.
         25    1    1    2    0    0 -0.49481020561E+02  0.62332088200E+01 -0.26765617500E+03  0.29958646882E+03  0.12500000000E+03 0.  0.
         25    1    1    2    0    0  0.27561938458E+02 -0.38147718816E+02 -0.78215980825E+02  0.15478258480E+03  0.12500000000E+03 0.  0.
         25    1    1    2    0    0  0.21919082102E+02  0.31914509996E+02 -0.39140187777E+02  0.13658673584E+03  0.12500000000E+03 0.  0.
</event>
<event>
 5    0  0.5619558E-005  0.5316672E+03  0.7546771E-02  0.1005829E+00
         21   -1    0    0  502  501  0.00000000000E+00  0.00000000000E+00  0.10156434646E+03  0.10156434646E+03  0.00000000000E+00 0.  1.
         21   -1    0    0  501  502 -0.00000000000E+00 -0.00000000000E+00 -0.27831621611E+04  0.27831621611E+04  0.00000000000E+00 0.  1.
         25    1    1    2    0    0 -0.12818654396E+03 -0.27044228634E+03 -0.15149336397E+04  0.15492642619E+04  0.12500000000E+03 0.  0.
         25    1    1    2    0    0 -0.15822195524E+03  0.13599348980E+03 -0.21428411556E+03  0.32414672383E+03  0.12500000000E+03 0.  0.
         25    1    1    2    0    0  0.28640849920E+03  0.13444879654E+03 -0.95238005933E+03  0.10113155218E+04  0.12500000000E+03 0.  0.
</event>
<event>
 5    0  0.5619558E-005  0.3031192E+03  0.7546771E-02  0.1083692E+00
         21   -1    0    0  502  501  0.00000000000E+00  0.00000000000E+00  0.98229682375E+03  0.98229682375E+03  0.00000000000E+00 0.  1.
         21   -1    0    0  501  502 -0.00000000000E+00 -0.00000000000E+00 -0.93537178434E+02  0.93537178434E+02  0.00000000000E+00 0.  1.
         25    1    1    2    0    0  0.15488139537E+03  0.15197560157E+02  0.26453587170E+03  0.33139619775E+03  0.12500000000E+03 0.  0.
         25    1    1    2    0    0 -0.34445194817E+02 -0.11699956843E+03  0.15353054608E+03  0.23253386643E+03  0.12500000000E+03 0.  0.
         25    1    1    2    0    0 -0.12043620055E+03  0.10180200827E+03  0.47069322754E+03  0.51190393800E+03  0.12500000000E+03 0.  0.
</event>
<event>
 5    0  0.5619558E-005  0.3757465E+03  0.7546771E-02  0.1052517E+00
         21   -1    0    0  502  501  0.00000000000E+00  0.00000000000E+00  0.17006166028E+04  0.17006166028E+04  0.00000000000E+00 0.  1.
         21   -1    0    0  501  502 -0.00000000000E+00 -0.00000000000E+00 -0.83020147627E+02  0.83020147627E+02  0.00000000000E+00 0.  1.
         25    1    1    2    0    0  0.84473976200E+02 -0.67104171592E+02  0.92264257309E+03  0.93730098697E+03  0.12500000000E+03 0.  0.
         25    1    1    2    0    0 -0.27064197727E+02  0.29228779464E+02 -0.56862265578E+01  0.13131688970E+03  0.12500000000E+03 0.  0.
         25    1    1    2    0    0 -0.57409778473E+02  0.37875392128E+02  0.70064010861E+03  0.71501887373E+03  0.12500000000E+03 0.  0.
</event>
<event>
 5    0  0.5619558E-005  0.2430851E+03  0.7546771E-02  0.1117755E+00
         21   -1    0    0  502  501  0.00000000000E+00  0.00000000000E+00  0.28383235172E+03  0.28383235172E+03  0.00000000000E+00 0.  1.
         21   -1    0    0  501  502 -0.00000000000E+00 -0.00000000000E+00 -0.20818752070E+03  0.20818752070E+03  0.00000000000E+00 0.  1.
         25    1    1    2    0    0 -0.82826967258E+02 -0.11290101576E+03 -0.26995394345E+01  0.18772115858E+03  0.12500000000E+03 0.  0.
         25    1    1    2    0    0  0.30977933742E+02  0.68669622377E+02  0.69509328125E+02  0.16165301146E+03  0.12500000000E+03 0.  0.
         25    1    1    2    0    0  0.51849033516E+02  0.44231393380E+02  0.88350423352E+01  0.14264570239E+03  0.12500000000E+03 0.  0.
</event>
<event>
 5    0  0.5619558E-005  0.2800199E+03  0.7546771E-02  0.1095678E+00
         21   -1    0    0  502  501  0.00000000000E+00  0.00000000000E+00  0.72113527295E+03  0.72113527295E+03  0.00000000000E+00 0. -1.
         21   -1    0    0  501  502 -0.00000000000E+00 -0.00000000000E+00 -0.10873292285E+03  0.10873292285E+03  0.00000000000E+00 0. -1.
         25    1    1    2    0    0  0.15304242649E+03 -0.76381066998E+02  0.25056909647E+03  0.32812486008E+03  0.12500000000E+03 0.  0.
         25    1    1    2    0    0 -0.10229771258E+03  0.11794836826E+03  0.16365190269E+03  0.25842520161E+03  0.12500000000E+03 0.  0.
         25    1    1    2    0    0 -0.50744713908E+02 -0.41567301258E+02  0.19818135094E+03  0.24331813411E+03  0.12500000000E+03 0.  0.
</event>
<event>
 5    0  0.5619558E-005  0.3175415E+03  0.7546771E-02  0.1076786E+00
         21   -1    0    0  502  501  0.00000000000E+00  0.00000000000E+00  0.90378826904E+02  0.90378826904E+02  0.00000000000E+00 0.  1.
         21   -1    0    0  501  502 -0.00000000000E+00 -0.00000000000E+00 -0.11156660679E+04  0.11156660679E+04  0.00000000000E+00 0. -1.
         25    1    1    2    0    0 -0.17682427925E+02  0.17140250815E+03 -0.26408666838E+03  0.33920238276E+03  0.12500000000E+03 0.  0.
         25    1    1    2    0    0  0.68939365360E+02  0.35629587926E+02 -0.42347301712E+03  0.44830402615E+03  0.12500000000E+03 0.  0.
         25    1    1    2    0    0 -0.51256937435E+02 -0.20703209607E+03 -0.33772755555E+03  0.41853848594E+03  0.12500000000E+03 0.  0.
</event>
<event>
 5    0  0.5619558E-005  0.2548637E+03  0.7546771E-02  0.1110269E+00
         21   -1    0    0  502  501  0.00000000000E+00  0.00000000000E+00  0.94047950096E+02  0.94047950096E+02  0.00000000000E+00 0.  1.
         21   -1    0    0  501  502 -0.00000000000E+00 -0.00000000000E+00 -0.69066353418E+03  0.69066353418E+03  0.00000000000E+00 0.  1.
         25    1    1    2    0    0  0.32628355625E+02  0.60518482792E+02 -0.89702677033E+02  0.16851903933E+03  0.12500000000E+03 0.  0.
         25    1    1    2    0    0 -0.64003785997E+02 -0.12918155700E+03 -0.36859398154E+03  0.41505527646E+03  0.12500000000E+03 0.  0.
         25    1    1    2    0    0  0.31375430372E+02  0.68663074211E+02 -0.13831892552E+03  0.20113716849E+03  0.12500000000E+03 0.  0.
</event>
<event>
 5    0  0.5619558E-005  0.2942770E+03  0.7546771E-02  0.1088137E+00
         21   -1    0    0  502  501  0.00000000000E+00  0.00000000000E+00  0.31232754696E+02  0.31232754696E+02  0.00000000000E+00 0. -1.
         21   -1    0    0  501  502 -0.00000000000E+00 -0.00000000000E+00 -0.27726968554E+04  0.27726968554E+04  0.00000000000E+00 0. -1.
         25    1    1    2    0    0 -0.35538636580E+02 -0.45085834368E+01 -0.15100370233E+04  0.15156253276E+04  0.12500000000E+03 0.  0.
         25    1    1    2    0    0 -0.11297429872E+03 -0.19337505084E+02 -0.74442177742E+03  0.76349585066E+03  0.12500000000E+03 0.  0.
         25    1    1    2    0    0  0.14851293530E+03  0.23846088521E+02 -0.48700530004E+03  0.52480843186E+03  0.12500000000E+03 0.  0.
</event>
<event>
 5    0  0.5619558E-005  0.2973969E+03  0.7546771E-02  0.1086549E+00
         21   -1    0    0  502  501  0.00000000000E+00  0.00000000000E+00  0.82346035314E+03  0.82346035314E+03  0.00000000000E+00 0.  1.
         21   -1    0    0  501  502 -0.00000000000E+00 -0.00000000000E+00 -0.10740642167E+03  0.10740642167E+03  0.00000000000E+00 0.  1.
         25    1    1    2    0    0 -0.82743604035E+02 -0.87184374540E+02  0.85898942349E+02  0.19352324788E+03  0.12500000000E+03 0.  0.
         25    1    1    2    0    0  0.14427741808E+03 -0.16972472265E+02  0.43829929500E+03  0.47836733812E+03  0.12500000000E+03 0.  0.
         25    1    1    2    0    0 -0.61533814045E+02  0.10415684680E+03  0.19185569412E+03  0.25897618881E+03  0.12500000000E+03 0.  0.
</event>
<event>
 5    0  0.5619558E-005  0.2682191E+03  0.7546771E-02  0.1102303E+00
         21   -1    0    0  502  501  0.00000000000E+00  0.00000000000E+00  0.82845664421E+03  0.82845664421E+03  0.00000000000E+00 0.  1.
         21   -1    0    0  501  502 -0.00000000000E+00 -0.00000000000E+00 -0.86837938125E+02  0.86837938125E+02  0.00000000000E+00 0.  1.
         25    1    1    2    0    0 -0.24817021695E+02 -0.12154043447E+02  0.14936216480E+03  0.19671721229E+03  0.12500000000E+03 0.  0.
         25    1    1    2    0    0 -0.16190547203E+02 -0.13459238812E+03  0.16248202691E+03  0.24576951362E+03  0.12500000000E+03 0.  0.
         25    1    1    2    0    0  0.41007568899E+02  0.14674643157E+03  0.42977451438E+03  0.47280785643E+03  0.12500000000E+03 0.  0.
</event>
<event>
 5    0  0.5619558E-005  0.4152893E+03  0.7546771E-02  0.1038610E+00
         21   -1    0    0  502  501  0.00000000000E+00  0.00000000000E+00  0.30645268409E+03  0.30645268409E+03  0.00000000000E+00 0. -1.
         21   -1    0    0  501  502 -0.00000000000E+00 -0.00000000000E+00 -0.56277926194E+03  0.56277926194E+03  0.00000000000E+00 0. -1.
         25    1    1    2    0    0  0.34340390025E+02 -0.89129635932E+02  0.27871592436E+02  0.15976601658E+03  0.12500000000E+03 0.  0.
         25    1    1    2    0    0 -0.32032298426E+02  0.21344883937E+03  0.11380514940E+03  0.27415887219E+03  0.12500000000E+03 0.  0.
         25    1    1    2    0    0 -0.23080915989E+01 -0.12431920343E+03 -0.39800331968E+03  0.43530705727E+03  0.12500000000E+03 0.  0.
</event>
<event>
 5    0  0.6443430E-005  0.4303851E+03  0.7546771E-02  0.1033738E+00
         21   -1    0    0  502  501  0.00000000000E+00  0.00000000000E+00  0.20282147792E+03  0.20282147792E+03  0.00000000000E+00 0.  1.
         21   -1    0    0  501  502 -0.00000000000E+00 -0.00000000000E+00 -0.91327285832E+03  0.91327285832E+03  0.00000000000E+00 0.  1.
         25    1    1    2    0    0 -0.43357634245E+02 -0.17993409745E+03 -0.15007588601E+02  0.22384457015E+03  0.12500000000E+03 0.  0.
         25    1    1    2    0    0  0.51781658711E+02  0.24101057721E+03 -0.12201616268E+03  0.30212643456E+03  0.12500000000E+03 0.  0.
         25    1    1    2    0    0 -0.84240244658E+01 -0.61076479763E+02 -0.57342762913E+03  0.59012333153E+03  0.12500000000E+03 0.  0.
</event>
<event>
 5    0  0.5973697E-005  0.2852358E+03  0.7546771E-02  0.1092863E+00
         21   -1    0    0  502  501  0.00000000000E+00  0.00000000000E+00  0.95390046964E+02  0.95390046964E+02  0.00000000000E+00 0. -1.
         21   -1    0    0  501  502 -0.00000000000E+00 -0.00000000000E+00 -0.85291360056E+03  0.85291360056E+03  0.00000000000E+00 0. -1.
         25    1    1    2    0    0  0.42985578973E+02 -0.12755820388E+03 -0.22909851077E+03  0.29364942195E+03  0.12500000000E+03 0.  0.
         25    1    1    2    0    0  0.46726616151E+02  0.13063836455E+03 -0.12999771814E+03  0.22753937170E+03  0.12500000000E+03 0.  0.
         25    1    1    2    0    0 -0.89712195124E+02 -0.30801606773E+01 -0.39842732469E+03  0.42711485388E+03  0.12500000000E+03 0.  0.
</event>
<event>
 5    0  0.5619558E-005  0.2435961E+03  0.7546771E-02  0.1117420E+00
         21   -1    0    0  502  501  0.00000000000E+00  0.00000000000E+00  0.18373712909E+04  0.18373712909E+04  0.00000000000E+00 0. -1.
         21   -1    0    0  501  502 -0.00000000000E+00 -0.00000000000E+00 -0.32295630877E+02  0.32295630877E+02  0.00000000000E+00 0. -1.
         25    1    1    2    0    0 -0.19503945432E+02  0.43248053134E+02  0.92778934506E+03  0.93737338707E+03  0.12500000000E+03 0.  0.
         25    1    1    2    0    0 -0.53336042188E+02 -0.13768156505E+01  0.61501555591E+03  0.62985376321E+03  0.12500000000E+03 0.  0.
         25    1    1    2    0    0  0.72839987620E+02 -0.41871237483E+02  0.26227075902E+03  0.30243977147E+03  0.12500000000E+03 0.  0.
</event>
<event>
 5    0  0.5619558E-005  0.2996472E+03  0.7546771E-02  0.1085417E+00
         21   -1    0    0  502  501  0.00000000000E+00  0.00000000000E+00  0.17795889181E+03  0.17795889181E+03  0.00000000000E+00 0.  1.
         21   -1    0    0  501  502 -0.00000000000E+00 -0.00000000000E+00 -0.50454614208E+03  0.50454614208E+03  0.00000000000E+00 0.  1.
         25    1    1    2    0    0  0.39415140427E+02 -0.28777780364E+02 -0.18109918290E+03  0.22539660153E+03  0.12500000000E+03 0.  0.
         25    1    1    2    0    0  0.12620977493E+03  0.11106287250E+03 -0.82660181749E+02  0.22521450793E+03  0.12500000000E+03 0.  0.
         25    1    1    2    0    0 -0.16562491536E+03 -0.82285092133E+02 -0.62827885624E+02  0.23189392443E+03  0.12500000000E+03 0.  0.
</event>
<event>
 5    0  0.5619558E-005  0.3096063E+03  0.7546771E-02  0.1080535E+00
         21   -1    0    0  502  501  0.00000000000E+00  0.00000000000E+00  0.40430652620E+03  0.40430652620E+03  0.00000000000E+00 0.  1.
         21   -1    0    0  501  502 -0.00000000000E+00 -0.00000000000E+00 -0.23708754364E+03  0.23708754364E+03  0.00000000000E+00 0.  1.
         25    1    1    2    0    0 -0.34808875006E+02 -0.96649509658E+02  0.13197514959E+02  0.16233286758E+03  0.12500000000E+03 0.  0.
         25    1    1    2    0    0  0.17141533398E+03 -0.37272262389E+02  0.12409498917E+03  0.24859003319E+03  0.12500000000E+03 0.  0.
         25    1    1    2    0    0 -0.13660645897E+03  0.13392177205E+03  0.29926478432E+02  0.23047116907E+03  0.12500000000E+03 0.  0.
</event>
<event>
 5    0  0.5619558E-005  0.2439390E+03  0.7546771E-02  0.1117196E+00
         21   -1    0    0  502  501  0.00000000000E+00  0.00000000000E+00  0.11032930811E+03  0.11032930811E+03  0.00000000000E+00 0.  1.
         21   -1    0    0  501  502 -0.00000000000E+00 -0.00000000000E+00 -0.53935125575E+03  0.53935125575E+03  0.00000000000E+00 0.  1.
         25    1    1    2    0    0  0.95513320575E+02 -0.98809257986E+02 -0.23120125455E+03  0.29658908270E+03  0.12500000000E+03 0.  0.
         25    1    1    2    0    0 -0.53766453772E+02  0.56762549992E+02 -0.64354930144E+02  0.16087067995E+03  0.12500000000E+03 0.  0.
         25    1    1    2    0    0 -0.41746866803E+02  0.42046707994E+02 -0.13346576294E+03  0.19222080121E+03  0.12500000000E+03 0.  0.
</event>
<event>
 5    0  0.5619558E-005  0.3320938E+03  0.7546771E-02  0.1070214E+00
         21   -1    0    0  502  501  0.00000000000E+00  0.00000000000E+00  0.36777555512E+03  0.36777555512E+03  0.00000000000E+00 0. -1.
         21   -1    0    0  501  502 -0.00000000000E+00 -0.00000000000E+00 -0.29987397009E+03  0.29987397009E+03  0.00000000000E+00 0. -1.
         25    1    1    2    0    0 -0.10055896115E+03  0.77909272675E+01 -0.12231503212E+03  0.20188801425E+03  0.12500000000E+03 0.  0.
         25    1    1    2    0    0  0.98294563000E+02  0.28598065275E+02  0.26884093762E+03  0.31365605397E+03  0.12500000000E+03 0.  0.
         25    1    1    2    0    0  0.22643981482E+01 -0.36388992543E+02 -0.78624320466E+02  0.15210545699E+03  0.12500000000E+03 0.  0.
</event>
<event>
 5    0  0.5619558E-005  0.5819659E+03  0.7546771E-02  0.9943544E-01
         21   -1    0    0  502  501  0.00000000000E+00  0.00000000000E+00  0.15424377408E+04  0.15424377408E+04  0.00000000000E+00 0. -1.
         21   -1    0    0  501  502 -0.00000000000E+00 -0.00000000000E+00 -0.21957730711E+03  0.21957730711E+03  0.00000000000E+00 0. -1.
         25    1    1    2    0    0 -0.11104336763E+03  0.34790133148E+02 -0.20891438578E+02  0.17205358196E+03  0.12500000000E+03 0.  0.
         25    1    1    2    0    0  0.35626461441E+03 -0.87139653541E+02  0.12264776855E+04  0.12862310476E+04  0.12500000000E+03 0.  0.
         25    1    1    2    0    0 -0.24522124678E+03  0.52349520393E+02  0.11727418675E+03  0.30373041836E+03  0.12500000000E+03 0.  0.
</event>
<event>
 5    0  0.5619558E-005  0.4111174E+03  0.7546771E-02  0.1039997E+00
         21   -1    0    0  502  501  0.00000000000E+00  0.00000000000E+00  0.34673250888E+03  0.34673250888E+03  0.00000000000E+00 0. -1.
         21   -1    0    0  501  502 -0.00000000000E+00 -0.00000000000E+00 -0.48745790605E+03  0.48745790605E+03  0.00000000000E+00 0. -1.
         25    1    1    2    0    0 -0.15734898063E+03 -0.12952181209E+03  0.96217071481E+02  0.25771559200E+03  0.12500000000E+03 0.  0.
         25    1    1    2    0    0 -0.12782514720E+03 -0.43859172772E+01 -0.12988594117E+03  0.22102909818E+03  0.12500000000E+03 0.  0.
         25    1    1    2    0    0  0.28517412783E+03  0.13390772937E+03 -0.10705652749E+03  0.35544572476E+03  0.12500000000E+03 0.  0.
</event>
<event>
 5    0  0.5619558E-005  0.3543575E+03  0.7546771E-02  0.1060841E+00
         21   -1    0    0  502  501  0.00000000000E+00  0.00000000000E+00  0.19624210471E+03  0.19624210471E+03  0.00000000000E+00 0.  1.
         21   -1    0    0  501  502 -0.00000000000E+00 -0.00000000000E+00 -0.63986889855E+03  0.63986889855E+03  0.00000000000E+00 0.  1.
         25    1    1    2    0    0  0.90355029070E+01 -0.24031164406E+02 -0.38669038759E+03  0.40720215254E+03  0.12500000000E+03 0.  0.
         25    1    1    2    0    0  0.88883806349E+02 -0.43925373658E+00  0.11641463218E+03  0.19255620104E+03  0.12500000000E+03 0.  0.
         25    1    1    2    0    0 -0.97919309256E+02  0.24470418142E+02 -0.17335103842E+03  0.23635264968E+03  0.12500000000E+03 0.  0.
</event>
<event>
 5    0  0.5619558E-005  0.2035708E+03  0.7546771E-02  0.1146761E+00
         21   -1    0    0  502  501  0.00000000000E+00  0.00000000000E+00  0.44620279441E+02  0.44620279441E+02  0.00000000000E+00 0.  1.
         21   -1    0    0  501  502 -0.00000000000E+00 -0.00000000000E+00 -0.92874994483E+03  0.92874994483E+03  0.00000000000E+00 0.  1.
         25    1    1    2    0    0  0.15876456404E+02  0.19910370721E+02 -0.28664967066E+03  0.31375391380E+03  0.12500000000E+03 0.  0.
         25    1    1    2    0    0 -0.35559343385E+02  0.18641911970E+02 -0.18804518937E+03  0.22934249721E+03  0.12500000000E+03 0.  0.
         25    1    1    2    0    0  0.19682886982E+02 -0.38552282691E+02 -0.40943480536E+03  0.43027381326E+03  0.12500000000E+03 0.  0.
</event>
<event>
 5    0  0.6355675E-005  0.5470254E+03  0.7546771E-02  0.1002185E+00
         21   -1    0    0  502  501  0.00000000000E+00  0.00000000000E+00  0.27522796402E+03  0.27522796402E+03  0.00000000000E+00 0. -1.
         21   -1    0    0  501  502 -0.00000000000E+00 -0.00000000000E+00 -0.10872325821E+04  0.10872325821E+04  0.00000000000E+00 0. -1.
         25    1    1    2    0    0 -0.93742992306E+02 -0.36758878575E+03 -0.31416517045E+03  0.50816731333E+03  0.12500000000E+03 0.  0.
         25    1    1    2    0    0  0.28328865697E+03  0.14633457826E+03 -0.39092330177E+03  0.51972329159E+03  0.12500000000E+03 0.  0.
         25    1    1    2    0    0 -0.18954566466E+03  0.22125420748E+03 -0.10691614588E+03  0.33456994122E+03  0.12500000000E+03 0.  0.
</event>
<event>
 5    0  0.5619558E-005  0.2545095E+03  0.7546771E-02  0.1110488E+00
         21   -1    0    0  502  501  0.00000000000E+00  0.00000000000E+00  0.16979172302E+04  0.16979172302E+04  0.00000000000E+00 0. -1.
         21   -1    0    0  501  502 -0.00000000000E+00 -0.00000000000E+00 -0.38149719277E+02  0.38149719277E+02  0.00000000000E+00 0. -1.
         25    1    1    2    0    0  0.99623568907E+02 -0.71401958413E+02  0.61892157371E+03  0.64320448502E+03  0.12500000000E+03 0.  0.
         25    1    1    2    0    0 -0.10913859548E+03  0.10004507998E+03  0.75421568546E+03  0.77870825810E+03  0.12500000000E+03 0.  0.
         25    1    1    2    0    0  0.95150265728E+01 -0.28643121567E+02  0.28663025171E+03  0.31415420631E+03  0.12500000000E+03 0.  0.
</event>
<event>
 5    0  0.5619558E-005  0.3485483E+03  0.7546771E-02  0.1063212E+00
         21   -1    0    0  502  501  0.00000000000E+00  0.00000000000E+00  0.21620185638E+03  0.21620185638E+03  0.00000000000E+00 0.  1.
         21   -1    0    0  501  502 -0.00000000000E+00 -0.00000000000E+00 -0.56190960566E+03  0.56190960566E+03  0.00000000000E+00 0.  1.
         25    1    1    2    0    0 -0.20751318255E+03  0.46080081864E+02 -0.50016191353E+02  0.25161819146E+03  0.12500000000E+03 0.  0.
         25    1    1    2    0    0  0.19816244966E+03  0.58826610137E+02 -0.26783738720E+03  0.36068101211E+03  0.12500000000E+03 0.  0.
         25    1    1    2    0    0  0.93507328886E+01 -0.10490669200E+03 -0.27854170728E+02  0.16581225847E+03  0.12500000000E+03 0.  0.
</event>
<event>
 5    0  0.5619558E-005  0.2786365E+03  0.7546771E-02  0.1096436E+00
         21   -1    0    0  502  501  0.00000000000E+00  0.00000000000E+00  0.26280271918E+03  0.26280271918E+03  0.00000000000E+00 0.  1.
         21   -1    0    0  501  502 -0.00000000000E+00 -0.00000000000E+00 -0.29542433578E+03  0.29542433578E+03  0.00000000000E+00 0.  1.
         25    1    1    2    0    0 -0.70735390752E+02  0.52125359984E+02 -0.18238720036E+01  0.15280338729E+03  0.12500000000E+03 0.  0.
         25    1    1    2    0    0  0.14717889992E+03 -0.13404900164E+03 -0.34075315936E+02  0.23752240016E+03  0.12500000000E+03 0.  0.
         25    1    1    2    0    0 -0.76443509165E+02  0.81923641658E+02  0.32775713340E+01  0.16790126751E+03  0.12500000000E+03 0.  0.
</event>
<event>
 5    0  0.5619558E-005  0.3011807E+03  0.7546771E-02  0.1084652E+00
         21   -1    0    0  502  501  0.00000000000E+00  0.00000000000E+00  0.34840689336E+02  0.34840689336E+02  0.00000000000E+00 0.  1.
         21   -1    0    0  501  502 -0.00000000000E+00 -0.00000000000E+00 -0.26035600181E+04  0.26035600181E+04  0.00000000000E+00 0.  1.
         25    1    1    2    0    0 -0.57929638886E+02 -0.69984626045E+02 -0.32242157004E+03  0.35753931221E+03  0.12500000000E+03 0.  0.
         25    1    1    2    0    0  0.98768955696E+02  0.36090983751E+02 -0.43794910593E+03  0.46742088646E+03  0.12500000000E+03 0.  0.
         25    1    1    2    0    0 -0.40839316810E+02  0.33893642295E+02 -0.18083486528E+04  0.18134405088E+04  0.12500000000E+03 0.  0.
</event>
<event>
 5    0  0.5619558E-005  0.2998813E+03  0.7546771E-02  0.1085300E+00
         21   -1    0    0  502  501  0.00000000000E+00  0.00000000000E+00  0.54849957402E+03  0.54849957402E+03  0.00000000000E+00 0. -1.
         21   -1    0    0  501  502 -0.00000000000E+00 -0.00000000000E+00 -0.16395413180E+03  0.16395413180E+03  0.00000000000E+00 0.  1.
         25    1    1    2    0    0 -0.14726197004E+03 -0.71840620432E+02  0.15377700402E+03  0.25713718037E+03  0.12500000000E+03 0.  0.
         25    1    1    2    0    0  0.13428883557E+03  0.47365148007E+02 -0.21928755947E+01  0.18949078423E+03  0.12500000000E+03 0.  0.
         25    1    1    2    0    0  0.12973134466E+02  0.24475472425E+02  0.23296131380E+03  0.26582574122E+03  0.12500000000E+03 0.  0.
</event>
<event>
 5    0  0.5619558E-005  0.2510819E+03  0.7546771E-02  0.1112623E+00
         21   -1    0    0  502  501  0.00000000000E+00  0.00000000000E+00  0.22686941567E+03  0.22686941567E+03  0.00000000000E+00 0.  1.
         21   -1    0    0  501  502 -0.00000000000E+00 -0.00000000000E+00 -0.27787851695E+03  0.27787851695E+03  0.00000000000E+00 0.  1.
         25    1    1    2    0    0 -0.85383570905E+02 -0.61717542182E+02 -0.24909302585E+02  0.16536288141E+03  0.12500000000E+03 0.  0.
         25    1    1    2    0    0  0.49236510846E+02 -0.34049598564E+02 -0.90426682766E+02  0.16548593330E+03  0.12500000000E+03 0.  0.
         25    1    1    2    0    0  0.36147060058E+02  0.95767140746E+02  0.64326884063E+02  0.17389911791E+03  0.12500000000E+03 0.  0.
</event>
<event>
 5    0  0.5619558E-005  0.3505168E+03  0.7546771E-02  0.1062403E+00
         21   -1    0    0  502  501  0.00000000000E+00  0.00000000000E+00  0.23122316488E+03  0.23122316488E+03  0.00000000000E+00 0. -1.
         21   -1    0    0  501  502 -0.00000000000E+00 -0.00000000000E+00 -0.53135696225E+03  0.53135696225E+03  0.00000000000E+00 0. -1.
         25    1    1    2    0    0  0.28565210010E+02  0.17272970249E+03 -0.32851954625E+03  0.39268513292E+03  0.12500000000E+03 0.  0.
         25    1    1    2    0    0  0.89876132671E+01 -0.21871784242E+02  0.95881570494E+02  0.15930294316E+03  0.12500000000E+03 0.  0.
         25    1    1    2    0    0 -0.37552823277E+02 -0.15085791824E+03 -0.67495821612E+02  0.21059205106E+03  0.12500000000E+03 0.  0.
</event>
<event>
 5    0  0.5619558E-005  0.2424978E+03  0.7546771E-02  0.1118140E+00
         21   -1    0    0  502  501  0.00000000000E+00  0.00000000000E+00  0.36630172328E+03  0.36630172328E+03  0.00000000000E+00 0. -1.
         21   -1    0    0  501  502 -0.00000000000E+00 -0.00000000000E+00 -0.16053749949E+03  0.16053749949E+03  0.00000000000E+00 0. -1.
         25    1    1    2    0    0  0.75760604265E+02  0.58117538032E+02  0.17130635683E+03  0.23256866787E+03  0.12500000000E+03 0.  0.
         25    1    1    2    0    0 -0.91541827517E+01 -0.30465740206E+02  0.68431609196E+02  0.14601316901E+03  0.12500000000E+03 0.  0.
         25    1    1    2    0    0 -0.66606421513E+02 -0.27651797826E+02 -0.33973742229E+02  0.14825738589E+03  0.12500000000E+03 0.  0.
</event>
<event>
 5    0  0.5619558E-005  0.4776480E+03  0.7546771E-02  0.1019784E+00
         21   -1    0    0  502  501  0.00000000000E+00  0.00000000000E+00  0.63687136517E+03  0.63687136517E+03  0.00000000000E+00 0. -1.
         21   -1    0    0  501  502 -0.00000000000E+00 -0.00000000000E+00 -0.35823179580E+03  0.35823179580E+03  0.00000000000E+00 0. -1.
         25    1    1    2    0    0 -0.26550924711E+03 -0.52092723167E+02  0.36423420549E+02  0.30026734367E+03  0.12500000000E+03 0.  0.
         25    1    1    2    0    0  0.39107574261E+03  0.11629563698E+03  0.26908785868E+03  0.50447813365E+03  0.12500000000E+03 0.  0.
         25    1    1    2    0    0 -0.12556649550E+03 -0.64202913808E+02 -0.26871709855E+02  0.19035768365E+03  0.12500000000E+03 0.  0.
</event>
<event>
 5    0  0.5619558E-005  0.3242328E+03  0.7546771E-02  0.1073718E+00
         21   -1    0    0  502  501  0.00000000000E+00  0.00000000000E+00  0.51012160974E+03  0.51012160974E+03  0.00000000000E+00 0.  1.
         21   -1    0    0  501  502 -0.00000000000E+00 -0.00000000000E+00 -0.20608203940E+03  0.20608203940E+03  0.00000000000E+00 0.  1.
         25    1    1    2    0    0 -0.53541587542E+02 -0.18182300712E+03  0.71843017193E+01  0.22716276479E+03  0.12500000000E+03 0.  0.
         25    1    1    2    0    0 -0.84720746729E+02  0.11785498628E+03  0.14375113004E+03  0.23949277672E+03  0.12500000000E+03 0.  0.
         25    1    1    2    0    0  0.13826233427E+03  0.63968020843E+02  0.15310413859E+03  0.24954810763E+03  0.12500000000E+03 0.  0.
</event>
<event>
 5    0  0.5619558E-005  0.2435028E+03  0.7546771E-02  0.1117481E+00
         21   -1    0    0  502  501  0.00000000000E+00  0.00000000000E+00  0.25926287939E+03  0.25926287939E+03  0.00000000000E+00 0. -1.
         21   -1    0    0  501  502 -0.00000000000E+00 -0.00000000000E+00 -0.22870070720E+03  0.22870070720E+03  0.00000000000E+00 0. -1.
         25    1    1    2    0    0  0.60045106528E+02  0.10638777973E+03 -0.17838676508E+02  0.17569004774E+03  0.12500000000E+03 0.  0.
         25    1    1    2    0    0 -0.67828408028E+02 -0.37274402310E+02 -0.28664209083E+02  0.14978888772E+03  0.12500000000E+03 0.  0.
         25    1    1    2    0    0  0.77833014999E+01 -0.69113377421E+02  0.77065057777E+02  0.16248465112E+03  0.12500000000E+03 0.  0.
</event>
<event>
 5    0  0.5619558E-005  0.3834572E+03  0.7546771E-02  0.1049663E+00
         21   -1    0    0  502  501  0.00000000000E+00  0.00000000000E+00  0.40330208760E+03  0.40330208760E+03  0.00000000000E+00 0.  1.
         21   -1    0    0  501  502 -0.00000000000E+00 -0.00000000000E+00 -0.36458886011E+03  0.36458886011E+03  0.00000000000E+00 0.  1.
         25    1    1    2    0    0 -0.10112590273E+03 -0.20703951336E+03  0.94478067721E+02  0.27864478028E+03  0.12500000000E+03 0.  0.
         25    1    1    2    0    0  0.22057939284E+03  0.15571714642E+03 -0.77825067145E+02  0.30754648317E+03  0.12500000000E+03 0.  0.
         25    1    1    2    0    0 -0.11945349010E+03  0.51322366940E+02  0.22060226913E+02  0.18169968425E+03  0.12500000000E+03 0.  0.
</event>
<event>
 5    0  0.5619558E-005  0.3027169E+03  0.7546771E-02  0.1083890E+00
         21   -1    0    0  502  501  0.00000000000E+00  0.00000000000E+00  0.30236942561E+03  0.30236942561E+03  0.00000000000E+00 0.  1.
         21   -1    0    0  501  502 -0.00000000000E+00 -0.00000000000E+00 -0.30306474515E+03  0.30306474515E+03  0.00000000000E+00 0.  1.
         25    1    1    2    0    0  0.15458094122E+03  0.10075810121E+02 -0.91854973221E+02  0.21922391622E+03  0.12500000000E+03 0.  0.
         25    1    1    2    0    0 -0.16195062150E+03  0.66371559581E+01 -0.35018662519E+02  0.20766165358E+03  0.12500000000E+03 0.  0.
         25    1    1    2    0    0  0.73696802851E+01 -0.16712966079E+02  0.12617831620E+03  0.17854860095E+03  0.12500000000E+03 0.  0.
</event>
<event>
 5    0  0.5619558E-005  0.3442931E+03  0.7546771E-02  0.1064982E+00
         21   -1    0    0  502  501  0.00000000000E+00  0.00000000000E+00  0.16650007204E+03  0.16650007204E+03  0.00000000000E+00 0. -1.
         21   -1    0    0  501  502 -0.00000000000E+00 -0.00000000000E+00 -0.71193814287E+03  0.71193814287E+03  0.00000000000E+00 0. -1.
         25    1    1    2    0    0  0.80562109360E+02  0.23470208473E+03 -0.24770697028E+03  0.37223522827E+03  0.12500000000E+03 0.  0.
         25    1    1    2    0    0 -0.21383158735E+02 -0.15070560210E+03 -0.28152231430E+03  0.34358293240E+03  0.12500000000E+03 0.  0.
         25    1    1    2    0    0 -0.59178950624E+02 -0.83996482627E+02 -0.16208786242E+02  0.16262005424E+03  0.12500000000E+03 0.  0.
</event>
<event>
 5    0  0.5619558E-005  0.2869701E+03  0.7546771E-02  0.1091942E+00
         21   -1    0    0  502  501  0.00000000000E+00  0.00000000000E+00  0.13543907334E+03  0.13543907334E+03  0.00000000000E+00 0.  1.
         21   -1    0    0  501  502 -0.00000000000E+00 -0.00000000000E+00 -0.60803601567E+03  0.60803601567E+03  0.00000000000E+00 0.  1.
         25    1    1    2    0    0  0.12835476811E+03  0.89310492887E+02 -0.11998076218E+03  0.23339171779E+03  0.12500000000E+03 0.  0.
         25    1    1    2    0    0 -0.15726781246E+03  0.36916260991E+00 -0.13509472420E+03  0.24209272113E+03  0.12500000000E+03 0.  0.
         25    1    1    2    0    0  0.28913044345E+02 -0.89679655497E+02 -0.21752145594E+03  0.26799065010E+03  0.12500000000E+03 0.  0.
</event>
<event>
 5    0  0.5619558E-005  0.3093183E+03  0.7546771E-02  0.1080673E+00
         21   -1    0    0  502  501  0.00000000000E+00  0.00000000000E+00  0.46259688116E+03  0.46259688116E+03  0.00000000000E+00 0.  1.
         21   -1    0    0  501  502 -0.00000000000E+00 -0.00000000000E+00 -0.20682755657E+03  0.20682755657E+03  0.00000000000E+00 0.  1.
         25    1    1    2    0    0  0.12275064129E+03  0.68583065860E+02  0.84983957958E+01  0.18833103725E+03  0.12500000000E+03 0.  0.
         25    1    1    2    0    0  0.94056216242E+02 -0.29166537350E+02  0.87975333669E+02  0.18182936520E+03  0.12500000000E+03 0.  0.
         25    1    1    2    0    0 -0.21680685753E+03 -0.39416528510E+02  0.15929559512E+03  0.29926403529E+03  0.12500000000E+03 0.  0.
</event>
<event>
 5    0  0.5619558E-005  0.3110445E+03  0.7546771E-02  0.1079846E+00
         21   -1    0    0  502  501  0.00000000000E+00  0.00000000000E+00  0.48617491620E+03  0.48617491620E+03  0.00000000000E+00 0. -1.
         21   -1    0    0  501  502 -0.00000000000E+00 -0.00000000000E+00 -0.19899975187E+03  0.19899975187E+03  0.00000000000E+00 0. -1.
         25    1    1    2    0    0 -0.12339406570E+03  0.99265121850E+01 -0.44675695160E+02  0.18150908747E+03  0.12500000000E+03 0.  0.
         25    1    1    2    0    0  0.12494305001E+03 -0.81760224641E+02  0.29731123370E+03  0.35540747004E+03  0.12500000000E+03 0.  0.
         25    1    1    2    0    0 -0.15489843118E+01  0.71833712456E+02  0.34539625788E+02  0.14825811056E+03  0.12500000000E+03 0.  0.
</event>
<event>
 5    0  0.5619558E-005  0.2724703E+03  0.7546771E-02  0.1099874E+00
         21   -1    0    0  502  501  0.00000000000E+00  0.00000000000E+00  0.14637533023E+03  0.14637533023E+03  0.00000000000E+00 0. -1.
         21   -1    0    0  501  502 -0.00000000000E+00 -0.00000000000E+00 -0.50718967879E+03  0.50718967879E+03  0.00000000000E+00 0. -1.
         25    1    1    2    0    0 -0.85950647620E+02  0.13165724693E+02 -0.25317533520E+03  0.29543798078E+03  0.12500000000E+03 0.  0.
         25    1    1    2    0    0  0.39286688663E+02  0.76828991016E+02  0.19351083517E+02  0.15311956831E+03  0.12500000000E+03 0.  0.
         25    1    1    2    0    0  0.46663958958E+02 -0.89994715709E+02 -0.12699009687E+03  0.20500745992E+03  0.12500000000E+03 0.  0.
</event>
<event>
 5    0  0.2450002E-004  0.7430351E+03  0.7546771E-02  0.9646341E-01
         21   -1    0    0  502  501  0.00000000000E+00  0.00000000000E+00  0.22652681175E+04  0.22652681175E+04  0.00000000000E+00 0. -1.
         21   -1    0    0  501  502 -0.00000000000E+00 -0.00000000000E+00 -0.24372439757E+03  0.24372439757E+03  0.00000000000E+00 0. -1.
         25    1    1    2    0    0 -0.39304679371E+03  0.24518647412E+03  0.47346891602E+03  0.67409198451E+03  0.12500000000E+03 0.  0.
         25    1    1    2    0    0 -0.13290888773E+03 -0.21985249529E+03  0.12398941258E+03  0.31144544716E+03  0.12500000000E+03 0.  0.
         25    1    1    2    0    0  0.52595568144E+03 -0.25333978835E+02  0.14240853913E+04  0.15234550834E+04  0.12500000000E+03 0.  0.
</event>
<event>
 5    0  0.5619558E-005  0.4529445E+03  0.7546771E-02  0.1026848E+00
         21   -1    0    0  502  501  0.00000000000E+00  0.00000000000E+00  0.16798074073E+04  0.16798074073E+04  0.00000000000E+00 0.  1.
         21   -1    0    0  501  502 -0.00000000000E+00 -0.00000000000E+00 -0.12213226392E+03  0.12213226392E+03  0.00000000000E+00 0.  1.
         25    1    1    2    0    0  0.31483224640E+03 -0.18654522487E+03  0.95804861811E+03  0.10331508210E+04  0.12500000000E+03 0.  0.
         25    1    1    2    0    0 -0.18211224936E+03  0.11858040344E+03  0.47679529890E+03  0.53868816629E+03  0.12500000000E+03 0.  0.
         25    1    1    2    0    0 -0.13271999704E+03  0.67964821432E+02  0.12283122634E+03  0.23010068390E+03  0.12500000000E+03 0.  0.
</event>
<event>
 5    0  0.5619558E-005  0.3050103E+03  0.7546771E-02  0.1082762E+00
         21   -1    0    0  502  501  0.00000000000E+00  0.00000000000E+00  0.62777581599E+02  0.62777581599E+02  0.00000000000E+00 0.  1.
         21   -1    0    0  501  502 -0.00000000000E+00 -0.00000000000E+00 -0.14819190333E+04  0.14819190333E+04  0.00000000000E+00 0.  1.
         25    1    1    2    0    0  0.48197786693E+02 -0.12233111344E+03 -0.66894121321E+03  0.69310552926E+03  0.12500000000E+03 0.  0.
         25    1    1    2    0    0  0.11106728361E+03  0.11001587919E+03 -0.37377049393E+03  0.42399152974E+03  0.12500000000E+03 0.  0.
         25    1    1    2    0    0 -0.15926507030E+03  0.12315234243E+02 -0.37642974457E+03  0.42759955590E+03  0.12500000000E+03 0.  0.
</event>
<event>
 5    0  0.5619558E-005  0.4204283E+03  0.7546771E-02  0.1036927E+00
         21   -1    0    0  502  501  0.00000000000E+00  0.00000000000E+00  0.27173518037E+03  0.27173518037E+03  0.00000000000E+00 0. -1.
         21   -1    0    0  501  502 -0.00000000000E+00 -0.00000000000E+00 -0.65048594348E+03  0.65048594348E+03  0.00000000000E+00 0. -1.
         25    1    1    2    0    0  0.16449050812E+03  0.19711734668E+03  0.37461305965E+02  0.28799431430E+03  0.12500000000E+03 0.  0.
         25    1    1    2    0    0 -0.25025689313E+03 -0.97866284045E+02 -0.23827154690E+03  0.38026918383E+03  0.12500000000E+03 0.  0.
         25    1    1    2    0    0  0.85766385012E+02 -0.99251062639E+02 -0.17794052217E+03  0.25395762572E+03  0.12500000000E+03 0.  0.
</event>
<event>
 5    0  0.5619558E-005  0.2946600E+03  0.7546771E-02  0.1087941E+00
         21   -1    0    0  502  501  0.00000000000E+00  0.00000000000E+00  0.24879067664E+03  0.24879067664E+03  0.00000000000E+00 0. -1.
         21   -1    0    0  501  502 -0.00000000000E+00 -0.00000000000E+00 -0.34898631591E+03  0.34898631591E+03  0.00000000000E+00 0. -1.
         25    1    1    2    0    0  0.73983804686E+02  0.16872740160E+03  0.86377779183E+01  0.22280518534E+03  0.12500000000E+03 0.  0.
         25    1    1    2    0    0  0.33595243860E+02 -0.30214901114E+02 -0.86190961711E+02  0.15841547443E+03  0.12500000000E+03 0.  0.
         25    1    1    2    0    0 -0.10757904855E+03 -0.13851250049E+03 -0.22642455476E+02  0.21655633278E+03  0.12500000000E+03 0.  0.
</event>
<event>
 5    0  0.5619558E-005  0.2182239E+03  0.7546771E-02  0.1135214E+00
         21   -1    0    0  502  501  0.00000000000E+00  0.00000000000E+00  0.52891712146E+03  0.52891712146E+03  0.00000000000E+00 0. -1.
         21   -1    0    0  501  502 -0.00000000000E+00 -0.00000000000E+00 -0.90036158544E+02  0.90036158544E+02  0.00000000000E+00 0. -1.
         25    1    1    2    0    0  0.61955885874E+01 -0.29381482215E+02  0.17917147045E+03  0.22052000507E+03  0.12500000000E+03 0.  0.
         25    1    1    2    0    0 -0.32510553178E+02  0.25096915307E+02  0.29070456414E+02  0.13474747739E+03  0.12500000000E+03 0.  0.
         25    1    1    2    0    0  0.26314964591E+02  0.42845669078E+01  0.23063903606E+03  0.26368579755E+03  0.12500000000E+03 0.  0.
</event>
<event>
 5    0  0.5619558E-005  0.4528337E+03  0.7546771E-02  0.1026880E+00
         21   -1    0    0  502  501  0.00000000000E+00  0.00000000000E+00  0.50710399993E+03  0.50710399993E+03  0.00000000000E+00 0.  1.
         21   -1    0    0  501  502 -0.00000000000E+00 -0.00000000000E+00 -0.40437134715E+03  0.40437134715E+03  0.00000000000E+00 0.  1.
         25    1    1    2    0    0  0.12903539614E+03  0.16317404125E+03  0.32414275692E+02  0.24485013062E+03  0.12500000000E+03 0.  0.
         25    1    1    2    0    0 -0.19628461176E+03 -0.33610438485E+03  0.14030721841E+03  0.43220934958E+03  0.12500000000E+03 0.  0.
         25    1    1    2    0    0  0.67249215618E+02  0.17293034360E+03 -0.69988841319E+02  0.23441586689E+03  0.12500000000E+03 0.  0.
</event>
<event>
 5    0  0.5619558E-005  0.2228975E+03  0.7546771E-02  0.1131741E+00
         21   -1    0    0  502  501  0.00000000000E+00  0.00000000000E+00  0.87149539829E+03  0.87149539829E+03  0.00000000000E+00 0.  1.
         21   -1    0    0  501  502 -0.00000000000E+00 -0.00000000000E+00 -0.57009234197E+02  0.57009234197E+02  0.00000000000E+00 0.  1.
         25    1    1    2    0    0 -0.28821230342E+02  0.81858308809E+02  0.44789314953E+03  0.47303775689E+03  0.12500000000E+03 0.  0.
         25    1    1    2    0    0 -0.34478355839E+01 -0.28266271376E+02  0.20521549237E+03  0.24196956002E+03  0.12500000000E+03 0.  0.
         25    1    1    2    0    0  0.32269065926E+02 -0.53592037433E+02  0.16137752219E+03  0.21349731558E+03  0.12500000000E+03 0.  0.
</event>
<event>
 5    0  0.5619558E-005  0.3801521E+03  0.7546771E-02  0.1050878E+00
         21   -1    0    0  502  501  0.00000000000E+00  0.00000000000E+00  0.14067763096E+03  0.14067763096E+03  0.00000000000E+00 0.  1.
         21   -1    0    0  501  502 -0.00000000000E+00 -0.00000000000E+00 -0.10272821354E+04  0.10272821354E+04  0.00000000000E+00 0.  1.
         25    1    1    2    0    0  0.55232061450E+02 -0.51010547138E+02 -0.55930453093E+02  0.15622378857E+03  0.12500000000E+03 0.  0.
         25    1    1    2    0    0 -0.14599935858E+03  0.25175013353E+03 -0.37936229429E+03  0.49420106512E+03  0.12500000000E+03 0.  0.
         25    1    1    2    0    0  0.90767297127E+02 -0.20073958640E+03 -0.45131175710E+03  0.51753491271E+03  0.12500000000E+03 0.  0.
</event>
<event>
 5    0  0.5619558E-005  0.3470396E+03  0.7546771E-02  0.1063837E+00
         21   -1    0    0  502  501  0.00000000000E+00  0.00000000000E+00  0.48844820938E+03  0.48844820938E+03  0.00000000000E+00 0.  1.
         21   -1    0    0  501  502 -0.00000000000E+00 -0.00000000000E+00 -0.24656959603E+03  0.24656959603E+03  0.00000000000E+00 0.  1.
         25    1    1    2    0    0 -0.68429306418E+02 -0.39036360438E+02  0.61126458292E+02  0.15989950380E+03  0.12500000000E+03 0.  0.
         25    1    1    2    0    0  0.12320780038E+03  0.17890160133E+03  0.26282670198E+03  0.36316500424E+03  0.12500000000E+03 0.  0.
         25    1    1    2    0    0 -0.54778493960E+02 -0.13986524090E+03 -0.82074546917E+02  0.21195329736E+03  0.12500000000E+03 0.  0.
</event>
<event>
 5    0  0.5619558E-005  0.3370937E+03  0.7546771E-02  0.1068041E+00
         21   -1    0    0  502  501  0.00000000000E+00  0.00000000000E+00  0.52951020226E+03  0.52951020226E+03  0.00000000000E+00 0. -1.
         21   -1    0    0  501  502 -0.00000000000E+00 -0.00000000000E+00 -0.21459864346E+03  0.21459864346E+03  0.00000000000E+00 0. -1.
         25    1    1    2    0    0 -0.61051892727E+02 -0.97794154440E+02  0.33710531511E+03  0.37756591971E+03  0.12500000000E+03 0.  0.
         25    1    1    2    0    0  0.80917147721E+02  0.16459836308E+03 -0.25281054857E+02  0.22339278784E+03  0.12500000000E+03 0.  0.
         25    1    1    2    0    0 -0.19865254995E+02 -0.66804208639E+02  0.30872985428E+01  0.14315013818E+03  0.12500000000E+03 0.  0.
</event>
<event>
 5    0  0.5619558E-005  0.3361314E+03  0.7546771E-02  0.1068456E+00
         21   -1    0    0  502  501  0.00000000000E+00  0.00000000000E+00  0.12397807171E+04  0.12397807171E+04  0.00000000000E+00 0. -1.
         21   -1    0    0  501  502 -0.00000000000E+00 -0.00000000000E+00 -0.91132510251E+02  0.91132510251E+02  0.00000000000E+00 0. -1.
         25    1    1    2    0    0 -0.11167777185E+03  0.10834454038E+03  0.59633708245E+03  0.62885084087E+03  0.12500000000E+03 0.  0.
         25    1    1    2    0    0  0.20534034416E+03 -0.90532052921E+01  0.37645582041E+03  0.44675564035E+03  0.12500000000E+03 0.  0.
         25    1    1    2    0    0 -0.93662572307E+02 -0.99291335092E+02  0.17585530396E+03  0.25530674611E+03  0.12500000000E+03 0.  0.
</event>
<event>
 5    0  0.5666021E-005  0.2595250E+03  0.7546771E-02  0.1107429E+00
         21   -1    0    0  502  501  0.00000000000E+00  0.00000000000E+00  0.32665066041E+03  0.32665066041E+03  0.00000000000E+00 0.  1.
         21   -1    0    0  501  502 -0.00000000000E+00 -0.00000000000E+00 -0.20619343489E+03  0.20619343489E+03  0.00000000000E+00 0.  1.
         25    1    1    2    0    0 -0.95798159208E+02  0.11071516552E+03  0.12262154696E+02  0.19290022193E+03  0.12500000000E+03 0.  0.
         25    1    1    2    0    0  0.11516412978E+03 -0.59494517607E+02  0.92882502487E+02  0.20261918389E+03  0.12500000000E+03 0.  0.
         25    1    1    2    0    0 -0.19365970571E+02 -0.51220647915E+02  0.15312568332E+02  0.13732468947E+03  0.12500000000E+03 0.  0.
</event>
<event>
 5    0  0.5619558E-005  0.3185782E+03  0.7546771E-02  0.1076306E+00
         21   -1    0    0  502  501  0.00000000000E+00  0.00000000000E+00  0.20202607057E+03  0.20202607057E+03  0.00000000000E+00 0.  1.
         21   -1    0    0  501  502 -0.00000000000E+00 -0.00000000000E+00 -0.50237127783E+03  0.50237127783E+03  0.00000000000E+00 0.  1.
         25    1    1    2    0    0  0.15641735950E+03  0.66692307183E+02 -0.12640885445E+03  0.24600498505E+03  0.12500000000E+03 0.  0.
         25    1    1    2    0    0  0.43765083330E+02  0.69517938534E+02 -0.83390902518E+02  0.17125177056E+03  0.12500000000E+03 0.  0.
         25    1    1    2    0    0 -0.20018244283E+03 -0.13621024572E+03 -0.90545450293E+02  0.28714059278E+03  0.12500000000E+03 0.  0.
</event>
<event>
 5    0  0.5619558E-005  0.4694828E+03  0.7546771E-02  0.1022066E+00
         21   -1    0    0  502  501  0.00000000000E+00  0.00000000000E+00  0.44661301791E+03  0.44661301791E+03  0.00000000000E+00 0.  1.
         21   -1    0    0  501  502 -0.00000000000E+00 -0.00000000000E+00 -0.49352375442E+03  0.49352375442E+03  0.00000000000E+00 0.  1.
         25    1    1    2    0    0  0.75545367223E+02 -0.17059790441E+03 -0.19938756088E+02  0.22546241703E+03  0.12500000000E+03 0.  0.
         25    1    1    2    0    0 -0.39134720334E+02  0.81750314314E+01 -0.32537144354E+03  0.35084175029E+03  0.12500000000E+03 0.  0.
         25    1    1    2    0    0 -0.36410646889E+02  0.16242287298E+03  0.29839946312E+03  0.36383260501E+03  0.12500000000E+03 0.  0.
</event>
<event>
 5    0  0.5619558E-005  0.4904392E+03  0.7546771E-02  0.1016305E+00
         21   -1    0    0  502  501  0.00000000000E+00  0.00000000000E+00  0.59621784044E+03  0.59621784044E+03  0.00000000000E+00 0.  1.
         21   -1    0    0  501  502 -0.00000000000E+00 -0.00000000000E+00 -0.40342732538E+03  0.40342732538E+03  0.00000000000E+00 0.  1.
         25    1    1    2    0    0  0.25141193174E+03 -0.65501195744E+02 -0.19004655131E+03  0.34531298517E+03  0.12500000000E+03 0.  0.
         25    1    1    2    0    0 -0.21234616019E+03 -0.16115221620E+02  0.42749482824E+03  0.49368757356E+03  0.12500000000E+03 0.  0.
         25    1    1    2    0    0 -0.39065771548E+02  0.81616417363E+02 -0.44657761869E+02  0.16064460708E+03  0.12500000000E+03 0.  0.
</event>
<event>
 5    0  0.5619558E-005  0.2993011E+03  0.7546771E-02  0.1085591E+00
         21   -1    0    0  502  501  0.00000000000E+00  0.00000000000E+00  0.15944540392E+03  0.15944540392E+03  0.00000000000E+00 0.  1.
         21   -1    0    0  501  502 -0.00000000000E+00 -0.00000000000E+00 -0.56182951586E+03  0.56182951586E+03  0.00000000000E+00 0.  1.
         25    1    1    2    0    0 -0.70893860888E+01  0.59448509472E+02  0.83777244018E+02  0.16195064461E+03  0.12500000000E+03 0.  0.
         25    1    1    2    0    0 -0.31022391003E+02 -0.14756427800E+02 -0.30591025652E+03  0.33224422636E+03  0.12500000000E+03 0.  0.
         25    1    1    2    0    0  0.38111777092E+02 -0.44692081673E+02 -0.18025109943E+03  0.22708004880E+03  0.12500000000E+03 0.  0.
</event>
<event>
 5    0  0.8277643E-005  0.3282485E+03  0.7546771E-02  0.1071914E+00
         21   -1    0    0  502  501  0.00000000000E+00  0.00000000000E+00  0.55911630755E+03  0.55911630755E+03  0.00000000000E+00 0.  1.
         21   -1    0    0  501  502 -0.00000000000E+00 -0.00000000000E+00 -0.19270962623E+03  0.19270962623E+03  0.00000000000E+00 0.  1.
         25    1    1    2    0    0  0.69207065344E+02 -0.69835603464E+02  0.38154414597E+03  0.41336130047E+03  0.12500000000E+03 0.  0.
         25    1    1    2    0    0  0.18996248686E+02 -0.40323339375E+02 -0.58484864991E+02  0.14502519986E+03  0.12500000000E+03 0.  0.
         25    1    1    2    0    0 -0.88203314031E+02  0.11015894284E+03  0.43347400342E+02  0.19343943344E+03  0.12500000000E+03 0.  0.
</event>
<event>
 5    0  0.5801879E-005  0.3377624E+03  0.7546771E-02  0.1067753E+00
         21   -1    0    0  502  501  0.00000000000E+00  0.00000000000E+00  0.30447776172E+03  0.30447776172E+03  0.00000000000E+00 0.  1.
         21   -1    0    0  501  502 -0.00000000000E+00 -0.00000000000E+00 -0.37468565509E+03  0.37468565509E+03  0.00000000000E+00 0.  1.
         25    1    1    2    0    0 -0.13703253652E+03  0.12646937613E+03  0.99117486765E+02  0.24540109076E+03  0.12500000000E+03 0.  0.
         25    1    1    2    0    0  0.19078218856E+03 -0.63166486043E+02 -0.49665334217E+02  0.24182533749E+03  0.12500000000E+03 0.  0.
         25    1    1    2    0    0 -0.53749652042E+02 -0.63302890092E+02 -0.11966004592E+03  0.19193698856E+03  0.12500000000E+03 0.  0.
</event>
<event>
 5    0  0.5619558E-005  0.3370457E+03  0.7546771E-02  0.1068061E+00
         21   -1    0    0  502  501  0.00000000000E+00  0.00000000000E+00  0.15457806709E+03  0.15457806709E+03  0.00000000000E+00 0.  1.
         21   -1    0    0  501  502 -0.00000000000E+00 -0.00000000000E+00 -0.73490265889E+03  0.73490265889E+03  0.00000000000E+00 0.  1.
         25    1    1    2    0    0  0.97650951260E+02 -0.43912831786E+02 -0.15715047480E+03  0.22756387412E+03  0.12500000000E+03 0.  0.
         25    1    1    2    0    0  0.38474520058E+02  0.21831585534E+03 -0.22442921626E+03  0.33931633397E+03  0.12500000000E+03 0.  0.
         25    1    1    2    0    0 -0.13612547132E+03 -0.17440302355E+03 -0.19874490074E+03  0.32260051788E+03  0.12500000000E+03 0.  0.
</event>
<event>
 5    0  0.5619558E-005  0.3062144E+03  0.7546771E-02  0.1082175E+00
         21   -1    0    0  502  501  0.00000000000E+00  0.00000000000E+00  0.59208433715E+03  0.59208433715E+03  0.00000000000E+00 0. -1.
         21   -1    0    0  501  502 -0.00000000000E+00 -0.00000000000E+00 -0.15836807564E+03  0.15836807564E+03  0.00000000000E+00 0. -1.
         25    1    1    2    0    0 -0.18727285500E+03 -0.99677186142E+02  0.21716294716E+03  0.32831602044E+03  0.12500000000E+03 0.  0.
         25    1    1    2    0    0  0.12940447165E+03  0.12699550508E+03  0.11204644785E+03  0.24708861178E+03  0.12500000000E+03 0.  0.
         25    1    1    2    0    0  0.57868383344E+02 -0.27318318936E+02  0.10450686649E+03  0.17504778058E+03  0.12500000000E+03 0.  0.
</event>
<event>
 5    0  0.5619558E-005  0.2528798E+03  0.7546771E-02  0.1111498E+00
         21   -1    0    0  502  501  0.00000000000E+00  0.00000000000E+00  0.57871685118E+02  0.57871685118E+02  0.00000000000E+00 0. -1.
         21   -1    0    0  501  502 -0.00000000000E+00 -0.00000000000E+00 -0.11049993318E+04  0.11049993318E+04  0.00000000000E+00 0. -1.
         25    1    1    2    0    0 -0.49640369175E+02  0.51494357146E+02 -0.62423206409E+03  0.64062977210E+03  0.12500000000E+03 0.  0.
         25    1    1    2    0    0  0.18254914387E+02 -0.50586399895E+02 -0.84614566452E+02  0.16023997819E+03  0.12500000000E+03 0.  0.
         25    1    1    2    0    0  0.31385454788E+02 -0.90795725074E+00 -0.33828101616E+03  0.36200126665E+03  0.12500000000E+03 0.  0.
</event>
<event>
 5    0  0.6667707E-005  0.3200597E+03  0.7546771E-02  0.1075622E+00
         21   -1    0    0  502  501  0.00000000000E+00  0.00000000000E+00  0.24081220689E+03  0.24081220689E+03  0.00000000000E+00 0. -1.
         21   -1    0    0  501  502 -0.00000000000E+00 -0.00000000000E+00 -0.42538617609E+03  0.42538617609E+03  0.00000000000E+00 0. -1.
         25    1    1    2    0    0  0.38682398731E+02 -0.13417407716E+03 -0.85173530944E+02  0.20586048996E+03  0.12500000000E+03 0.  0.
         25    1    1    2    0    0 -0.12000301601E+03  0.16711326702E+03 -0.16734773578E+03  0.29318566222E+03  0.12500000000E+03 0.  0.
         25    1    1    2    0    0  0.81320617278E+02 -0.32939189859E+02  0.67947297520E+02  0.16715223081E+03  0.12500000000E+03 0.  0.
</event>
<event>
 5    0  0.5619558E-005  0.2806746E+03  0.7546771E-02  0.1095321E+00
         21   -1    0    0  502  501  0.00000000000E+00  0.00000000000E+00  0.16979965435E+03  0.16979965435E+03  0.00000000000E+00 0. -1.
         21   -1    0    0  501  502 -0.00000000000E+00 -0.00000000000E+00 -0.46394805631E+03  0.46394805631E+03  0.00000000000E+00 0. -1.
         25    1    1    2    0    0 -0.18482221294E+02 -0.17497741088E+01  0.19063815812E+02  0.12780095182E+03  0.12500000000E+03 0.  0.
         25    1    1    2    0    0  0.43718717236E+02 -0.90113054763E+01 -0.34872881398E+03  0.37313444703E+03  0.12500000000E+03 0.  0.
         25    1    1    2    0    0 -0.25236495943E+02  0.10761079585E+02  0.35516596211E+02  0.13281231181E+03  0.12500000000E+03 0.  0.
</event>
<event>
 5    0  0.5619558E-005  0.3941064E+03  0.7546771E-02  0.1045840E+00
         21   -1    0    0  502  501  0.00000000000E+00  0.00000000000E+00  0.16850954616E+04  0.16850954616E+04  0.00000000000E+00 0.  1.
         21   -1    0    0  501  502 -0.00000000000E+00 -0.00000000000E+00 -0.92172740024E+02  0.92172740024E+02  0.00000000000E+00 0.  1.
         25    1    1    2    0    0  0.58199777965E+02  0.23634261732E+03  0.24547216128E+03  0.36759574111E+03  0.12500000000E+03 0.  0.
         25    1    1    2    0    0 -0.10693674877E+03 -0.21963994935E+03  0.79925293317E+03  0.84504877183E+03  0.12500000000E+03 0.  0.
         25    1    1    2    0    0  0.48736970805E+02 -0.16702667967E+02  0.54819762716E+03  0.56462368872E+03  0.12500000000E+03 0.  0.
</event>
<event>
 5    0  0.5619558E-005  0.2720844E+03  0.7546771E-02  0.1100093E+00
         21   -1    0    0  502  501  0.00000000000E+00  0.00000000000E+00  0.41748301386E+04  0.41748301386E+04  0.00000000000E+00 0. -1.
         21   -1    0    0  501  502 -0.00000000000E+00 -0.00000000000E+00 -0.17732438396E+02  0.17732438396E+02  0.00000000000E+00 0. -1.
         25    1    1    2    0    0 -0.33373692221E+02  0.21743451223E+02  0.60912119153E+03  0.62308924479E+03  0.12500000000E+03 0.  0.
         25    1    1    2    0    0 -0.18997045970E+02 -0.12690711200E+01  0.42302795324E+03  0.44152026852E+03  0.12500000000E+03 0.  0.
         25    1    1    2    0    0  0.52370738191E+02 -0.20474380103E+02  0.31249485554E+04  0.31279530637E+04  0.12500000000E+03 0.  0.
</event>
<event>
 5    0  0.5863531E-005  0.3451294E+03  0.7546771E-02  0.1064632E+00
         21   -1    0    0  502  501  0.00000000000E+00  0.00000000000E+00  0.40838672082E+03  0.40838672082E+03  0.00000000000E+00 0.  1.
         21   -1    0    0  501  502 -0.00000000000E+00 -0.00000000000E+00 -0.29167037343E+03  0.29167037343E+03  0.00000000000E+00 0.  1.
         25    1    1    2    0    0 -0.31671843005E+01 -0.86179026051E+02  0.18775224091E+03  0.24148035025E+03  0.12500000000E+03 0.  0.
         25    1    1    2    0    0 -0.12824598190E+02 -0.25882626253E+02 -0.20593077294E+03  0.24262494494E+03  0.12500000000E+03 0.  0.
         25    1    1    2    0    0  0.15991782491E+02  0.11206165230E+03  0.13489487942E+03  0.21595179906E+03  0.12500000000E+03 0.  0.
</event>
<event>
 5    0  0.5619558E-005  0.5088153E+03  0.7546771E-02  0.1011503E+00
         21   -1    0    0  502  501  0.00000000000E+00  0.00000000000E+00  0.99193116698E+03  0.99193116698E+03  0.00000000000E+00 0.  1.
         21   -1    0    0  501  502 -0.00000000000E+00 -0.00000000000E+00 -0.26099891702E+03  0.26099891702E+03  0.00000000000E+00 0.  1.
         25    1    1    2    0    0 -0.34606068611E+03  0.13564359643E+03  0.44238101940E+03  0.59117099899E+03  0.12500000000E+03 0.  0.
         25    1    1    2    0    0  0.13195328406E+03 -0.99238641903E+02  0.34732428106E+03  0.40437499111E+03  0.12500000000E+03 0.  0.
         25    1    1    2    0    0  0.21410740205E+03 -0.36404954531E+02 -0.58773050495E+02  0.25738409390E+03  0.12500000000E+03 0.  0.
</event>
<event>
 5    0  0.5619558E-005  0.4523912E+03  0.7546771E-02  0.1027011E+00
         21   -1    0    0  502  501  0.00000000000E+00  0.00000000000E+00  0.27988311988E+03  0.27988311988E+03  0.00000000000E+00 0.  1.
         21   -1    0    0  501  502 -0.00000000000E+00 -0.00000000000E+00 -0.73122593078E+03  0.73122593078E+03  0.00000000000E+00 0.  1.
         25    1    1    2    0    0  0.19845716387E+03  0.63581943673E+02 -0.50824559175E+03  0.56335290093E+03  0.12500000000E+03 0.  0.
         25    1    1    2    0    0 -0.12417919969E+03  0.30005212091E+02  0.16547924063E+03  0.24357578998E+03  0.12500000000E+03 0.  0.
         25    1    1    2    0    0 -0.74277964185E+02 -0.93587155764E+02 -0.10857645978E+03  0.20418035974E+03  0.12500000000E+03 0.  0.
</event>
<event>
 5    0  0.5619558E-005  0.2956211E+03  0.7546771E-02  0.1087450E+00
         21   -1    0    0  502  501  0.00000000000E+00  0.00000000000E+00  0.14675746295E+03  0.14675746295E+03  0.00000000000E+00 0. -1.
         21   -1    0    0  501  502 -0.00000000000E+00 -0.00000000000E+00 -0.59548470751E+03  0.59548470751E+03  0.00000000000E+00 0. -1.
         25    1    1    2    0    0 -0.16516402876E+03 -0.58308818743E+01 -0.33892653886E+02  0.20996872997E+03  0.12500000000E+03 0.  0.
         25    1    1    2    0    0  0.74808728103E+02  0.74871141421E+02 -0.22183646373E+03  0.27575070310E+03  0.12500000000E+03 0.  0.
         25    1    1    2    0    0  0.90355300657E+02 -0.69040259547E+02 -0.19299812694E+03  0.25652273739E+03  0.12500000000E+03 0.  0.
</event>
<event>
 5    0  0.5619558E-005  0.5904495E+03  0.7546771E-02  0.9925421E-01
         21   -1    0    0  502  501  0.00000000000E+00  0.00000000000E+00  0.28082400911E+03  0.28082400911E+03  0.00000000000E+00 0. -1.
         21   -1    0    0  501  502 -0.00000000000E+00 -0.00000000000E+00 -0.12414559487E+04  0.12414559487E+04  0.00000000000E+00 0. -1.
         25    1    1    2    0    0 -0.15228435156E+02 -0.63816212791E+01 -0.58675548587E+02  0.13906994761E+03  0.12500000000E+03 0.  0.
         25    1    1    2    0    0 -0.42620693564E+03  0.24791732817E+03 -0.58626939430E+03  0.77617791536E+03  0.12500000000E+03 0.  0.
         25    1    1    2    0    0  0.44143537079E+03 -0.24153570689E+03 -0.31568699671E+03  0.60703209485E+03  0.12500000000E+03 0.  0.
</event>
<event>
 5    0  0.5887583E-005  0.2754081E+03  0.7546771E-02  0.1098224E+00
         21   -1    0    0  502  501  0.00000000000E+00  0.00000000000E+00  0.70557652675E+03  0.70557652675E+03  0.00000000000E+00 0.  1.
         21   -1    0    0  501  502 -0.00000000000E+00 -0.00000000000E+00 -0.10750021330E+03  0.10750021330E+03  0.00000000000E+00 0.  1.
         25    1    1    2    0    0  0.50138614957E+02  0.19280376125E+02  0.33421346414E+02  0.14009853679E+03  0.12500000000E+03 0.  0.
         25    1    1    2    0    0 -0.16097583675E+02  0.22326712338E+02  0.44796913625E+02  0.13560743989E+03  0.12500000000E+03 0.  0.
         25    1    1    2    0    0 -0.34041031282E+02 -0.41607088463E+02  0.51985805341E+03  0.53737076337E+03  0.12500000000E+03 0.  0.
</event>
<event>
 5    0  0.5619558E-005  0.3623711E+03  0.7546771E-02  0.1057649E+00
         21   -1    0    0  502  501  0.00000000000E+00  0.00000000000E+00  0.18454799615E+03  0.18454799615E+03  0.00000000000E+00 0. -1.
         21   -1    0    0  501  502 -0.00000000000E+00 -0.00000000000E+00 -0.71153744286E+03  0.71153744286E+03  0.00000000000E+00 0. -1.
         25    1    1    2    0    0  0.11034980097E+03  0.83371780783E+02 -0.52583499011E+03  0.55790265211E+03  0.12500000000E+03 0.  0.
         25    1    1    2    0    0 -0.96065989543E+01  0.38678153480E+02  0.28739367797E+02  0.13431022880E+03  0.12500000000E+03 0.  0.
         25    1    1    2    0    0 -0.10074320202E+03 -0.12204993426E+03 -0.29893824399E+02  0.20387255810E+03  0.12500000000E+03 0.  0.
</event>
<event>
 5    0  0.5619558E-005  0.2815416E+03  0.7546771E-02  0.1094850E+00
         21   -1    0    0  502  501  0.00000000000E+00  0.00000000000E+00  0.13130640596E+03  0.13130640596E+03  0.00000000000E+00 0.  1.
         21   -1    0    0  501  502 -0.00000000000E+00 -0.00000000000E+00 -0.60366931732E+03  0.60366931732E+03  0.00000000000E+00 0.  1.
         25    1    1    2    0    0 -0.51325763193E+02 -0.11804772405E+03 -0.14303464160E+03  0.22946352176E+03  0.12500000000E+03 0.  0.
         25    1    1    2    0    0 -0.89108104883E+02  0.58886115540E+02 -0.23551575424E+03  0.28722900177E+03  0.12500000000E+03 0.  0.
         25    1    1    2    0    0  0.14043386808E+03  0.59161608511E+02 -0.93812515522E+02  0.21828319975E+03  0.12500000000E+03 0.  0.
</event>
<event>
 5    0  0.5619558E-005  0.3328162E+03  0.7546771E-02  0.1069898E+00
         21   -1    0    0  502  501  0.00000000000E+00  0.00000000000E+00  0.25717719145E+03  0.25717719145E+03  0.00000000000E+00 0. -1.
         21   -1    0    0  501  502 -0.00000000000E+00 -0.00000000000E+00 -0.43070162728E+03  0.43070162728E+03  0.00000000000E+00 0. -1.
         25    1    1    2    0    0  0.75671496227E+02  0.21187433044E+03 -0.52885494766E+02  0.26275232215E+03  0.12500000000E+03 0.  0.
         25    1    1    2    0    0 -0.63238793655E+02 -0.23698893118E+03 -0.53318563666E+02  0.28041178248E+03  0.12500000000E+03 0.  0.
         25    1    1    2    0    0 -0.12432702572E+02  0.25114600739E+02 -0.67320377394E+02  0.14471471410E+03  0.12500000000E+03 0.  0.
</event>
<event>
 5    0  0.5619558E-005  0.2609899E+03  0.7546771E-02  0.1106550E+00
         21   -1    0    0  502  501  0.00000000000E+00  0.00000000000E+00  0.67327281819E+03  0.67327281819E+03  0.00000000000E+00 0. -1.
         21   -1    0    0  501  502 -0.00000000000E+00 -0.00000000000E+00 -0.10117107222E+03  0.10117107222E+03  0.00000000000E+00 0. -1.
         25    1    1    2    0    0  0.79177427030E+02 -0.55166850187E+02  0.18828434797E+03  0.24574059901E+03  0.12500000000E+03 0.  0.
         25    1    1    2    0    0  0.29318451939E+02 -0.28039904722E+02  0.38684720430E+02  0.13699385196E+03  0.12500000000E+03 0.  0.
         25    1    1    2    0    0 -0.10849587897E+03  0.83206754909E+02  0.34513267757E+03  0.39170943943E+03  0.12500000000E+03 0.  0.
</event>
<event>
 5    0  0.5619558E-005  0.3004341E+03  0.7546771E-02  0.1085024E+00
         21   -1    0    0  502  501  0.00000000000E+00  0.00000000000E+00  0.81721327661E+03  0.81721327661E+03  0.00000000000E+00 0.  1.
         21   -1    0    0  501  502 -0.00000000000E+00 -0.00000000000E+00 -0.11044934504E+03  0.11044934504E+03  0.00000000000E+00 0.  1.
         25    1    1    2    0    0  0.12692152359E+03  0.46821640255E+02  0.47136056515E+03  0.50607027331E+03  0.12500000000E+03 0.  0.
         25    1    1    2    0    0 -0.10479197541E+03  0.64909302040E+02  0.15564521407E+03  0.23461672631E+03  0.12500000000E+03 0.  0.
         25    1    1    2    0    0 -0.22129548187E+02 -0.11173094230E+03  0.79758152355E+02  0.18697562204E+03  0.12500000000E+03 0.  0.
</event>
<event>
 5    0  0.5619558E-005  0.3213798E+03  0.7546771E-02  0.1075016E+00
         21   -1    0    0  502  501  0.00000000000E+00  0.00000000000E+00  0.93263219711E+03  0.93263219711E+03  0.00000000000E+00 0. -1.
         21   -1    0    0  501  502 -0.00000000000E+00 -0.00000000000E+00 -0.11074563870E+03  0.11074563870E+03  0.00000000000E+00 0. -1.
         25    1    1    2    0    0 -0.51159372432E+02 -0.36155448993E+02  0.87663919034E+02  0.16502866593E+03  0.12500000000E+03 0.  0.
         25    1    1    2    0    0 -0.10567068527E+03 -0.13122418427E+03  0.42194408552E+03  0.47121957893E+03  0.12500000000E+03 0.  0.
         25    1    1    2    0    0  0.15683005770E+03  0.16737963326E+03  0.31227855386E+03  0.40712959095E+03  0.12500000000E+03 0.  0.
</event>
<event>
 5    0  0.5619558E-005  0.2495019E+03  0.7546771E-02  0.1113620E+00
         21   -1    0    0  502  501  0.00000000000E+00  0.00000000000E+00  0.34330469827E+02  0.34330469827E+02  0.00000000000E+00 0.  1.
         21   -1    0    0  501  502 -0.00000000000E+00 -0.00000000000E+00 -0.18132925886E+04  0.18132925886E+04  0.00000000000E+00 0.  1.
         25    1    1    2    0    0  0.94568171342E+01  0.13124116570E+02 -0.13040013996E+04  0.13100787473E+04  0.12500000000E+03 0.  0.
         25    1    1    2    0    0 -0.10355995287E+02 -0.11449413594E+02 -0.21745970939E+03  0.25130073800E+03  0.12500000000E+03 0.  0.
         25    1    1    2    0    0  0.89917815258E+00 -0.16747029760E+01 -0.25750100981E+03  0.28624357321E+03  0.12500000000E+03 0.  0.
</event>
<event>
 5    0  0.5619558E-005  0.3393211E+03  0.7546771E-02  0.1067085E+00
         21   -1    0    0  502  501  0.00000000000E+00  0.00000000000E+00  0.91773119272E+03  0.91773119272E+03  0.00000000000E+00 0. -1.
         21   -1    0    0  501  502 -0.00000000000E+00 -0.00000000000E+00 -0.12546026610E+03  0.12546026610E+03  0.00000000000E+00 0. -1.
         25    1    1    2    0    0 -0.14858608991E+03  0.96324691287E+02  0.31670277908E+03  0.38377326971E+03  0.12500000000E+03 0.  0.
         25    1    1    2    0    0  0.21300383250E+03  0.51690189972E+02  0.25070744625E+03  0.35569893450E+03  0.12500000000E+03 0.  0.
         25    1    1    2    0    0 -0.64417742593E+02 -0.14801488126E+03  0.22486070129E+03  0.30371925461E+03  0.12500000000E+03 0.  0.
</event>
<event>
 5    0  0.5619558E-005  0.2882367E+03  0.7546771E-02  0.1091273E+00
         21   -1    0    0  502  501  0.00000000000E+00  0.00000000000E+00  0.60018622882E+03  0.60018622882E+03  0.00000000000E+00 0. -1.
         21   -1    0    0  501  502 -0.00000000000E+00 -0.00000000000E+00 -0.13842433736E+03  0.13842433736E+03  0.00000000000E+00 0. -1.
         25    1    1    2    0    0 -0.77635799775E+02 -0.34442404239E+02  0.30152215402E+00  0.15112474163E+03  0.12500000000E+03 0.  0.
         25    1    1    2    0    0 -0.38519702039E+01  0.13462925089E+03  0.24028029636E+03  0.30248883234E+03  0.12500000000E+03 0.  0.
         25    1    1    2    0    0  0.81487769979E+02 -0.10018684665E+03  0.22118007294E+03  0.28499699221E+03  0.12500000000E+03 0.  0.
</event>
<event>
 5    0  0.5619558E-005  0.3216392E+03  0.7546771E-02  0.1074897E+00
         21   -1    0    0  502  501  0.00000000000E+00  0.00000000000E+00  0.16546779298E+03  0.16546779298E+03  0.00000000000E+00 0. -1.
         21   -1    0    0  501  502 -0.00000000000E+00 -0.00000000000E+00 -0.62520801913E+03  0.62520801913E+03  0.00000000000E+00 0. -1.
         25    1    1    2    0    0 -0.50658498990E+02  0.54918077538E+02  0.85668875486E+02  0.16895690275E+03  0.12500000000E+03 0.  0.
         25    1    1    2    0    0  0.18450281928E+02 -0.71970424944E+02 -0.16648368331E+03  0.22104744237E+03  0.12500000000E+03 0.  0.
         25    1    1    2    0    0  0.32208217062E+02  0.17052347407E+02 -0.37892541833E+03  0.40067146699E+03  0.12500000000E+03 0.  0.
</event>
<event>
 5    0  0.5619558E-005  0.2727149E+03  0.7546771E-02  0.1099736E+00
         21   -1    0    0  502  501  0.00000000000E+00  0.00000000000E+00  0.14752274339E+04  0.14752274339E+04  0.00000000000E+00 0.  1.
         21   -1    0    0  501  502 -0.00000000000E+00 -0.00000000000E+00 -0.50414873906E+02  0.50414873906E+02  0.00000000000E+00 0.  1.
         25    1    1    2    0    0  0.86773963367E+01  0.52278383368E+02  0.15411318023E+03  0.20538792296E+03  0.12500000000E+03 0.  0.
         25    1    1    2    0    0  0.42957720944E+02 -0.12858783764E+03  0.89367882465E+03  0.91250591198E+03  0.12500000000E+03 0.  0.
         25    1    1    2    0    0 -0.51635117280E+02  0.76309454270E+02  0.37702055509E+03  0.40774847285E+03  0.12500000000E+03 0.  0.
</event>
<event>
 5    0  0.5619558E-005  0.3985316E+03  0.7546771E-02  0.1044289E+00
         21   -1    0    0  502  501  0.00000000000E+00  0.00000000000E+00  0.16891600450E+03  0.16891600450E+03  0.00000000000E+00 0.  1.
         21   -1    0    0  501  502 -0.00000000000E+00 -0.00000000000E+00 -0.94027454458E+03  0.94027454458E+03  0.00000000000E+00 0.  1.
         25    1    1    2    0    0  0.14717526160E+03 -0.62297032131E+02 -0.61848393687E+02  0.21211247404E+03  0.12500000000E+03 0.  0.
         25    1    1    2    0    0 -0.39164730719E+02 -0.68209957076E+02  0.93894970020E+01  0.14798525950E+03  0.12500000000E+03 0.  0.
         25    1    1    2    0    0 -0.10801053088E+03  0.13050698921E+03 -0.71889964340E+03  0.74909281554E+03  0.12500000000E+03 0.  0.
</event>
<event>
 5    0  0.5619558E-005  0.2398217E+03  0.7546771E-02  0.1119912E+00
         21   -1    0    0  502  501  0.00000000000E+00  0.00000000000E+00  0.52349259449E+03  0.52349259449E+03  0.00000000000E+00 0.  1.
         21   -1    0    0  501  502 -0.00000000000E+00 -0.00000000000E+00 -0.10986681835E+03  0.10986681835E+03  0.00000000000E+00 0.  1.
         25    1    1    2    0    0 -0.53918648385E+02 -0.25298235819E+02  0.15986526497E+03  0.21149261056E+03  0.12500000000E+03 0.  0.
         25    1    1    2    0    0 -0.77191940401E+02 -0.19125504734E+02  0.13720177466E+03  0.20192500480E+03  0.12500000000E+03 0.  0.
         25    1    1    2    0    0  0.13111058879E+03  0.44423740553E+02  0.11655873652E+03  0.21994179747E+03  0.12500000000E+03 0.  0.
</event>
<event>
 5    0  0.5619558E-005  0.3148813E+03  0.7546771E-02  0.1078029E+00
         21   -1    0    0  502  501  0.00000000000E+00  0.00000000000E+00  0.18728995164E+03  0.18728995164E+03  0.00000000000E+00 0. -1.
         21   -1    0    0  501  502 -0.00000000000E+00 -0.00000000000E+00 -0.52939419216E+03  0.52939419216E+03  0.00000000000E+00 0. -1.
         25    1    1    2    0    0 -0.45675248846E+02  0.74484370117E+02  0.12674686118E+02  0.15303528161E+03  0.12500000000E+03 0.  0.
         25    1    1    2    0    0 -0.19631616036E+02 -0.17781488893E+03 -0.69465650230E+02  0.22902840792E+03  0.12500000000E+03 0.  0.
         25    1    1    2    0    0  0.65306864882E+02  0.10333051881E+03 -0.28531327641E+03  0.33462045427E+03  0.12500000000E+03 0.  0.
</event>
<event>
 5    0  0.5619558E-005  0.3550177E+03  0.7546771E-02  0.1060574E+00
         21   -1    0    0  502  501  0.00000000000E+00  0.00000000000E+00  0.63550790847E+03  0.63550790847E+03  0.00000000000E+00 0.  1.
         21   -1    0    0  501  502 -0.00000000000E+00 -0.00000000000E+00 -0.19832572344E+03  0.19832572344E+03  0.00000000000E+00 0.  1.
         25    1    1    2    0    0 -0.13199208769E+03  0.13049789624E+03 -0.40570151055E+02  0.22742592045E+03  0.12500000000E+03 0.  0.
         25    1    1    2    0    0  0.16928838613E+03 -0.50975191305E+02  0.23463339683E+03  0.31927238953E+03  0.12500000000E+03 0.  0.
         25    1    1    2    0    0 -0.37296298443E+02 -0.79522704935E+02  0.24311893925E+03  0.28713532193E+03  0.12500000000E+03 0.  0.
</event>
<event>
 5    0  0.5963042E-005  0.3053644E+03  0.7546771E-02  0.1082589E+00
         21   -1    0    0  502  501  0.00000000000E+00  0.00000000000E+00  0.13166076312E+03  0.13166076312E+03  0.00000000000E+00 0.  1.
         21   -1    0    0  501  502 -0.00000000000E+00 -0.00000000000E+00 -0.70824008503E+03  0.70824008503E+03  0.00000000000E+00 0.  1.
         25    1    1    2    0    0 -0.14886466786E+03  0.13003708878E+02 -0.11993346804E+03  0.22877679633E+03  0.12500000000E+03 0.  0.
         25    1    1    2    0    0  0.11012429300E+03 -0.26965612639E+02 -0.38964055670E+02  0.17319844632E+03  0.12500000000E+03 0.  0.
         25    1    1    2    0    0  0.38740374858E+02  0.13961903762E+02 -0.41768179820E+03  0.43792560550E+03  0.12500000000E+03 0.  0.
</event>
<event>
 5    0  0.5619558E-005  0.3541423E+03  0.7546771E-02  0.1060928E+00
         21   -1    0    0  502  501  0.00000000000E+00  0.00000000000E+00  0.50897554257E+02  0.50897554257E+02  0.00000000000E+00 0.  1.
         21   -1    0    0  501  502 -0.00000000000E+00 -0.00000000000E+00 -0.24641020274E+04  0.24641020274E+04  0.00000000000E+00 0.  1.
         25    1    1    2    0    0 -0.10585254651E+03 -0.16886716240E+03 -0.16060519646E+04  0.16231909293E+04  0.12500000000E+03 0.  0.
         25    1    1    2    0    0  0.12568045198E+03  0.46013987315E+02 -0.26846053618E+03  0.32497526448E+03  0.12500000000E+03 0.  0.
         25    1    1    2    0    0 -0.19827905472E+02  0.12285317508E+03 -0.53869197237E+03  0.56683338783E+03  0.12500000000E+03 0.  0.
</event>
<event>
 5    0  0.5619558E-005  0.2790144E+03  0.7546771E-02  0.1096228E+00
         21   -1    0    0  502  501  0.00000000000E+00  0.00000000000E+00  0.16739760342E+03  0.16739760342E+03  0.00000000000E+00 0.  1.
         21   -1    0    0  501  502 -0.00000000000E+00 -0.00000000000E+00 -0.46505456862E+03  0.46505456862E+03  0.00000000000E+00 0.  1.
         25    1    1    2    0    0  0.72835510184E+02 -0.14054608648E+03 -0.18079529674E+03  0.27086925498E+03  0.12500000000E+03 0.  0.
         25    1    1    2    0    0 -0.54657811811E+02  0.92491725140E+02  0.23781163784E+02  0.16653149661E+03  0.12500000000E+03 0.  0.
         25    1    1    2    0    0 -0.18177698373E+02  0.48054361342E+02 -0.14064283224E+03  0.19505142046E+03  0.12500000000E+03 0.  0.
</event>
<event>
 5    0  0.5619558E-005  0.3867065E+03  0.7546771E-02  0.1048482E+00
         21   -1    0    0  502  501  0.00000000000E+00  0.00000000000E+00  0.11792001066E+03  0.11792001066E+03  0.00000000000E+00 0.  1.
         21   -1    0    0  501  502 -0.00000000000E+00 -0.00000000000E+00 -0.12681642301E+04  0.12681642301E+04  0.00000000000E+00 0.  1.
         25    1    1    2    0    0  0.77379803229E+02  0.21642457019E+03 -0.63491504838E+03  0.68670907026E+03  0.12500000000E+03 0.  0.
         25    1    1    2    0    0 -0.94529183485E+02  0.21270861129E+02 -0.34861460872E+03  0.38281243642E+03  0.12500000000E+03 0.  0.
         25    1    1    2    0    0  0.17149380257E+02 -0.23769543131E+03 -0.16671456236E+03  0.31656273409E+03  0.12500000000E+03 0.  0.
</event>
<event>
 5    0  0.5619558E-005  0.3121086E+03  0.7546771E-02  0.1079340E+00
         21   -1    0    0  502  501  0.00000000000E+00  0.00000000000E+00  0.82192193234E+02  0.82192193234E+02  0.00000000000E+00 0.  1.
         21   -1    0    0  501  502 -0.00000000000E+00 -0.00000000000E+00 -0.11851707226E+04  0.11851707226E+04  0.00000000000E+00 0.  1.
         25    1    1    2    0    0 -0.21808661947E+02  0.69614960344E+02 -0.49556463963E+03  0.51626657115E+03  0.12500000000E+03 0.  0.
         25    1    1    2    0    0 -0.60265759847E+02 -0.78082351946E+02 -0.57660204929E+03  0.59818369983E+03  0.12500000000E+03 0.  0.
         25    1    1    2    0    0  0.82074421794E+02  0.84673916021E+01 -0.30811840403E+02  0.15291264481E+03  0.12500000000E+03 0.  0.
</event>
<event>
 5    0  0.5619558E-005  0.3676636E+03  0.7546771E-02  0.1055590E+00
         21   -1    0    0  502  501  0.00000000000E+00  0.00000000000E+00  0.36873986770E+03  0.36873986770E+03  0.00000000000E+00 0. -1.
         21   -1    0    0  501  502 -0.00000000000E+00 -0.00000000000E+00 -0.36659047520E+03  0.36659047520E+03  0.00000000000E+00 0. -1.
         25    1    1    2    0    0 -0.89146614564E+02  0.11830112302E+02 -0.23001101090E+03  0.27679800501E+03  0.12500000000E+03 0.  0.
         25    1    1    2    0    0  0.89290464962E+02 -0.12302266564E+03  0.34891176929E+02  0.19987435459E+03  0.12500000000E+03 0.  0.
         25    1    1    2    0    0 -0.14385039765E+00  0.11119255334E+03  0.19726922647E+03  0.25865798330E+03  0.12500000000E+03 0.  0.
</event>
<event>
 5    0  0.5791297E-005  0.4595484E+03  0.7546771E-02  0.1024912E+00
         21   -1    0    0  502  501  0.00000000000E+00  0.00000000000E+00  0.25447728165E+03  0.25447728165E+03  0.00000000000E+00 0. -1.
         21   -1    0    0  501  502 -0.00000000000E+00 -0.00000000000E+00 -0.82987651010E+03  0.82987651010E+03  0.00000000000E+00 0. -1.
         25    1    1    2    0    0 -0.57719672344E+02  0.17532898660E+03 -0.30092753802E+03  0.37450527000E+03  0.12500000000E+03 0.  0.
         25    1    1    2    0    0  0.98293086081E+02  0.16480963277E+02  0.15423957432E+03  0.22214409559E+03  0.12500000000E+03 0.  0.
         25    1    1    2    0    0 -0.40573413737E+02 -0.19180994988E+03 -0.42871126474E+03  0.48770442616E+03  0.12500000000E+03 0.  0.
</event>
<event>
 5    0  0.5632882E-005  0.2675822E+03  0.7546771E-02  0.1102671E+00
         21   -1    0    0  502  501  0.00000000000E+00  0.00000000000E+00  0.37115412398E+03  0.37115412398E+03  0.00000000000E+00 0.  1.
         21   -1    0    0  501  502 -0.00000000000E+00 -0.00000000000E+00 -0.19291241697E+03  0.19291241697E+03  0.00000000000E+00 0.  1.
         25    1    1    2    0    0 -0.19180905288E+02 -0.31725759653E+01 -0.35035472832E+02  0.13126483429E+03  0.12500000000E+03 0.  0.
         25    1    1    2    0    0 -0.17115140640E+02  0.11081926163E+03  0.96004234430E+01  0.16819930118E+03  0.12500000000E+03 0.  0.
         25    1    1    2    0    0  0.36296045928E+02 -0.10764668567E+03  0.20367675640E+03  0.26460240547E+03  0.12500000000E+03 0.  0.
</event>
<event>
 5    0  0.5619558E-005  0.4293936E+03  0.7546771E-02  0.1034052E+00
         21   -1    0    0  502  501  0.00000000000E+00  0.00000000000E+00  0.35729509123E+03  0.35729509123E+03  0.00000000000E+00 0.  1.
         21   -1    0    0  501  502 -0.00000000000E+00 -0.00000000000E+00 -0.51604074072E+03  0.51604074072E+03  0.00000000000E+00 0.  1.
         25    1    1    2    0    0 -0.12498590263E+03  0.91700285472E+02  0.83883995738E+02  0.21608318526E+03  0.12500000000E+03 0.  0.
         25    1    1    2    0    0 -0.46278247533E+02 -0.12223812878E+02 -0.37277737103E+03  0.39607962097E+03  0.12500000000E+03 0.  0.
         25    1    1    2    0    0  0.17126415017E+03 -0.79476472594E+02  0.13014772580E+03  0.26117302571E+03  0.12500000000E+03 0.  0.
</event>
<event>
 5    0  0.5619558E-005  0.3377422E+03  0.7546771E-02  0.1067762E+00
         21   -1    0    0  502  501  0.00000000000E+00  0.00000000000E+00  0.36764191681E+03  0.36764191681E+03  0.00000000000E+00 0.  1.
         21   -1    0    0  501  502 -0.00000000000E+00 -0.00000000000E+00 -0.31027414023E+03  0.31027414023E+03  0.00000000000E+00 0.  1.
         25    1    1    2    0    0 -0.16458078805E+03 -0.10463798039E+03  0.55508732515E+02  0.23820613367E+03  0.12500000000E+03 0.  0.
         25    1    1    2    0    0  0.16382350370E+03 -0.59089407876E+02 -0.63536048825E+02  0.22358785295E+03  0.12500000000E+03 0.  0.
         25    1    1    2    0    0  0.75728434840E+00  0.16372738826E+03  0.65395092894E+02  0.21612207042E+03  0.12500000000E+03 0.  0.
</event>
<event>
 5    0  0.5619558E-005  0.5826437E+03  0.7546771E-02  0.9942084E-01
         21   -1    0    0  502  501  0.00000000000E+00  0.00000000000E+00  0.85060361539E+03  0.85060361539E+03  0.00000000000E+00 0. -1.
         21   -1    0    0  501  502 -0.00000000000E+00 -0.00000000000E+00 -0.39909741643E+03  0.39909741643E+03  0.00000000000E+00 0.  1.
         25    1    1    2    0    0 -0.34885962828E+03 -0.37032743552E+03  0.10705224380E+03  0.53472481955E+03  0.12500000000E+03 0.  0.
         25    1    1    2    0    0  0.87915206387E+02  0.28575140982E+03  0.15789250359E+03  0.36046913102E+03  0.12500000000E+03 0.  0.
         25    1    1    2    0    0  0.26094442189E+03  0.84576025703E+02  0.18656145157E+03  0.35450708124E+03  0.12500000000E+03 0.  0.
</event>
<event>
 5    0  0.5619558E-005  0.2884294E+03  0.7546771E-02  0.1091172E+00
         21   -1    0    0  502  501  0.00000000000E+00  0.00000000000E+00  0.11696671009E+03  0.11696671009E+03  0.00000000000E+00 0. -1.
         21   -1    0    0  501  502 -0.00000000000E+00 -0.00000000000E+00 -0.71124113352E+03  0.71124113352E+03  0.00000000000E+00 0. -1.
         25    1    1    2    0    0  0.11186425811E+03  0.44594222756E+02 -0.10942690059E+03  0.20518650911E+03  0.12500000000E+03 0.  0.
         25    1    1    2    0    0 -0.11336190914E+03  0.10088050837E+03 -0.28284731677E+03  0.34446393718E+03  0.12500000000E+03 0.  0.
         25    1    1    2    0    0  0.14976510311E+01 -0.14547473112E+03 -0.20200020607E+03  0.27855739733E+03  0.12500000000E+03 0.  0.
</event>
<event>
 5    0  0.5619558E-005  0.2150101E+03  0.7546771E-02  0.1137659E+00
         21   -1    0    0  502  501  0.00000000000E+00  0.00000000000E+00  0.21074281820E+03  0.21074281820E+03  0.00000000000E+00 0.  1.
         21   -1    0    0  501  502 -0.00000000000E+00 -0.00000000000E+00 -0.21936381417E+03  0.21936381417E+03  0.00000000000E+00 0.  1.
         25    1    1    2    0    0 -0.44998289075E+02  0.17262339777E+02 -0.70329622016E+02  0.15130793147E+03  0.12500000000E+03 0.  0.
         25    1    1    2    0    0 -0.15677775244E+02 -0.21770072987E+02  0.56240272199E+02  0.13966995715E+03  0.12500000000E+03 0.  0.
         25    1    1    2    0    0  0.60676064319E+02  0.45077332100E+01  0.54683538479E+01  0.13912874374E+03  0.12500000000E+03 0.  0.
</event>
<event>
 5    0  0.5619558E-005  0.3405840E+03  0.7546771E-02  0.1066547E+00
         21   -1    0    0  502  501  0.00000000000E+00  0.00000000000E+00  0.15398484918E+03  0.15398484918E+03  0.00000000000E+00 0.  1.
         21   -1    0    0  501  502 -0.00000000000E+00 -0.00000000000E+00 -0.75330432502E+03  0.75330432502E+03  0.00000000000E+00 0.  1.
         25    1    1    2    0    0  0.18735236723E+01  0.11915085705E+03 -0.21954218620E+03  0.27932813741E+03  0.12500000000E+03 0.  0.
         25    1    1    2    0    0 -0.83594300062E+02 -0.92674623635E+02  0.40439839895E+02  0.18120975007E+03  0.12500000000E+03 0.  0.
         25    1    1    2    0    0  0.81720776390E+02 -0.26476233412E+02 -0.42021712953E+03  0.44675128672E+03  0.12500000000E+03 0.  0.
</event>
<event>
 5    0  0.5619558E-005  0.4196421E+03  0.7546771E-02  0.1037183E+00
         21   -1    0    0  502  501  0.00000000000E+00  0.00000000000E+00  0.18222469177E+03  0.18222469177E+03  0.00000000000E+00 0.  1.
         21   -1    0    0  501  502 -0.00000000000E+00 -0.00000000000E+00 -0.96638640938E+03  0.96638640938E+03  0.00000000000E+00 0.  1.
         25    1    1    2    0    0 -0.24320028115E+03  0.83529364847E+02 -0.40133729918E+03  0.49276785535E+03  0.12500000000E+03 0.  0.
         25    1    1    2    0    0  0.33227002205E+02 -0.50962564331E+02 -0.38497772080E+03  0.40930925002E+03  0.12500000000E+03 0.  0.
         25    1    1    2    0    0  0.20997327895E+03 -0.32566800516E+02  0.21533023775E+01  0.24653399579E+03  0.12500000000E+03 0.  0.
</event>
<event>
 5    0  0.5619558E-005  0.2874337E+03  0.7546771E-02  0.1091697E+00
         21   -1    0    0  502  501  0.00000000000E+00  0.00000000000E+00  0.74606034004E+03  0.74606034004E+03  0.00000000000E+00 0.  1.
         21   -1    0    0  501  502 -0.00000000000E+00 -0.00000000000E+00 -0.11073918907E+03  0.11073918907E+03  0.00000000000E+00 0.  1.
         25    1    1    2    0    0  0.15268077579E+03  0.98076610596E+02  0.38894406389E+03  0.44702676170E+03  0.12500000000E+03 0.  0.
         25    1    1    2    0    0 -0.51367748766E+02 -0.10350936491E+01  0.70622875851E+02  0.15248707363E+03  0.12500000000E+03 0.  0.
         25    1    1    2    0    0 -0.10131302702E+03 -0.97041516947E+02  0.17575421122E+03  0.25728569377E+03  0.12500000000E+03 0.  0.
</event>
<event>
 5    0  0.5619558E-005  0.3284388E+03  0.7546771E-02  0.1071830E+00
         21   -1    0    0  502  501  0.00000000000E+00  0.00000000000E+00  0.18386658886E+03  0.18386658886E+03  0.00000000000E+00 0.  1.
         21   -1    0    0  501  502 -0.00000000000E+00 -0.00000000000E+00 -0.58668639763E+03  0.58668639763E+03  0.00000000000E+00 0.  1.
         25    1    1    2    0    0  0.17192356872E+03  0.82758974462E+01 -0.37298899450E+02  0.21596854368E+03  0.12500000000E+03 0.  0.
         25    1    1    2    0    0 -0.10698709196E+03  0.13725090751E+03 -0.17763849341E+03  0.27832442186E+03  0.12500000000E+03 0.  0.
         25    1    1    2    0    0 -0.64936476753E+02 -0.14552680496E+03 -0.18788241591E+03  0.27626002096E+03  0.12500000000E+03 0.  0.
</event>
<event>
 5    0  0.5619558E-005  0.2479537E+03  0.7546771E-02  0.1114605E+00
         21   -1    0    0  502  501  0.00000000000E+00  0.00000000000E+00  0.73494367701E+02  0.73494367701E+02  0.00000000000E+00 0. -1.
         21   -1    0    0  501  502 -0.00000000000E+00 -0.00000000000E+00 -0.83654109953E+03  0.83654109953E+03  0.00000000000E+00 0. -1.
         25    1    1    2    0    0 -0.97941336494E+01  0.38954685163E+02 -0.35811450060E+03  0.38142415772E+03  0.12500000000E+03 0.  0.
         25    1    1    2    0    0  0.91692540975E+02  0.44179963242E+02 -0.14122570048E+03  0.21431073165E+03  0.12500000000E+03 0.  0.
         25    1    1    2    0    0 -0.81898407326E+02 -0.83134648405E+02 -0.26370653075E+03  0.31430057787E+03  0.12500000000E+03 0.  0.
</event>
<event>
 5    0  0.5737535E-005  0.3236452E+03  0.7546771E-02  0.1073984E+00
         21   -1    0    0  502  501  0.00000000000E+00  0.00000000000E+00  0.32252408568E+03  0.32252408568E+03  0.00000000000E+00 0. -1.
         21   -1    0    0  501  502 -0.00000000000E+00 -0.00000000000E+00 -0.32477020199E+03  0.32477020199E+03  0.00000000000E+00 0. -1.
         25    1    1    2    0    0  0.15025656697E+03 -0.38969328144E+02  0.65999676272E+02  0.20994428242E+03  0.12500000000E+03 0.  0.
         25    1    1    2    0    0 -0.15540025241E+03 -0.38533238769E+02  0.89189047448E+02  0.22184168933E+03  0.12500000000E+03 0.  0.
         25    1    1    2    0    0  0.51436854418E+01  0.77502566913E+02 -0.15743484003E+03  0.21550831592E+03  0.12500000000E+03 0.  0.
</event>
<event>
 5    0  0.5619558E-005  0.4845874E+03  0.7546771E-02  0.1017882E+00
         21   -1    0    0  502  501  0.00000000000E+00  0.00000000000E+00  0.50077412999E+03  0.50077412999E+03  0.00000000000E+00 0.  1.
         21   -1    0    0  501  502 -0.00000000000E+00 -0.00000000000E+00 -0.46892387191E+03  0.46892387191E+03  0.00000000000E+00 0.  1.
         25    1    1    2    0    0 -0.32030904778E+03  0.19073209291E+03 -0.11951329833E+03  0.41095625781E+03  0.12500000000E+03 0.  0.
         25    1    1    2    0    0  0.34006165955E+03 -0.15758502545E+03  0.16301540792E+03  0.42740378538E+03  0.12500000000E+03 0.  0.
         25    1    1    2    0    0 -0.19752611764E+02 -0.33147067459E+02 -0.11651851502E+02  0.13133795870E+03  0.12500000000E+03 0.  0.
</event>
<event>
 5    0  0.5619558E-005  0.5344810E+03  0.7546771E-02  0.1005151E+00
         21   -1    0    0  502  501  0.00000000000E+00  0.00000000000E+00  0.60934253706E+03  0.60934253706E+03  0.00000000000E+00 0. -1.
         21   -1    0    0  501  502 -0.00000000000E+00 -0.00000000000E+00 -0.46881662336E+03  0.46881662336E+03  0.00000000000E+00 0. -1.
         25    1    1    2    0    0  0.24215526149E+03  0.47979335361E+02 -0.21787997575E+03  0.35219010650E+03  0.12500000000E+03 0.  0.
         25    1    1    2    0    0 -0.30404744108E+03 -0.10424269070E+03  0.43666096409E+03  0.55642536116E+03  0.12500000000E+03 0.  0.
         25    1    1    2    0    0  0.61892179586E+02  0.56263355339E+02 -0.78255074641E+02  0.16954369276E+03  0.12500000000E+03 0.  0.
</event>
<event>
 5    0  0.5619558E-005  0.2254395E+03  0.7546771E-02  0.1129891E+00
         21   -1    0    0  502  501  0.00000000000E+00  0.00000000000E+00  0.21840806634E+03  0.21840806634E+03  0.00000000000E+00 0. -1.
         21   -1    0    0  501  502 -0.00000000000E+00 -0.00000000000E+00 -0.23269734677E+03  0.23269734677E+03  0.00000000000E+00 0. -1.
         25    1    1    2    0    0 -0.85732403505E+01 -0.10826275431E+03  0.65387325921E+01  0.16571686530E+03  0.12500000000E+03 0.  0.
         25    1    1    2    0    0  0.45130601109E+02  0.51653489631E+02 -0.12751058519E+02  0.14315182025E+03  0.12500000000E+03 0.  0.
         25    1    1    2    0    0 -0.36557360759E+02  0.56609264681E+02 -0.80769545064E+01  0.14223672756E+03  0.12500000000E+03 0.  0.
</event>
<event>
 5    0  0.5619558E-005  0.2947020E+03  0.7546771E-02  0.1087919E+00
         21   -1    0    0  502  501  0.00000000000E+00  0.00000000000E+00  0.71920276857E+03  0.71920276857E+03  0.00000000000E+00 0.  1.
         21   -1    0    0  501  502 -0.00000000000E+00 -0.00000000000E+00 -0.12075770097E+03  0.12075770097E+03  0.00000000000E+00 0.  1.
         25    1    1    2    0    0 -0.66071508757E+02  0.86662814967E+02  0.28101893883E+02  0.16819811000E+03  0.12500000000E+03 0.  0.
         25    1    1    2    0    0  0.14464003140E+03 -0.29975978194E+02  0.26804060978E+03  0.33059048148E+03  0.12500000000E+03 0.  0.
         25    1    1    2    0    0 -0.78568522645E+02 -0.56686836774E+02  0.30230256394E+03  0.34117187806E+03  0.12500000000E+03 0.  0.
</event>
<event>
 5    0  0.5619558E-005  0.5322277E+03  0.7546771E-02  0.1005693E+00
         21   -1    0    0  502  501  0.00000000000E+00  0.00000000000E+00  0.32163387012E+03  0.32163387012E+03  0.00000000000E+00 0.  1.
         21   -1    0    0  501  502 -0.00000000000E+00 -0.00000000000E+00 -0.88071057038E+03  0.88071057038E+03  0.00000000000E+00 0.  1.
         25    1    1    2    0    0 -0.37603819516E+02 -0.69115106866E+02 -0.18013366102E+03  0.23294651977E+03  0.12500000000E+03 0.  0.
         25    1    1    2    0    0 -0.40148016014E+02 -0.55711481267E+02 -0.63383144490E+03  0.64967909993E+03  0.12500000000E+03 0.  0.
         25    1    1    2    0    0  0.77751835529E+02  0.12482658813E+03  0.25488840567E+03  0.31971882081E+03  0.12500000000E+03 0.  0.
</event>
<event>
 5    0  0.5930483E-005  0.3051666E+03  0.7546771E-02  0.1082686E+00
         21   -1    0    0  502  501  0.00000000000E+00  0.00000000000E+00  0.18192446928E+03  0.18192446928E+03  0.00000000000E+00 0.  1.
         21   -1    0    0  501  502 -0.00000000000E+00 -0.00000000000E+00 -0.51189744043E+03  0.51189744043E+03  0.00000000000E+00 0.  1.
         25    1    1    2    0    0  0.71357382886E+02 -0.15271075412E+03 -0.22050419408E+03  0.30440031229E+03  0.12500000000E+03 0.  0.
         25    1    1    2    0    0 -0.45175345472E+02  0.87718255675E+01  0.47161776411E+02  0.14130459977E+03  0.12500000000E+03 0.  0.
         25    1    1    2    0    0 -0.26182037414E+02  0.14393892855E+03 -0.15663055348E+03  0.24811699764E+03  0.12500000000E+03 0.  0.
</event>
<event>
 5    0  0.5619558E-005  0.3650037E+03  0.7546771E-02  0.1056620E+00
         21   -1    0    0  502  501  0.00000000000E+00  0.00000000000E+00  0.57985776947E+03  0.57985776947E+03  0.00000000000E+00 0.  1.
         21   -1    0    0  501  502 -0.00000000000E+00 -0.00000000000E+00 -0.22975931867E+03  0.22975931867E+03  0.00000000000E+00 0.  1.
         25    1    1    2    0    0 -0.21254123909E+03 -0.12911972542E+03  0.18115319319E+03  0.33209510868E+03  0.12500000000E+03 0.  0.
         25    1    1    2    0    0  0.16409930424E+03  0.14907135434E+03  0.21624303013E+03  0.33397140359E+03  0.12500000000E+03 0.  0.
         25    1    1    2    0    0  0.48441934844E+02 -0.19951628914E+02 -0.47297772526E+02  0.14355057587E+03  0.12500000000E+03 0.  0.
</event>
<event>
 5    0  0.5864380E-005  0.2566899E+03  0.7546771E-02  0.1109148E+00
         21   -1    0    0  502  501  0.00000000000E+00  0.00000000000E+00  0.40086316341E+03  0.40086316341E+03  0.00000000000E+00 0. -1.
         21   -1    0    0  501  502 -0.00000000000E+00 -0.00000000000E+00 -0.16436954147E+03  0.16436954147E+03  0.00000000000E+00 0. -1.
         25    1    1    2    0    0  0.30369566427E+02  0.55195530276E+02  0.23365235574E+02  0.14191473271E+03  0.12500000000E+03 0.  0.
         25    1    1    2    0    0  0.61281017782E+02 -0.13202668087E+03  0.97292867321E+02  0.21512161591E+03  0.12500000000E+03 0.  0.
         25    1    1    2    0    0 -0.91650584209E+02  0.76831150590E+02  0.11583551904E+03  0.20819635626E+03  0.12500000000E+03 0.  0.
</event>
<event>
 5    0  0.5619558E-005  0.3412640E+03  0.7546771E-02  0.1066259E+00
         21   -1    0    0  502  501  0.00000000000E+00  0.00000000000E+00  0.25691133904E+03  0.25691133904E+03  0.00000000000E+00 0. -1.
         21   -1    0    0  501  502 -0.00000000000E+00 -0.00000000000E+00 -0.45331248833E+03  0.45331248833E+03  0.00000000000E+00 0. -1.
         25    1    1    2    0    0  0.12410574231E+03  0.68501130903E+02 -0.52057279414E+02  0.19603469221E+03  0.12500000000E+03 0.  0.
         25    1    1    2    0    0 -0.12443292918E+03 -0.21701184690E+03 -0.15509527684E+03  0.31977686042E+03  0.12500000000E+03 0.  0.
         25    1    1    2    0    0  0.32718687701E+00  0.14851071600E+03  0.10751406970E+02  0.19441227474E+03  0.12500000000E+03 0.  0.
</event>
<event>
 5    0  0.5877041E-005  0.2846710E+03  0.7546771E-02  0.1093165E+00
         21   -1    0    0  502  501  0.00000000000E+00  0.00000000000E+00  0.18272093445E+03  0.18272093445E+03  0.00000000000E+00 0. -1.
         21   -1    0    0  501  502 -0.00000000000E+00 -0.00000000000E+00 -0.44350448022E+03  0.44350448022E+03  0.00000000000E+00 0. -1.
         25    1    1    2    0    0  0.13789400989E+02  0.90060564621E+02 -0.57865860259E+02  0.16514996416E+03  0.12500000000E+03 0.  0.
         25    1    1    2    0    0 -0.96156547800E+02 -0.16576356934E+03 -0.18133201896E+03  0.29194167860E+03  0.12500000000E+03 0.  0.
         25    1    1    2    0    0  0.82367146811E+02  0.75703004720E+02 -0.21585666558E+02  0.16913377190E+03  0.12500000000E+03 0.  0.
</event>
<event>
 5    0  0.5619558E-005  0.4347272E+03  0.7546771E-02  0.1032377E+00
         21   -1    0    0  502  501  0.00000000000E+00  0.00000000000E+00  0.25834823151E+03  0.25834823151E+03  0.00000000000E+00 0.  1.
         21   -1    0    0  501  502 -0.00000000000E+00 -0.00000000000E+00 -0.73152315817E+03  0.73152315817E+03  0.00000000000E+00 0.  1.
         25    1    1    2    0    0  0.35144950805E+02  0.10738218941E+03  0.59789706993E+02  0.17879013181E+03  0.12500000000E+03 0.  0.
         25    1    1    2    0    0  0.38266827370E+02  0.10437167398E+03 -0.52858557378E+03  0.55442357924E+03  0.12500000000E+03 0.  0.
         25    1    1    2    0    0 -0.73411778175E+02 -0.21175386339E+03 -0.43790598755E+01  0.25665767863E+03  0.12500000000E+03 0.  0.
</event>
<event>
 5    0  0.5619558E-005  0.3218738E+03  0.7546771E-02  0.1074790E+00
         21   -1    0    0  502  501  0.00000000000E+00  0.00000000000E+00  0.21856450791E+04  0.21856450791E+04  0.00000000000E+00 0.  1.
         21   -1    0    0  501  502 -0.00000000000E+00 -0.00000000000E+00 -0.47401443541E+02  0.47401443541E+02  0.00000000000E+00 0.  1.
         25    1    1    2    0    0 -0.45857102808E+02 -0.20245636087E+03  0.10862208664E+04  0.11129205824E+04  0.12500000000E+03 0.  0.
         25    1    1    2    0    0 -0.10613965776E+02  0.19140176866E+03  0.81010350905E+03  0.84180757225E+03  0.12500000000E+03 0.  0.
         25    1    1    2    0    0  0.56471068584E+02  0.11054592213E+02  0.24191926005E+03  0.27831836803E+03  0.12500000000E+03 0.  0.
</event>
<event>
 5    0  0.5619558E-005  0.4074074E+03  0.7546771E-02  0.1041245E+00
         21   -1    0    0  502  501  0.00000000000E+00  0.00000000000E+00  0.13995461548E+03  0.13995461548E+03  0.00000000000E+00 0. -1.
         21   -1    0    0  501  502 -0.00000000000E+00 -0.00000000000E+00 -0.11859614268E+04  0.11859614268E+04  0.00000000000E+00 0. -1.
         25    1    1    2    0    0  0.31082608107E+03 -0.27390791273E+02 -0.52839783785E+03  0.62625265122E+03  0.12500000000E+03 0.  0.
         25    1    1    2    0    0 -0.27560974060E+03  0.49051017420E+02 -0.22971942855E+03  0.38309626372E+03  0.12500000000E+03 0.  0.
         25    1    1    2    0    0 -0.35216340469E+02 -0.21660226147E+02 -0.28788954490E+03  0.31656712732E+03  0.12500000000E+03 0.  0.
</event>
<event>
 5    0  0.5619558E-005  0.3646407E+03  0.7546771E-02  0.1056761E+00
         21   -1    0    0  502  501  0.00000000000E+00  0.00000000000E+00  0.47294404900E+03  0.47294404900E+03  0.00000000000E+00 0.  1.
         21   -1    0    0  501  502 -0.00000000000E+00 -0.00000000000E+00 -0.28113865459E+03  0.28113865459E+03  0.00000000000E+00 0. -1.
         25    1    1    2    0    0  0.65377551014E+02  0.97466207914E+02  0.29382718491E+03  0.34019597360E+03  0.12500000000E+03 0.  0.
         25    1    1    2    0    0  0.40887090263E+02  0.81742299180E+02 -0.14058264088E+02  0.15548695255E+03  0.12500000000E+03 0.  0.
         25    1    1    2    0    0 -0.10626464128E+03 -0.17920850709E+03 -0.87963526413E+02  0.25839977744E+03  0.12500000000E+03 0.  0.
</event>
<event>
 5    0  0.5619558E-005  0.3159948E+03  0.7546771E-02  0.1077508E+00
         21   -1    0    0  502  501  0.00000000000E+00  0.00000000000E+00  0.95271457566E+02  0.95271457566E+02  0.00000000000E+00 0. -1.
         21   -1    0    0  501  502 -0.00000000000E+00 -0.00000000000E+00 -0.10480863033E+04  0.10480863033E+04  0.00000000000E+00 0. -1.
         25    1    1    2    0    0 -0.18392331163E+03  0.29439956438E+02 -0.60958765980E+03  0.64955108389E+03  0.12500000000E+03 0.  0.
         25    1    1    2    0    0  0.68007293686E+02 -0.85937116771E+02 -0.10954930285E+03  0.19908849738E+03  0.12500000000E+03 0.  0.
         25    1    1    2    0    0  0.11591601795E+03  0.56497160333E+02 -0.23367788307E+03  0.29471817959E+03  0.12500000000E+03 0.  0.
</event>
<event>
 5    0  0.5619558E-005  0.2472925E+03  0.7546771E-02  0.1115028E+00
         21   -1    0    0  502  501  0.00000000000E+00  0.00000000000E+00  0.10763957174E+03  0.10763957174E+03  0.00000000000E+00 0.  1.
         21   -1    0    0  501  502 -0.00000000000E+00 -0.00000000000E+00 -0.56813275781E+03  0.56813275781E+03  0.00000000000E+00 0.  1.
         25    1    1    2    0    0  0.26623871308E+02  0.80526048867E+02 -0.34233778770E+02  0.15488778738E+03  0.12500000000E+03 0.  0.
         25    1    1    2    0    0  0.20286228009E+02 -0.18733849471E+02 -0.30308335736E+03  0.32900913311E+03  0.12500000000E+03 0.  0.
         25    1    1    2    0    0 -0.46910099318E+02 -0.61792199396E+02 -0.12317604994E+03  0.19187540906E+03  0.12500000000E+03 0.  0.
</event>
<event>
 5    0  0.5619558E-005  0.3354728E+03  0.7546771E-02  0.1068741E+00
         21   -1    0    0  502  501  0.00000000000E+00  0.00000000000E+00  0.65886881389E+03  0.65886881389E+03  0.00000000000E+00 0.  1.
         21   -1    0    0  501  502 -0.00000000000E+00 -0.00000000000E+00 -0.17081097883E+03  0.17081097883E+03  0.00000000000E+00 0.  1.
         25    1    1    2    0    0 -0.18818056087E+03 -0.40574439234E+02  0.21944107198E+03  0.31754935471E+03  0.12500000000E+03 0.  0.
         25    1    1    2    0    0  0.24793746241E+03 -0.17213212660E+02  0.21890201341E+03  0.35399487486E+03  0.12500000000E+03 0.  0.
         25    1    1    2    0    0 -0.59756901544E+02  0.57787651894E+02  0.49714749680E+02  0.15813556314E+03  0.12500000000E+03 0.  0.
</event>
<event>
 5    0  0.5619558E-005  0.2988478E+03  0.7546771E-02  0.1085818E+00
         21   -1    0    0  502  501  0.00000000000E+00  0.00000000000E+00  0.23752073083E+03  0.23752073083E+03  0.00000000000E+00 0. -1.
         21   -1    0    0  501  502 -0.00000000000E+00 -0.00000000000E+00 -0.37600924576E+03  0.37600924576E+03  0.00000000000E+00 0. -1.
         25    1    1    2    0    0  0.59633195315E+02 -0.57375943099E+02  0.85973388833E+02  0.17281360021E+03  0.12500000000E+03 0.  0.
         25    1    1    2    0    0  0.82922978460E+02 -0.35707706188E+01 -0.18412386965E+03  0.23751962053E+03  0.12500000000E+03 0.  0.
         25    1    1    2    0    0 -0.14255617378E+03  0.60946713717E+02 -0.40338034104E+02  0.20319675585E+03  0.12500000000E+03 0.  0.
</event>
<event>
 5    0  0.5619558E-005  0.5558646E+03  0.7546771E-02  0.1000146E+00
         21   -1    0    0  502  501  0.00000000000E+00  0.00000000000E+00  0.10778966796E+03  0.10778966796E+03  0.00000000000E+00 0. -1.
         21   -1    0    0  501  502 -0.00000000000E+00 -0.00000000000E+00 -0.28665587135E+04  0.28665587135E+04  0.00000000000E+00 0.  1.
         25    1    1    2    0    0  0.38654327709E+03  0.62717927197E+01 -0.10154463529E+04  0.10937144673E+04  0.12500000000E+03 0.  0.
         25    1    1    2    0    0 -0.54574957847E+02 -0.24047216662E+03 -0.59262072044E+03  0.65393394715E+03  0.12500000000E+03 0.  0.
         25    1    1    2    0    0 -0.33196831925E+03  0.23420037390E+03 -0.11507019722E+04  0.12266999669E+04  0.12500000000E+03 0.  0.
</event>
<event>
 5    0  0.5619558E-005  0.2627186E+03  0.7546771E-02  0.1105521E+00
         21   -1    0    0  502  501  0.00000000000E+00  0.00000000000E+00  0.83425948231E+02  0.83425948231E+02  0.00000000000E+00 0. -1.
         21   -1    0    0  501  502 -0.00000000000E+00 -0.00000000000E+00 -0.82733353754E+03  0.82733353754E+03  0.00000000000E+00 0. -1.
         25    1    1    2    0    0 -0.34387203828E+00 -0.65251370151E+01 -0.10008088525E+03  0.16026190830E+03  0.12500000000E+03 0.  0.
         25    1    1    2    0    0 -0.60789958812E+02  0.32420123126E+02 -0.69056329272E+02  0.15855680398E+03  0.12500000000E+03 0.  0.
         25    1    1    2    0    0  0.61133830851E+02 -0.25894986111E+02 -0.57477037479E+03  0.59194077349E+03  0.12500000000E+03 0.  0.
</event>
<event>
 5    0  0.5619558E-005  0.3102816E+03  0.7546771E-02  0.1080211E+00
         21   -1    0    0  502  501  0.00000000000E+00  0.00000000000E+00  0.35103252833E+03  0.35103252833E+03  0.00000000000E+00 0.  1.
         21   -1    0    0  501  502 -0.00000000000E+00 -0.00000000000E+00 -0.27426138437E+03  0.27426138437E+03  0.00000000000E+00 0.  1.
         25    1    1    2    0    0 -0.31728662307E+02 -0.74561602478E+02  0.19373087085E+02  0.15022136026E+03  0.12500000000E+03 0.  0.
         25    1    1    2    0    0 -0.10084905175E+03 -0.28750767516E+02 -0.11841413404E+03  0.20160368303E+03  0.12500000000E+03 0.  0.
         25    1    1    2    0    0  0.13257771406E+03  0.10331236999E+03  0.17581219091E+03  0.27346886940E+03  0.12500000000E+03 0.  0.
</event>
<event>
 5    0  0.5619558E-005  0.4711385E+03  0.7546771E-02  0.1021599E+00
         21   -1    0    0  502  501  0.00000000000E+00  0.00000000000E+00  0.19084404177E+03  0.19084404177E+03  0.00000000000E+00 0. -1.
         21   -1    0    0  501  502 -0.00000000000E+00 -0.00000000000E+00 -0.11631041463E+04  0.11631041463E+04  0.00000000000E+00 0. -1.
         25    1    1    2    0    0 -0.29770755871E+03  0.14702737569E+03 -0.24304896585E+03  0.43005190329E+03  0.12500000000E+03 0.  0.
         25    1    1    2    0    0  0.34006852773E+03 -0.16842036904E+03 -0.66446543995E+03  0.77533950315E+03  0.12500000000E+03 0.  0.
         25    1    1    2    0    0 -0.42360969012E+02  0.21392993350E+02 -0.64745698709E+02  0.14855678161E+03  0.12500000000E+03 0.  0.
</event>
<event>
 5    0  0.5619558E-005  0.3220902E+03  0.7546771E-02  0.1074691E+00
         21   -1    0    0  502  501  0.00000000000E+00  0.00000000000E+00  0.49546198842E+03  0.49546198842E+03  0.00000000000E+00 0. -1.
         21   -1    0    0  501  502 -0.00000000000E+00 -0.00000000000E+00 -0.20938457726E+03  0.20938457726E+03  0.00000000000E+00 0. -1.
         25    1    1    2    0    0  0.55557113031E+01 -0.57443897274E+02  0.15429066531E+03  0.20678799933E+03  0.12500000000E+03 0.  0.
         25    1    1    2    0    0  0.16528608750E+02 -0.15234188238E+03 -0.35924786414E+02  0.20098963733E+03  0.12500000000E+03 0.  0.
         25    1    1    2    0    0 -0.22084320053E+02  0.20978577966E+03  0.16771153227E+03  0.29706892903E+03  0.12500000000E+03 0.  0.
</event>
<event>
 5    0  0.5619558E-005  0.4262264E+03  0.7546771E-02  0.1035059E+00
         21   -1    0    0  502  501  0.00000000000E+00  0.00000000000E+00  0.41599869130E+03  0.41599869130E+03  0.00000000000E+00 0. -1.
         21   -1    0    0  501  502 -0.00000000000E+00 -0.00000000000E+00 -0.43670564376E+03  0.43670564376E+03  0.00000000000E+00 0. -1.
         25    1    1    2    0    0  0.26332316441E+03  0.23796762418E+03  0.20657641329E+02  0.37685463672E+03  0.12500000000E+03 0.  0.
         25    1    1    2    0    0 -0.17983623412E+03 -0.21627960777E+03  0.27626669342E+02  0.30904072984E+03  0.12500000000E+03 0.  0.
         25    1    1    2    0    0 -0.83486930288E+02 -0.21688016418E+02 -0.68991263136E+02  0.16680896851E+03  0.12500000000E+03 0.  0.
</event>
<event>
 5    0  0.5619558E-005  0.3083026E+03  0.7546771E-02  0.1081162E+00
         21   -1    0    0  502  501  0.00000000000E+00  0.00000000000E+00  0.19900899399E+04  0.19900899399E+04  0.00000000000E+00 0.  1.
         21   -1    0    0  501  502 -0.00000000000E+00 -0.00000000000E+00 -0.47761918079E+02  0.47761918079E+02  0.00000000000E+00 0.  1.
         25    1    1    2    0    0  0.11445465985E+03 -0.74547946595E+02  0.22767398764E+03  0.29345819148E+03  0.12500000000E+03 0.  0.
         25    1    1    2    0    0 -0.66569917238E+02  0.10869685222E+03  0.11011939689E+04  0.11155714754E+04  0.12500000000E+03 0.  0.
         25    1    1    2    0    0 -0.47884742607E+02 -0.34148905621E+02  0.61346006530E+03  0.62882219112E+03  0.12500000000E+03 0.  0.
</event>
<event>
 5    0  0.5619558E-005  0.5531494E+03  0.7546771E-02  0.1000768E+00
         21   -1    0    0  502  501  0.00000000000E+00  0.00000000000E+00  0.13911281246E+04  0.13911281246E+04  0.00000000000E+00 0. -1.
         21   -1    0    0  501  502 -0.00000000000E+00 -0.00000000000E+00 -0.21994683791E+03  0.21994683791E+03  0.00000000000E+00 0. -1.
         25    1    1    2    0    0  0.33525891097E+03 -0.19566603244E+03  0.40431153518E+03  0.57426174443E+03  0.12500000000E+03 0.  0.
         25    1    1    2    0    0 -0.32026991326E+03 -0.97444044366E+02  0.27655258918E+03  0.45185671811E+03  0.12500000000E+03 0.  0.
         25    1    1    2    0    0 -0.14988997707E+02  0.29311007680E+03  0.49031716230E+03  0.58495649994E+03  0.12500000000E+03 0.  0.
</event>
<event>
 5    0  0.5619558E-005  0.3162678E+03  0.7546771E-02  0.1077380E+00
         21   -1    0    0  502  501  0.00000000000E+00  0.00000000000E+00  0.25632637002E+03  0.25632637002E+03  0.00000000000E+00 0.  1.
         21   -1    0    0  501  502 -0.00000000000E+00 -0.00000000000E+00 -0.39022648571E+03  0.39022648571E+03  0.00000000000E+00 0.  1.
         25    1    1    2    0    0 -0.11566482884E+03  0.13441083694E+03 -0.13970007280E+03  0.25804212071E+03  0.12500000000E+03 0.  0.
         25    1    1    2    0    0 -0.53083974200E+02 -0.11311852129E+03 -0.84866302372E+01  0.17694838532E+03  0.12500000000E+03 0.  0.
         25    1    1    2    0    0  0.16874880304E+03 -0.21292315654E+02  0.14286587342E+02  0.21156234970E+03  0.12500000000E+03 0.  0.
</event>
<event>
 5    0  0.5619558E-005  0.3029645E+03  0.7546771E-02  0.1083768E+00
         21   -1    0    0  502  501  0.00000000000E+00  0.00000000000E+00  0.53196560632E+02  0.53196560632E+02  0.00000000000E+00 0. -1.
         21   -1    0    0  501  502 -0.00000000000E+00 -0.00000000000E+00 -0.17254399812E+04  0.17254399812E+04  0.00000000000E+00 0. -1.
         25    1    1    2    0    0 -0.41649900504E+02  0.26847090742E+02 -0.11804684515E+04  0.11881019507E+04  0.12500000000E+03 0.  0.
         25    1    1    2    0    0  0.11469431864E+03  0.27502734720E+02 -0.24362678758E+03  0.29814459373E+03  0.12500000000E+03 0.  0.
         25    1    1    2    0    0 -0.73044418137E+02 -0.54349825463E+02 -0.24814818151E+03  0.29238999732E+03  0.12500000000E+03 0.  0.
</event>
<event>
 5    0  0.5619558E-005  0.3189503E+03  0.7546771E-02  0.1076133E+00
         21   -1    0    0  502  501  0.00000000000E+00  0.00000000000E+00  0.84191996267E+02  0.84191996267E+02  0.00000000000E+00 0.  1.
         21   -1    0    0  501  502 -0.00000000000E+00 -0.00000000000E+00 -0.12083009050E+04  0.12083009050E+04  0.00000000000E+00 0.  1.
         25    1    1    2    0    0 -0.54584215033E+02  0.15027830730E+03 -0.21917268173E+03  0.29870498923E+03  0.12500000000E+03 0.  0.
         25    1    1    2    0    0  0.76731806330E+01 -0.13872583408E+03 -0.80554625351E+03  0.82694225995E+03  0.12500000000E+03 0.  0.
         25    1    1    2    0    0  0.46911034400E+02 -0.11552473224E+02 -0.99389973473E+02  0.16684565207E+03  0.12500000000E+03 0.  0.
</event>
<event>
 5    0  0.5619558E-005  0.3041723E+03  0.7546771E-02  0.1083173E+00
         21   -1    0    0  502  501  0.00000000000E+00  0.00000000000E+00  0.47385904269E+03  0.47385904269E+03  0.00000000000E+00 0. -1.
         21   -1    0    0  501  502 -0.00000000000E+00 -0.00000000000E+00 -0.19524957028E+03  0.19524957028E+03  0.00000000000E+00 0. -1.
         25    1    1    2    0    0 -0.10868786072E+03 -0.62023386664E+02  0.91594307980E+02  0.19918450948E+03  0.12500000000E+03 0.  0.
         25    1    1    2    0    0 -0.26852865989E+02  0.11083008136E+03  0.21876985018E+03  0.27656758793E+03  0.12500000000E+03 0.  0.
         25    1    1    2    0    0  0.13554072671E+03 -0.48806694695E+02 -0.31754685745E+02  0.19335651556E+03  0.12500000000E+03 0.  0.
</event>
<event>
 5    0  0.5619558E-005  0.2496149E+03  0.7546771E-02  0.1113548E+00
         21   -1    0    0  502  501  0.00000000000E+00  0.00000000000E+00  0.25031005836E+03  0.25031005836E+03  0.00000000000E+00 0. -1.
         21   -1    0    0  501  502 -0.00000000000E+00 -0.00000000000E+00 -0.24892165860E+03  0.24892165860E+03  0.00000000000E+00 0. -1.
         25    1    1    2    0    0  0.50824364176E+02  0.26762970505E+02 -0.12155677943E+03  0.18357675018E+03  0.12500000000E+03 0.  0.
         25    1    1    2    0    0 -0.93143350415E+01  0.21306330481E+02  0.12087171143E+03  0.17543000650E+03  0.12500000000E+03 0.  0.
         25    1    1    2    0    0 -0.41510029134E+02 -0.48069300986E+02  0.20734677514E+01  0.14022496028E+03  0.12500000000E+03 0.  0.
</event>
<event>
 5    0  0.5619558E-005  0.3064346E+03  0.7546771E-02  0.1082068E+00
         21   -1    0    0  502  501  0.00000000000E+00  0.00000000000E+00  0.70601273473E+02  0.70601273473E+02  0.00000000000E+00 0. -1.
         21   -1    0    0  501  502 -0.00000000000E+00 -0.00000000000E+00 -0.13300353643E+04  0.13300353643E+04  0.00000000000E+00 0. -1.
         25    1    1    2    0    0 -0.82731312114E+02 -0.54744173343E+02 -0.22216398013E+03  0.27353834939E+03  0.12500000000E+03 0.  0.
         25    1    1    2    0    0 -0.95238618372E+02  0.12747509753E+02 -0.73869647093E+03  0.75533460770E+03  0.12500000000E+03 0.  0.
         25    1    1    2    0    0  0.17796993049E+03  0.41996663590E+02 -0.29857363978E+03  0.37176368069E+03  0.12500000000E+03 0.  0.
</event>
<event>
 5    0  0.5619558E-005  0.2897414E+03  0.7546771E-02  0.1090484E+00
         21   -1    0    0  502  501  0.00000000000E+00  0.00000000000E+00  0.70251268957E+03  0.70251268957E+03  0.00000000000E+00 0. -1.
         21   -1    0    0  501  502 -0.00000000000E+00 -0.00000000000E+00 -0.11949976988E+03  0.11949976988E+03  0.00000000000E+00 0. -1.
         25    1    1    2    0    0 -0.10536369746E+03  0.10359484578E+03  0.22723532999E+03  0.29848667644E+03  0.12500000000E+03 0.  0.
         25    1    1    2    0    0  0.26050936815E+02 -0.11654691112E+03  0.33022516447E+03  0.37274051705E+03  0.12500000000E+03 0.  0.
         25    1    1    2    0    0  0.79312760647E+02  0.12952065337E+02  0.25552425232E+02  0.15078526597E+03  0.12500000000E+03 0.  0.
</event>
<event>
 5    0  0.5619558E-005  0.2629640E+03  0.7546771E-02  0.1105375E+00
         21   -1    0    0  502  501  0.00000000000E+00  0.00000000000E+00  0.29338204499E+03  0.29338204499E+03  0.00000000000E+00 0.  1.
         21   -1    0    0  501  502 -0.00000000000E+00 -0.00000000000E+00 -0.23569971404E+03  0.23569971404E+03  0.00000000000E+00 0.  1.
         25    1    1    2    0    0 -0.91748381453E+02  0.54183881911E+01 -0.45124914427E+02  0.16158088480E+03  0.12500000000E+03 0.  0.
         25    1    1    2    0    0  0.95700479459E+02 -0.16461327496E+02 -0.53438095365E+02  0.16706342241E+03  0.12500000000E+03 0.  0.
         25    1    1    2    0    0 -0.39520980051E+01  0.11042939305E+02  0.15624534074E+03  0.20043745182E+03  0.12500000000E+03 0.  0.
</event>
<event>
 5    0  0.5619558E-005  0.2614790E+03  0.7546771E-02  0.1106258E+00
         21   -1    0    0  502  501  0.00000000000E+00  0.00000000000E+00  0.18001243080E+03  0.18001243080E+03  0.00000000000E+00 0.  1.
         21   -1    0    0  501  502 -0.00000000000E+00 -0.00000000000E+00 -0.37981427967E+03  0.37981427967E+03  0.00000000000E+00 0.  1.
         25    1    1    2    0    0 -0.11172568756E+03 -0.11740308815E+03 -0.10470321823E+03  0.22989971351E+03  0.12500000000E+03 0.  0.
         25    1    1    2    0    0  0.97870548969E+02  0.99425777064E+02 -0.40507561425E+02  0.19165070319E+03  0.12500000000E+03 0.  0.
         25    1    1    2    0    0  0.13855138586E+02  0.17977311083E+02 -0.54591069211E+02  0.13827629376E+03  0.12500000000E+03 0.  0.
</event>
<event>
 5    0  0.5619558E-005  0.5608137E+03  0.7546771E-02  0.9990215E-01
         21   -1    0    0  502  501  0.00000000000E+00  0.00000000000E+00  0.19638845010E+03  0.19638845010E+03  0.00000000000E+00 0.  1.
         21   -1    0    0  501  502 -0.00000000000E+00 -0.00000000000E+00 -0.16014792103E+04  0.16014792103E+04  0.00000000000E+00 0.  1.
         25    1    1    2    0    0  0.24723252718E+03  0.45086641228E+02 -0.12420643620E+04  0.12733835271E+04  0.12500000000E+03 0.  0.
         25    1    1    2    0    0  0.31444789149E+01  0.48624386512E+02  0.67327084958E+02  0.15010714533E+03  0.12500000000E+03 0.  0.
         25    1    1    2    0    0 -0.25037700609E+03 -0.93711027739E+02 -0.23035348308E+03  0.37437698789E+03  0.12500000000E+03 0.  0.
</event>
<event>
 5    0  0.5619558E-005  0.3439546E+03  0.7546771E-02  0.1065124E+00
         21   -1    0    0  502  501  0.00000000000E+00  0.00000000000E+00  0.17856841193E+03  0.17856841193E+03  0.00000000000E+00 0. -1.
         21   -1    0    0  501  502 -0.00000000000E+00 -0.00000000000E+00 -0.66251794712E+03  0.66251794712E+03  0.00000000000E+00 0. -1.
         25    1    1    2    0    0  0.59723315564E+02 -0.77645833533E+02 -0.21952859520E+03  0.27094935689E+03  0.12500000000E+03 0.  0.
         25    1    1    2    0    0 -0.30721498236E+02  0.65490675958E+02 -0.37402662170E+03  0.40094108399E+03  0.12500000000E+03 0.  0.
         25    1    1    2    0    0 -0.29001817327E+02  0.12155157574E+02  0.10960568171E+03  0.16919591818E+03  0.12500000000E+03 0.  0.
</event>
<event>
 5    0  0.5619558E-005  0.6536968E+03  0.7546771E-02  0.9799867E-01
         21   -1    0    0  502  501  0.00000000000E+00  0.00000000000E+00  0.41525034406E+03  0.41525034406E+03  0.00000000000E+00 0. -1.
         21   -1    0    0  501  502 -0.00000000000E+00 -0.00000000000E+00 -0.10290647511E+04  0.10290647511E+04  0.00000000000E+00 0. -1.
         25    1    1    2    0    0 -0.32818781023E+03 -0.39547168427E+03 -0.67372048765E+03  0.85652167943E+03  0.12500000000E+03 0.  0.
         25    1    1    2    0    0  0.21438828199E+03  0.21992918641E+03  0.86367118254E+02  0.34265939591E+03  0.12500000000E+03 0.  0.
         25    1    1    2    0    0  0.11379952824E+03  0.17554249786E+03 -0.26461037677E+02  0.24513401987E+03  0.12500000000E+03 0.  0.
</event>
<event>
 5    0  0.5619558E-005  0.3358324E+03  0.7546771E-02  0.1068585E+00
         21   -1    0    0  502  501  0.00000000000E+00  0.00000000000E+00  0.96431939303E+03  0.96431939303E+03  0.00000000000E+00 0.  1.
         21   -1    0    0  501  502 -0.00000000000E+00 -0.00000000000E+00 -0.11695649880E+03  0.11695649880E+03  0.00000000000E+00 0.  1.
         25    1    1    2    0    0  0.10563855434E+03 -0.16854304734E+03  0.36212269208E+03  0.43165276217E+03  0.12500000000E+03 0.  0.
         25    1    1    2    0    0 -0.87605967630E+02  0.23287208338E+03  0.38868130326E+03  0.47812380017E+03  0.12500000000E+03 0.  0.
         25    1    1    2    0    0 -0.18032586711E+02 -0.64329036039E+02  0.96558898885E+02  0.17149932949E+03  0.12500000000E+03 0.  0.
</event>
<event>
 5    0  0.5619558E-005  0.2510566E+03  0.7546771E-02  0.1112639E+00
         21   -1    0    0  502  501  0.00000000000E+00  0.00000000000E+00  0.14534045141E+03  0.14534045141E+03  0.00000000000E+00 0.  1.
         21   -1    0    0  501  502 -0.00000000000E+00 -0.00000000000E+00 -0.43366725676E+03  0.43366725676E+03  0.00000000000E+00 0.  1.
         25    1    1    2    0    0  0.75289985612E+02  0.89829557190E+02 -0.10140854823E+03  0.19911460251E+03  0.12500000000E+03 0.  0.
         25    1    1    2    0    0 -0.52346875308E+02 -0.81108909403E+02 -0.52633427093E+01  0.15802390109E+03  0.12500000000E+03 0.  0.
         25    1    1    2    0    0 -0.22943110304E+02 -0.87206477865E+01 -0.18165491441E+03  0.22186920457E+03  0.12500000000E+03 0.  0.
</event>
<event>
 5    0  0.5619558E-005  0.2656965E+03  0.7546771E-02  0.1103768E+00
         21   -1    0    0  502  501  0.00000000000E+00  0.00000000000E+00  0.15416626617E+03  0.15416626617E+03  0.00000000000E+00 0.  1.
         21   -1    0    0  501  502 -0.00000000000E+00 -0.00000000000E+00 -0.45791237454E+03  0.45791237454E+03  0.00000000000E+00 0.  1.
         25    1    1    2    0    0 -0.36569306200E+02 -0.54894983622E+02 -0.73011721863E+02  0.15908012105E+03  0.12500000000E+03 0.  0.
         25    1    1    2    0    0 -0.60014239050E+02  0.94914203353E+02 -0.23629184592E+03  0.28994698022E+03  0.12500000000E+03 0.  0.
         25    1    1    2    0    0  0.96583545250E+02 -0.40019219732E+02  0.55574594211E+01  0.16305153945E+03  0.12500000000E+03 0.  0.
</event>
<event>
 5    0  0.5619558E-005  0.3308589E+03  0.7546771E-02  0.1070757E+00
         21   -1    0    0  502  501  0.00000000000E+00  0.00000000000E+00  0.97482887289E+02  0.97482887289E+02  0.00000000000E+00 0. -1.
         21   -1    0    0  501  502 -0.00000000000E+00 -0.00000000000E+00 -0.11229418039E+04  0.11229418039E+04  0.00000000000E+00 0. -1.
         25    1    1    2    0    0  0.17487846491E+02  0.17735554708E+03 -0.38811973948E+03  0.44499746856E+03  0.12500000000E+03 0.  0.
         25    1    1    2    0    0 -0.34040379819E+01 -0.97375486766E+02 -0.45191637149E+02  0.16480551255E+03  0.12500000000E+03 0.  0.
         25    1    1    2    0    0 -0.14083808509E+02 -0.79980060314E+02 -0.59214753997E+03  0.61062171006E+03  0.12500000000E+03 0.  0.
</event>
<event>
 5    0  0.5686391E-005  0.3371309E+03  0.7546771E-02  0.1068025E+00
         21   -1    0    0  502  501  0.00000000000E+00  0.00000000000E+00  0.16335720753E+03  0.16335720753E+03  0.00000000000E+00 0. -1.
         21   -1    0    0  501  502 -0.00000000000E+00 -0.00000000000E+00 -0.69575911651E+03  0.69575911651E+03  0.00000000000E+00 0. -1.
         25    1    1    2    0    0  0.11091790498E+03  0.12335043888E+03 -0.33762032404E+03  0.39639701768E+03  0.12500000000E+03 0.  0.
         25    1    1    2    0    0 -0.16610187740E+03  0.29563832505E+02 -0.13297949965E+03  0.24854054236E+03  0.12500000000E+03 0.  0.
         25    1    1    2    0    0  0.55183972413E+02 -0.15291427139E+03 -0.61802085287E+02  0.21417876401E+03  0.12500000000E+03 0.  0.
</event>
<event>
 5    0  0.7221284E-005  0.3497606E+03  0.7546771E-02  0.1062713E+00
         21   -1    0    0  502  501  0.00000000000E+00  0.00000000000E+00  0.16331689718E+03  0.16331689718E+03  0.00000000000E+00 0.  1.
         21   -1    0    0  501  502 -0.00000000000E+00 -0.00000000000E+00 -0.74904993199E+03  0.74904993199E+03  0.00000000000E+00 0.  1.
         25    1    1    2    0    0  0.20209111577E+03 -0.45235863021E+02 -0.64900247192E+02  0.25044788772E+03  0.12500000000E+03 0.  0.
         25    1    1    2    0    0 -0.35404671751E+02  0.38003203293E+02 -0.39699405345E+03  0.41943654194E+03  0.12500000000E+03 0.  0.
         25    1    1    2    0    0 -0.16668644402E+03  0.72326597280E+01 -0.12383873417E+03  0.24248239950E+03  0.12500000000E+03 0.  0.
</event>
<event>
 5    0  0.5619558E-005  0.3363506E+03  0.7546771E-02  0.1068361E+00
         21   -1    0    0  502  501  0.00000000000E+00  0.00000000000E+00  0.31763968298E+03  0.31763968298E+03  0.00000000000E+00 0. -1.
         21   -1    0    0  501  502 -0.00000000000E+00 -0.00000000000E+00 -0.35616362877E+03  0.35616362877E+03  0.00000000000E+00 0. -1.
         25    1    1    2    0    0  0.35164047812E+02 -0.90387178001E+02  0.79405057122E+02  0.17702122839E+03  0.12500000000E+03 0.  0.
         25    1    1    2    0    0  0.45302040717E+02  0.10792468379E+03 -0.24603115130E+03  0.29976047050E+03  0.12500000000E+03 0.  0.
         25    1    1    2    0    0 -0.80466088528E+02 -0.17537505786E+02  0.12810214839E+03  0.19702161286E+03  0.12500000000E+03 0.  0.
</event>
<event>
 5    0  0.5619558E-005  0.3373180E+03  0.7546771E-02  0.1067944E+00
         21   -1    0    0  502  501  0.00000000000E+00  0.00000000000E+00  0.46203106841E+02  0.46203106841E+02  0.00000000000E+00 0. -1.
         21   -1    0    0  501  502 -0.00000000000E+00 -0.00000000000E+00 -0.24626789139E+04  0.24626789139E+04  0.00000000000E+00 0. -1.
         25    1    1    2    0    0 -0.14548417385E+03  0.85042895011E+02 -0.10330130437E+04  0.10541057287E+04  0.12500000000E+03 0.  0.
         25    1    1    2    0    0  0.78097412858E+01 -0.10674563768E+03 -0.11173622894E+04  0.11294153837E+04  0.12500000000E+03 0.  0.
         25    1    1    2    0    0  0.13767443257E+03  0.21702742669E+02 -0.26610047403E+03  0.32536090838E+03  0.12500000000E+03 0.  0.
</event>
<event>
 5    0  0.5619558E-005  0.2495120E+03  0.7546771E-02  0.1113614E+00
         21   -1    0    0  502  501  0.00000000000E+00  0.00000000000E+00  0.30160066576E+03  0.30160066576E+03  0.00000000000E+00 0. -1.
         21   -1    0    0  501  502 -0.00000000000E+00 -0.00000000000E+00 -0.20641950005E+03  0.20641950005E+03  0.00000000000E+00 0. -1.
         25    1    1    2    0    0 -0.28626036612E+02 -0.21763090196E+02  0.19012544023E+02  0.13145173600E+03  0.12500000000E+03 0.  0.
         25    1    1    2    0    0 -0.10916328897E+03  0.64196389704E+02  0.39001160835E+02  0.18216446046E+03  0.12500000000E+03 0.  0.
         25    1    1    2    0    0  0.13778932558E+03 -0.42433299509E+02  0.37167460849E+02  0.19440396935E+03  0.12500000000E+03 0.  0.
</event>
<event>
 5    0  0.5619558E-005  0.3141306E+03  0.7546771E-02  0.1078383E+00
         21   -1    0    0  502  501  0.00000000000E+00  0.00000000000E+00  0.12879197611E+04  0.12879197611E+04  0.00000000000E+00 0.  1.
         21   -1    0    0  501  502 -0.00000000000E+00 -0.00000000000E+00 -0.76618149059E+02  0.76618149059E+02  0.00000000000E+00 0.  1.
         25    1    1    2    0    0  0.73760958325E+02  0.17226192958E+03  0.61938048631E+03  0.65906906936E+03  0.12500000000E+03 0.  0.
         25    1    1    2    0    0 -0.12636274482E+03 -0.28589210488E+02  0.34583251134E+03  0.38988461387E+03  0.12500000000E+03 0.  0.
         25    1    1    2    0    0  0.52601786494E+02 -0.14367271909E+03  0.24608861437E+03  0.31558422691E+03  0.12500000000E+03 0.  0.
</event>
<event>
 5    0  0.5820738E-005  0.3371252E+03  0.7546771E-02  0.1068027E+00
         21   -1    0    0  502  501  0.00000000000E+00  0.00000000000E+00  0.58137747829E+03  0.58137747829E+03  0.00000000000E+00 0.  1.
         21   -1    0    0  501  502 -0.00000000000E+00 -0.00000000000E+00 -0.19548980614E+03  0.19548980614E+03  0.00000000000E+00 0.  1.
         25    1    1    2    0    0 -0.18370314005E+03 -0.77877299323E+02  0.20341932103E+03  0.31115291672E+03  0.12500000000E+03 0.  0.
         25    1    1    2    0    0 -0.60453307004E+02  0.31491202440E+02  0.10510083842E+03  0.17696746705E+03  0.12500000000E+03 0.  0.
         25    1    1    2    0    0  0.24415644705E+03  0.46386096883E+02  0.77367512706E+02  0.28874690066E+03  0.12500000000E+03 0.  0.
</event>
<event>
 5    0  0.5619558E-005  0.3142318E+03  0.7546771E-02  0.1078335E+00
         21   -1    0    0  502  501  0.00000000000E+00  0.00000000000E+00  0.28139899084E+03  0.28139899084E+03  0.00000000000E+00 0. -1.
         21   -1    0    0  501  502 -0.00000000000E+00 -0.00000000000E+00 -0.35089542800E+03  0.35089542800E+03  0.00000000000E+00 0. -1.
         25    1    1    2    0    0 -0.10464320567E+03 -0.19733776738E+03 -0.14775926515E+02  0.25638978711E+03  0.12500000000E+03 0.  0.
         25    1    1    2    0    0  0.10569593717E+03  0.18078215680E+03 -0.54080789229E+02  0.24980702776E+03  0.12500000000E+03 0.  0.
         25    1    1    2    0    0 -0.10527315054E+01  0.16555610579E+02 -0.63972141818E+00  0.12609760398E+03  0.12500000000E+03 0.  0.
</event>
<event>
 5    0  0.5771162E-005  0.2561094E+03  0.7546771E-02  0.1109504E+00
         21   -1    0    0  502  501  0.00000000000E+00  0.00000000000E+00  0.54325956436E+03  0.54325956436E+03  0.00000000000E+00 0.  1.
         21   -1    0    0  501  502 -0.00000000000E+00 -0.00000000000E+00 -0.12073793403E+03  0.12073793403E+03  0.00000000000E+00 0.  1.
         25    1    1    2    0    0  0.20585426066E+02 -0.41003048479E+02  0.22922080238E+03  0.26508901522E+03  0.12500000000E+03 0.  0.
         25    1    1    2    0    0 -0.31307391685E+01  0.28082528270E+02  0.23304421182E+03  0.26595682842E+03  0.12500000000E+03 0.  0.
         25    1    1    2    0    0 -0.17454686898E+02  0.12920520209E+02 -0.39743383862E+02  0.13295165474E+03  0.12500000000E+03 0.  0.
</event>
<event>
 5    0  0.5619558E-005  0.3270077E+03  0.7546771E-02  0.1072469E+00
         21   -1    0    0  502  501  0.00000000000E+00  0.00000000000E+00  0.41930930653E+03  0.41930930653E+03  0.00000000000E+00 0. -1.
         21   -1    0    0  501  502 -0.00000000000E+00 -0.00000000000E+00 -0.25502427251E+03  0.25502427251E+03  0.00000000000E+00 0. -1.
         25    1    1    2    0    0 -0.12488340308E+02 -0.17377216392E+03  0.99132520524E+02  0.23623077747E+03  0.12500000000E+03 0.  0.
         25    1    1    2    0    0 -0.63833496129E+02  0.17960141466E+03 -0.70290519803E+02  0.23853121504E+03  0.12500000000E+03 0.  0.
         25    1    1    2    0    0  0.76321836437E+02 -0.58292507420E+01  0.13544303329E+03  0.19957158653E+03  0.12500000000E+03 0.  0.
</event>
<event>
 5    0  0.5619558E-005  0.3960816E+03  0.7546771E-02  0.1045145E+00
         21   -1    0    0  502  501  0.00000000000E+00  0.00000000000E+00  0.20954446330E+03  0.20954446330E+03  0.00000000000E+00 0.  1.
         21   -1    0    0  501  502 -0.00000000000E+00 -0.00000000000E+00 -0.74867471168E+03  0.74867471168E+03  0.00000000000E+00 0.  1.
         25    1    1    2    0    0  0.12648460439E+03 -0.88570945203E+02 -0.24231660165E+03  0.31334566044E+03  0.12500000000E+03 0.  0.
         25    1    1    2    0    0 -0.97373945799E+02  0.28079637482E+03 -0.25251418345E+03  0.40953229698E+03  0.12500000000E+03 0.  0.
         25    1    1    2    0    0 -0.29110658591E+02 -0.19222542961E+03 -0.44299463285E+02  0.23534121756E+03  0.12500000000E+03 0.  0.
</event>
<event>
 5    0  0.5619558E-005  0.4334682E+03  0.7546771E-02  0.1032770E+00
         21   -1    0    0  502  501  0.00000000000E+00  0.00000000000E+00  0.52758210482E+03  0.52758210482E+03  0.00000000000E+00 0.  1.
         21   -1    0    0  501  502 -0.00000000000E+00 -0.00000000000E+00 -0.35614301838E+03  0.35614301838E+03  0.00000000000E+00 0.  1.
         25    1    1    2    0    0 -0.62890496745E+02 -0.17038395291E+02  0.21283809917E+03  0.25528528738E+03  0.12500000000E+03 0.  0.
         25    1    1    2    0    0 -0.18753366602E+03  0.18858325685E+02  0.16560756162E+03  0.28031299792E+03  0.12500000000E+03 0.  0.
         25    1    1    2    0    0  0.25042416276E+03 -0.18199303935E+01 -0.20700657435E+03  0.34812683790E+03  0.12500000000E+03 0.  0.
</event>
<event>
 5    0  0.5619558E-005  0.3080620E+03  0.7546771E-02  0.1081279E+00
         21   -1    0    0  502  501  0.00000000000E+00  0.00000000000E+00  0.57348948630E+03  0.57348948630E+03  0.00000000000E+00 0. -1.
         21   -1    0    0  501  502 -0.00000000000E+00 -0.00000000000E+00 -0.16548202509E+03  0.16548202509E+03  0.00000000000E+00 0. -1.
         25    1    1    2    0    0  0.14421699382E+03  0.15707131505E+03  0.21172024723E+03  0.32545414793E+03  0.12500000000E+03 0.  0.
         25    1    1    2    0    0 -0.85770059941E+01 -0.11712857772E+02  0.42606455991E+02  0.13285731505E+03  0.12500000000E+03 0.  0.
         25    1    1    2    0    0 -0.13563998782E+03 -0.14535845728E+03  0.15368075800E+03  0.28066004842E+03  0.12500000000E+03 0.  0.
</event>
<event>
 5    0  0.5637782E-005  0.2858513E+03  0.7546771E-02  0.1092535E+00
         21   -1    0    0  502  501  0.00000000000E+00  0.00000000000E+00  0.27470183083E+03  0.27470183083E+03  0.00000000000E+00 0.  1.
         21   -1    0    0  501  502 -0.00000000000E+00 -0.00000000000E+00 -0.29745337314E+03  0.29745337314E+03  0.00000000000E+00 0.  1.
         25    1    1    2    0    0 -0.57502143301E+01  0.15252688747E+03 -0.72243618152E+02  0.21009915928E+03  0.12500000000E+03 0.  0.
         25    1    1    2    0    0  0.25359133067E+01 -0.27096827659E+02  0.11617632216E+03  0.17280800548E+03  0.12500000000E+03 0.  0.
         25    1    1    2    0    0  0.32143010234E+01 -0.12543005982E+03 -0.66684246327E+02  0.18924803921E+03  0.12500000000E+03 0.  0.
</event>
<event>
 5    0  0.5619558E-005  0.2092316E+03  0.7546771E-02  0.1142176E+00
         21   -1    0    0  502  501  0.00000000000E+00  0.00000000000E+00  0.54225686703E+03  0.54225686703E+03  0.00000000000E+00 0. -1.
         21   -1    0    0  501  502 -0.00000000000E+00 -0.00000000000E+00 -0.80732716893E+02  0.80732716893E+02  0.00000000000E+00 0. -1.
         25    1    1    2    0    0 -0.27534395245E+02  0.11212414186E+02  0.21577062857E+03  0.25112910088E+03  0.12500000000E+03 0.  0.
         25    1    1    2    0    0  0.26152138999E+02 -0.51772291655E+02  0.76625652510E+02  0.15767306422E+03  0.12500000000E+03 0.  0.
         25    1    1    2    0    0  0.13822562459E+01  0.40559877468E+02  0.16912786906E+03  0.21418741883E+03  0.12500000000E+03 0.  0.
</event>
<event>
 5    0  0.5619558E-005  0.3251531E+03  0.7546771E-02  0.1073302E+00
         21   -1    0    0  502  501  0.00000000000E+00  0.00000000000E+00  0.64834000475E+03  0.64834000475E+03  0.00000000000E+00 0. -1.
         21   -1    0    0  501  502 -0.00000000000E+00 -0.00000000000E+00 -0.16306962400E+03  0.16306962400E+03  0.00000000000E+00 0. -1.
         25    1    1    2    0    0 -0.42751643655E+02 -0.35179424397E+02  0.13387359301E+02  0.13736635805E+03  0.12500000000E+03 0.  0.
         25    1    1    2    0    0  0.21759308802E+03  0.57549979769E+02  0.31596275180E+03  0.40757356716E+03  0.12500000000E+03 0.  0.
         25    1    1    2    0    0 -0.17484144437E+03 -0.22370555372E+02  0.15592026965E+03  0.26646970354E+03  0.12500000000E+03 0.  0.
</event>
<event>
 5    0  0.5619558E-005  0.2127455E+03  0.7546771E-02  0.1139410E+00
         21   -1    0    0  502  501  0.00000000000E+00  0.00000000000E+00  0.96737681360E+02  0.96737681360E+02  0.00000000000E+00 0.  1.
         21   -1    0    0  501  502 -0.00000000000E+00 -0.00000000000E+00 -0.46787006379E+03  0.46787006379E+03  0.00000000000E+00 0.  1.
         25    1    1    2    0    0 -0.50831217259E+02 -0.53543844549E+01 -0.14569607033E+03  0.19865756213E+03  0.12500000000E+03 0.  0.
         25    1    1    2    0    0  0.51922796288E+02 -0.50065548970E+01 -0.38467949406E+02  0.14080420980E+03  0.12500000000E+03 0.  0.
         25    1    1    2    0    0 -0.10915790282E+01  0.10360939352E+02 -0.18696836269E+03  0.22514597322E+03  0.12500000000E+03 0.  0.
</event>
<event>
 5    0  0.5619558E-005  0.3433957E+03  0.7546771E-02  0.1065359E+00
         21   -1    0    0  502  501  0.00000000000E+00  0.00000000000E+00  0.45449184503E+02  0.45449184503E+02  0.00000000000E+00 0.  1.
         21   -1    0    0  501  502 -0.00000000000E+00 -0.00000000000E+00 -0.25945590505E+04  0.25945590505E+04  0.00000000000E+00 0.  1.
         25    1    1    2    0    0  0.71429980215E+02 -0.10727976736E+03 -0.17591292212E+04  0.17682680248E+04  0.12500000000E+03 0.  0.
         25    1    1    2    0    0 -0.42577172752E+02  0.17606106494E+03 -0.52811858942E+03  0.57214033132E+03  0.12500000000E+03 0.  0.
         25    1    1    2    0    0 -0.28852807463E+02 -0.68781297575E+02 -0.26186205533E+03  0.29959987886E+03  0.12500000000E+03 0.  0.
</event>
<event>
 5    0  0.5619558E-005  0.6936785E+03  0.7546771E-02  0.9728104E-01
         21   -1    0    0  502  501  0.00000000000E+00  0.00000000000E+00  0.13855834027E+03  0.13855834027E+03  0.00000000000E+00 0. -1.
         21   -1    0    0  501  502 -0.00000000000E+00 -0.00000000000E+00 -0.34728322796E+04  0.34728322796E+04  0.00000000000E+00 0. -1.
         25    1    1    2    0    0  0.48069475839E+03  0.12174206060E+02 -0.13545916205E+04  0.14428302465E+04  0.12500000000E+03 0.  0.
         25    1    1    2    0    0 -0.11521528986E+03 -0.47445349252E+02 -0.16502735062E+04  0.16596846898E+04  0.12500000000E+03 0.  0.
         25    1    1    2    0    0 -0.36547946853E+03  0.35271143191E+02 -0.32940881262E+03  0.50887568353E+03  0.12500000000E+03 0.  0.
</event>
<event>
 5    0  0.5619558E-005  0.2683791E+03  0.7546771E-02  0.1102211E+00
         21   -1    0    0  502  501  0.00000000000E+00  0.00000000000E+00  0.32175960732E+03  0.32175960732E+03  0.00000000000E+00 0. -1.
         21   -1    0    0  501  502 -0.00000000000E+00 -0.00000000000E+00 -0.22385459420E+03  0.22385459420E+03  0.00000000000E+00 0. -1.
         25    1    1    2    0    0  0.18387038422E+02 -0.70383819112E+02 -0.64285832323E+02  0.15827075981E+03  0.12500000000E+03 0.  0.
         25    1    1    2    0    0 -0.26275747753E+01 -0.80420023867E+02  0.33315935622E+02  0.15234577761E+03  0.12500000000E+03 0.  0.
         25    1    1    2    0    0 -0.15759463647E+02  0.15080384298E+03  0.12887490981E+03  0.23499766410E+03  0.12500000000E+03 0.  0.
</event>
<event>
 5    0  0.5619558E-005  0.3036011E+03  0.7546771E-02  0.1083454E+00
         21   -1    0    0  502  501  0.00000000000E+00  0.00000000000E+00  0.12913463487E+03  0.12913463487E+03  0.00000000000E+00 0. -1.
         21   -1    0    0  501  502 -0.00000000000E+00 -0.00000000000E+00 -0.71377915333E+03  0.71377915333E+03  0.00000000000E+00 0. -1.
         25    1    1    2    0    0  0.11183900745E+03  0.39963563106E+02 -0.34808879243E+02  0.17590255267E+03  0.12500000000E+03 0.  0.
         25    1    1    2    0    0 -0.15842555675E+03 -0.85582922493E+02 -0.23127507800E+03  0.31864754096E+03  0.12500000000E+03 0.  0.
         25    1    1    2    0    0  0.46586549301E+02  0.45619359386E+02 -0.31856056122E+03  0.34836369457E+03  0.12500000000E+03 0.  0.
</event>
<event>
 5    0  0.5619558E-005  0.3363175E+03  0.7546771E-02  0.1068375E+00
         21   -1    0    0  502  501  0.00000000000E+00  0.00000000000E+00  0.13975582731E+03  0.13975582731E+03  0.00000000000E+00 0.  1.
         21   -1    0    0  501  502 -0.00000000000E+00 -0.00000000000E+00 -0.80933609127E+03  0.80933609127E+03  0.00000000000E+00 0.  1.
         25    1    1    2    0    0 -0.12711764713E+02  0.62235345926E+02  0.12258544501E+02  0.14074835402E+03  0.12500000000E+03 0.  0.
         25    1    1    2    0    0  0.33177328660E+02  0.91143531500E+02 -0.85793945263E+02  0.17998188663E+03  0.12500000000E+03 0.  0.
         25    1    1    2    0    0 -0.20465563948E+02 -0.15337887743E+03 -0.59604486320E+03  0.62836167794E+03  0.12500000000E+03 0.  0.
</event>
<event>
 5    0  0.5619558E-005  0.5452528E+03  0.7546771E-02  0.1002599E+00
         21   -1    0    0  502  501  0.00000000000E+00  0.00000000000E+00  0.74846358892E+03  0.74846358892E+03  0.00000000000E+00 0. -1.
         21   -1    0    0  501  502 -0.00000000000E+00 -0.00000000000E+00 -0.39721455639E+03  0.39721455639E+03  0.00000000000E+00 0. -1.
         25    1    1    2    0    0 -0.23193771202E+03 -0.16779363872E+03  0.55680543436E+03  0.63844114779E+03  0.12500000000E+03 0.  0.
         25    1    1    2    0    0 -0.13962400090E+02  0.97262372689E+02 -0.51921598171E+01  0.15908135114E+03  0.12500000000E+03 0.  0.
         25    1    1    2    0    0  0.24590011211E+03  0.70531266034E+02 -0.20036424202E+03  0.34815564638E+03  0.12500000000E+03 0.  0.
</event>
<event>
 5    0  0.5619558E-005  0.2388229E+03  0.7546771E-02  0.1120579E+00
         21   -1    0    0  502  501  0.00000000000E+00  0.00000000000E+00  0.58173953025E+03  0.58173953025E+03  0.00000000000E+00 0.  1.
         21   -1    0    0  501  502 -0.00000000000E+00 -0.00000000000E+00 -0.98044560747E+02  0.98044560747E+02  0.00000000000E+00 0.  1.
         25    1    1    2    0    0 -0.35477537905E+02 -0.65983398926E+01  0.98274376782E+02  0.16304921624E+03  0.12500000000E+03 0.  0.
         25    1    1    2    0    0  0.91324689150E+02  0.75041780598E+02  0.11802520231E+03  0.20862985420E+03  0.12500000000E+03 0.  0.
         25    1    1    2    0    0 -0.55847151246E+02 -0.68443440706E+02  0.26739539041E+03  0.30810502055E+03  0.12500000000E+03 0.  0.
</event>
<event>
 5    0  0.5619558E-005  0.1995241E+03  0.7546771E-02  0.1150141E+00
         21   -1    0    0  502  501  0.00000000000E+00  0.00000000000E+00  0.14161610329E+03  0.14161610329E+03  0.00000000000E+00 0.  1.
         21   -1    0    0  501  502 -0.00000000000E+00 -0.00000000000E+00 -0.28111106595E+03  0.28111106595E+03  0.00000000000E+00 0.  1.
         25    1    1    2    0    0  0.22514753957E+02 -0.35239437203E+02 -0.68235421915E+02  0.14842440798E+03  0.12500000000E+03 0.  0.
         25    1    1    2    0    0 -0.35553263702E+01  0.31195022701E+02 -0.72354405263E+02  0.14780368652E+03  0.12500000000E+03 0.  0.
         25    1    1    2    0    0 -0.18959427586E+02  0.40444145018E+01  0.10948645237E+01  0.12649907475E+03  0.12500000000E+03 0.  0.
</event>
<event>
 5    0  0.5698884E-005  0.2480823E+03  0.7546771E-02  0.1114523E+00
         21   -1    0    0  502  501  0.00000000000E+00  0.00000000000E+00  0.48152764226E+03  0.48152764226E+03  0.00000000000E+00 0.  1.
         21   -1    0    0  501  502 -0.00000000000E+00 -0.00000000000E+00 -0.12781159592E+03  0.12781159592E+03  0.00000000000E+00 0.  1.
         25    1    1    2    0    0 -0.95696544598E+02  0.79979394242E+02  0.72730653200E+02  0.19096931708E+03  0.12500000000E+03 0.  0.
         25    1    1    2    0    0  0.14887168576E+02 -0.78338862727E+02  0.80643636869E+02  0.16878092715E+03  0.12500000000E+03 0.  0.
         25    1    1    2    0    0  0.80809376022E+02 -0.16405315157E+01  0.20034175627E+03  0.24958899395E+03  0.12500000000E+03 0.  0.
</event>
<event>
 5    0  0.5619558E-005  0.2820895E+03  0.7546771E-02  0.1094553E+00
         21   -1    0    0  502  501  0.00000000000E+00  0.00000000000E+00  0.13893070969E+04  0.13893070969E+04  0.00000000000E+00 0.  1.
         21   -1    0    0  501  502 -0.00000000000E+00 -0.00000000000E+00 -0.57276386802E+02  0.57276386802E+02  0.00000000000E+00 0.  1.
         25    1    1    2    0    0  0.81637684967E+02  0.10443533306E+03  0.93200221697E+03  0.94964445075E+03  0.12500000000E+03 0.  0.
         25    1    1    2    0    0 -0.51992525139E+02 -0.91071213900E+02  0.25500905103E+03  0.30274049082E+03  0.12500000000E+03 0.  0.
         25    1    1    2    0    0 -0.29645159829E+02 -0.13364119163E+02  0.14501944209E+03  0.19419854213E+03  0.12500000000E+03 0.  0.
</event>
<event>
 5    0  0.5619558E-005  0.3967556E+03  0.7546771E-02  0.1044909E+00
         21   -1    0    0  502  501  0.00000000000E+00  0.00000000000E+00  0.13239118242E+03  0.13239118242E+03  0.00000000000E+00 0.  1.
         21   -1    0    0  501  502 -0.00000000000E+00 -0.00000000000E+00 -0.11890141847E+04  0.11890141847E+04  0.00000000000E+00 0. -1.
         25    1    1    2    0    0 -0.23129312821E+03  0.70662330848E+02 -0.32405130558E+03  0.42323034485E+03  0.12500000000E+03 0.  0.
         25    1    1    2    0    0  0.30360784355E+03  0.48956154171E+02 -0.47969874798E+03  0.58336122301E+03  0.12500000000E+03 0.  0.
         25    1    1    2    0    0 -0.72314715345E+02 -0.11961848502E+03 -0.25287294877E+03  0.31481379931E+03  0.12500000000E+03 0.  0.
</event>
<event>
 5    0  0.5619558E-005  0.5785753E+03  0.7546771E-02  0.9950880E-01
         21   -1    0    0  502  501  0.00000000000E+00  0.00000000000E+00  0.20404542688E+03  0.20404542688E+03  0.00000000000E+00 0. -1.
         21   -1    0    0  501  502 -0.00000000000E+00 -0.00000000000E+00 -0.16405632359E+04  0.16405632359E+04  0.00000000000E+00 0. -1.
         25    1    1    2    0    0  0.30621399265E+03 -0.25909407686E+02 -0.58751090781E+02  0.33691986788E+03  0.12500000000E+03 0.  0.
         25    1    1    2    0    0 -0.30194551230E+03  0.15488714734E+03 -0.12062707917E+04  0.12593154266E+04  0.12500000000E+03 0.  0.
         25    1    1    2    0    0 -0.42684803472E+01 -0.12897773965E+03 -0.17149592653E+03  0.24837336827E+03  0.12500000000E+03 0.  0.
</event>
<event>
 5    0  0.5619558E-005  0.3032551E+03  0.7546771E-02  0.1083625E+00
         21   -1    0    0  502  501  0.00000000000E+00  0.00000000000E+00  0.12849109929E+04  0.12849109929E+04  0.00000000000E+00 0.  1.
         21   -1    0    0  501  502 -0.00000000000E+00 -0.00000000000E+00 -0.71572001755E+02  0.71572001755E+02  0.00000000000E+00 0.  1.
         25    1    1    2    0    0 -0.96504516293E+02  0.11163372476E+03  0.46570568926E+03  0.50426381902E+03  0.12500000000E+03 0.  0.
         25    1    1    2    0    0 -0.34382723152E+01 -0.19149967047E+03  0.38332072818E+03  0.44636725480E+03  0.12500000000E+03 0.  0.
         25    1    1    2    0    0  0.99942788608E+02  0.79865945703E+02  0.36431257368E+03  0.40585192081E+03  0.12500000000E+03 0.  0.
</event>
<event>
 5    0  0.5619558E-005  0.2466582E+03  0.7546771E-02  0.1115435E+00
         21   -1    0    0  502  501  0.00000000000E+00  0.00000000000E+00  0.28990436446E+03  0.28990436446E+03  0.00000000000E+00 0.  1.
         21   -1    0    0  501  502 -0.00000000000E+00 -0.00000000000E+00 -0.20986323165E+03  0.20986323165E+03  0.00000000000E+00 0.  1.
         25    1    1    2    0    0 -0.51498137215E+02 -0.54307332816E+02  0.12073372376E+03  0.18921674500E+03  0.12500000000E+03 0.  0.
         25    1    1    2    0    0 -0.23017050911E+02  0.88800647942E+02  0.18508067235E+01  0.15506052107E+03  0.12500000000E+03 0.  0.
         25    1    1    2    0    0  0.74515188127E+02 -0.34493315126E+02 -0.42543397674E+02  0.15549033004E+03  0.12500000000E+03 0.  0.
</event>
<event>
 5    0  0.5619558E-005  0.2733360E+03  0.7546771E-02  0.1099385E+00
         21   -1    0    0  502  501  0.00000000000E+00  0.00000000000E+00  0.15941819188E+03  0.15941819188E+03  0.00000000000E+00 0.  1.
         21   -1    0    0  501  502 -0.00000000000E+00 -0.00000000000E+00 -0.46865790251E+03  0.46865790251E+03  0.00000000000E+00 0.  1.
         25    1    1    2    0    0 -0.99372953986E+01 -0.12581058840E+03 -0.36469619793E+02  0.18133418641E+03  0.12500000000E+03 0.  0.
         25    1    1    2    0    0 -0.90344070054E+02  0.25832471912E+02 -0.17272718603E+03  0.23300010385E+03  0.12500000000E+03 0.  0.
         25    1    1    2    0    0  0.10028136545E+03  0.99978116489E+02 -0.10004290481E+03  0.21374180414E+03  0.12500000000E+03 0.  0.
</event>
<event>
 5    0  0.5619558E-005  0.2988869E+03  0.7546771E-02  0.1085798E+00
         21   -1    0    0  502  501  0.00000000000E+00  0.00000000000E+00  0.12061750678E+04  0.12061750678E+04  0.00000000000E+00 0. -1.
         21   -1    0    0  501  502 -0.00000000000E+00 -0.00000000000E+00 -0.74063383753E+02  0.74063383753E+02  0.00000000000E+00 0. -1.
         25    1    1    2    0    0  0.18690347250E+03 -0.47419846536E+02  0.55690013695E+03  0.60244859732E+03  0.12500000000E+03 0.  0.
         25    1    1    2    0    0 -0.73302366586E+02 -0.21701961196E+02  0.12720880103E+03  0.19403940612E+03  0.12500000000E+03 0.  0.
         25    1    1    2    0    0 -0.11360110591E+03  0.69121807731E+02  0.44800274606E+03  0.48375044811E+03  0.12500000000E+03 0.  0.
</event>
<event>
 5    0  0.5619558E-005  0.2312889E+03  0.7546771E-02  0.1125736E+00
         21   -1    0    0  502  501  0.00000000000E+00  0.00000000000E+00  0.20193117428E+02  0.20193117428E+02  0.00000000000E+00 0. -1.
         21   -1    0    0  501  502 -0.00000000000E+00 -0.00000000000E+00 -0.26491472101E+04  0.26491472101E+04  0.00000000000E+00 0. -1.
         25    1    1    2    0    0  0.18296735831E+02  0.62251077603E+02 -0.65166118660E+03  0.66670628415E+03  0.12500000000E+03 0.  0.
         25    1    1    2    0    0 -0.97972938119E+02 -0.45445813057E+02 -0.11796103591E+04  0.11911211600E+04  0.12500000000E+03 0.  0.
         25    1    1    2    0    0  0.79676202288E+02 -0.16805264545E+02 -0.79768254693E+03  0.81151288333E+03  0.12500000000E+03 0.  0.
</event>
<event>
 5    0  0.5619558E-005  0.4040047E+03  0.7546771E-02  0.1042402E+00
         21   -1    0    0  502  501  0.00000000000E+00  0.00000000000E+00  0.74633869213E+03  0.74633869213E+03  0.00000000000E+00 0.  1.
         21   -1    0    0  501  502 -0.00000000000E+00 -0.00000000000E+00 -0.21869396410E+03  0.21869396410E+03  0.00000000000E+00 0.  1.
         25    1    1    2    0    0  0.15510006419E+03 -0.90640120760E+02  0.40930206109E+02  0.22264757617E+03  0.12500000000E+03 0.  0.
         25    1    1    2    0    0 -0.20056927383E+03 -0.86359717757E+02  0.45332568181E+03  0.51847392244E+03  0.12500000000E+03 0.  0.
         25    1    1    2    0    0  0.45469209642E+02  0.17699983852E+03  0.33388840112E+02  0.22391115762E+03  0.12500000000E+03 0.  0.
</event>
<event>
 5    0  0.5619558E-005  0.2881233E+03  0.7546771E-02  0.1091333E+00
         21   -1    0    0  502  501  0.00000000000E+00  0.00000000000E+00  0.13514242842E+03  0.13514242842E+03  0.00000000000E+00 0.  1.
         21   -1    0    0  501  502 -0.00000000000E+00 -0.00000000000E+00 -0.61427823018E+03  0.61427823018E+03  0.00000000000E+00 0.  1.
         25    1    1    2    0    0 -0.99108419851E+01 -0.58091957008E+02 -0.49327627173E+02  0.14673484610E+03  0.12500000000E+03 0.  0.
         25    1    1    2    0    0  0.31585393952E+02  0.79922158492E+02  0.24043936993E+01  0.15171015008E+03  0.12500000000E+03 0.  0.
         25    1    1    2    0    0 -0.21674551967E+02 -0.21830201484E+02 -0.43221256829E+03  0.45097566241E+03  0.12500000000E+03 0.  0.
</event>
<event>
 5    0  0.5619558E-005  0.2788846E+03  0.7546771E-02  0.1096300E+00
         21   -1    0    0  502  501  0.00000000000E+00  0.00000000000E+00  0.54927060001E+02  0.54927060001E+02  0.00000000000E+00 0. -1.
         21   -1    0    0  501  502 -0.00000000000E+00 -0.00000000000E+00 -0.14159983761E+04  0.14159983761E+04  0.00000000000E+00 0. -1.
         25    1    1    2    0    0  0.10441032060E+02  0.38716899485E+02 -0.43125893421E+03  0.45079627526E+03  0.12500000000E+03 0.  0.
         25    1    1    2    0    0  0.11246311318E+03 -0.46336983439E+02 -0.74557822992E+03  0.76570683998E+03  0.12500000000E+03 0.  0.
         25    1    1    2    0    0 -0.12290414524E+03  0.76200839539E+01 -0.18423415196E+03  0.25442232085E+03  0.12500000000E+03 0.  0.
</event>
<event>
 5    0  0.5619558E-005  0.3424942E+03  0.7546771E-02  0.1065739E+00
         21   -1    0    0  502  501  0.00000000000E+00  0.00000000000E+00  0.20726138990E+03  0.20726138990E+03  0.00000000000E+00 0. -1.
         21   -1    0    0  501  502 -0.00000000000E+00 -0.00000000000E+00 -0.56596290424E+03  0.56596290424E+03  0.00000000000E+00 0. -1.
         25    1    1    2    0    0  0.19961600190E+03  0.13031703051E+03 -0.21629650143E+02  0.27004058662E+03  0.12500000000E+03 0.  0.
         25    1    1    2    0    0 -0.17543199748E+03 -0.50022888802E+02 -0.22534068401E+03  0.31572472031E+03  0.12500000000E+03 0.  0.
         25    1    1    2    0    0 -0.24184004419E+02 -0.80294141703E+02 -0.11173118018E+03  0.18745898721E+03  0.12500000000E+03 0.  0.
</event>
<event>
 5    0  0.5619558E-005  0.2362907E+03  0.7546771E-02  0.1122289E+00
         21   -1    0    0  502  501  0.00000000000E+00  0.00000000000E+00  0.11241551508E+04  0.11241551508E+04  0.00000000000E+00 0.  1.
         21   -1    0    0  501  502 -0.00000000000E+00 -0.00000000000E+00 -0.49666908803E+02  0.49666908803E+02  0.00000000000E+00 0.  1.
         25    1    1    2    0    0  0.17840550346E+02  0.80122378527E+02  0.60287498293E+03  0.62114501191E+03  0.12500000000E+03 0.  0.
         25    1    1    2    0    0  0.29150746134E+02 -0.13593629968E+01  0.16455722701E+03  0.20870001157E+03  0.12500000000E+03 0.  0.
         25    1    1    2    0    0 -0.46991296480E+02 -0.78763015530E+02  0.30705603208E+03  0.34397703615E+03  0.12500000000E+03 0.  0.
</event>
<event>
 5    0  0.5619558E-005  0.2759797E+03  0.7546771E-02  0.1097905E+00
         21   -1    0    0  502  501  0.00000000000E+00  0.00000000000E+00  0.19149487158E+03  0.19149487158E+03  0.00000000000E+00 0.  1.
         21   -1    0    0  501  502 -0.00000000000E+00 -0.00000000000E+00 -0.39773791588E+03  0.39773791588E+03  0.00000000000E+00 0.  1.
         25    1    1    2    0    0  0.15183393051E+02  0.12094013044E+03 -0.38334981206E+02  0.17875016464E+03  0.12500000000E+03 0.  0.
         25    1    1    2    0    0  0.50523223152E+02 -0.17236255429E+03 -0.13339423378E+03  0.25628200835E+03  0.12500000000E+03 0.  0.
         25    1    1    2    0    0 -0.65706616203E+02  0.51422423846E+02 -0.34513829315E+02  0.15420061446E+03  0.12500000000E+03 0.  0.
</event>
<event>
 5    0  0.5619558E-005  0.4541537E+03  0.7546771E-02  0.1026491E+00
         21   -1    0    0  502  501  0.00000000000E+00  0.00000000000E+00  0.16557170682E+04  0.16557170682E+04  0.00000000000E+00 0. -1.
         21   -1    0    0  501  502 -0.00000000000E+00 -0.00000000000E+00 -0.12457176928E+03  0.12457176928E+03  0.00000000000E+00 0. -1.
         25    1    1    2    0    0  0.18647568903E+03 -0.53386194780E+02  0.13491748436E+03  0.26730319111E+03  0.12500000000E+03 0.  0.
         25    1    1    2    0    0 -0.41869599910E+02 -0.14570814621E+03  0.10596635193E+04  0.10777270997E+04  0.12500000000E+03 0.  0.
         25    1    1    2    0    0 -0.14460608912E+03  0.19909434099E+03  0.33656429528E+03  0.43525854671E+03  0.12500000000E+03 0.  0.
</event>
<event>
 5    0  0.5619558E-005  0.2399715E+03  0.7546771E-02  0.1119812E+00
         21   -1    0    0  502  501  0.00000000000E+00  0.00000000000E+00  0.15594887411E+03  0.15594887411E+03  0.00000000000E+00 0. -1.
         21   -1    0    0  501  502 -0.00000000000E+00 -0.00000000000E+00 -0.36926421281E+03  0.36926421281E+03  0.00000000000E+00 0. -1.
         25    1    1    2    0    0 -0.84384294457E+01 -0.24186371762E+02  0.47563981935E+02  0.13617459399E+03  0.12500000000E+03 0.  0.
         25    1    1    2    0    0  0.37422475178E+02  0.73591714473E+02 -0.11753393163E+03  0.19040852705E+03  0.12500000000E+03 0.  0.
         25    1    1    2    0    0 -0.28984045732E+02 -0.49405342711E+02 -0.14334538901E+03  0.19862996588E+03  0.12500000000E+03 0.  0.
</event>
<event>
 5    0  0.5619558E-005  0.3723344E+03  0.7546771E-02  0.1053804E+00
         21   -1    0    0  502  501  0.00000000000E+00  0.00000000000E+00  0.28008954500E+03  0.28008954500E+03  0.00000000000E+00 0. -1.
         21   -1    0    0  501  502 -0.00000000000E+00 -0.00000000000E+00 -0.49495924121E+03  0.49495924121E+03  0.00000000000E+00 0. -1.
         25    1    1    2    0    0  0.16993896685E+03  0.50703958456E+02  0.39299714627E+02  0.22049855198E+03  0.12500000000E+03 0.  0.
         25    1    1    2    0    0  0.10685589079E+03 -0.47310100140E+02 -0.22582046705E+02  0.17260178390E+03  0.12500000000E+03 0.  0.
         25    1    1    2    0    0 -0.27679485764E+03 -0.33938583153E+01 -0.23158736412E+03  0.38194845033E+03  0.12500000000E+03 0.  0.
</event>
<event>
 5    0  0.5619558E-005  0.3694838E+03  0.7546771E-02  0.1054891E+00
         21   -1    0    0  502  501  0.00000000000E+00  0.00000000000E+00  0.18291411723E+03  0.18291411723E+03  0.00000000000E+00 0. -1.
         21   -1    0    0  501  502 -0.00000000000E+00 -0.00000000000E+00 -0.74635158960E+03  0.74635158960E+03  0.00000000000E+00 0. -1.
         25    1    1    2    0    0 -0.17896972780E+03  0.12254109395E+03 -0.32975530838E+03  0.41401696412E+03  0.12500000000E+03 0.  0.
         25    1    1    2    0    0  0.14369764174E+03  0.85056542067E+02 -0.67231046344E+02  0.21915437751E+03  0.12500000000E+03 0.  0.
         25    1    1    2    0    0  0.35272086068E+02 -0.20759763601E+03 -0.16645111765E+03  0.29609436520E+03  0.12500000000E+03 0.  0.
</event>
<event>
 5    0  0.5619558E-005  0.3037411E+03  0.7546771E-02  0.1083385E+00
         21   -1    0    0  502  501  0.00000000000E+00  0.00000000000E+00  0.14074106634E+04  0.14074106634E+04  0.00000000000E+00 0. -1.
         21   -1    0    0  501  502 -0.00000000000E+00 -0.00000000000E+00 -0.65552059419E+02  0.65552059419E+02  0.00000000000E+00 0. -1.
         25    1    1    2    0    0 -0.54334845959E+02 -0.46686278572E+02  0.18532856547E+03  0.23474147752E+03  0.12500000000E+03 0.  0.
         25    1    1    2    0    0 -0.81145363621E+02 -0.11917340556E+03  0.58134525326E+03  0.61186123763E+03  0.12500000000E+03 0.  0.
         25    1    1    2    0    0  0.13548020958E+03  0.16585968413E+03  0.57518478523E+03  0.62636000763E+03  0.12500000000E+03 0.  0.
</event>
<event>
 5    0  0.5619558E-005  0.3753915E+03  0.7546771E-02  0.1052650E+00
         21   -1    0    0  502  501  0.00000000000E+00  0.00000000000E+00  0.46974685935E+03  0.46974685935E+03  0.00000000000E+00 0.  1.
         21   -1    0    0  501  502 -0.00000000000E+00 -0.00000000000E+00 -0.29998881200E+03  0.29998881200E+03  0.00000000000E+00 0.  1.
         25    1    1    2    0    0 -0.24708843133E+02  0.92599226147E+02  0.11153883342E+02  0.15790678493E+03  0.12500000000E+03 0.  0.
         25    1    1    2    0    0 -0.17371298341E+03  0.41844623818E+02 -0.98035972125E+02  0.23908832046E+03  0.12500000000E+03 0.  0.
         25    1    1    2    0    0  0.19842182654E+03 -0.13444384997E+03  0.25664013613E+03  0.37274056596E+03  0.12500000000E+03 0.  0.
</event>
<event>
 5    0  0.5619558E-005  0.2640225E+03  0.7546771E-02  0.1104750E+00
         21   -1    0    0  502  501  0.00000000000E+00  0.00000000000E+00  0.48989492531E+03  0.48989492531E+03  0.00000000000E+00 0.  1.
         21   -1    0    0  501  502 -0.00000000000E+00 -0.00000000000E+00 -0.14229149646E+03  0.14229149646E+03  0.00000000000E+00 0.  1.
         25    1    1    2    0    0 -0.13891652437E+02 -0.96364502899E+02  0.16712304838E+02  0.15932167636E+03  0.12500000000E+03 0.  0.
         25    1    1    2    0    0 -0.53719445010E+02  0.14317847667E+02  0.26064053696E+03  0.29436247900E+03  0.12500000000E+03 0.  0.
         25    1    1    2    0    0  0.67611097446E+02  0.82046655232E+02  0.70250587047E+02  0.17850226641E+03  0.12500000000E+03 0.  0.
</event>
<event>
 5    0  0.5619558E-005  0.2896623E+03  0.7546771E-02  0.1090526E+00
         21   -1    0    0  502  501  0.00000000000E+00  0.00000000000E+00  0.54513283245E+03  0.54513283245E+03  0.00000000000E+00 0. -1.
         21   -1    0    0  501  502 -0.00000000000E+00 -0.00000000000E+00 -0.15391524638E+03  0.15391524638E+03  0.00000000000E+00 0. -1.
         25    1    1    2    0    0 -0.93462325164E+02  0.87466877004E+02  0.29031549681E+03  0.34101869228E+03  0.12500000000E+03 0.  0.
         25    1    1    2    0    0  0.54267853219E+02  0.28215568205E+02  0.11796215024E+03  0.18243132152E+03  0.12500000000E+03 0.  0.
         25    1    1    2    0    0  0.39194471945E+02 -0.11568244521E+03 -0.17060060977E+02  0.17559806503E+03  0.12500000000E+03 0.  0.
</event>
<event>
 5    0  0.5619558E-005  0.3541999E+03  0.7546771E-02  0.1060904E+00
         21   -1    0    0  502  501  0.00000000000E+00  0.00000000000E+00  0.47914983623E+02  0.47914983623E+02  0.00000000000E+00 0.  1.
         21   -1    0    0  501  502 -0.00000000000E+00 -0.00000000000E+00 -0.26183370447E+04  0.26183370447E+04  0.00000000000E+00 0.  1.
         25    1    1    2    0    0  0.12284031092E+02  0.13669280143E+03 -0.10663572820E+04  0.10823948782E+04  0.12500000000E+03 0.  0.
         25    1    1    2    0    0  0.10945267421E+03 -0.21525123574E+03 -0.58532780120E+03  0.64540422778E+03  0.12500000000E+03 0.  0.
         25    1    1    2    0    0 -0.12173670530E+03  0.78558434306E+02 -0.91873697784E+03  0.93845292235E+03  0.12500000000E+03 0.  0.
</event>
<event>
 5    0  0.5619558E-005  0.3868017E+03  0.7546771E-02  0.1048448E+00
         21   -1    0    0  502  501  0.00000000000E+00  0.00000000000E+00  0.55890391230E+03  0.55890391230E+03  0.00000000000E+00 0. -1.
         21   -1    0    0  501  502 -0.00000000000E+00 -0.00000000000E+00 -0.26769459010E+03  0.26769459010E+03  0.00000000000E+00 0. -1.
         25    1    1    2    0    0 -0.13662663500E+03  0.18636154963E+02  0.31451436396E+03  0.36545646635E+03  0.12500000000E+03 0.  0.
         25    1    1    2    0    0  0.28654748418E+02 -0.11070055298E+03  0.13333670726E+03  0.21559078028E+03  0.12500000000E+03 0.  0.
         25    1    1    2    0    0  0.10797188658E+03  0.92064398013E+02 -0.15664174903E+03  0.24555125577E+03  0.12500000000E+03 0.  0.
</event>
<event>
 5    0  0.5619558E-005  0.3252012E+03  0.7546771E-02  0.1073280E+00
         21   -1    0    0  502  501  0.00000000000E+00  0.00000000000E+00  0.21995751787E+03  0.21995751787E+03  0.00000000000E+00 0.  1.
         21   -1    0    0  501  502 -0.00000000000E+00 -0.00000000000E+00 -0.48080101646E+03  0.48080101646E+03  0.00000000000E+00 0.  1.
         25    1    1    2    0    0  0.18813715709E+03 -0.56382784315E+02 -0.13430581890E+03  0.26877064802E+03  0.12500000000E+03 0.  0.
         25    1    1    2    0    0 -0.23122631235E+03  0.83884470974E+02 -0.64386796495E+02  0.28332467516E+03  0.12500000000E+03 0.  0.
         25    1    1    2    0    0  0.43089155257E+02 -0.27501686659E+02 -0.62150883182E+02  0.14866321115E+03  0.12500000000E+03 0.  0.
</event>
<event>
 5    0  0.5619558E-005  0.2781822E+03  0.7546771E-02  0.1096686E+00
         21   -1    0    0  502  501  0.00000000000E+00  0.00000000000E+00  0.28280359841E+03  0.28280359841E+03  0.00000000000E+00 0.  1.
         21   -1    0    0  501  502 -0.00000000000E+00 -0.00000000000E+00 -0.27363625543E+03  0.27363625543E+03  0.00000000000E+00 0.  1.
         25    1    1    2    0    0 -0.12029229870E+02 -0.68881483117E+02 -0.77512450875E+02  0.16285742577E+03  0.12500000000E+03 0.  0.
         25    1    1    2    0    0 -0.38826428129E+02  0.13376163919E+03  0.14097747476E+03  0.23430603071E+03  0.12500000000E+03 0.  0.
         25    1    1    2    0    0  0.50855658000E+02 -0.64880156069E+02 -0.54297680904E+02  0.15927639735E+03  0.12500000000E+03 0.  0.
</event>
<event>
 5    0  0.5619558E-005  0.3691925E+03  0.7546771E-02  0.1055002E+00
         21   -1    0    0  502  501  0.00000000000E+00  0.00000000000E+00  0.47454155752E+03  0.47454155752E+03  0.00000000000E+00 0.  1.
         21   -1    0    0  501  502 -0.00000000000E+00 -0.00000000000E+00 -0.28723110249E+03  0.28723110249E+03  0.00000000000E+00 0.  1.
         25    1    1    2    0    0 -0.50729908359E+02 -0.50431601227E+02 -0.58158482625E+02  0.15531992501E+03  0.12500000000E+03 0.  0.
         25    1    1    2    0    0 -0.50701051071E+02  0.24869453167E+03  0.55878710819E+02  0.28838688768E+03  0.12500000000E+03 0.  0.
         25    1    1    2    0    0  0.10143095943E+03 -0.19826293045E+03  0.18959022683E+03  0.31806584732E+03  0.12500000000E+03 0.  0.
</event>
<event>
 5    0  0.5619558E-005  0.2677682E+03  0.7546771E-02  0.1102564E+00
         21   -1    0    0  502  501  0.00000000000E+00  0.00000000000E+00  0.21759113379E+03  0.21759113379E+03  0.00000000000E+00 0. -1.
         21   -1    0    0  501  502 -0.00000000000E+00 -0.00000000000E+00 -0.32951622771E+03  0.32951622771E+03  0.00000000000E+00 0. -1.
         25    1    1    2    0    0  0.58260426942E+02 -0.74000917431E+00 -0.90571804193E+02  0.16499417164E+03  0.12500000000E+03 0.  0.
         25    1    1    2    0    0  0.22386819515E+02 -0.12880588886E+03 -0.35568132885E+02  0.18434266671E+03  0.12500000000E+03 0.  0.
         25    1    1    2    0    0 -0.80647246457E+02  0.12954589804E+03  0.14214843162E+02  0.19777052315E+03  0.12500000000E+03 0.  0.
</event>
<event>
 5    0  0.5619558E-005  0.2623423E+03  0.7546771E-02  0.1105744E+00
         21   -1    0    0  502  501  0.00000000000E+00  0.00000000000E+00  0.13268062632E+04  0.13268062632E+04  0.00000000000E+00 0. -1.
         21   -1    0    0  501  502 -0.00000000000E+00 -0.00000000000E+00 -0.51871532604E+02  0.51871532604E+02  0.00000000000E+00 0. -1.
         25    1    1    2    0    0 -0.12137330123E+03  0.31718738645E+02  0.25870249748E+03  0.31351162472E+03  0.12500000000E+03 0.  0.
         25    1    1    2    0    0  0.52563524694E+02 -0.46098971814E+02  0.27367023163E+03  0.30888255860E+03  0.12500000000E+03 0.  0.
         25    1    1    2    0    0  0.68809776533E+02  0.14380233169E+02  0.74256200152E+03  0.75628361251E+03  0.12500000000E+03 0.  0.
</event>
<event>
 5    0  0.5619558E-005  0.2190430E+03  0.7546771E-02  0.1134599E+00
         21   -1    0    0  502  501  0.00000000000E+00  0.00000000000E+00  0.98068647104E+02  0.98068647104E+02  0.00000000000E+00 0.  1.
         21   -1    0    0  501  502 -0.00000000000E+00 -0.00000000000E+00 -0.48924732567E+03  0.48924732567E+03  0.00000000000E+00 0.  1.
         25    1    1    2    0    0  0.67539236747E+01  0.28405413582E+02 -0.35015593663E+02  0.13305478122E+03  0.12500000000E+03 0.  0.
         25    1    1    2    0    0 -0.61372998566E+02 -0.26710051505E+02 -0.21831433963E+03  0.26031946276E+03  0.12500000000E+03 0.  0.
         25    1    1    2    0    0  0.54619074891E+02 -0.16953620771E+01 -0.13784874528E+03  0.19394172880E+03  0.12500000000E+03 0.  0.
</event>
<event>
 5    0  0.5619558E-005  0.2708876E+03  0.7546771E-02  0.1100773E+00
         21   -1    0    0  502  501  0.00000000000E+00  0.00000000000E+00  0.72771341229E+02  0.72771341229E+02  0.00000000000E+00 0. -1.
         21   -1    0    0  501  502 -0.00000000000E+00 -0.00000000000E+00 -0.10083652698E+04  0.10083652698E+04  0.00000000000E+00 0. -1.
         25    1    1    2    0    0  0.18442393367E+02  0.35433302888E+02 -0.18275689176E+03  0.22499049383E+03  0.12500000000E+03 0.  0.
         25    1    1    2    0    0 -0.12643768774E+03 -0.15538118904E+02 -0.61409915616E+03  0.63950816697E+03  0.12500000000E+03 0.  0.
         25    1    1    2    0    0  0.10799529437E+03 -0.19895183984E+02 -0.13873788063E+03  0.21663795022E+03  0.12500000000E+03 0.  0.
</event>
<event>
 5    0  0.5619558E-005  0.2920290E+03  0.7546771E-02  0.1089295E+00
         21   -1    0    0  502  501  0.00000000000E+00  0.00000000000E+00  0.24398176578E+03  0.24398176578E+03  0.00000000000E+00 0. -1.
         21   -1    0    0  501  502 -0.00000000000E+00 -0.00000000000E+00 -0.34953811439E+03  0.34953811439E+03  0.00000000000E+00 0. -1.
         25    1    1    2    0    0  0.21731956712E+02 -0.97897941703E+02 -0.98914149845E+02  0.18832231406E+03  0.12500000000E+03 0.  0.
         25    1    1    2    0    0  0.90546175303E+01  0.18386184180E+03  0.68918478637E+02  0.23294188045E+03  0.12500000000E+03 0.  0.
         25    1    1    2    0    0 -0.30786574242E+02 -0.85963900098E+02 -0.75560677399E+02  0.17225568566E+03  0.12500000000E+03 0.  0.
</event>
<event>
 5    0  0.5619558E-005  0.3015444E+03  0.7546771E-02  0.1084471E+00
         21   -1    0    0  502  501  0.00000000000E+00  0.00000000000E+00  0.11471872841E+03  0.11471872841E+03  0.00000000000E+00 0.  1.
         21   -1    0    0  501  502 -0.00000000000E+00 -0.00000000000E+00 -0.79262559161E+03  0.79262559161E+03  0.00000000000E+00 0.  1.
         25    1    1    2    0    0 -0.16529441808E+03  0.55420001344E+02 -0.79260223189E+02  0.22869369072E+03  0.12500000000E+03 0.  0.
         25    1    1    2    0    0  0.37069868206E+02 -0.14691964956E+02 -0.30886689230E+03  0.33557977609E+03  0.12500000000E+03 0.  0.
         25    1    1    2    0    0  0.12822454987E+03 -0.40728036387E+02 -0.28977974771E+03  0.34307085321E+03  0.12500000000E+03 0.  0.
</event>
<event>
 5    0  0.5936878E-005  0.2863744E+03  0.7546771E-02  0.1092257E+00
         21   -1    0    0  502  501  0.00000000000E+00  0.00000000000E+00  0.63149171453E+03  0.63149171453E+03  0.00000000000E+00 0.  1.
         21   -1    0    0  501  502 -0.00000000000E+00 -0.00000000000E+00 -0.12986760172E+03  0.12986760172E+03  0.00000000000E+00 0.  1.
         25    1    1    2    0    0  0.15638380321E+03 -0.10306134569E+03  0.11535817429E+03  0.25300206176E+03  0.12500000000E+03 0.  0.
         25    1    1    2    0    0 -0.12618732188E+03  0.27167921326E+02  0.18680140760E+03  0.25919317514E+03  0.12500000000E+03 0.  0.
         25    1    1    2    0    0 -0.30196481325E+02  0.75893424361E+02  0.19946453092E+03  0.24916407936E+03  0.12500000000E+03 0.  0.
</event>
<event>
 5    0  0.5619558E-005  0.2384814E+03  0.7546771E-02  0.1120809E+00
         21   -1    0    0  502  501  0.00000000000E+00  0.00000000000E+00  0.81587355423E+03  0.81587355423E+03  0.00000000000E+00 0. -1.
         21   -1    0    0  501  502 -0.00000000000E+00 -0.00000000000E+00 -0.69708560162E+02  0.69708560162E+02  0.00000000000E+00 0. -1.
         25    1    1    2    0    0  0.32086288739E+01  0.11844243510E+03  0.21234969322E+03  0.27341597967E+03  0.12500000000E+03 0.  0.
         25    1    1    2    0    0 -0.17239412906E+02 -0.85447228407E+02  0.18370719270E+03  0.23868757582E+03  0.12500000000E+03 0.  0.
         25    1    1    2    0    0  0.14030784033E+02 -0.32995206694E+02  0.35010810816E+03  0.37347855891E+03  0.12500000000E+03 0.  0.
</event>
<event>
 5    0  0.5619558E-005  0.2341938E+03  0.7546771E-02  0.1123722E+00
         21   -1    0    0  502  501  0.00000000000E+00  0.00000000000E+00  0.74571478190E+03  0.74571478190E+03  0.00000000000E+00 0. -1.
         21   -1    0    0  501  502 -0.00000000000E+00 -0.00000000000E+00 -0.73549210560E+02  0.73549210560E+02  0.00000000000E+00 0. -1.
         25    1    1    2    0    0  0.17386497044E+02 -0.39465821978E+02  0.33334638646E+03  0.35861491150E+03  0.12500000000E+03 0.  0.
         25    1    1    2    0    0  0.43720246338E+02  0.93751473514E+02  0.18921630904E+03  0.24925611393E+03  0.12500000000E+03 0.  0.
         25    1    1    2    0    0 -0.61106743383E+02 -0.54285651537E+02  0.14960287584E+03  0.21139296703E+03  0.12500000000E+03 0.  0.
</event>
<event>
 5    0  0.5619558E-005  0.2806705E+03  0.7546771E-02  0.1095323E+00
         21   -1    0    0  502  501  0.00000000000E+00  0.00000000000E+00  0.35685577706E+03  0.35685577706E+03  0.00000000000E+00 0.  1.
         21   -1    0    0  501  502 -0.00000000000E+00 -0.00000000000E+00 -0.22075003675E+03  0.22075003675E+03  0.00000000000E+00 0.  1.
         25    1    1    2    0    0  0.11338119146E+03  0.16323692570E+03  0.41538484779E+02  0.23843664611E+03  0.12500000000E+03 0.  0.
         25    1    1    2    0    0 -0.72827844328E+02 -0.71195055931E+02  0.20770675081E+02  0.16257014437E+03  0.12500000000E+03 0.  0.
         25    1    1    2    0    0 -0.40553347132E+02 -0.92041869768E+02  0.73796580457E+02  0.17659902333E+03  0.12500000000E+03 0.  0.
</event>
<event>
 5    0  0.5619558E-005  0.2311501E+03  0.7546771E-02  0.1125833E+00
         21   -1    0    0  502  501  0.00000000000E+00  0.00000000000E+00  0.42685530569E+02  0.42685530569E+02  0.00000000000E+00 0.  1.
         21   -1    0    0  501  502 -0.00000000000E+00 -0.00000000000E+00 -0.12517210662E+04  0.12517210662E+04  0.00000000000E+00 0.  1.
         25    1    1    2    0    0  0.48395480345E+02 -0.24728963337E+01 -0.30594726534E+03  0.33403138611E+03  0.12500000000E+03 0.  0.
         25    1    1    2    0    0  0.41153549027E+01  0.11371643920E+02 -0.72799018334E+03  0.73874282228E+03  0.12500000000E+03 0.  0.
         25    1    1    2    0    0 -0.52510835248E+02 -0.88987475863E+01 -0.17509808695E+03  0.22163238839E+03  0.12500000000E+03 0.  0.
</event>
<event>
 5    0  0.5619558E-005  0.2864635E+03  0.7546771E-02  0.1092210E+00
         21   -1    0    0  502  501  0.00000000000E+00  0.00000000000E+00  0.53136615826E+03  0.53136615826E+03  0.00000000000E+00 0.  1.
         21   -1    0    0  501  502 -0.00000000000E+00 -0.00000000000E+00 -0.15443458026E+03  0.15443458026E+03  0.00000000000E+00 0.  1.
         25    1    1    2    0    0 -0.74989061988E+01 -0.11140657830E+03  0.33420079935E+03  0.37387542520E+03  0.12500000000E+03 0.  0.
         25    1    1    2    0    0 -0.97330908692E+01  0.13080822229E+03  0.29478942506E+02  0.18357432317E+03  0.12500000000E+03 0.  0.
         25    1    1    2    0    0  0.17231997068E+02 -0.19401643990E+02  0.13251836146E+02  0.12835099015E+03  0.12500000000E+03 0.  0.
</event>
<event>
 5    0  0.5619558E-005  0.2364085E+03  0.7546771E-02  0.1122209E+00
         21   -1    0    0  502  501  0.00000000000E+00  0.00000000000E+00  0.22445384080E+03  0.22445384080E+03  0.00000000000E+00 0.  1.
         21   -1    0    0  501  502 -0.00000000000E+00 -0.00000000000E+00 -0.24899988875E+03  0.24899988875E+03  0.00000000000E+00 0.  1.
         25    1    1    2    0    0  0.51524812888E+02 -0.10337672784E+03  0.43941916057E+02  0.17577669410E+03  0.12500000000E+03 0.  0.
         25    1    1    2    0    0 -0.45041343235E+02  0.96717662589E+02 -0.39720833774E+02  0.16907327847E+03  0.12500000000E+03 0.  0.
         25    1    1    2    0    0 -0.64834696528E+01  0.66590652478E+01 -0.28767130233E+02  0.12860375698E+03  0.12500000000E+03 0.  0.
</event>
<event>
 5    0  0.5619558E-005  0.2445960E+03  0.7546771E-02  0.1116768E+00
         21   -1    0    0  502  501  0.00000000000E+00  0.00000000000E+00  0.21821200046E+03  0.21821200046E+03  0.00000000000E+00 0.  1.
         21   -1    0    0  501  502 -0.00000000000E+00 -0.00000000000E+00 -0.27417006243E+03  0.27417006243E+03  0.00000000000E+00 0.  1.
         25    1    1    2    0    0  0.40451284838E+02 -0.16875963287E+02 -0.14336845496E+03  0.19519379718E+03  0.12500000000E+03 0.  0.
         25    1    1    2    0    0 -0.28312324405E+02 -0.51025908935E+02  0.20310865137E+02  0.13943730612E+03  0.12500000000E+03 0.  0.
         25    1    1    2    0    0 -0.12138960433E+02  0.67901872222E+02  0.67099527847E+02  0.15775095958E+03  0.12500000000E+03 0.  0.
</event>
<event>
 5    0  0.5619558E-005  0.3686362E+03  0.7546771E-02  0.1055216E+00
         21   -1    0    0  502  501  0.00000000000E+00  0.00000000000E+00  0.47045853570E+03  0.47045853570E+03  0.00000000000E+00 0.  1.
         21   -1    0    0  501  502 -0.00000000000E+00 -0.00000000000E+00 -0.28885152987E+03  0.28885152987E+03  0.00000000000E+00 0.  1.
         25    1    1    2    0    0 -0.21871688380E+03 -0.91069098694E+02  0.34750823745E+02  0.27011715189E+03  0.12500000000E+03 0.  0.
         25    1    1    2    0    0  0.25397376878E+03  0.13788229466E+03  0.45967473846E+02  0.31820152586E+03  0.12500000000E+03 0.  0.
         25    1    1    2    0    0 -0.35256884984E+02 -0.46813195970E+02  0.10088870824E+03  0.17099138781E+03  0.12500000000E+03 0.  0.
</event>
<event>
 5    0  0.5619558E-005  0.6513837E+03  0.7546771E-02  0.9804186E-01
         21   -1    0    0  502  501  0.00000000000E+00  0.00000000000E+00  0.69274754670E+03  0.69274754670E+03  0.00000000000E+00 0. -1.
         21   -1    0    0  501  502 -0.00000000000E+00 -0.00000000000E+00 -0.61248970245E+03  0.61248970245E+03  0.00000000000E+00 0. -1.
         25    1    1    2    0    0  0.44419435161E+03 -0.23422406218E+03  0.19973899315E+03  0.55469829520E+03  0.12500000000E+03 0.  0.
         25    1    1    2    0    0 -0.21983766596E+03 -0.87058980884E+02  0.98513853582E+02  0.28502253398E+03  0.12500000000E+03 0.  0.
         25    1    1    2    0    0 -0.22435668566E+03  0.32128304307E+03 -0.21799500248E+03  0.46551641998E+03  0.12500000000E+03 0.  0.
</event>
<event>
 5    0  0.5619558E-005  0.2464951E+03  0.7546771E-02  0.1115540E+00
         21   -1    0    0  502  501  0.00000000000E+00  0.00000000000E+00  0.13979106111E+04  0.13979106111E+04  0.00000000000E+00 0. -1.
         21   -1    0    0  501  502 -0.00000000000E+00 -0.00000000000E+00 -0.43464735902E+02  0.43464735902E+02  0.00000000000E+00 0. -1.
         25    1    1    2    0    0  0.29132721881E+02  0.38616561862E+02  0.59396285600E+03  0.60889804453E+03  0.12500000000E+03 0.  0.
         25    1    1    2    0    0  0.84783951725E+02  0.28272894344E+02  0.29271181843E+03  0.33059474235E+03  0.12500000000E+03 0.  0.
         25    1    1    2    0    0 -0.11391667361E+03 -0.66889456206E+02  0.46777120082E+03  0.50188256016E+03  0.12500000000E+03 0.  0.
</event>
<event>
 5    0  0.5619558E-005  0.4713785E+03  0.7546771E-02  0.1021532E+00
         21   -1    0    0  502  501  0.00000000000E+00  0.00000000000E+00  0.91514938427E+02  0.91514938427E+02  0.00000000000E+00 0. -1.
         21   -1    0    0  501  502 -0.00000000000E+00 -0.00000000000E+00 -0.24279931553E+04  0.24279931553E+04  0.00000000000E+00 0. -1.
         25    1    1    2    0    0  0.28994820235E+03  0.89474498973E+02 -0.37390534081E+03  0.49749959789E+03  0.12500000000E+03 0.  0.
         25    1    1    2    0    0 -0.13729081419E+03 -0.12428763909E+03 -0.15182597613E+04  0.15346119665E+04  0.12500000000E+03 0.  0.
         25    1    1    2    0    0 -0.15265738816E+03  0.34813140115E+02 -0.44431311480E+03  0.48739652939E+03  0.12500000000E+03 0.  0.
</event>
<event>
 5    0  0.5619558E-005  0.5443706E+03  0.7546771E-02  0.1002805E+00
         21   -1    0    0  502  501  0.00000000000E+00  0.00000000000E+00  0.13380688987E+03  0.13380688987E+03  0.00000000000E+00 0.  1.
         21   -1    0    0  501  502 -0.00000000000E+00 -0.00000000000E+00 -0.22146791765E+04  0.22146791765E+04  0.00000000000E+00 0.  1.
         25    1    1    2    0    0  0.10928729602E+03 -0.10670905314E+03 -0.15407471970E+04  0.15533375229E+04  0.12500000000E+03 0.  0.
         25    1    1    2    0    0  0.18723165922E+03  0.10401003255E+03 -0.15158222669E+03  0.29064747123E+03  0.12500000000E+03 0.  0.
         25    1    1    2    0    0 -0.29651895524E+03  0.26990205872E+01 -0.38854286296E+03  0.50450107223E+03  0.12500000000E+03 0.  0.
</event>
<event>
 5    0  0.7503037E-005  0.3465215E+03  0.7546771E-02  0.1064052E+00
         21   -1    0    0  502  501  0.00000000000E+00  0.00000000000E+00  0.27745697301E+03  0.27745697301E+03  0.00000000000E+00 0. -1.
         21   -1    0    0  501  502 -0.00000000000E+00 -0.00000000000E+00 -0.43277751881E+03  0.43277751881E+03  0.00000000000E+00 0. -1.
         25    1    1    2    0    0  0.16550885151E+03 -0.39860518018E+02 -0.19789957490E+03  0.28943269092E+03  0.12500000000E+03 0.  0.
         25    1    1    2    0    0  0.41534805670E+02  0.25767207908E+01  0.10475705220E+03  0.16831761512E+03  0.12500000000E+03 0.  0.
         25    1    1    2    0    0 -0.20704365718E+03  0.37283797228E+02 -0.62178023107E+02  0.25248418579E+03  0.12500000000E+03 0.  0.
</event>
<event>
 5    0  0.5619558E-005  0.2989305E+03  0.7546771E-02  0.1085776E+00
         21   -1    0    0  502  501  0.00000000000E+00  0.00000000000E+00  0.50063233181E+03  0.50063233181E+03  0.00000000000E+00 0.  1.
         21   -1    0    0  501  502 -0.00000000000E+00 -0.00000000000E+00 -0.17849320431E+03  0.17849320431E+03  0.00000000000E+00 0.  1.
         25    1    1    2    0    0  0.27198956827E+02 -0.40446192465E+02  0.28660185269E+03  0.31645110160E+03  0.12500000000E+03 0.  0.
         25    1    1    2    0    0  0.60357888133E+02 -0.69220176607E+02  0.72378048417E+02  0.17116684668E+03  0.12500000000E+03 0.  0.
         25    1    1    2    0    0 -0.87556844960E+02  0.10966636907E+03 -0.36840773608E+02  0.19150758785E+03  0.12500000000E+03 0.  0.
</event>
<event>
 5    0  0.6039508E-005  0.3489366E+03  0.7546771E-02  0.1063052E+00
         21   -1    0    0  502  501  0.00000000000E+00  0.00000000000E+00  0.59176916713E+03  0.59176916713E+03  0.00000000000E+00 0. -1.
         21   -1    0    0  501  502 -0.00000000000E+00 -0.00000000000E+00 -0.20575042589E+03  0.20575042589E+03  0.00000000000E+00 0. -1.
         25    1    1    2    0    0 -0.26145378471E+02 -0.11488841836E+03  0.15702537586E+02  0.17249492507E+03  0.12500000000E+03 0.  0.
         25    1    1    2    0    0 -0.86893449559E+02  0.13291754437E+03  0.40444818343E+03  0.45212927162E+03  0.12500000000E+03 0.  0.
         25    1    1    2    0    0  0.11303882803E+03 -0.18029126015E+02 -0.34131979781E+02  0.17289539633E+03  0.12500000000E+03 0.  0.
</event>
<event>
 5    0  0.5712343E-005  0.2715375E+03  0.7546771E-02  0.1100403E+00
         21   -1    0    0  502  501  0.00000000000E+00  0.00000000000E+00  0.10235769800E+04  0.10235769800E+04  0.00000000000E+00 0. -1.
         21   -1    0    0  501  502 -0.00000000000E+00 -0.00000000000E+00 -0.72034274133E+02  0.72034274133E+02  0.00000000000E+00 0. -1.
         25    1    1    2    0    0 -0.57795287192E+02  0.51632340778E+02  0.34998195367E+03  0.37962950587E+03  0.12500000000E+03 0.  0.
         25    1    1    2    0    0  0.19400416620E+02 -0.10838661858E+03  0.99406216519E+02  0.19398616223E+03  0.12500000000E+03 0.  0.
         25    1    1    2    0    0  0.38394870572E+02  0.56754277805E+02  0.50215453569E+03  0.52199558604E+03  0.12500000000E+03 0.  0.
</event>
<event>
 5    0  0.5619558E-005  0.3572572E+03  0.7546771E-02  0.1059675E+00
         21   -1    0    0  502  501  0.00000000000E+00  0.00000000000E+00  0.22322258720E+03  0.22322258720E+03  0.00000000000E+00 0. -1.
         21   -1    0    0  501  502 -0.00000000000E+00 -0.00000000000E+00 -0.57177335627E+03  0.57177335627E+03  0.00000000000E+00 0. -1.
         25    1    1    2    0    0 -0.29340591370E+02  0.58277066920E+02  0.74520965094E+02  0.15948498697E+03  0.12500000000E+03 0.  0.
         25    1    1    2    0    0  0.62455839023E+02 -0.21333950199E+02 -0.47176098611E+03  0.49248278881E+03  0.12500000000E+03 0.  0.
         25    1    1    2    0    0 -0.33115247653E+02 -0.36943116722E+02  0.48689251938E+02  0.14302816770E+03  0.12500000000E+03 0.  0.
</event>
<event>
 5    0  0.5619558E-005  0.3199464E+03  0.7546771E-02  0.1075674E+00
         21   -1    0    0  502  501  0.00000000000E+00  0.00000000000E+00  0.59555523347E+02  0.59555523347E+02  0.00000000000E+00 0.  1.
         21   -1    0    0  501  502 -0.00000000000E+00 -0.00000000000E+00 -0.17188280205E+04  0.17188280205E+04  0.00000000000E+00 0.  1.
         25    1    1    2    0    0  0.32240404913E+01 -0.15389820520E+03 -0.32035477244E+03  0.37675885156E+03  0.12500000000E+03 0.  0.
         25    1    1    2    0    0  0.13065549750E+03  0.11135816987E+03 -0.52615813580E+03  0.56739658520E+03  0.12500000000E+03 0.  0.
         25    1    1    2    0    0 -0.13387953799E+03  0.42540035327E+02 -0.81275958887E+03  0.83422810705E+03  0.12500000000E+03 0.  0.
</event>
<event>
 5    0  0.5619558E-005  0.2968097E+03  0.7546771E-02  0.1086846E+00
         21   -1    0    0  502  501  0.00000000000E+00  0.00000000000E+00  0.23028219340E+03  0.23028219340E+03  0.00000000000E+00 0. -1.
         21   -1    0    0  501  502 -0.00000000000E+00 -0.00000000000E+00 -0.38255670334E+03  0.38255670334E+03  0.00000000000E+00 0. -1.
         25    1    1    2    0    0  0.30469400072E+02  0.46698047237E+02 -0.69450478517E+02  0.15348439961E+03  0.12500000000E+03 0.  0.
         25    1    1    2    0    0  0.71998614963E+02  0.58252765184E+02  0.10702764523E+03  0.18883088215E+03  0.12500000000E+03 0.  0.
         25    1    1    2    0    0 -0.10246801503E+03 -0.10495081242E+03 -0.18985167666E+03  0.27052361498E+03  0.12500000000E+03 0.  0.
</event>
<event>
 5    0  0.5619558E-005  0.2887925E+03  0.7546771E-02  0.1090981E+00
         21   -1    0    0  502  501  0.00000000000E+00  0.00000000000E+00  0.94357143939E+03  0.94357143939E+03  0.00000000000E+00 0. -1.
         21   -1    0    0  501  502 -0.00000000000E+00 -0.00000000000E+00 -0.88388752585E+02  0.88388752585E+02  0.00000000000E+00 0. -1.
         25    1    1    2    0    0 -0.32050470155E+02 -0.11633161360E+03  0.64977347064E+03  0.67260005955E+03  0.12500000000E+03 0.  0.
         25    1    1    2    0    0  0.24398914835E+02  0.18820046650E+02  0.52716974813E+02  0.13911714716E+03  0.12500000000E+03 0.  0.
         25    1    1    2    0    0  0.76515553196E+01  0.97511566950E+02  0.15269224135E+03  0.22024298526E+03  0.12500000000E+03 0.  0.
</event>
<event>
 5    0  0.5619558E-005  0.3245156E+03  0.7546771E-02  0.1073590E+00
         21   -1    0    0  502  501  0.00000000000E+00  0.00000000000E+00  0.64617478750E+03  0.64617478750E+03  0.00000000000E+00 0. -1.
         21   -1    0    0  501  502 -0.00000000000E+00 -0.00000000000E+00 -0.16297506848E+03  0.16297506848E+03  0.00000000000E+00 0. -1.
         25    1    1    2    0    0 -0.10968078268E+03 -0.54150390549E+02  0.81977443942E+02  0.19315134015E+03  0.12500000000E+03 0.  0.
         25    1    1    2    0    0 -0.15813881862E+01 -0.11619662148E+03  0.32194917735E+03  0.36439048894E+03  0.12500000000E+03 0.  0.
         25    1    1    2    0    0  0.11126217087E+03  0.17034701203E+03  0.79273097727E+02  0.25160802689E+03  0.12500000000E+03 0.  0.
</event>
<event>
 5    0  0.5619558E-005  0.3828382E+03  0.7546771E-02  0.1049890E+00
         21   -1    0    0  502  501  0.00000000000E+00  0.00000000000E+00  0.47100775579E+03  0.47100775579E+03  0.00000000000E+00 0. -1.
         21   -1    0    0  501  502 -0.00000000000E+00 -0.00000000000E+00 -0.31117338875E+03  0.31117338875E+03  0.00000000000E+00 0. -1.
         25    1    1    2    0    0 -0.26979286307E+03  0.25838373231E+02  0.14605967276E+03  0.33228638026E+03  0.12500000000E+03 0.  0.
         25    1    1    2    0    0  0.92206481544E+02 -0.13289085818E+03  0.32778176433E+02  0.20703000815E+03  0.12500000000E+03 0.  0.
         25    1    1    2    0    0  0.17758638153E+03  0.10705248495E+03 -0.19003482153E+02  0.24286475613E+03  0.12500000000E+03 0.  0.
</event>
<event>
 5    0  0.6139350E-005  0.3533533E+03  0.7546771E-02  0.1061247E+00
         21   -1    0    0  502  501  0.00000000000E+00  0.00000000000E+00  0.32565856170E+03  0.32565856170E+03  0.00000000000E+00 0.  1.
         21   -1    0    0  501  502 -0.00000000000E+00 -0.00000000000E+00 -0.38340319981E+03  0.38340319981E+03  0.00000000000E+00 0.  1.
         25    1    1    2    0    0 -0.18253330988E+03 -0.54211201738E+02 -0.94832233931E+02  0.24672943927E+03  0.12500000000E+03 0.  0.
         25    1    1    2    0    0 -0.23564639044E+02  0.15277873721E+03  0.35295060809E+02  0.20190932637E+03  0.12500000000E+03 0.  0.
         25    1    1    2    0    0  0.20609794892E+03 -0.98567535477E+02  0.17925350108E+01  0.26042299588E+03  0.12500000000E+03 0.  0.
</event>
<event>
 5    0  0.5619558E-005  0.3352292E+03  0.7546771E-02  0.1068846E+00
         21   -1    0    0  502  501  0.00000000000E+00  0.00000000000E+00  0.18374768840E+03  0.18374768840E+03  0.00000000000E+00 0. -1.
         21   -1    0    0  501  502 -0.00000000000E+00 -0.00000000000E+00 -0.61159214198E+03  0.61159214198E+03  0.00000000000E+00 0. -1.
         25    1    1    2    0    0  0.20658651506E+03  0.16505206533E+03 -0.14151555194E+03  0.32491818034E+03  0.12500000000E+03 0.  0.
         25    1    1    2    0    0 -0.14417994555E+03 -0.82340076689E+02 -0.13064470559E+03  0.24548072027E+03  0.12500000000E+03 0.  0.
         25    1    1    2    0    0 -0.62406569517E+02 -0.82711988641E+02 -0.15568419606E+03  0.22494092977E+03  0.12500000000E+03 0.  0.
</event>
<event>
 5    0  0.5619558E-005  0.3307278E+03  0.7546771E-02  0.1070815E+00
         21   -1    0    0  502  501  0.00000000000E+00  0.00000000000E+00  0.85157292266E+03  0.85157292266E+03  0.00000000000E+00 0.  1.
         21   -1    0    0  501  502 -0.00000000000E+00 -0.00000000000E+00 -0.12844570103E+03  0.12844570103E+03  0.00000000000E+00 0.  1.
         25    1    1    2    0    0  0.11735430004E+03  0.13022233438E+03  0.22010066916E+03  0.30789477533E+03  0.12500000000E+03 0.  0.
         25    1    1    2    0    0  0.26952056555E+02  0.88430024535E+02  0.17170957928E+03  0.23163648721E+03  0.12500000000E+03 0.  0.
         25    1    1    2    0    0 -0.14430635659E+03 -0.21865235891E+03  0.33131697319E+03  0.44048736115E+03  0.12500000000E+03 0.  0.
</event>
<event>
 5    0  0.5619558E-005  0.4875330E+03  0.7546771E-02  0.1017085E+00
         21   -1    0    0  502  501  0.00000000000E+00  0.00000000000E+00  0.30959716018E+03  0.30959716018E+03  0.00000000000E+00 0. -1.
         21   -1    0    0  501  502 -0.00000000000E+00 -0.00000000000E+00 -0.76773443086E+03  0.76773443086E+03  0.00000000000E+00 0. -1.
         25    1    1    2    0    0  0.25141355667E+03  0.86925567657E+02  0.16438678006E+03  0.33676823521E+03  0.12500000000E+03 0.  0.
         25    1    1    2    0    0 -0.21657434825E+03 -0.94308822028E+02 -0.36838681591E+03  0.45511805981E+03  0.12500000000E+03 0.  0.
         25    1    1    2    0    0 -0.34839208418E+02  0.73832543711E+01 -0.25413723484E+03  0.28544529602E+03  0.12500000000E+03 0.  0.
</event>
<event>
 5    0  0.5619558E-005  0.4569834E+03  0.7546771E-02  0.1025660E+00
         21   -1    0    0  502  501  0.00000000000E+00  0.00000000000E+00  0.23749045042E+04  0.23749045042E+04  0.00000000000E+00 0.  1.
         21   -1    0    0  501  502 -0.00000000000E+00 -0.00000000000E+00 -0.87933567509E+02  0.87933567509E+02  0.00000000000E+00 0.  1.
         25    1    1    2    0    0  0.32189823403E+03 -0.68229923131E+02  0.16059131831E+04  0.16440364798E+04  0.12500000000E+03 0.  0.
         25    1    1    2    0    0 -0.26528246853E+03  0.15212387152E+02  0.54165168264E+03  0.61613127671E+03  0.12500000000E+03 0.  0.
         25    1    1    2    0    0 -0.56615765500E+02  0.53017535979E+02  0.13940607102E+03  0.20267031519E+03  0.12500000000E+03 0.  0.
</event>
<event>
 5    0  0.5619558E-005  0.2766467E+03  0.7546771E-02  0.1097535E+00
         21   -1    0    0  502  501  0.00000000000E+00  0.00000000000E+00  0.97648632053E+02  0.97648632053E+02  0.00000000000E+00 0. -1.
         21   -1    0    0  501  502 -0.00000000000E+00 -0.00000000000E+00 -0.78376289367E+03  0.78376289367E+03  0.00000000000E+00 0. -1.
         25    1    1    2    0    0 -0.15304769840E+02 -0.89885670740E+02 -0.97717893215E+02  0.18299578257E+03  0.12500000000E+03 0.  0.
         25    1    1    2    0    0 -0.38008237892E+02  0.11774523912E+03 -0.50911315532E+03  0.53863695789E+03  0.12500000000E+03 0.  0.
         25    1    1    2    0    0  0.53313007732E+02 -0.27859568377E+02 -0.79283213080E+02  0.15977878526E+03  0.12500000000E+03 0.  0.
</event>
<event>
 5    0  0.5619558E-005  0.3928488E+03  0.7546771E-02  0.1046284E+00
         21   -1    0    0  502  501  0.00000000000E+00  0.00000000000E+00  0.49339744541E+03  0.49339744541E+03  0.00000000000E+00 0. -1.
         21   -1    0    0  501  502 -0.00000000000E+00 -0.00000000000E+00 -0.31279074620E+03  0.31279074620E+03  0.00000000000E+00 0. -1.
         25    1    1    2    0    0  0.13093061519E+03  0.15791691641E+03  0.15397046001E+03  0.28532872452E+03  0.12500000000E+03 0.  0.
         25    1    1    2    0    0 -0.85749680407E+02  0.53598982511E+02 -0.14601733829E+03  0.21719097978E+03  0.12500000000E+03 0.  0.
         25    1    1    2    0    0 -0.45180934782E+02 -0.21151589892E+03  0.17265357750E+03  0.30366848731E+03  0.12500000000E+03 0.  0.
</event>
<event>
 5    0  0.5619558E-005  0.2789523E+03  0.7546771E-02  0.1096263E+00
         21   -1    0    0  502  501  0.00000000000E+00  0.00000000000E+00  0.62309737041E+03  0.62309737041E+03  0.00000000000E+00 0.  1.
         21   -1    0    0  501  502 -0.00000000000E+00 -0.00000000000E+00 -0.12488317688E+03  0.12488317688E+03  0.00000000000E+00 0.  1.
         25    1    1    2    0    0 -0.72833332431E+02  0.66391786523E+02  0.43727950528E+03  0.46535032972E+03  0.12500000000E+03 0.  0.
         25    1    1    2    0    0  0.53153635223E+02 -0.30361451336E+02  0.39209692721E+01  0.13923900554E+03  0.12500000000E+03 0.  0.
         25    1    1    2    0    0  0.19679697209E+02 -0.36030335187E+02  0.57013718972E+02  0.14339121203E+03  0.12500000000E+03 0.  0.
</event>
<event>
 5    0  0.5619558E-005  0.2746415E+03  0.7546771E-02  0.1098652E+00
         21   -1    0    0  502  501  0.00000000000E+00  0.00000000000E+00  0.35810834757E+02  0.35810834757E+02  0.00000000000E+00 0.  1.
         21   -1    0    0  501  502 -0.00000000000E+00 -0.00000000000E+00 -0.21062893078E+04  0.21062893078E+04  0.00000000000E+00 0.  1.
         25    1    1    2    0    0 -0.97169412347E+01  0.20032581160E+02 -0.56810616959E+03  0.58212141618E+03  0.12500000000E+03 0.  0.
         25    1    1    2    0    0 -0.12592374274E+03 -0.10262002679E+02 -0.34630837697E+03  0.38925131938E+03  0.12500000000E+03 0.  0.
         25    1    1    2    0    0  0.13564068397E+03 -0.97705784802E+01 -0.11560639264E+04  0.11707274069E+04  0.12500000000E+03 0.  0.
</event>
<event>
 5    0  0.5619558E-005  0.4940244E+03  0.7546771E-02  0.1015351E+00
         21   -1    0    0  502  501  0.00000000000E+00  0.00000000000E+00  0.31709921143E+04  0.31709921143E+04  0.00000000000E+00 0.  1.
         21   -1    0    0  501  502 -0.00000000000E+00 -0.00000000000E+00 -0.76966482145E+02  0.76966482145E+02  0.00000000000E+00 0.  1.
         25    1    1    2    0    0 -0.67978581271E+02 -0.28491519248E+03  0.57593177163E+03  0.65811865191E+03  0.12500000000E+03 0.  0.
         25    1    1    2    0    0 -0.18939742039E+03  0.11581468608E+03  0.78968246371E+03  0.82976371206E+03  0.12500000000E+03 0.  0.
         25    1    1    2    0    0  0.25737600166E+03  0.16910050640E+03  0.17284113968E+04  0.17600762325E+04  0.12500000000E+03 0.  0.
</event>
<event>
 5    0  0.5619558E-005  0.3439453E+03  0.7546771E-02  0.1065128E+00
         21   -1    0    0  502  501  0.00000000000E+00  0.00000000000E+00  0.15280648166E+03  0.15280648166E+03  0.00000000000E+00 0. -1.
         21   -1    0    0  501  502 -0.00000000000E+00 -0.00000000000E+00 -0.77417109775E+03  0.77417109775E+03  0.00000000000E+00 0. -1.
         25    1    1    2    0    0 -0.22080462848E+03  0.17985282145E+02 -0.62935863498E+02  0.26203831256E+03  0.12500000000E+03 0.  0.
         25    1    1    2    0    0  0.11709680330E+03  0.58869565159E+02 -0.27001862878E+03  0.32513435212E+03  0.12500000000E+03 0.  0.
         25    1    1    2    0    0  0.10370782519E+03 -0.76854847304E+02 -0.28841012381E+03  0.33980491473E+03  0.12500000000E+03 0.  0.
</event>
<event>
 5    0  0.5619558E-005  0.3631917E+03  0.7546771E-02  0.1057327E+00
         21   -1    0    0  502  501  0.00000000000E+00  0.00000000000E+00  0.51978108005E+03  0.51978108005E+03  0.00000000000E+00 0. -1.
         21   -1    0    0  501  502 -0.00000000000E+00 -0.00000000000E+00 -0.25377650361E+03  0.25377650361E+03  0.00000000000E+00 0. -1.
         25    1    1    2    0    0  0.76439223282E+02 -0.92647505412E+02  0.14464484887E+03  0.22577344268E+03  0.12500000000E+03 0.  0.
         25    1    1    2    0    0 -0.43950746156E+02  0.11033245562E+03  0.28833042659E+03  0.33595290406E+03  0.12500000000E+03 0.  0.
         25    1    1    2    0    0 -0.32488477126E+02 -0.17684950206E+02 -0.16697069901E+03  0.21183123693E+03  0.12500000000E+03 0.  0.
</event>
<event>
 5    0  0.5619558E-005  0.3044279E+03  0.7546771E-02  0.1083048E+00
         21   -1    0    0  502  501  0.00000000000E+00  0.00000000000E+00  0.11997969591E+03  0.11997969591E+03  0.00000000000E+00 0.  1.
         21   -1    0    0  501  502 -0.00000000000E+00 -0.00000000000E+00 -0.77243358210E+03  0.77243358210E+03  0.00000000000E+00 0.  1.
         25    1    1    2    0    0 -0.85179551436E+02  0.11141014065E+03 -0.40144572291E+03  0.44322843305E+03  0.12500000000E+03 0.  0.
         25    1    1    2    0    0  0.12196125527E+03 -0.14570307755E+02 -0.34566191556E+02  0.17862436355E+03  0.12500000000E+03 0.  0.
         25    1    1    2    0    0 -0.36781703835E+02 -0.96839832894E+02 -0.21644197173E+03  0.27056048140E+03  0.12500000000E+03 0.  0.
</event>
<event>
 5    0  0.5619558E-005  0.2872343E+03  0.7546771E-02  0.1091802E+00
         21   -1    0    0  502  501  0.00000000000E+00  0.00000000000E+00  0.18724272738E+04  0.18724272738E+04  0.00000000000E+00 0. -1.
         21   -1    0    0  501  502 -0.00000000000E+00 -0.00000000000E+00 -0.44062348118E+02  0.44062348118E+02  0.00000000000E+00 0. -1.
         25    1    1    2    0    0  0.62168407286E+02 -0.62029058891E+02  0.72023752928E+03  0.73626056094E+03  0.12500000000E+03 0.  0.
         25    1    1    2    0    0 -0.12112150294E+03  0.33590437146E+02  0.95775856384E+03  0.97402525765E+03  0.12500000000E+03 0.  0.
         25    1    1    2    0    0  0.58953095653E+02  0.28438621745E+02  0.15036883252E+03  0.20620380328E+03  0.12500000000E+03 0.  0.
</event>
<event>
 5    0  0.5619558E-005  0.4297452E+03  0.7546771E-02  0.1033940E+00
         21   -1    0    0  502  501  0.00000000000E+00  0.00000000000E+00  0.32504388128E+03  0.32504388128E+03  0.00000000000E+00 0. -1.
         21   -1    0    0  501  502 -0.00000000000E+00 -0.00000000000E+00 -0.56817228334E+03  0.56817228334E+03  0.00000000000E+00 0. -1.
         25    1    1    2    0    0 -0.26180326529E+03 -0.27623321598E+02 -0.23762055858E+03  0.37602197738E+03  0.12500000000E+03 0.  0.
         25    1    1    2    0    0  0.28212026552E+03  0.12630677334E+03  0.68535759305E+02  0.34039300156E+03  0.12500000000E+03 0.  0.
         25    1    1    2    0    0 -0.20317000233E+02 -0.98683451742E+02 -0.74043602781E+02  0.17680118568E+03  0.12500000000E+03 0.  0.
</event>
<event>
 5    0  0.5619558E-005  0.2283549E+03  0.7546771E-02  0.1127803E+00
         21   -1    0    0  502  501  0.00000000000E+00  0.00000000000E+00  0.36208159990E+02  0.36208159990E+02  0.00000000000E+00 0. -1.
         21   -1    0    0  501  502 -0.00000000000E+00 -0.00000000000E+00 -0.14401715112E+04  0.14401715112E+04  0.00000000000E+00 0. -1.
         25    1    1    2    0    0 -0.57409176659E+02 -0.71034233831E+02 -0.30416953673E+03  0.34130013626E+03  0.12500000000E+03 0.  0.
         25    1    1    2    0    0  0.13275606074E+02  0.77034654134E+02 -0.53894831874E+03  0.55874938024E+03  0.12500000000E+03 0.  0.
         25    1    1    2    0    0  0.44133570585E+02 -0.60004203031E+01 -0.56084549573E+03  0.57633015466E+03  0.12500000000E+03 0.  0.
</event>
<event>
 5    0  0.5619558E-005  0.3841064E+03  0.7546771E-02  0.1049426E+00
         21   -1    0    0  502  501  0.00000000000E+00  0.00000000000E+00  0.17764189414E+03  0.17764189414E+03  0.00000000000E+00 0.  1.
         21   -1    0    0  501  502 -0.00000000000E+00 -0.00000000000E+00 -0.83053473341E+03  0.83053473341E+03  0.00000000000E+00 0.  1.
         25    1    1    2    0    0  0.20008506006E+03 -0.13390412712E+03 -0.16263937377E+03  0.31629244762E+03  0.12500000000E+03 0.  0.
         25    1    1    2    0    0 -0.51316707315E+02  0.47315854435E+02  0.14727609489E+02  0.14392392786E+03  0.12500000000E+03 0.  0.
         25    1    1    2    0    0 -0.14876835275E+03  0.86588272684E+02 -0.50498107498E+03  0.54796025206E+03  0.12500000000E+03 0.  0.
</event>
<event>
 5    0  0.5619558E-005  0.6685638E+03  0.7546771E-02  0.9772556E-01
         21   -1    0    0  502  501  0.00000000000E+00  0.00000000000E+00  0.15828812526E+04  0.15828812526E+04  0.00000000000E+00 0.  1.
         21   -1    0    0  501  502 -0.00000000000E+00 -0.00000000000E+00 -0.28238227630E+03  0.28238227630E+03  0.00000000000E+00 0.  1.
         25    1    1    2    0    0  0.30213873354E+03  0.32303573800E+03  0.82620484677E+02  0.46700219145E+03  0.12500000000E+03 0.  0.
         25    1    1    2    0    0 -0.38151563640E+03 -0.10911991252E+03  0.86495156103E+03  0.95980599032E+03  0.12500000000E+03 0.  0.
         25    1    1    2    0    0  0.79376902863E+02 -0.21391582548E+03  0.35292693062E+03  0.43845534716E+03  0.12500000000E+03 0.  0.
</event>
<event>
 5    0  0.5619558E-005  0.2637232E+03  0.7546771E-02  0.1104927E+00
         21   -1    0    0  502  501  0.00000000000E+00  0.00000000000E+00  0.40321748452E+03  0.40321748452E+03  0.00000000000E+00 0.  1.
         21   -1    0    0  501  502 -0.00000000000E+00 -0.00000000000E+00 -0.17248739223E+03  0.17248739223E+03  0.00000000000E+00 0.  1.
         25    1    1    2    0    0  0.13159077905E+02  0.41301804388E+02  0.56429282044E+01  0.13242297012E+03  0.12500000000E+03 0.  0.
         25    1    1    2    0    0  0.17645147628E+02 -0.16013619555E+03  0.14751511630E+03  0.25167570780E+03  0.12500000000E+03 0.  0.
         25    1    1    2    0    0 -0.30804225532E+02  0.11883439116E+03  0.77572047789E+02  0.19160619884E+03  0.12500000000E+03 0.  0.
</event>
<event>
 5    0  0.5711522E-005  0.2830863E+03  0.7546771E-02  0.1094015E+00
         21   -1    0    0  502  501  0.00000000000E+00  0.00000000000E+00  0.12205603148E+03  0.12205603148E+03  0.00000000000E+00 0. -1.
         21   -1    0    0  501  502 -0.00000000000E+00 -0.00000000000E+00 -0.65656626105E+03  0.65656626105E+03  0.00000000000E+00 0. -1.
         25    1    1    2    0    0  0.66969131246E+02 -0.57959344563E+02 -0.31965445133E+03  0.35446878342E+03  0.12500000000E+03 0.  0.
         25    1    1    2    0    0 -0.14692667683E+03  0.76710922549E+02 -0.79076160227E+02  0.22214871847E+03  0.12500000000E+03 0.  0.
         25    1    1    2    0    0  0.79957545582E+02 -0.18751577986E+02 -0.13577961801E+03  0.20200479064E+03  0.12500000000E+03 0.  0.
</event>
<event>
 5    0  0.5619558E-005  0.3030713E+03  0.7546771E-02  0.1083715E+00
         21   -1    0    0  502  501  0.00000000000E+00  0.00000000000E+00  0.80274871056E+03  0.80274871056E+03  0.00000000000E+00 0. -1.
         21   -1    0    0  501  502 -0.00000000000E+00 -0.00000000000E+00 -0.11442210511E+03  0.11442210511E+03  0.00000000000E+00 0. -1.
         25    1    1    2    0    0  0.11699309093E+02  0.13735854584E+03  0.40146696354E+03  0.44249855001E+03  0.12500000000E+03 0.  0.
         25    1    1    2    0    0 -0.42671427913E+02 -0.17963016304E+03  0.24838235841E+03  0.33377633559E+03  0.12500000000E+03 0.  0.
         25    1    1    2    0    0  0.30972118820E+02  0.42271617193E+02  0.38477283501E+02  0.14089593007E+03  0.12500000000E+03 0.  0.
</event>
<event>
 5    0  0.5619558E-005  0.3314529E+03  0.7546771E-02  0.1070496E+00
         21   -1    0    0  502  501  0.00000000000E+00  0.00000000000E+00  0.10702008747E+03  0.10702008747E+03  0.00000000000E+00 0.  1.
         21   -1    0    0  501  502 -0.00000000000E+00 -0.00000000000E+00 -0.10265459439E+04  0.10265459439E+04  0.00000000000E+00 0.  1.
         25    1    1    2    0    0 -0.17572233214E+03 -0.25703187953E+02 -0.57256322405E+03  0.61236642414E+03  0.12500000000E+03 0.  0.
         25    1    1    2    0    0  0.59342921523E+02  0.25521837827E+02 -0.31831140615E+03  0.34802312829E+03  0.12500000000E+03 0.  0.
         25    1    1    2    0    0  0.11637941062E+03  0.18135012647E+00 -0.28651226271E+02  0.17317647897E+03  0.12500000000E+03 0.  0.
</event>
<event>
 5    0  0.5619558E-005  0.2853882E+03  0.7546771E-02  0.1092782E+00
         21   -1    0    0  502  501  0.00000000000E+00  0.00000000000E+00  0.28058048739E+02  0.28058048739E+02  0.00000000000E+00 0.  1.
         21   -1    0    0  501  502 -0.00000000000E+00 -0.00000000000E+00 -0.29027835574E+04  0.29027835574E+04  0.00000000000E+00 0.  1.
         25    1    1    2    0    0  0.56796121066E+02  0.99249143016E+02 -0.67678089626E+03  0.69766293674E+03  0.12500000000E+03 0.  0.
         25    1    1    2    0    0  0.10917665614E+03 -0.56668936829E+02 -0.78099314342E+03  0.80044125376E+03  0.12500000000E+03 0.  0.
         25    1    1    2    0    0 -0.16597277721E+03 -0.42580206186E+02 -0.14169514690E+04  0.14327374156E+04  0.12500000000E+03 0.  0.
</event>
<event>
 5    0  0.5619558E-005  0.3140820E+03  0.7546771E-02  0.1078406E+00
         21   -1    0    0  502  501  0.00000000000E+00  0.00000000000E+00  0.24318898285E+03  0.24318898285E+03  0.00000000000E+00 0.  1.
         21   -1    0    0  501  502 -0.00000000000E+00 -0.00000000000E+00 -0.40564134287E+03  0.40564134287E+03  0.00000000000E+00 0.  1.
         25    1    1    2    0    0  0.15880629508E+03  0.13722439072E+03 -0.49418654499E+02  0.24923317632E+03  0.12500000000E+03 0.  0.
         25    1    1    2    0    0 -0.54482653749E+02  0.27387415670E+02  0.61033873302E+01  0.13921451589E+03  0.12500000000E+03 0.  0.
         25    1    1    2    0    0 -0.10432364133E+03 -0.16461180639E+03 -0.11913709285E+03  0.26038263352E+03  0.12500000000E+03 0.  0.
</event>
<event>
 5    0  0.5619558E-005  0.7184433E+03  0.7546771E-02  0.9686201E-01
         21   -1    0    0  502  501  0.00000000000E+00  0.00000000000E+00  0.12119256994E+04  0.12119256994E+04  0.00000000000E+00 0. -1.
         21   -1    0    0  501  502 -0.00000000000E+00 -0.00000000000E+00 -0.42590136477E+03  0.42590136477E+03  0.00000000000E+00 0. -1.
         25    1    1    2    0    0  0.87146529006E+01 -0.29769494519E+02  0.10194957752E+04  0.10275985615E+04  0.12500000000E+03 0.  0.
         25    1    1    2    0    0  0.44636054505E+01  0.22078347719E+03 -0.27894136003E+03  0.37709222998E+03  0.12500000000E+03 0.  0.
         25    1    1    2    0    0 -0.13178258351E+02 -0.19101398267E+03  0.45469919464E+02  0.23313627269E+03  0.12500000000E+03 0.  0.
</event>
<event>
 5    0  0.6618715E-005  0.4639240E+03  0.7546771E-02  0.1023649E+00
         21   -1    0    0  502  501  0.00000000000E+00  0.00000000000E+00  0.83290201612E+03  0.83290201612E+03  0.00000000000E+00 0.  1.
         21   -1    0    0  501  502 -0.00000000000E+00 -0.00000000000E+00 -0.25840430113E+03  0.25840430113E+03  0.00000000000E+00 0.  1.
         25    1    1    2    0    0 -0.18807008407E+03  0.17901265689E+03  0.93428745371E+02  0.30293533685E+03  0.12500000000E+03 0.  0.
         25    1    1    2    0    0 -0.90389152836E+02 -0.26551124847E+03  0.24806395282E+03  0.39474947334E+03  0.12500000000E+03 0.  0.
         25    1    1    2    0    0  0.27845923690E+03  0.86498591581E+02  0.23300501680E+03  0.39362150706E+03  0.12500000000E+03 0.  0.
</event>
<event>
 5    0  0.5619558E-005  0.3928201E+03  0.7546771E-02  0.1046295E+00
         21   -1    0    0  502  501  0.00000000000E+00  0.00000000000E+00  0.16116792796E+04  0.16116792796E+04  0.00000000000E+00 0.  1.
         21   -1    0    0  501  502 -0.00000000000E+00 -0.00000000000E+00 -0.95743409716E+02  0.95743409716E+02  0.00000000000E+00 0.  1.
         25    1    1    2    0    0 -0.83405929629E+02 -0.13264365494E+03  0.50772708474E+03  0.54585957981E+03  0.12500000000E+03 0.  0.
         25    1    1    2    0    0 -0.13701172770E+03  0.23795421050E+03  0.55726107508E+03  0.63368708810E+03  0.12500000000E+03 0.  0.
         25    1    1    2    0    0  0.22041765733E+03 -0.10531055555E+03  0.45094771008E+03  0.52787602143E+03  0.12500000000E+03 0.  0.
</event>
<event>
 5    0  0.5619558E-005  0.4720495E+03  0.7546771E-02  0.1021343E+00
         21   -1    0    0  502  501  0.00000000000E+00  0.00000000000E+00  0.18691816888E+03  0.18691816888E+03  0.00000000000E+00 0. -1.
         21   -1    0    0  501  502 -0.00000000000E+00 -0.00000000000E+00 -0.11921299433E+04  0.11921299433E+04  0.00000000000E+00 0. -1.
         25    1    1    2    0    0  0.23931382473E+03 -0.11070049888E+02 -0.46900148972E+03  0.54127723957E+03  0.12500000000E+03 0.  0.
         25    1    1    2    0    0 -0.86112736480E+02 -0.25883062352E+03 -0.18400482760E+03  0.35198220358E+03  0.12500000000E+03 0.  0.
         25    1    1    2    0    0 -0.15320108825E+03  0.26990067341E+03 -0.35220545708E+03  0.48578866902E+03  0.12500000000E+03 0.  0.
</event>
<event>
 5    0  0.5619558E-005  0.3217913E+03  0.7546771E-02  0.1074828E+00
         21   -1    0    0  502  501  0.00000000000E+00  0.00000000000E+00  0.10113489253E+03  0.10113489253E+03  0.00000000000E+00 0. -1.
         21   -1    0    0  501  502 -0.00000000000E+00 -0.00000000000E+00 -0.10238762776E+04  0.10238762776E+04  0.00000000000E+00 0. -1.
         25    1    1    2    0    0 -0.73081178085E+02 -0.17610951719E+03 -0.48209855236E+03  0.53329113514E+03  0.12500000000E+03 0.  0.
         25    1    1    2    0    0 -0.41477617879E+02  0.82265725000E+02 -0.63626378413E+02  0.16781346288E+03  0.12500000000E+03 0.  0.
         25    1    1    2    0    0  0.11455879596E+03  0.93843792187E+02 -0.37701645431E+03  0.42390657212E+03  0.12500000000E+03 0.  0.
</event>
<event>
 5    0  0.5619558E-005  0.3777741E+03  0.7546771E-02  0.1051760E+00
         21   -1    0    0  502  501  0.00000000000E+00  0.00000000000E+00  0.78897782339E+02  0.78897782339E+02  0.00000000000E+00 0. -1.
         21   -1    0    0  501  502 -0.00000000000E+00 -0.00000000000E+00 -0.18088372744E+04  0.18088372744E+04  0.00000000000E+00 0. -1.
         25    1    1    2    0    0  0.17560979706E+02  0.19441542627E+02 -0.51265730309E+03  0.52832648239E+03  0.12500000000E+03 0.  0.
         25    1    1    2    0    0 -0.14874884631E+03  0.38697070442E+02 -0.11348608239E+04  0.11520233384E+04  0.12500000000E+03 0.  0.
         25    1    1    2    0    0  0.13118786660E+03 -0.58138613069E+02 -0.82421365055E+02  0.20738523595E+03  0.12500000000E+03 0.  0.
</event>
<event>
 5    0  0.5619558E-005  0.4091982E+03  0.7546771E-02  0.1040640E+00
         21   -1    0    0  502  501  0.00000000000E+00  0.00000000000E+00  0.72219846084E+03  0.72219846084E+03  0.00000000000E+00 0.  1.
         21   -1    0    0  501  502 -0.00000000000E+00 -0.00000000000E+00 -0.23185204648E+03  0.23185204648E+03  0.00000000000E+00 0.  1.
         25    1    1    2    0    0  0.25782836448E+02  0.13417189569E+03  0.24462096833E+03  0.30680819806E+03  0.12500000000E+03 0.  0.
         25    1    1    2    0    0  0.71414441160E+01  0.20249616924E+03  0.10275989793E+03  0.25930733773E+03  0.12500000000E+03 0.  0.
         25    1    1    2    0    0 -0.32924280564E+02 -0.33666806493E+03  0.14296554810E+03  0.38793497153E+03  0.12500000000E+03 0.  0.
</event>
<event>
 5    0  0.5619558E-005  0.2460922E+03  0.7546771E-02  0.1115800E+00
         21   -1    0    0  502  501  0.00000000000E+00  0.00000000000E+00  0.14591954680E+03  0.14591954680E+03  0.00000000000E+00 0. -1.
         21   -1    0    0  501  502 -0.00000000000E+00 -0.00000000000E+00 -0.41503274869E+03  0.41503274869E+03  0.00000000000E+00 0. -1.
         25    1    1    2    0    0 -0.99453732448E+02 -0.44544724800E+02 -0.11431723899E+03  0.20141675336E+03  0.12500000000E+03 0.  0.
         25    1    1    2    0    0  0.81804373612E+02  0.87188037001E+02 -0.27289393236E+02  0.17510973794E+03  0.12500000000E+03 0.  0.
         25    1    1    2    0    0  0.17649358836E+02 -0.42643312201E+02 -0.12750656967E+03  0.18442580419E+03  0.12500000000E+03 0.  0.
</event>
<event>
 5    0  0.5619558E-005  0.3929269E+03  0.7546771E-02  0.1046257E+00
         21   -1    0    0  502  501  0.00000000000E+00  0.00000000000E+00  0.53700143819E+03  0.53700143819E+03  0.00000000000E+00 0.  1.
         21   -1    0    0  501  502 -0.00000000000E+00 -0.00000000000E+00 -0.28750684237E+03  0.28750684237E+03  0.00000000000E+00 0.  1.
         25    1    1    2    0    0  0.17723493644E+03 -0.16131855925E+03  0.14308307249E+03  0.30583274169E+03  0.12500000000E+03 0.  0.
         25    1    1    2    0    0  0.14469253514E+02 -0.11681481175E+02 -0.10337264616E+03  0.16326885886E+03  0.12500000000E+03 0.  0.
         25    1    1    2    0    0 -0.19170418996E+03  0.17300004042E+03  0.20978416948E+03  0.35540668001E+03  0.12500000000E+03 0.  0.
</event>
<event>
 5    0  0.5619558E-005  0.2449753E+03  0.7546771E-02  0.1116522E+00
         21   -1    0    0  502  501  0.00000000000E+00  0.00000000000E+00  0.15963556627E+03  0.15963556627E+03  0.00000000000E+00 0.  1.
         21   -1    0    0  501  502 -0.00000000000E+00 -0.00000000000E+00 -0.37593683588E+03  0.37593683588E+03  0.00000000000E+00 0.  1.
         25    1    1    2    0    0  0.75056350553E+02 -0.98977453583E+02 -0.80844126000E+02  0.19388337934E+03  0.12500000000E+03 0.  0.
         25    1    1    2    0    0  0.18145241331E+02  0.45266325725E+02 -0.10130609085E+02  0.13455823746E+03  0.12500000000E+03 0.  0.
         25    1    1    2    0    0 -0.93201591884E+02  0.53711127858E+02 -0.12532653452E+03  0.20713078535E+03  0.12500000000E+03 0.  0.
</event>
<event>
 5    0  0.5619558E-005  0.3513356E+03  0.7546771E-02  0.1062068E+00
         21   -1    0    0  502  501  0.00000000000E+00  0.00000000000E+00  0.37974908389E+03  0.37974908389E+03  0.00000000000E+00 0.  1.
         21   -1    0    0  501  502 -0.00000000000E+00 -0.00000000000E+00 -0.32504808151E+03  0.32504808151E+03  0.00000000000E+00 0.  1.
         25    1    1    2    0    0  0.33354287718E+02  0.17194219121E+03 -0.84710007779E+02  0.23125183468E+03  0.12500000000E+03 0.  0.
         25    1    1    2    0    0 -0.46541717959E+02 -0.89552625470E+02 -0.10118552148E+03  0.18986656893E+03  0.12500000000E+03 0.  0.
         25    1    1    2    0    0  0.13187430241E+02 -0.82389565739E+02  0.24059653164E+03  0.28367876180E+03  0.12500000000E+03 0.  0.
</event>
<event>
 5    0  0.5619558E-005  0.2199863E+03  0.7546771E-02  0.1133893E+00
         21   -1    0    0  502  501  0.00000000000E+00  0.00000000000E+00  0.10530337190E+03  0.10530337190E+03  0.00000000000E+00 0.  1.
         21   -1    0    0  501  502 -0.00000000000E+00 -0.00000000000E+00 -0.45956734108E+03  0.45956734108E+03  0.00000000000E+00 0.  1.
         25    1    1    2    0    0 -0.43942018010E+02  0.23232983812E+02 -0.89282953083E+01  0.13481612270E+03  0.12500000000E+03 0.  0.
         25    1    1    2    0    0  0.27588971096E+02 -0.14990535587E+02 -0.19412830347E+03  0.23301644940E+03  0.12500000000E+03 0.  0.
         25    1    1    2    0    0  0.16353046914E+02 -0.82424482243E+01 -0.15120737040E+03  0.19703814087E+03  0.12500000000E+03 0.  0.
</event>
<event>
 5    0  0.5645194E-005  0.2798679E+03  0.7546771E-02  0.1095761E+00
         21   -1    0    0  502  501  0.00000000000E+00  0.00000000000E+00  0.45420358615E+03  0.45420358615E+03  0.00000000000E+00 0. -1.
         21   -1    0    0  501  502 -0.00000000000E+00 -0.00000000000E+00 -0.17244703461E+03  0.17244703461E+03  0.00000000000E+00 0. -1.
         25    1    1    2    0    0 -0.12454362363E+03  0.15700589655E+02  0.12031430282E+03  0.21414517077E+03  0.12500000000E+03 0.  0.
         25    1    1    2    0    0 -0.15710884807E+02 -0.94411907453E+02  0.13444513721E+03  0.20702882671E+03  0.12500000000E+03 0.  0.
         25    1    1    2    0    0  0.14025450844E+03  0.78711317797E+02  0.26997111515E+02  0.20547662329E+03  0.12500000000E+03 0.  0.
</event>
<event>
 5    0  0.5619558E-005  0.2797455E+03  0.7546771E-02  0.1095828E+00
         21   -1    0    0  502  501  0.00000000000E+00  0.00000000000E+00  0.96352684704E+02  0.96352684704E+02  0.00000000000E+00 0. -1.
         21   -1    0    0  501  502 -0.00000000000E+00 -0.00000000000E+00 -0.81219888434E+03  0.81219888434E+03  0.00000000000E+00 0. -1.
         25    1    1    2    0    0  0.47955836166E+02  0.11880221804E+03 -0.95303075182E+02  0.20278413491E+03  0.12500000000E+03 0.  0.
         25    1    1    2    0    0 -0.10559584087E+02 -0.28977949055E+02 -0.10407411147E+03  0.16555255065E+03  0.12500000000E+03 0.  0.
         25    1    1    2    0    0 -0.37396252079E+02 -0.89824268982E+02 -0.51646901298E+03  0.54021488348E+03  0.12500000000E+03 0.  0.
</event>
<event>
 5    0  0.5619558E-005  0.4214390E+03  0.7546771E-02  0.1036599E+00
         21   -1    0    0  502  501  0.00000000000E+00  0.00000000000E+00  0.26109261107E+03  0.26109261107E+03  0.00000000000E+00 0.  1.
         21   -1    0    0  501  502 -0.00000000000E+00 -0.00000000000E+00 -0.68025991646E+03  0.68025991646E+03  0.00000000000E+00 0.  1.
         25    1    1    2    0    0 -0.28213363816E+03 -0.15872626724E+02 -0.22372582589E+03  0.38148338788E+03  0.12500000000E+03 0.  0.
         25    1    1    2    0    0  0.21048007491E+02  0.42945638492E+02 -0.23100249492E+03  0.26697284346E+03  0.12500000000E+03 0.  0.
         25    1    1    2    0    0  0.26108563066E+03 -0.27073011768E+02  0.35561015420E+02  0.29289629619E+03  0.12500000000E+03 0.  0.
</event>
<event>
 5    0  0.5736439E-005  0.4186793E+03  0.7546771E-02  0.1037497E+00
         21   -1    0    0  502  501  0.00000000000E+00  0.00000000000E+00  0.13906465701E+03  0.13906465701E+03  0.00000000000E+00 0.  1.
         21   -1    0    0  501  502 -0.00000000000E+00 -0.00000000000E+00 -0.12605096695E+04  0.12605096695E+04  0.00000000000E+00 0.  1.
         25    1    1    2    0    0 -0.10040230664E+03 -0.12516258121E+01  0.15795113069E+01  0.16034239802E+03  0.12500000000E+03 0.  0.
         25    1    1    2    0    0 -0.17578127780E+03 -0.92826815657E+01 -0.38692850784E+03  0.44308452465E+03  0.12500000000E+03 0.  0.
         25    1    1    2    0    0  0.27618358444E+03  0.10534307378E+02 -0.73609601593E+03  0.79614740383E+03  0.12500000000E+03 0.  0.
</event>
<event>
 5    0  0.5619558E-005  0.2364451E+03  0.7546771E-02  0.1122184E+00
         21   -1    0    0  502  501  0.00000000000E+00  0.00000000000E+00  0.88098521581E+03  0.88098521581E+03  0.00000000000E+00 0. -1.
         21   -1    0    0  501  502 -0.00000000000E+00 -0.00000000000E+00 -0.63458849485E+02  0.63458849485E+02  0.00000000000E+00 0. -1.
         25    1    1    2    0    0 -0.87507922191E+01 -0.92082454475E+02  0.36569946925E+03  0.39738753956E+03  0.12500000000E+03 0.  0.
         25    1    1    2    0    0 -0.57436030139E+02  0.93656799539E+02  0.22788475066E+03  0.28218248217E+03  0.12500000000E+03 0.  0.
         25    1    1    2    0    0  0.66186822358E+02 -0.15743450634E+01  0.22394214641E+03  0.26487404357E+03  0.12500000000E+03 0.  0.
</event>
<event>
 5    0  0.6665122E-005  0.2994992E+03  0.7546771E-02  0.1085491E+00
         21   -1    0    0  502  501  0.00000000000E+00  0.00000000000E+00  0.45503225840E+03  0.45503225840E+03  0.00000000000E+00 0.  1.
         21   -1    0    0  501  502 -0.00000000000E+00 -0.00000000000E+00 -0.19712837358E+03  0.19712837358E+03  0.00000000000E+00 0.  1.
         25    1    1    2    0    0  0.47316463938E+02 -0.99949143355E+02  0.79141856040E+02  0.18470818172E+03  0.12500000000E+03 0.  0.
         25    1    1    2    0    0  0.85990566652E+02 -0.82753652179E+02  0.58770072568E+02  0.18254168272E+03  0.12500000000E+03 0.  0.
         25    1    1    2    0    0 -0.13330703059E+03  0.18270279553E+03  0.11999195622E+03  0.28491076754E+03  0.12500000000E+03 0.  0.
</event>
<event>
 5    0  0.5619558E-005  0.3103585E+03  0.7546771E-02  0.1080174E+00
         21   -1    0    0  502  501  0.00000000000E+00  0.00000000000E+00  0.66189591564E+02  0.66189591564E+02  0.00000000000E+00 0. -1.
         21   -1    0    0  501  502 -0.00000000000E+00 -0.00000000000E+00 -0.14552499467E+04  0.14552499467E+04  0.00000000000E+00 0. -1.
         25    1    1    2    0    0  0.11449638333E+03  0.18514667746E+03 -0.39669216371E+03  0.46944476429E+03  0.12500000000E+03 0.  0.
         25    1    1    2    0    0 -0.89383422111E+02 -0.48469979998E+02 -0.41815729323E+03  0.44812861657E+03  0.12500000000E+03 0.  0.
         25    1    1    2    0    0 -0.25112961215E+02 -0.13667669746E+03 -0.57421089816E+03  0.60386615737E+03  0.12500000000E+03 0.  0.
</event>
<event>
 5    0  0.5619558E-005  0.2767635E+03  0.7546771E-02  0.1097470E+00
         21   -1    0    0  502  501  0.00000000000E+00  0.00000000000E+00  0.90042538677E+02  0.90042538677E+02  0.00000000000E+00 0. -1.
         21   -1    0    0  501  502 -0.00000000000E+00 -0.00000000000E+00 -0.85068710897E+03  0.85068710897E+03  0.00000000000E+00 0. -1.
         25    1    1    2    0    0 -0.11941498333E+02  0.65962022542E+02 -0.21056773278E+03  0.25388453653E+03  0.12500000000E+03 0.  0.
         25    1    1    2    0    0 -0.10386112818E+03  0.71864660479E+02 -0.15852935478E+03  0.23813487712E+03  0.12500000000E+03 0.  0.
         25    1    1    2    0    0  0.11580262652E+03 -0.13782668302E+03 -0.39154748273E+03  0.44871023400E+03  0.12500000000E+03 0.  0.
</event>
<event>
 5    0  0.5619558E-005  0.2483302E+03  0.7546771E-02  0.1114365E+00
         21   -1    0    0  502  501  0.00000000000E+00  0.00000000000E+00  0.19236741956E+04  0.19236741956E+04  0.00000000000E+00 0.  1.
         21   -1    0    0  501  502 -0.00000000000E+00 -0.00000000000E+00 -0.32057335450E+02  0.32057335450E+02  0.00000000000E+00 0.  1.
         25    1    1    2    0    0 -0.14378498002E+03  0.24477005173E+02  0.88807673070E+03  0.90861351733E+03  0.12500000000E+03 0.  0.
         25    1    1    2    0    0  0.96255677178E+02 -0.23736921515E+02  0.64530712724E+03  0.66473670374E+03  0.12500000000E+03 0.  0.
         25    1    1    2    0    0  0.47529302844E+02 -0.74008365800E+00  0.35823300225E+03  0.38238131002E+03  0.12500000000E+03 0.  0.
</event>
<event>
 5    0  0.5619558E-005  0.3254626E+03  0.7546771E-02  0.1073162E+00
         21   -1    0    0  502  501  0.00000000000E+00  0.00000000000E+00  0.17820491123E+03  0.17820491123E+03  0.00000000000E+00 0.  1.
         21   -1    0    0  501  502 -0.00000000000E+00 -0.00000000000E+00 -0.59440517640E+03  0.59440517640E+03  0.00000000000E+00 0.  1.
         25    1    1    2    0    0  0.91179100129E+02 -0.82341869344E+02 -0.22117524476E+03  0.28220081616E+03  0.12500000000E+03 0.  0.
         25    1    1    2    0    0 -0.50919416643E+02  0.20793029468E+03 -0.39081475306E+02  0.25095847495E+03  0.12500000000E+03 0.  0.
         25    1    1    2    0    0 -0.40259683486E+02 -0.12558842534E+03 -0.15594354511E+03  0.23945079652E+03  0.12500000000E+03 0.  0.
</event>
<event>
 5    0  0.5619558E-005  0.2247227E+03  0.7546771E-02  0.1130410E+00
         21   -1    0    0  502  501  0.00000000000E+00  0.00000000000E+00  0.31775242071E+03  0.31775242071E+03  0.00000000000E+00 0. -1.
         21   -1    0    0  501  502 -0.00000000000E+00 -0.00000000000E+00 -0.15892965234E+03  0.15892965234E+03  0.00000000000E+00 0. -1.
         25    1    1    2    0    0  0.15179341024E+01 -0.54120721806E+02  0.10313347435E+03  0.17085921159E+03  0.12500000000E+03 0.  0.
         25    1    1    2    0    0 -0.71587395278E+02  0.17950964566E+01  0.19239675220E+01  0.14407178483E+03  0.12500000000E+03 0.  0.
         25    1    1    2    0    0  0.70069461176E+02  0.52325625349E+02  0.53765326496E+02  0.16175107663E+03  0.12500000000E+03 0.  0.
</event>
<event>
 5    0  0.5619558E-005  0.3877458E+03  0.7546771E-02  0.1048107E+00
         21   -1    0    0  502  501  0.00000000000E+00  0.00000000000E+00  0.93850747703E+02  0.93850747703E+02  0.00000000000E+00 0.  1.
         21   -1    0    0  501  502 -0.00000000000E+00 -0.00000000000E+00 -0.16019777752E+04  0.16019777752E+04  0.00000000000E+00 0.  1.
         25    1    1    2    0    0  0.69354573722E+02  0.30617085120E+02 -0.69026796947E+03  0.70557943031E+03  0.12500000000E+03 0.  0.
         25    1    1    2    0    0  0.28550299483E+02  0.22321217931E+03 -0.34228214707E+03  0.42827662182E+03  0.12500000000E+03 0.  0.
         25    1    1    2    0    0 -0.97904873205E+02 -0.25382926443E+03 -0.47557691098E+03  0.56197247080E+03  0.12500000000E+03 0.  0.
</event>
<event>
 5    0  0.5699401E-005  0.3520154E+03  0.7546771E-02  0.1061791E+00
         21   -1    0    0  502  501  0.00000000000E+00  0.00000000000E+00  0.16620062796E+03  0.16620062796E+03  0.00000000000E+00 0. -1.
         21   -1    0    0  501  502 -0.00000000000E+00 -0.00000000000E+00 -0.74557405802E+03  0.74557405802E+03  0.00000000000E+00 0. -1.
         25    1    1    2    0    0  0.86318728886E+02 -0.13656301942E+03 -0.28216198689E+03  0.34834001790E+03  0.12500000000E+03 0.  0.
         25    1    1    2    0    0 -0.10491636975E+03 -0.89472486141E+02 -0.25109095147E+02  0.18779839477E+03  0.12500000000E+03 0.  0.
         25    1    1    2    0    0  0.18597640865E+02  0.22603550556E+03 -0.27210234803E+03  0.37563627331E+03  0.12500000000E+03 0.  0.
</event>
<event>
 5    0  0.5619558E-005  0.4379601E+03  0.7546771E-02  0.1031375E+00
         21   -1    0    0  502  501  0.00000000000E+00  0.00000000000E+00  0.51480863204E+03  0.51480863204E+03  0.00000000000E+00 0.  1.
         21   -1    0    0  501  502 -0.00000000000E+00 -0.00000000000E+00 -0.37258318678E+03  0.37258318678E+03  0.00000000000E+00 0.  1.
         25    1    1    2    0    0  0.17264622499E+03  0.12570333895E+03 -0.15858113136E+03  0.29390648794E+03  0.12500000000E+03 0.  0.
         25    1    1    2    0    0 -0.17339902923E+03  0.61781289601E+02  0.29313672340E+03  0.36801941482E+03  0.12500000000E+03 0.  0.
         25    1    1    2    0    0  0.75280423489E+00 -0.18748462855E+03  0.76698532275E+01  0.22546591606E+03  0.12500000000E+03 0.  0.
</event>
<event>
 5    0  0.5619558E-005  0.3926069E+03  0.7546771E-02  0.1046370E+00
         21   -1    0    0  502  501  0.00000000000E+00  0.00000000000E+00  0.99693580082E+03  0.99693580082E+03  0.00000000000E+00 0.  1.
         21   -1    0    0  501  502 -0.00000000000E+00 -0.00000000000E+00 -0.15461394131E+03  0.15461394131E+03  0.00000000000E+00 0.  1.
         25    1    1    2    0    0 -0.75722364742E+02 -0.14109299136E+03  0.66749853105E+02  0.21382621828E+03  0.12500000000E+03 0.  0.
         25    1    1    2    0    0  0.18281074035E+03  0.14728722126E+03  0.71391111782E+03  0.76184471940E+03  0.12500000000E+03 0.  0.
         25    1    1    2    0    0 -0.10708837561E+03 -0.61942299008E+01  0.61660888589E+02  0.17587880445E+03  0.12500000000E+03 0.  0.
</event>
<event>
 5    0  0.6391337E-005  0.2682478E+03  0.7546771E-02  0.1102287E+00
         21   -1    0    0  502  501  0.00000000000E+00  0.00000000000E+00  0.20456663204E+03  0.20456663204E+03  0.00000000000E+00 0.  1.
         21   -1    0    0  501  502 -0.00000000000E+00 -0.00000000000E+00 -0.35175266999E+03  0.35175266999E+03  0.00000000000E+00 0.  1.
         25    1    1    2    0    0  0.94414491519E+02 -0.85968866741E+00  0.56319900510E+01  0.15675316451E+03  0.12500000000E+03 0.  0.
         25    1    1    2    0    0  0.19240042138E+02  0.10099221792E+03 -0.21385863224E+02  0.16325428768E+03  0.12500000000E+03 0.  0.
         25    1    1    2    0    0 -0.11365453366E+03 -0.10013252925E+03 -0.13143216478E+03  0.23631184984E+03  0.12500000000E+03 0.  0.
</event>
<event>
 5    0  0.5619558E-005  0.1899962E+03  0.7546771E-02  0.1158465E+00
         21   -1    0    0  502  501  0.00000000000E+00  0.00000000000E+00  0.13643137048E+03  0.13643137048E+03  0.00000000000E+00 0.  1.
         21   -1    0    0  501  502 -0.00000000000E+00 -0.00000000000E+00 -0.26459128727E+03  0.26459128727E+03  0.00000000000E+00 0.  1.
         25    1    1    2    0    0 -0.19480529716E+02  0.10001288266E+02 -0.40365804209E+02  0.13316874616E+03  0.12500000000E+03 0.  0.
         25    1    1    2    0    0  0.10828369891E+02  0.92370177421E+01 -0.51993295857E+02  0.13612817087E+03  0.12500000000E+03 0.  0.
         25    1    1    2    0    0  0.86521598243E+01 -0.19238306008E+02 -0.35800816723E+02  0.13172574071E+03  0.12500000000E+03 0.  0.
</event>
<event>
 5    0  0.5619558E-005  0.3840143E+03  0.7546771E-02  0.1049460E+00
         21   -1    0    0  502  501  0.00000000000E+00  0.00000000000E+00  0.42096112465E+03  0.42096112465E+03  0.00000000000E+00 0.  1.
         21   -1    0    0  501  502 -0.00000000000E+00 -0.00000000000E+00 -0.35031021907E+03  0.35031021907E+03  0.00000000000E+00 0.  1.
         25    1    1    2    0    0  0.10054237076E+03  0.83121066325E+02 -0.11169263072E+03  0.21241027222E+03  0.12500000000E+03 0.  0.
         25    1    1    2    0    0 -0.18682933360E+03 -0.53934119032E+01 -0.86106440442E+02  0.24077709166E+03  0.12500000000E+03 0.  0.
         25    1    1    2    0    0  0.86286962837E+02 -0.77727654422E+02  0.26844997674E+03  0.31808397984E+03  0.12500000000E+03 0.  0.
</event>
<event>
 5    0  0.5619558E-005  0.2893684E+03  0.7546771E-02  0.1090679E+00
         21   -1    0    0  502  501  0.00000000000E+00  0.00000000000E+00  0.68785564968E+03  0.68785564968E+03  0.00000000000E+00 0.  1.
         21   -1    0    0  501  502 -0.00000000000E+00 -0.00000000000E+00 -0.12173206437E+03  0.12173206437E+03  0.00000000000E+00 0.  1.
         25    1    1    2    0    0 -0.75610056605E+02  0.13398051750E+03  0.95372481490E+02  0.21997402109E+03  0.12500000000E+03 0.  0.
         25    1    1    2    0    0  0.11837084243E+03 -0.94050993947E+02  0.36983297072E+03  0.41863907132E+03  0.12500000000E+03 0.  0.
         25    1    1    2    0    0 -0.42760785825E+02 -0.39929523552E+02  0.10091813310E+03  0.17097462164E+03  0.12500000000E+03 0.  0.
</event>
<event>
 5    0  0.5619558E-005  0.2902718E+03  0.7546771E-02  0.1090207E+00
         21   -1    0    0  502  501  0.00000000000E+00  0.00000000000E+00  0.25819030157E+03  0.25819030157E+03  0.00000000000E+00 0.  1.
         21   -1    0    0  501  502 -0.00000000000E+00 -0.00000000000E+00 -0.32633966958E+03  0.32633966958E+03  0.00000000000E+00 0.  1.
         25    1    1    2    0    0 -0.23026541158E+02 -0.94595643277E+02 -0.60743694687E+01  0.15855741953E+03  0.12500000000E+03 0.  0.
         25    1    1    2    0    0 -0.22379799846E+02  0.18469400898E+03  0.50574515776E+02  0.22977274433E+03  0.12500000000E+03 0.  0.
         25    1    1    2    0    0  0.45406341004E+02 -0.90098365700E+02 -0.11264951432E+03  0.19619980729E+03  0.12500000000E+03 0.  0.
</event>
<event>
 5    0  0.5619558E-005  0.2226345E+03  0.7546771E-02  0.1131934E+00
         21   -1    0    0  502  501  0.00000000000E+00  0.00000000000E+00  0.32520379595E+03  0.32520379595E+03  0.00000000000E+00 0. -1.
         21   -1    0    0  501  502 -0.00000000000E+00 -0.00000000000E+00 -0.15241554648E+03  0.15241554648E+03  0.00000000000E+00 0. -1.
         25    1    1    2    0    0  0.23849190405E+01 -0.10209009004E+02  0.88922145271E+02  0.15375974643E+03  0.12500000000E+03 0.  0.
         25    1    1    2    0    0 -0.49717963524E+02 -0.32879605143E+01 -0.40770999373E+02  0.14060569324E+03  0.12500000000E+03 0.  0.
         25    1    1    2    0    0  0.47333044483E+02  0.13496969519E+02  0.12463710357E+03  0.18325390275E+03  0.12500000000E+03 0.  0.
</event>
<event>
 5    0  0.6228493E-005  0.2716872E+03  0.7546771E-02  0.1100318E+00
         21   -1    0    0  502  501  0.00000000000E+00  0.00000000000E+00  0.38247328964E+03  0.38247328964E+03  0.00000000000E+00 0. -1.
         21   -1    0    0  501  502 -0.00000000000E+00 -0.00000000000E+00 -0.19299107070E+03  0.19299107070E+03  0.00000000000E+00 0. -1.
         25    1    1    2    0    0 -0.50402634610E+01 -0.81329284386E+02  0.11972413251E+03  0.19130793151E+03  0.12500000000E+03 0.  0.
         25    1    1    2    0    0  0.61557665036E+02  0.91227861740E+02 -0.76598584566E+02  0.18331451672E+03  0.12500000000E+03 0.  0.
         25    1    1    2    0    0 -0.56517401574E+02 -0.98985773544E+01  0.14635667100E+03  0.20084191211E+03  0.12500000000E+03 0.  0.
</event>
<event>
 5    0  0.5619558E-005  0.2653920E+03  0.7546771E-02  0.1103946E+00
         21   -1    0    0  502  501  0.00000000000E+00  0.00000000000E+00  0.26644931238E+02  0.26644931238E+02  0.00000000000E+00 0. -1.
         21   -1    0    0  501  502 -0.00000000000E+00 -0.00000000000E+00 -0.26433883083E+04  0.26433883083E+04  0.00000000000E+00 0. -1.
         25    1    1    2    0    0 -0.85173923296E+02  0.16185624444E+02 -0.77563864343E+03  0.79041563549E+03  0.12500000000E+03 0.  0.
         25    1    1    2    0    0  0.15355351989E+02 -0.13164541135E+03 -0.11552845508E+04  0.11695613257E+04  0.12500000000E+03 0.  0.
         25    1    1    2    0    0  0.69818571307E+02  0.11545978691E+03 -0.68582018279E+03  0.71005627834E+03  0.12500000000E+03 0.  0.
</event>
<event>
 5    0  0.5619558E-005  0.3044328E+03  0.7546771E-02  0.1083045E+00
         21   -1    0    0  502  501  0.00000000000E+00  0.00000000000E+00  0.55840547921E+02  0.55840547921E+02  0.00000000000E+00 0.  1.
         21   -1    0    0  501  502 -0.00000000000E+00 -0.00000000000E+00 -0.16597140574E+04  0.16597140574E+04  0.00000000000E+00 0.  1.
         25    1    1    2    0    0 -0.21081963285E+03 -0.79796181886E+02 -0.63254662615E+03  0.68304654490E+03  0.12500000000E+03 0.  0.
         25    1    1    2    0    0  0.97242722974E+02  0.74750473324E+02 -0.58956097330E+03  0.61502107417E+03  0.12500000000E+03 0.  0.
         25    1    1    2    0    0  0.11357690988E+03  0.50457085627E+01 -0.38176591002E+03  0.41748698625E+03  0.12500000000E+03 0.  0.
</event>
<event>
 5    0  0.6016462E-005  0.3499680E+03  0.7546771E-02  0.1062628E+00
         21   -1    0    0  502  501  0.00000000000E+00  0.00000000000E+00  0.36453936177E+03  0.36453936177E+03  0.00000000000E+00 0. -1.
         21   -1    0    0  501  502 -0.00000000000E+00 -0.00000000000E+00 -0.33597915474E+03  0.33597915474E+03  0.00000000000E+00 0. -1.
         25    1    1    2    0    0 -0.17088501710E+03 -0.30388840550E+02 -0.34641335795E+02  0.21667993180E+03  0.12500000000E+03 0.  0.
         25    1    1    2    0    0  0.13127387297E+03 -0.14543547350E+03 -0.48941927521E+02  0.23749656618E+03  0.12500000000E+03 0.  0.
         25    1    1    2    0    0  0.39611144129E+02  0.17582431405E+03  0.11214347035E+03  0.24634201853E+03  0.12500000000E+03 0.  0.
</event>
<event>
 5    0  0.5619558E-005  0.4301441E+03  0.7546771E-02  0.1033814E+00
         21   -1    0    0  502  501  0.00000000000E+00  0.00000000000E+00  0.59751972343E+02  0.59751972343E+02  0.00000000000E+00 0.  1.
         21   -1    0    0  501  502 -0.00000000000E+00 -0.00000000000E+00 -0.30965324907E+04  0.30965324907E+04  0.00000000000E+00 0.  1.
         25    1    1    2    0    0  0.12092150904E+03  0.22334647495E+03 -0.13056300088E+04  0.13359642133E+04  0.12500000000E+03 0.  0.
         25    1    1    2    0    0  0.23288432127E+02 -0.12140132064E+03 -0.17103427932E+03  0.24527200498E+03  0.12500000000E+03 0.  0.
         25    1    1    2    0    0 -0.14420994117E+03 -0.10194515430E+03 -0.15601162302E+04  0.15750482447E+04  0.12500000000E+03 0.  0.
</event>
<event>
 5    0  0.5619558E-005  0.3552333E+03  0.7546771E-02  0.1060487E+00
         21   -1    0    0  502  501  0.00000000000E+00  0.00000000000E+00  0.14030838217E+03  0.14030838217E+03  0.00000000000E+00 0. -1.
         21   -1    0    0  501  502 -0.00000000000E+00 -0.00000000000E+00 -0.89938109233E+03  0.89938109233E+03  0.00000000000E+00 0. -1.
         25    1    1    2    0    0  0.26010111925E+00 -0.14344964906E+03 -0.97697712796E+02  0.21388714911E+03  0.12500000000E+03 0.  0.
         25    1    1    2    0    0 -0.21443754682E+02 -0.13162456404E+03 -0.17643855295E+03  0.25404807309E+03  0.12500000000E+03 0.  0.
         25    1    1    2    0    0  0.21183653563E+02  0.27507421310E+03 -0.48493644442E+03  0.57175425229E+03  0.12500000000E+03 0.  0.
</event>
<event>
 5    0  0.5619558E-005  0.3027388E+03  0.7546771E-02  0.1083879E+00
         21   -1    0    0  502  501  0.00000000000E+00  0.00000000000E+00  0.80057084864E+02  0.80057084864E+02  0.00000000000E+00 0.  1.
         21   -1    0    0  501  502 -0.00000000000E+00 -0.00000000000E+00 -0.11448182188E+04  0.11448182188E+04  0.00000000000E+00 0.  1.
         25    1    1    2    0    0 -0.21486416731E+02 -0.80361964863E+02 -0.70135929102E+02  0.16572193594E+03  0.12500000000E+03 0.  0.
         25    1    1    2    0    0  0.75813488414E+02  0.99358846439E+02 -0.80897825367E+03  0.82806441797E+03  0.12500000000E+03 0.  0.
         25    1    1    2    0    0 -0.54327071682E+02 -0.18996881577E+02 -0.18564695120E+03  0.23108894979E+03  0.12500000000E+03 0.  0.
</event>
<event>
 5    0  0.5619558E-005  0.4721038E+03  0.7546771E-02  0.1021328E+00
         21   -1    0    0  502  501  0.00000000000E+00  0.00000000000E+00  0.10701292201E+03  0.10701292201E+03  0.00000000000E+00 0. -1.
         21   -1    0    0  501  502 -0.00000000000E+00 -0.00000000000E+00 -0.20827576654E+04  0.20827576654E+04  0.00000000000E+00 0. -1.
         25    1    1    2    0    0  0.13803070683E+03  0.45970427033E+02 -0.38976050229E+03  0.43440074279E+03  0.12500000000E+03 0.  0.
         25    1    1    2    0    0  0.24206487621E+02  0.43970155382E+02 -0.15145885511E+04  0.15205666075E+04  0.12500000000E+03 0.  0.
         25    1    1    2    0    0 -0.16223719445E+03 -0.89940582415E+02 -0.71395689994E+02  0.23480323716E+03  0.12500000000E+03 0.  0.
</event>
<event>
 5    0  0.5664110E-005  0.3077294E+03  0.7546771E-02  0.1081439E+00
         21   -1    0    0  502  501  0.00000000000E+00  0.00000000000E+00  0.18557346295E+03  0.18557346295E+03  0.00000000000E+00 0.  1.
         21   -1    0    0  501  502 -0.00000000000E+00 -0.00000000000E+00 -0.51029590899E+03  0.51029590899E+03  0.00000000000E+00 0.  1.
         25    1    1    2    0    0  0.37414764820E+02  0.60865177569E+02  0.40106535099E+02  0.14945891952E+03  0.12500000000E+03 0.  0.
         25    1    1    2    0    0 -0.17509022780E+02  0.11615470923E+03 -0.24167605678E+03  0.29636261366E+03  0.12500000000E+03 0.  0.
         25    1    1    2    0    0 -0.19905742040E+02 -0.17701988680E+03 -0.12315292435E+03  0.25004783875E+03  0.12500000000E+03 0.  0.
</event>
<event>
 5    0  0.5619558E-005  0.2388384E+03  0.7546771E-02  0.1120569E+00
         21   -1    0    0  502  501  0.00000000000E+00  0.00000000000E+00  0.16669980992E+04  0.16669980992E+04  0.00000000000E+00 0.  1.
         21   -1    0    0  501  502 -0.00000000000E+00 -0.00000000000E+00 -0.34219458124E+02  0.34219458124E+02  0.00000000000E+00 0.  1.
         25    1    1    2    0    0 -0.13889646414E+02  0.81508870388E+02  0.25928250787E+03  0.29948128008E+03  0.12500000000E+03 0.  0.
         25    1    1    2    0    0  0.40329234038E+02 -0.90425811889E+01  0.57941737707E+03  0.59418659716E+03  0.12500000000E+03 0.  0.
         25    1    1    2    0    0 -0.26439587624E+02 -0.72466289199E+02  0.79407875615E+03  0.80754968010E+03  0.12500000000E+03 0.  0.
</event>
<event>
 5    0  0.5619558E-005  0.4705140E+03  0.7546771E-02  0.1021775E+00
         21   -1    0    0  502  501  0.00000000000E+00  0.00000000000E+00  0.99111661437E+03  0.99111661437E+03  0.00000000000E+00 0.  1.
         21   -1    0    0  501  502 -0.00000000000E+00 -0.00000000000E+00 -0.22336768671E+03  0.22336768671E+03  0.00000000000E+00 0.  1.
         25    1    1    2    0    0 -0.88506153526E+02  0.40469260361E+02 -0.73489802323E+02  0.17463347701E+03  0.12500000000E+03 0.  0.
         25    1    1    2    0    0  0.73108626782E+02  0.25223182522E+03  0.36235667891E+03  0.46464301105E+03  0.12500000000E+03 0.  0.
         25    1    1    2    0    0  0.15397526744E+02 -0.29270108558E+03  0.47888205107E+03  0.57520781303E+03  0.12500000000E+03 0.  0.
</event>
<event>
 5    0  0.5619558E-005  0.3547568E+03  0.7546771E-02  0.1060679E+00
         21   -1    0    0  502  501  0.00000000000E+00  0.00000000000E+00  0.21275350969E+04  0.21275350969E+04  0.00000000000E+00 0.  1.
         21   -1    0    0  501  502 -0.00000000000E+00 -0.00000000000E+00 -0.59154077792E+02  0.59154077792E+02  0.00000000000E+00 0.  1.
         25    1    1    2    0    0  0.16931579259E+03  0.14022215004E+03  0.13917864604E+04  0.14145757811E+04  0.12500000000E+03 0.  0.
         25    1    1    2    0    0 -0.72182191634E+02 -0.14787635311E+03  0.30811515057E+03  0.37099545901E+03  0.12500000000E+03 0.  0.
         25    1    1    2    0    0 -0.97133600953E+02  0.76542030733E+01  0.36847940813E+03  0.40111793462E+03  0.12500000000E+03 0.  0.
</event>
<event>
 5    0  0.5619558E-005  0.2765226E+03  0.7546771E-02  0.1097603E+00
         21   -1    0    0  502  501  0.00000000000E+00  0.00000000000E+00  0.12355459346E+04  0.12355459346E+04  0.00000000000E+00 0.  1.
         21   -1    0    0  501  502 -0.00000000000E+00 -0.00000000000E+00 -0.61887435405E+02  0.61887435405E+02  0.00000000000E+00 0.  1.
         25    1    1    2    0    0 -0.15092354803E+02  0.82741989047E+02  0.13455962837E+03  0.20200324134E+03  0.12500000000E+03 0.  0.
         25    1    1    2    0    0 -0.39138714509E+02 -0.14628008750E+03  0.57832373654E+03  0.61074794082E+03  0.12500000000E+03 0.  0.
         25    1    1    2    0    0  0.54231069312E+02  0.63538098458E+02  0.46077513425E+03  0.48468218780E+03  0.12500000000E+03 0.  0.
</event>
<event>
 5    0  0.5619558E-005  0.4103736E+03  0.7546771E-02  0.1040246E+00
         21   -1    0    0  502  501  0.00000000000E+00  0.00000000000E+00  0.44850919519E+03  0.44850919519E+03  0.00000000000E+00 0.  1.
         21   -1    0    0  501  502 -0.00000000000E+00 -0.00000000000E+00 -0.37548050086E+03  0.37548050086E+03  0.00000000000E+00 0.  1.
         25    1    1    2    0    0  0.17609165497E+03 -0.86652017710E+02 -0.18222994747E+03  0.29554965214E+03  0.12500000000E+03 0.  0.
         25    1    1    2    0    0  0.27283198107E+02  0.13500001670E+03  0.15455183964E+02  0.18663665267E+03  0.12500000000E+03 0.  0.
         25    1    1    2    0    0 -0.20337485308E+03 -0.48347998988E+02  0.23980345784E+03  0.34180339124E+03  0.12500000000E+03 0.  0.
</event>
<event>
 5    0  0.5619558E-005  0.2727336E+03  0.7546771E-02  0.1099725E+00
         21   -1    0    0  502  501  0.00000000000E+00  0.00000000000E+00  0.32839179830E+03  0.32839179830E+03  0.00000000000E+00 0. -1.
         21   -1    0    0  501  502 -0.00000000000E+00 -0.00000000000E+00 -0.22650868736E+03  0.22650868736E+03  0.00000000000E+00 0. -1.
         25    1    1    2    0    0  0.58668057702E+02  0.96833126780E+02 -0.54901281447E+02  0.17736331679E+03  0.12500000000E+03 0.  0.
         25    1    1    2    0    0 -0.98898096014E+02  0.26755959114E+02  0.91703313142E+02  0.18582575813E+03  0.12500000000E+03 0.  0.
         25    1    1    2    0    0  0.40230038312E+02 -0.12358908589E+03  0.65081079238E+02  0.19171141074E+03  0.12500000000E+03 0.  0.
</event>
<event>
 5    0  0.5619558E-005  0.4312832E+03  0.7546771E-02  0.1033455E+00
         21   -1    0    0  502  501  0.00000000000E+00  0.00000000000E+00  0.22482648142E+03  0.22482648142E+03  0.00000000000E+00 0. -1.
         21   -1    0    0  501  502 -0.00000000000E+00 -0.00000000000E+00 -0.82732798051E+03  0.82732798051E+03  0.00000000000E+00 0. -1.
         25    1    1    2    0    0  0.20932897657E+03  0.58922223903E+02 -0.12697991503E+03  0.28113937420E+03  0.12500000000E+03 0.  0.
         25    1    1    2    0    0  0.14337411530E+02 -0.23291654550E+03 -0.97021366574E+02  0.28194649157E+03  0.12500000000E+03 0.  0.
         25    1    1    2    0    0 -0.22366638810E+03  0.17399432160E+03 -0.37850021749E+03  0.48906859616E+03  0.12500000000E+03 0.  0.
</event>
<event>
 5    0  0.5619558E-005  0.2452670E+03  0.7546771E-02  0.1116333E+00
         21   -1    0    0  502  501  0.00000000000E+00  0.00000000000E+00  0.11069349965E+03  0.11069349965E+03  0.00000000000E+00 0. -1.
         21   -1    0    0  501  502 -0.00000000000E+00 -0.00000000000E+00 -0.54344586283E+03  0.54344586283E+03  0.00000000000E+00 0. -1.
         25    1    1    2    0    0  0.24361718066E+01 -0.54963174222E+02 -0.10060081111E+03  0.16962431621E+03  0.12500000000E+03 0.  0.
         25    1    1    2    0    0 -0.27484743608E+02  0.14681510372E+03 -0.20045984180E+03  0.27949818244E+03  0.12500000000E+03 0.  0.
         25    1    1    2    0    0  0.25048571802E+02 -0.91851929496E+02 -0.13169171027E+03  0.20501686383E+03  0.12500000000E+03 0.  0.
</event>
<event>
 5    0  0.6147426E-005  0.2983936E+03  0.7546771E-02  0.1086046E+00
         21   -1    0    0  502  501  0.00000000000E+00  0.00000000000E+00  0.53007474401E+03  0.53007474401E+03  0.00000000000E+00 0. -1.
         21   -1    0    0  501  502 -0.00000000000E+00 -0.00000000000E+00 -0.16797389879E+03  0.16797389879E+03  0.00000000000E+00 0. -1.
         25    1    1    2    0    0 -0.59446359258E+02  0.71100910996E+02 -0.17378695330E+02  0.15657658901E+03  0.12500000000E+03 0.  0.
         25    1    1    2    0    0  0.13951980816E+03 -0.12448147347E+03  0.18621187074E+03  0.29199533371E+03  0.12500000000E+03 0.  0.
         25    1    1    2    0    0 -0.80073448904E+02  0.53380562470E+02  0.19326766981E+03  0.24947672008E+03  0.12500000000E+03 0.  0.
</event>
<event>
 5    0  0.5619558E-005  0.3044648E+03  0.7546771E-02  0.1083030E+00
         21   -1    0    0  502  501  0.00000000000E+00  0.00000000000E+00  0.34486654205E+03  0.34486654205E+03  0.00000000000E+00 0. -1.
         21   -1    0    0  501  502 -0.00000000000E+00 -0.00000000000E+00 -0.26879623785E+03  0.26879623785E+03  0.00000000000E+00 0. -1.
         25    1    1    2    0    0 -0.56901366006E+02  0.55545458510E+02 -0.20066191366E+02  0.14950155668E+03  0.12500000000E+03 0.  0.
         25    1    1    2    0    0  0.16949955529E+03 -0.12167303519E+03 -0.28062254171E+02  0.24484059476E+03  0.12500000000E+03 0.  0.
         25    1    1    2    0    0 -0.11259818928E+03  0.66127576681E+02  0.12419874973E+03  0.21932062845E+03  0.12500000000E+03 0.  0.
</event>
<event>
 5    0  0.5619558E-005  0.4600197E+03  0.7546771E-02  0.1024776E+00
         21   -1    0    0  502  501  0.00000000000E+00  0.00000000000E+00  0.13374886609E+03  0.13374886609E+03  0.00000000000E+00 0. -1.
         21   -1    0    0  501  502 -0.00000000000E+00 -0.00000000000E+00 -0.15822046979E+04  0.15822046979E+04  0.00000000000E+00 0. -1.
         25    1    1    2    0    0  0.17768770122E+03 -0.29158230063E+03 -0.49108557166E+03  0.61105089469E+03  0.12500000000E+03 0.  0.
         25    1    1    2    0    0 -0.12829690515E+03  0.21074085545E+03 -0.89388853408E+03  0.93569947921E+03  0.12500000000E+03 0.  0.
         25    1    1    2    0    0 -0.49390796071E+02  0.80841445185E+02 -0.63481726095E+02  0.16920319011E+03  0.12500000000E+03 0.  0.
</event>
<event>
 5    0  0.5619558E-005  0.3112163E+03  0.7546771E-02  0.1079764E+00
         21   -1    0    0  502  501  0.00000000000E+00  0.00000000000E+00  0.12261358494E+03  0.12261358494E+03  0.00000000000E+00 0.  1.
         21   -1    0    0  501  502 -0.00000000000E+00 -0.00000000000E+00 -0.78992517951E+03  0.78992517951E+03  0.00000000000E+00 0.  1.
         25    1    1    2    0    0 -0.17029989995E+03 -0.62370376442E+02 -0.79551628129E+02  0.23419133485E+03  0.12500000000E+03 0.  0.
         25    1    1    2    0    0  0.56472775714E+01  0.17066894470E+02 -0.24176716384E+03  0.27276277631E+03  0.12500000000E+03 0.  0.
         25    1    1    2    0    0  0.16465262238E+03  0.45303481972E+02 -0.34599280260E+03  0.40558465330E+03  0.12500000000E+03 0.  0.
</event>
<event>
 5    0  0.5619558E-005  0.2092315E+03  0.7546771E-02  0.1142176E+00
         21   -1    0    0  502  501  0.00000000000E+00  0.00000000000E+00  0.10481351514E+04  0.10481351514E+04  0.00000000000E+00 0.  1.
         21   -1    0    0  501  502 -0.00000000000E+00 -0.00000000000E+00 -0.41767340938E+02  0.41767340938E+02  0.00000000000E+00 0.  1.
         25    1    1    2    0    0 -0.48281559818E+02 -0.45364185744E+02  0.28154864082E+03  0.31509309023E+03  0.12500000000E+03 0.  0.
         25    1    1    2    0    0  0.17797774330E+02  0.63907658980E+02  0.42753795461E+03  0.45034947794E+03  0.12500000000E+03 0.  0.
         25    1    1    2    0    0  0.30483785488E+02 -0.18543473236E+02  0.29728121503E+03  0.32445992416E+03  0.12500000000E+03 0.  0.
</event>
<event>
 5    0  0.5619558E-005  0.4228498E+03  0.7546771E-02  0.1036143E+00
         21   -1    0    0  502  501  0.00000000000E+00  0.00000000000E+00  0.87232323340E+03  0.87232323340E+03  0.00000000000E+00 0. -1.
         21   -1    0    0  501  502 -0.00000000000E+00 -0.00000000000E+00 -0.20497217466E+03  0.20497217466E+03  0.00000000000E+00 0. -1.
         25    1    1    2    0    0 -0.12511278422E+03  0.93536953684E+01  0.28958844750E+03  0.33945127679E+03  0.12500000000E+03 0.  0.
         25    1    1    2    0    0  0.24036813618E+03 -0.21080195224E+03  0.10608479189E+03  0.35929554274E+03  0.12500000000E+03 0.  0.
         25    1    1    2    0    0 -0.11525535196E+03  0.20144825688E+03  0.27167781935E+03  0.37854858854E+03  0.12500000000E+03 0.  0.
</event>
<event>
 5    0  0.5619558E-005  0.4095261E+03  0.7546771E-02  0.1040530E+00
         21   -1    0    0  502  501  0.00000000000E+00  0.00000000000E+00  0.23450764020E+03  0.23450764020E+03  0.00000000000E+00 0. -1.
         21   -1    0    0  501  502 -0.00000000000E+00 -0.00000000000E+00 -0.71516479846E+03  0.71516479846E+03  0.00000000000E+00 0. -1.
         25    1    1    2    0    0 -0.24309610712E+03 -0.25776015644E+02  0.40263238624E+02  0.27749999759E+03  0.12500000000E+03 0.  0.
         25    1    1    2    0    0  0.26835521601E+02 -0.57371063190E+02 -0.87940654319E+02  0.16543924200E+03  0.12500000000E+03 0.  0.
         25    1    1    2    0    0  0.21626058552E+03  0.83147078834E+02 -0.43297974257E+03  0.50673319907E+03  0.12500000000E+03 0.  0.
</event>
<event>
 5    0  0.5619558E-005  0.2731876E+03  0.7546771E-02  0.1099469E+00
         21   -1    0    0  502  501  0.00000000000E+00  0.00000000000E+00  0.10845900398E+03  0.10845900398E+03  0.00000000000E+00 0. -1.
         21   -1    0    0  501  502 -0.00000000000E+00 -0.00000000000E+00 -0.68810779175E+03  0.68810779175E+03  0.00000000000E+00 0. -1.
         25    1    1    2    0    0 -0.25319690449E+02 -0.14624650281E+03 -0.21161774710E+03  0.28711704442E+03  0.12500000000E+03 0.  0.
         25    1    1    2    0    0  0.97703146003E+02  0.11329958195E+03 -0.26501660274E+03  0.32900075948E+03  0.12500000000E+03 0.  0.
         25    1    1    2    0    0 -0.72383455553E+02  0.32946920857E+02 -0.10301443793E+03  0.18044899183E+03  0.12500000000E+03 0.  0.
</event>
<event>
 5    0  0.5619558E-005  0.3057274E+03  0.7546771E-02  0.1082412E+00
         21   -1    0    0  502  501  0.00000000000E+00  0.00000000000E+00  0.99210440357E+03  0.99210440357E+03  0.00000000000E+00 0. -1.
         21   -1    0    0  501  502 -0.00000000000E+00 -0.00000000000E+00 -0.94213112933E+02  0.94213112933E+02  0.00000000000E+00 0. -1.
         25    1    1    2    0    0 -0.16075274615E+02  0.33052508776E+02  0.66036822682E+03  0.67309886182E+03  0.12500000000E+03 0.  0.
         25    1    1    2    0    0  0.29361233843E+01  0.81212217994E+02  0.43427404600E+02  0.15529000175E+03  0.12500000000E+03 0.  0.
         25    1    1    2    0    0  0.13139151231E+02 -0.11426472677E+03  0.19409565922E+03  0.25792865294E+03  0.12500000000E+03 0.  0.
</event>
<event>
 5    0  0.5619558E-005  0.4341761E+03  0.7546771E-02  0.1032549E+00
         21   -1    0    0  502  501  0.00000000000E+00  0.00000000000E+00  0.11829776724E+04  0.11829776724E+04  0.00000000000E+00 0. -1.
         21   -1    0    0  501  502 -0.00000000000E+00 -0.00000000000E+00 -0.15935120997E+03  0.15935120997E+03  0.00000000000E+00 0. -1.
         25    1    1    2    0    0 -0.33324063766E+03 -0.14143514099E+03  0.28794100424E+03  0.47915367432E+03  0.12500000000E+03 0.  0.
         25    1    1    2    0    0  0.13283036653E+03  0.70100784530E+02  0.41367967221E+03  0.45750835781E+03  0.12500000000E+03 0.  0.
         25    1    1    2    0    0  0.20041027112E+03  0.71334356463E+02  0.32200578600E+03  0.40566685026E+03  0.12500000000E+03 0.  0.
</event>
<event>
 5    0  0.6576614E-005  0.3203217E+03  0.7546771E-02  0.1075501E+00
         21   -1    0    0  502  501  0.00000000000E+00  0.00000000000E+00  0.31673430498E+03  0.31673430498E+03  0.00000000000E+00 0. -1.
         21   -1    0    0  501  502 -0.00000000000E+00 -0.00000000000E+00 -0.32394966952E+03  0.32394966952E+03  0.00000000000E+00 0. -1.
         25    1    1    2    0    0 -0.12710475281E+03 -0.90494252962E+01 -0.28752229479E+02  0.18080155139E+03  0.12500000000E+03 0.  0.
         25    1    1    2    0    0  0.16898402347E+03 -0.29658302189E+02 -0.13502790624E+03  0.25158050508E+03  0.12500000000E+03 0.  0.
         25    1    1    2    0    0 -0.41879270651E+02  0.38707727485E+02  0.15656477117E+03  0.20830191802E+03  0.12500000000E+03 0.  0.
</event>
<event>
 5    0  0.5619558E-005  0.2644269E+03  0.7546771E-02  0.1104512E+00
         21   -1    0    0  502  501  0.00000000000E+00  0.00000000000E+00  0.30089150117E+03  0.30089150117E+03  0.00000000000E+00 0.  1.
         21   -1    0    0  501  502 -0.00000000000E+00 -0.00000000000E+00 -0.23238132856E+03  0.23238132856E+03  0.00000000000E+00 0.  1.
         25    1    1    2    0    0  0.90739552790E+02 -0.12911441575E+03  0.63680222267E+01  0.20141933994E+03  0.12500000000E+03 0.  0.
         25    1    1    2    0    0  0.25994922360E+02  0.51438786036E+02  0.17288545156E+02  0.13872843433E+03  0.12500000000E+03 0.  0.
         25    1    1    2    0    0 -0.11673447515E+03  0.77675629718E+02  0.44853605229E+02  0.19312505545E+03  0.12500000000E+03 0.  0.
</event>
<event>
 5    0  0.5619558E-005  0.3029245E+03  0.7546771E-02  0.1083788E+00
         21   -1    0    0  502  501  0.00000000000E+00  0.00000000000E+00  0.93588140288E+02  0.93588140288E+02  0.00000000000E+00 0.  1.
         21   -1    0    0  501  502 -0.00000000000E+00 -0.00000000000E+00 -0.98050100597E+03  0.98050100597E+03  0.00000000000E+00 0.  1.
         25    1    1    2    0    0 -0.85385039278E+02  0.11588710453E+03 -0.19001141682E+03  0.26916493912E+03  0.12500000000E+03 0.  0.
         25    1    1    2    0    0 -0.36759449339E+02  0.68292554563E+02 -0.22011238028E+03  0.26474438630E+03  0.12500000000E+03 0.  0.
         25    1    1    2    0    0  0.12214448862E+03 -0.18417965909E+03 -0.47678906859E+03  0.54017982084E+03  0.12500000000E+03 0.  0.
</event>
<event>
 5    0  0.5619558E-005  0.4194364E+03  0.7546771E-02  0.1037250E+00
         21   -1    0    0  502  501  0.00000000000E+00  0.00000000000E+00  0.28166435522E+03  0.28166435522E+03  0.00000000000E+00 0. -1.
         21   -1    0    0  501  502 -0.00000000000E+00 -0.00000000000E+00 -0.62459770914E+03  0.62459770914E+03  0.00000000000E+00 0.  1.
         25    1    1    2    0    0  0.13750205719E+02 -0.19690617837E+02 -0.67456232989E+02  0.14405600285E+03  0.12500000000E+03 0.  0.
         25    1    1    2    0    0  0.31951348417E+03  0.40909585445E+02 -0.19469614248E+03  0.39660313746E+03  0.12500000000E+03 0.  0.
         25    1    1    2    0    0 -0.33326368989E+03 -0.21218967608E+02 -0.80780978459E+02  0.36560292404E+03  0.12500000000E+03 0.  0.
</event>
<event>
 5    0  0.5619558E-005  0.2714044E+03  0.7546771E-02  0.1100479E+00
         21   -1    0    0  502  501  0.00000000000E+00  0.00000000000E+00  0.19999838059E+03  0.19999838059E+03  0.00000000000E+00 0.  1.
         21   -1    0    0  501  502 -0.00000000000E+00 -0.00000000000E+00 -0.36830466652E+03  0.36830466652E+03  0.00000000000E+00 0.  1.
         25    1    1    2    0    0 -0.75887355559E+02  0.47811399308E+02 -0.14455186077E+03  0.21110438435E+03  0.12500000000E+03 0.  0.
         25    1    1    2    0    0  0.13178033496E+03 -0.73088335109E+02  0.46505994595E+02  0.20123560556E+03  0.12500000000E+03 0.  0.
         25    1    1    2    0    0 -0.55892979402E+02  0.25276935801E+02 -0.70260419749E+02  0.15596305721E+03  0.12500000000E+03 0.  0.
</event>
<event>
 5    0  0.5619558E-005  0.2608788E+03  0.7546771E-02  0.1106616E+00
         21   -1    0    0  502  501  0.00000000000E+00  0.00000000000E+00  0.27218394527E+03  0.27218394527E+03  0.00000000000E+00 0.  1.
         21   -1    0    0  501  502 -0.00000000000E+00 -0.00000000000E+00 -0.25004329598E+03  0.25004329598E+03  0.00000000000E+00 0.  1.
         25    1    1    2    0    0  0.11407744806E+03 -0.16102718402E+02  0.10852829930E+03  0.20168379570E+03  0.12500000000E+03 0.  0.
         25    1    1    2    0    0 -0.11076393365E+03  0.21008092292E+02  0.26583807920E+00  0.16833021003E+03  0.12500000000E+03 0.  0.
         25    1    1    2    0    0 -0.33135144167E+01 -0.49053738897E+01 -0.86653488093E+02  0.15221323553E+03  0.12500000000E+03 0.  0.
</event>
<event>
 5    0  0.5619558E-005  0.4351932E+03  0.7546771E-02  0.1032232E+00
         21   -1    0    0  502  501  0.00000000000E+00  0.00000000000E+00  0.29140665728E+03  0.29140665728E+03  0.00000000000E+00 0. -1.
         21   -1    0    0  501  502 -0.00000000000E+00 -0.00000000000E+00 -0.64992711687E+03  0.64992711687E+03  0.00000000000E+00 0. -1.
         25    1    1    2    0    0 -0.11191834871E+03 -0.21049231046E+03  0.13030186071E+02  0.26949492628E+03  0.12500000000E+03 0.  0.
         25    1    1    2    0    0 -0.13385829118E+03  0.18688555664E+02 -0.19288341871E+02  0.18510630557E+03  0.12500000000E+03 0.  0.
         25    1    1    2    0    0  0.24577663989E+03  0.19180375479E+03 -0.35226230379E+03  0.48673254231E+03  0.12500000000E+03 0.  0.
</event>
<event>
 5    0  0.5619558E-005  0.3189532E+03  0.7546771E-02  0.1076132E+00
         21   -1    0    0  502  501  0.00000000000E+00  0.00000000000E+00  0.70663706651E+03  0.70663706651E+03  0.00000000000E+00 0.  1.
         21   -1    0    0  501  502 -0.00000000000E+00 -0.00000000000E+00 -0.14396521974E+03  0.14396521974E+03  0.00000000000E+00 0.  1.
         25    1    1    2    0    0  0.26494373925E+01 -0.81288576364E+02 -0.22524226079E+02  0.15082172564E+03  0.12500000000E+03 0.  0.
         25    1    1    2    0    0 -0.10590917569E+03 -0.53855091890E+02  0.25234517777E+03  0.30564720376E+03  0.12500000000E+03 0.  0.
         25    1    1    2    0    0  0.10325973830E+03  0.13514366825E+03  0.33285089508E+03  0.39413335685E+03  0.12500000000E+03 0.  0.
</event>
<event>
 5    0  0.5621064E-005  0.3397090E+03  0.7546771E-02  0.1066920E+00
         21   -1    0    0  502  501  0.00000000000E+00  0.00000000000E+00  0.34055216129E+03  0.34055216129E+03  0.00000000000E+00 0.  1.
         21   -1    0    0  501  502 -0.00000000000E+00 -0.00000000000E+00 -0.33886785980E+03  0.33886785980E+03  0.00000000000E+00 0.  1.
         25    1    1    2    0    0 -0.15535298416E+02 -0.10691908409E+03  0.99165023997E+02  0.19269597304E+03  0.12500000000E+03 0.  0.
         25    1    1    2    0    0 -0.17394361058E+03  0.23526041546E+02 -0.11501254338E+03  0.24425957387E+03  0.12500000000E+03 0.  0.
         25    1    1    2    0    0  0.18947890900E+03  0.83393042547E+02  0.17531820872E+02  0.24246447419E+03  0.12500000000E+03 0.  0.
</event>
<event>
 5    0  0.5619558E-005  0.2357322E+03  0.7546771E-02  0.1122669E+00
         21   -1    0    0  502  501  0.00000000000E+00  0.00000000000E+00  0.17347525042E+03  0.17347525042E+03  0.00000000000E+00 0.  1.
         21   -1    0    0  501  502 -0.00000000000E+00 -0.00000000000E+00 -0.32033192171E+03  0.32033192171E+03  0.00000000000E+00 0.  1.
         25    1    1    2    0    0 -0.11682879168E+03 -0.29606551602E+02 -0.50387156508E+02  0.18080204646E+03  0.12500000000E+03 0.  0.
         25    1    1    2    0    0  0.84320229902E+02  0.32938953686E+02 -0.99743746564E+02  0.18376259363E+03  0.12500000000E+03 0.  0.
         25    1    1    2    0    0  0.32508561777E+02 -0.33324020846E+01  0.32742317848E+01  0.12924253203E+03  0.12500000000E+03 0.  0.
</event>
<event>
 5    0  0.6450792E-005  0.4729013E+03  0.7546771E-02  0.1021105E+00
         21   -1    0    0  502  501  0.00000000000E+00  0.00000000000E+00  0.12677871417E+04  0.12677871417E+04  0.00000000000E+00 0.  1.
         21   -1    0    0  501  502 -0.00000000000E+00 -0.00000000000E+00 -0.17639840464E+03  0.17639840464E+03  0.00000000000E+00 0.  1.
         25    1    1    2    0    0 -0.67957556645E+02 -0.15641786327E+03 -0.16872100922E+02  0.21211894127E+03  0.12500000000E+03 0.  0.
         25    1    1    2    0    0 -0.16120628228E+03  0.19304719152E+02  0.69378312493E+03  0.72340871024E+03  0.12500000000E+03 0.  0.
         25    1    1    2    0    0  0.22916383892E+03  0.13711314412E+03  0.41447771308E+03  0.50865789486E+03  0.12500000000E+03 0.  0.
</event>
<event>
 5    0  0.5619558E-005  0.2693805E+03  0.7546771E-02  0.1101635E+00
         21   -1    0    0  502  501  0.00000000000E+00  0.00000000000E+00  0.91253541260E+02  0.91253541260E+02  0.00000000000E+00 0.  1.
         21   -1    0    0  501  502 -0.00000000000E+00 -0.00000000000E+00 -0.79521111771E+03  0.79521111771E+03  0.00000000000E+00 0.  1.
         25    1    1    2    0    0 -0.11341059777E+03  0.78306584302E+02 -0.37300117283E+03  0.41683181233E+03  0.12500000000E+03 0.  0.
         25    1    1    2    0    0 -0.27071165494E+02 -0.45618199183E+02 -0.18435169045E+03  0.22896378288E+03  0.12500000000E+03 0.  0.
         25    1    1    2    0    0  0.14048176326E+03 -0.32688385119E+02 -0.14660471317E+03  0.24066906377E+03  0.12500000000E+03 0.  0.
</event>
<event>
 5    0  0.5619558E-005  0.2546831E+03  0.7546771E-02  0.1110380E+00
         21   -1    0    0  502  501  0.00000000000E+00  0.00000000000E+00  0.13086239941E+04  0.13086239941E+04  0.00000000000E+00 0.  1.
         21   -1    0    0  501  502 -0.00000000000E+00 -0.00000000000E+00 -0.49566169887E+02  0.49566169887E+02  0.00000000000E+00 0.  1.
         25    1    1    2    0    0 -0.82317414616E+01  0.41542381975E+02  0.53908845644E+03  0.55500891428E+03  0.12500000000E+03 0.  0.
         25    1    1    2    0    0  0.17604191531E+02  0.66077603719E+02  0.54171281127E+03  0.56013741811E+03  0.12500000000E+03 0.  0.
         25    1    1    2    0    0 -0.93724500694E+01 -0.10761998569E+03  0.17825655652E+03  0.24304383161E+03  0.12500000000E+03 0.  0.
</event>
<event>
 5    0  0.5619558E-005  0.2358957E+03  0.7546771E-02  0.1122558E+00
         21   -1    0    0  502  501  0.00000000000E+00  0.00000000000E+00  0.96941930689E+02  0.96941930689E+02  0.00000000000E+00 0. -1.
         21   -1    0    0  501  502 -0.00000000000E+00 -0.00000000000E+00 -0.57402167138E+03  0.57402167138E+03  0.00000000000E+00 0. -1.
         25    1    1    2    0    0 -0.20815425157E+02  0.60975814366E+02 -0.57494667671E+02  0.15192751124E+03  0.12500000000E+03 0.  0.
         25    1    1    2    0    0 -0.35001587432E+02 -0.12998295901E+01 -0.30280891899E+03  0.32946174603E+03  0.12500000000E+03 0.  0.
         25    1    1    2    0    0  0.55817012589E+02 -0.59675984776E+02 -0.11677615403E+03  0.18957434479E+03  0.12500000000E+03 0.  0.
</event>
<event>
 5    0  0.5619558E-005  0.2267389E+03  0.7546771E-02  0.1128956E+00
         21   -1    0    0  502  501  0.00000000000E+00  0.00000000000E+00  0.19329719467E+03  0.19329719467E+03  0.00000000000E+00 0. -1.
         21   -1    0    0  501  502 -0.00000000000E+00 -0.00000000000E+00 -0.26596626401E+03  0.26596626401E+03  0.00000000000E+00 0. -1.
         25    1    1    2    0    0  0.26989510756E+02 -0.38293350987E+02  0.47681506513E+02  0.14175098054E+03  0.12500000000E+03 0.  0.
         25    1    1    2    0    0 -0.72090517745E+02  0.63263607436E+02 -0.51371278532E+02  0.16572065361E+03  0.12500000000E+03 0.  0.
         25    1    1    2    0    0  0.45101006988E+02 -0.24970256449E+02 -0.68979297321E+02  0.15179182454E+03  0.12500000000E+03 0.  0.
</event>
<event>
 5    0  0.6104509E-005  0.2946391E+03  0.7546771E-02  0.1087952E+00
         21   -1    0    0  502  501  0.00000000000E+00  0.00000000000E+00  0.42092826818E+03  0.42092826818E+03  0.00000000000E+00 0. -1.
         21   -1    0    0  501  502 -0.00000000000E+00 -0.00000000000E+00 -0.20623982867E+03  0.20623982867E+03  0.00000000000E+00 0. -1.
         25    1    1    2    0    0 -0.65731928367E+02  0.19727500376E+02  0.15021949725E+03  0.20712498167E+03  0.12500000000E+03 0.  0.
         25    1    1    2    0    0  0.28748338852E+02 -0.15494979282E+02 -0.13168964477E+03  0.18448231327E+03  0.12500000000E+03 0.  0.
         25    1    1    2    0    0  0.36983589515E+02 -0.42325210940E+01  0.19615858704E+03  0.23556080191E+03  0.12500000000E+03 0.  0.
</event>
<event>
 5    0  0.5619558E-005  0.4415597E+03  0.7546771E-02  0.1030269E+00
         21   -1    0    0  502  501  0.00000000000E+00  0.00000000000E+00  0.11898713449E+04  0.11898713449E+04  0.00000000000E+00 0.  1.
         21   -1    0    0  501  502 -0.00000000000E+00 -0.00000000000E+00 -0.16386220885E+03  0.16386220885E+03  0.00000000000E+00 0.  1.
         25    1    1    2    0    0 -0.18616307136E+03  0.14770424317E+03  0.64292589140E+02  0.27610101341E+03  0.12500000000E+03 0.  0.
         25    1    1    2    0    0 -0.18040864045E+02  0.73602113947E+02  0.18888056791E+03  0.23883804740E+03  0.12500000000E+03 0.  0.
         25    1    1    2    0    0  0.20420393540E+03 -0.22130635712E+03  0.77283597895E+03  0.83879449289E+03  0.12500000000E+03 0.  0.
</event>
<event>
 5    0  0.5619558E-005  0.3405199E+03  0.7546771E-02  0.1066575E+00
         21   -1    0    0  502  501  0.00000000000E+00  0.00000000000E+00  0.29266760322E+03  0.29266760322E+03  0.00000000000E+00 0.  1.
         21   -1    0    0  501  502 -0.00000000000E+00 -0.00000000000E+00 -0.39619629751E+03  0.39619629751E+03  0.00000000000E+00 0.  1.
         25    1    1    2    0    0 -0.10486043229E+03 -0.38708956564E+02 -0.12367805175E+03  0.20836351423E+03  0.12500000000E+03 0.  0.
         25    1    1    2    0    0  0.10523807624E+03 -0.16004147800E+03  0.72513843695E+02  0.23994079457E+03  0.12500000000E+03 0.  0.
         25    1    1    2    0    0 -0.37764394978E+00  0.19875043456E+03 -0.52364486240E+02  0.24055959193E+03  0.12500000000E+03 0.  0.
</event>
<event>
 5    0  0.5619558E-005  0.2763337E+03  0.7546771E-02  0.1097708E+00
         21   -1    0    0  502  501  0.00000000000E+00  0.00000000000E+00  0.34607976208E+03  0.34607976208E+03  0.00000000000E+00 0.  1.
         21   -1    0    0  501  502 -0.00000000000E+00 -0.00000000000E+00 -0.22064374431E+03  0.22064374431E+03  0.00000000000E+00 0.  1.
         25    1    1    2    0    0 -0.56320353051E+02 -0.13167904315E+03  0.15335732964E+03  0.24424336864E+03  0.12500000000E+03 0.  0.
         25    1    1    2    0    0 -0.69748168376E+01 -0.36938808043E+01 -0.24509191701E+02  0.12762442283E+03  0.12500000000E+03 0.  0.
         25    1    1    2    0    0  0.63295169889E+02  0.13537292395E+03 -0.34121201705E+01  0.19485571491E+03  0.12500000000E+03 0.  0.
</event>
<event>
 5    0  0.5619558E-005  0.2449058E+03  0.7546771E-02  0.1116567E+00
         21   -1    0    0  502  501  0.00000000000E+00  0.00000000000E+00  0.12488480685E+04  0.12488480685E+04  0.00000000000E+00 0. -1.
         21   -1    0    0  501  502 -0.00000000000E+00 -0.00000000000E+00 -0.48027335389E+02  0.48027335389E+02  0.00000000000E+00 0. -1.
         25    1    1    2    0    0 -0.99114710368E+02  0.51087825354E+02  0.35421490872E+03  0.39182507994E+03  0.12500000000E+03 0.  0.
         25    1    1    2    0    0  0.11148099664E+03 -0.82629777758E+02  0.43078373893E+03  0.46952670053E+03  0.12500000000E+03 0.  0.
         25    1    1    2    0    0 -0.12366286275E+02  0.31541952403E+02  0.41582208545E+03  0.43552362341E+03  0.12500000000E+03 0.  0.
</event>
<event>
 5    0  0.8150141E-005  0.7099283E+03  0.7546771E-02  0.9700402E-01
         21   -1    0    0  502  501  0.00000000000E+00  0.00000000000E+00  0.16357216249E+04  0.16357216249E+04  0.00000000000E+00 0.  1.
         21   -1    0    0  501  502 -0.00000000000E+00 -0.00000000000E+00 -0.30811980159E+03  0.30811980159E+03  0.00000000000E+00 0.  1.
         25    1    1    2    0    0  0.33310042197E+03  0.38701730862E+03  0.55268784366E+03  0.76277594405E+03  0.12500000000E+03 0.  0.
         25    1    1    2    0    0 -0.38082318372E+03 -0.14563404450E+03  0.79728900254E+03  0.90417383602E+03  0.12500000000E+03 0.  0.
         25    1    1    2    0    0  0.47722761747E+02 -0.24138326412E+03 -0.22375022924E+02  0.27689164638E+03  0.12500000000E+03 0.  0.
</event>
<event>
 5    0  0.5619558E-005  0.4539380E+03  0.7546771E-02  0.1026554E+00
         21   -1    0    0  502  501  0.00000000000E+00  0.00000000000E+00  0.24598011284E+03  0.24598011284E+03  0.00000000000E+00 0.  1.
         21   -1    0    0  501  502 -0.00000000000E+00 -0.00000000000E+00 -0.83770897102E+03  0.83770897102E+03  0.00000000000E+00 0.  1.
         25    1    1    2    0    0 -0.27120622330E+03  0.15130714278E+03 -0.74578439136E+01  0.33485412712E+03  0.12500000000E+03 0.  0.
         25    1    1    2    0    0  0.54863494585E+02 -0.14363593404E+03 -0.36944193641E+03  0.41922980448E+03  0.12500000000E+03 0.  0.
         25    1    1    2    0    0  0.21634272871E+03 -0.76712087371E+01 -0.21482907785E+03  0.32960515227E+03  0.12500000000E+03 0.  0.
</event>
<event>
 5    0  0.5619558E-005  0.2577954E+03  0.7546771E-02  0.1108475E+00
         21   -1    0    0  502  501  0.00000000000E+00  0.00000000000E+00  0.44107410295E+03  0.44107410295E+03  0.00000000000E+00 0. -1.
         21   -1    0    0  501  502 -0.00000000000E+00 -0.00000000000E+00 -0.15067415875E+03  0.15067415875E+03  0.00000000000E+00 0. -1.
         25    1    1    2    0    0  0.53465410076E+02 -0.81482162284E+02 -0.64512556632E+01  0.15863326116E+03  0.12500000000E+03 0.  0.
         25    1    1    2    0    0 -0.22944739414E+02 -0.45002117839E+02  0.13324360069E+03  0.18955344576E+03  0.12500000000E+03 0.  0.
         25    1    1    2    0    0 -0.30520670662E+02  0.12648428012E+03  0.16360759918E+03  0.24356155478E+03  0.12500000000E+03 0.  0.
</event>
<event>
 5    0  0.5619558E-005  0.4394559E+03  0.7546771E-02  0.1030914E+00
         21   -1    0    0  502  501  0.00000000000E+00  0.00000000000E+00  0.36952597878E+04  0.36952597878E+04  0.00000000000E+00 0.  1.
         21   -1    0    0  501  502 -0.00000000000E+00 -0.00000000000E+00 -0.52261951225E+02  0.52261951225E+02  0.00000000000E+00 0.  1.
         25    1    1    2    0    0  0.66078719399E+02 -0.17657554791E+03  0.46513848333E+03  0.51722734842E+03  0.12500000000E+03 0.  0.
         25    1    1    2    0    0  0.16385690339E+03  0.22253878667E+03  0.13827922512E+04  0.14156666297E+04  0.12500000000E+03 0.  0.
         25    1    1    2    0    0 -0.22993562279E+03 -0.45963238761E+02  0.17950671020E+04  0.18146277609E+04  0.12500000000E+03 0.  0.
</event>
<event>
 5    0  0.5619558E-005  0.2283188E+03  0.7546771E-02  0.1127829E+00
         21   -1    0    0  502  501  0.00000000000E+00  0.00000000000E+00  0.49329132081E+02  0.49329132081E+02  0.00000000000E+00 0.  1.
         21   -1    0    0  501  502 -0.00000000000E+00 -0.00000000000E+00 -0.10567682961E+04  0.10567682961E+04  0.00000000000E+00 0.  1.
         25    1    1    2    0    0 -0.25038205580E+02  0.58925566131E+02 -0.51549246910E+03  0.53428140505E+03  0.12500000000E+03 0.  0.
         25    1    1    2    0    0  0.74985707898E+02 -0.21143748784E+02 -0.20283411127E+03  0.25067227848E+03  0.12500000000E+03 0.  0.
         25    1    1    2    0    0 -0.49947502318E+02 -0.37781817347E+02 -0.28911258370E+03  0.32114374470E+03  0.12500000000E+03 0.  0.
</event>
<event>
 5    0  0.5619558E-005  0.2837307E+03  0.7546771E-02  0.1093669E+00
         21   -1    0    0  502  501  0.00000000000E+00  0.00000000000E+00  0.50731680056E+03  0.50731680056E+03  0.00000000000E+00 0.  1.
         21   -1    0    0  501  502 -0.00000000000E+00 -0.00000000000E+00 -0.15868408333E+03  0.15868408333E+03  0.00000000000E+00 0.  1.
         25    1    1    2    0    0  0.35034238006E+02  0.88579520148E+01  0.84883680342E+01  0.13039522054E+03  0.12500000000E+03 0.  0.
         25    1    1    2    0    0  0.95947704155E+02  0.49585815383E+02  0.29802055815E+03  0.34074325834E+03  0.12500000000E+03 0.  0.
         25    1    1    2    0    0 -0.13098194216E+03 -0.58443767398E+02  0.42123791042E+02  0.19486240502E+03  0.12500000000E+03 0.  0.
</event>
<event>
 5    0  0.5619558E-005  0.2179357E+03  0.7546771E-02  0.1135432E+00
         21   -1    0    0  502  501  0.00000000000E+00  0.00000000000E+00  0.42756675683E+02  0.42756675683E+02  0.00000000000E+00 0. -1.
         21   -1    0    0  501  502 -0.00000000000E+00 -0.00000000000E+00 -0.11108430731E+04  0.11108430731E+04  0.00000000000E+00 0. -1.
         25    1    1    2    0    0 -0.73866083986E+02  0.26129096747E+02 -0.23351189589E+03  0.27620958271E+03  0.12500000000E+03 0.  0.
         25    1    1    2    0    0  0.17022275945E+02 -0.27020178286E+02 -0.48344323916E+03  0.50036208230E+03  0.12500000000E+03 0.  0.
         25    1    1    2    0    0  0.56843808041E+02  0.89108153906E+00 -0.35113126234E+03  0.37702808375E+03  0.12500000000E+03 0.  0.
</event>
<event>
 5    0  0.5619558E-005  0.3404801E+03  0.7546771E-02  0.1066592E+00
         21   -1    0    0  502  501  0.00000000000E+00  0.00000000000E+00  0.41629940467E+03  0.41629940467E+03  0.00000000000E+00 0.  1.
         21   -1    0    0  501  502 -0.00000000000E+00 -0.00000000000E+00 -0.27846947483E+03  0.27846947483E+03  0.00000000000E+00 0.  1.
         25    1    1    2    0    0  0.60429789354E+02  0.68272877995E+02 -0.19083520201E+02  0.15589139185E+03  0.12500000000E+03 0.  0.
         25    1    1    2    0    0  0.17185594568E+03  0.60130629522E+02  0.48517155890E+02  0.22611738785E+03  0.12500000000E+03 0.  0.
         25    1    1    2    0    0 -0.23228573503E+03 -0.12840350752E+03  0.10839629415E+03  0.31276009980E+03  0.12500000000E+03 0.  0.
</event>
<event>
 5    0  0.5619558E-005  0.4102916E+03  0.7546771E-02  0.1040273E+00
         21   -1    0    0  502  501  0.00000000000E+00  0.00000000000E+00  0.13380299335E+04  0.13380299335E+04  0.00000000000E+00 0.  1.
         21   -1    0    0  501  502 -0.00000000000E+00 -0.00000000000E+00 -0.12581125073E+03  0.12581125073E+03  0.00000000000E+00 0.  1.
         25    1    1    2    0    0 -0.19877775485E+03  0.18677872452E+03  0.19465714820E+03  0.35765247532E+03  0.12500000000E+03 0.  0.
         25    1    1    2    0    0  0.75673509728E+02 -0.19795672342E+03  0.46138652028E+03  0.52289182965E+03  0.12500000000E+03 0.  0.
         25    1    1    2    0    0  0.12310424512E+03  0.11177998898E+02  0.55617501433E+03  0.58329687929E+03  0.12500000000E+03 0.  0.
</event>
<event>
 5    0  0.5619558E-005  0.3749000E+03  0.7546771E-02  0.1052835E+00
         21   -1    0    0  502  501  0.00000000000E+00  0.00000000000E+00  0.65340128284E+03  0.65340128284E+03  0.00000000000E+00 0.  1.
         21   -1    0    0  501  502 -0.00000000000E+00 -0.00000000000E+00 -0.21510517357E+03  0.21510517357E+03  0.00000000000E+00 0.  1.
         25    1    1    2    0    0 -0.12716308194E+03  0.21864704047E+03  0.36152948045E+03  0.45859082301E+03  0.12500000000E+03 0.  0.
         25    1    1    2    0    0  0.88157531725E+02 -0.40313734601E+02 -0.35050398964E+02  0.16201999279E+03  0.12500000000E+03 0.  0.
         25    1    1    2    0    0  0.39005550212E+02 -0.17833330587E+03  0.11181702778E+03  0.24789564060E+03  0.12500000000E+03 0.  0.
</event>
<event>
 5    0  0.5619558E-005  0.3448713E+03  0.7546771E-02  0.1064740E+00
         21   -1    0    0  502  501  0.00000000000E+00  0.00000000000E+00  0.21711168394E+03  0.21711168394E+03  0.00000000000E+00 0.  1.
         21   -1    0    0  501  502 -0.00000000000E+00 -0.00000000000E+00 -0.54781119813E+03  0.54781119813E+03  0.00000000000E+00 0.  1.
         25    1    1    2    0    0 -0.18558125218E+03  0.51257346329E+02 -0.25031158224E+03  0.33963010013E+03  0.12500000000E+03 0.  0.
         25    1    1    2    0    0 -0.53951529234E+02  0.92586685819E+01  0.17952597246E+01  0.13647239064E+03  0.12500000000E+03 0.  0.
         25    1    1    2    0    0  0.23953278141E+03 -0.60516014911E+02 -0.82183191673E+02  0.28882039129E+03  0.12500000000E+03 0.  0.
</event>
<event>
 5    0  0.5619558E-005  0.2507405E+03  0.7546771E-02  0.1112838E+00
         21   -1    0    0  502  501  0.00000000000E+00  0.00000000000E+00  0.13074470439E+04  0.13074470439E+04  0.00000000000E+00 0.  1.
         21   -1    0    0  501  502 -0.00000000000E+00 -0.00000000000E+00 -0.48086701068E+02  0.48086701068E+02  0.00000000000E+00 0.  1.
         25    1    1    2    0    0  0.45319510630E+02 -0.34490002788E+02  0.35419624500E+03  0.37989919493E+03  0.12500000000E+03 0.  0.
         25    1    1    2    0    0 -0.55828666921E+02  0.12061233244E+03  0.67872886914E+03  0.70282433979E+03  0.12500000000E+03 0.  0.
         25    1    1    2    0    0  0.10509156292E+02 -0.86122329654E+02  0.22643522874E+03  0.27281021030E+03  0.12500000000E+03 0.  0.
</event>
<event>
 5    0  0.5619558E-005  0.2425547E+03  0.7546771E-02  0.1118103E+00
         21   -1    0    0  502  501  0.00000000000E+00  0.00000000000E+00  0.21727599281E+04  0.21727599281E+04  0.00000000000E+00 0. -1.
         21   -1    0    0  501  502 -0.00000000000E+00 -0.00000000000E+00 -0.27077439551E+02  0.27077439551E+02  0.00000000000E+00 0. -1.
         25    1    1    2    0    0  0.70225715761E+02  0.59008464178E+02  0.92425206599E+03  0.93716622404E+03  0.12500000000E+03 0.  0.
         25    1    1    2    0    0 -0.72210691436E+02 -0.42857289954E+02  0.96777564911E+03  0.97942117512E+03  0.12500000000E+03 0.  0.
         25    1    1    2    0    0  0.19849756752E+01 -0.16151174223E+02  0.25365477347E+03  0.28324996851E+03  0.12500000000E+03 0.  0.
</event>
<event>
 5    0  0.5619558E-005  0.2790895E+03  0.7546771E-02  0.1096187E+00
         21   -1    0    0  502  501  0.00000000000E+00  0.00000000000E+00  0.34415820177E+03  0.34415820177E+03  0.00000000000E+00 0. -1.
         21   -1    0    0  501  502 -0.00000000000E+00 -0.00000000000E+00 -0.22632305529E+03  0.22632305529E+03  0.00000000000E+00 0. -1.
         25    1    1    2    0    0  0.26072639379E+02 -0.25809387995E+02 -0.61470431754E+02  0.14404694031E+03  0.12500000000E+03 0.  0.
         25    1    1    2    0    0 -0.27551387401E+02 -0.10619309531E+03  0.17939920357E+03  0.24463263617E+03  0.12500000000E+03 0.  0.
         25    1    1    2    0    0  0.14787480219E+01  0.13200248330E+03 -0.93625345406E-01  0.18180168057E+03  0.12500000000E+03 0.  0.
</event>
<event>
 5    0  0.5619558E-005  0.2809869E+03  0.7546771E-02  0.1095151E+00
         21   -1    0    0  502  501  0.00000000000E+00  0.00000000000E+00  0.11724103572E+03  0.11724103572E+03  0.00000000000E+00 0.  1.
         21   -1    0    0  501  502 -0.00000000000E+00 -0.00000000000E+00 -0.67342988496E+03  0.67342988496E+03  0.00000000000E+00 0.  1.
         25    1    1    2    0    0 -0.83210675433E+02  0.30764099141E+02 -0.45448491691E+03  0.47963734842E+03  0.12500000000E+03 0.  0.
         25    1    1    2    0    0 -0.20451374153E+02  0.35382307159E+00 -0.61830474041E+02  0.14094818699E+03  0.12500000000E+03 0.  0.
         25    1    1    2    0    0  0.10366204959E+03 -0.31117922213E+02 -0.39873458295E+02  0.17008538527E+03  0.12500000000E+03 0.  0.
</event>
<event>
 5    0  0.5619558E-005  0.3678871E+03  0.7546771E-02  0.1055504E+00
         21   -1    0    0  502  501  0.00000000000E+00  0.00000000000E+00  0.53516671388E+03  0.53516671388E+03  0.00000000000E+00 0. -1.
         21   -1    0    0  501  502 -0.00000000000E+00 -0.00000000000E+00 -0.25289490047E+03  0.25289490047E+03  0.00000000000E+00 0. -1.
         25    1    1    2    0    0 -0.74633173574E+01 -0.28056191395E+03  0.24834937409E+03  0.39506088173E+03  0.12500000000E+03 0.  0.
         25    1    1    2    0    0  0.17860472877E+01  0.21178152262E+03  0.44113043775E+02  0.24985108349E+03  0.12500000000E+03 0.  0.
         25    1    1    2    0    0  0.56772700698E+01  0.68780391325E+02 -0.10190604453E+02  0.14314964913E+03  0.12500000000E+03 0.  0.
</event>
<event>
 5    0  0.5619558E-005  0.2453869E+03  0.7546771E-02  0.1116255E+00
         21   -1    0    0  502  501  0.00000000000E+00  0.00000000000E+00  0.17938386783E+04  0.17938386783E+04  0.00000000000E+00 0.  1.
         21   -1    0    0  501  502 -0.00000000000E+00 -0.00000000000E+00 -0.33567520265E+02  0.33567520265E+02  0.00000000000E+00 0.  1.
         25    1    1    2    0    0 -0.17875455471E+02 -0.57586440812E+01  0.55744347388E+03  0.57159506686E+03  0.12500000000E+03 0.  0.
         25    1    1    2    0    0 -0.92679305706E+02 -0.28972337449E+02  0.84201333156E+03  0.85676151908E+03  0.12500000000E+03 0.  0.
         25    1    1    2    0    0  0.11055476118E+03  0.34730981530E+02  0.36081435256E+03  0.39904961260E+03  0.12500000000E+03 0.  0.
</event>
<event>
 5    0  0.5619558E-005  0.3069388E+03  0.7546771E-02  0.1081823E+00
         21   -1    0    0  502  501  0.00000000000E+00  0.00000000000E+00  0.66897548396E+02  0.66897548396E+02  0.00000000000E+00 0. -1.
         21   -1    0    0  501  502 -0.00000000000E+00 -0.00000000000E+00 -0.14082941754E+04  0.14082941754E+04  0.00000000000E+00 0. -1.
         25    1    1    2    0    0 -0.33666022172E+02  0.13475459549E+03 -0.18688221943E+03  0.26427668454E+03  0.12500000000E+03 0.  0.
         25    1    1    2    0    0  0.54192389233E+00 -0.85414147921E+02 -0.96183159979E+03  0.97367391703E+03  0.12500000000E+03 0.  0.
         25    1    1    2    0    0  0.33124098279E+02 -0.49340447573E+02 -0.19268280774E+03  0.23724112218E+03  0.12500000000E+03 0.  0.
</event>
<event>
 5    0  0.5619558E-005  0.3369388E+03  0.7546771E-02  0.1068107E+00
         21   -1    0    0  502  501  0.00000000000E+00  0.00000000000E+00  0.49053890823E+03  0.49053890823E+03  0.00000000000E+00 0. -1.
         21   -1    0    0  501  502 -0.00000000000E+00 -0.00000000000E+00 -0.23143477265E+03  0.23143477265E+03  0.00000000000E+00 0. -1.
         25    1    1    2    0    0  0.12217212864E+03  0.59831497622E+02  0.13223888560E+03  0.22719586262E+03  0.12500000000E+03 0.  0.
         25    1    1    2    0    0 -0.21199142299E+03 -0.31074939367E+02 -0.55727960187E+02  0.25423733169E+03  0.12500000000E+03 0.  0.
         25    1    1    2    0    0  0.89819294347E+02 -0.28756558255E+02  0.18259321016E+03  0.24054048656E+03  0.12500000000E+03 0.  0.
</event>
<event>
 5    0  0.5619558E-005  0.5483200E+03  0.7546771E-02  0.1001884E+00
         21   -1    0    0  502  501  0.00000000000E+00  0.00000000000E+00  0.10969754992E+04  0.10969754992E+04  0.00000000000E+00 0.  1.
         21   -1    0    0  501  502 -0.00000000000E+00 -0.00000000000E+00 -0.27407611324E+03  0.27407611324E+03  0.00000000000E+00 0.  1.
         25    1    1    2    0    0 -0.13497778327E+03 -0.38459942718E+02 -0.10465136999E+03  0.21511642990E+03  0.12500000000E+03 0.  0.
         25    1    1    2    0    0 -0.49714067989E+01 -0.19373895387E+03  0.59770709667E+02  0.23823734985E+03  0.12500000000E+03 0.  0.
         25    1    1    2    0    0  0.13994919007E+03  0.23219889658E+03  0.86778004629E+03  0.91769783269E+03  0.12500000000E+03 0.  0.
</event>
<event>
 5    0  0.5619558E-005  0.2345784E+03  0.7546771E-02  0.1123458E+00
         21   -1    0    0  502  501  0.00000000000E+00  0.00000000000E+00  0.43760441250E+03  0.43760441250E+03  0.00000000000E+00 0. -1.
         21   -1    0    0  501  502 -0.00000000000E+00 -0.00000000000E+00 -0.12574605434E+03  0.12574605434E+03  0.00000000000E+00 0. -1.
         25    1    1    2    0    0  0.19088640409E+02  0.79547670558E+02  0.20191713581E+03  0.25117272507E+03  0.12500000000E+03 0.  0.
         25    1    1    2    0    0  0.96165666866E+01  0.28208695134E+01  0.20253291556E+01  0.12541745340E+03  0.12500000000E+03 0.  0.
         25    1    1    2    0    0 -0.28705207096E+02 -0.82368540072E+02  0.10791589319E+03  0.18676028837E+03  0.12500000000E+03 0.  0.
</event>
<event>
 5    0  0.5619558E-005  0.2658263E+03  0.7546771E-02  0.1103692E+00
         21   -1    0    0  502  501  0.00000000000E+00  0.00000000000E+00  0.20191077415E+03  0.20191077415E+03  0.00000000000E+00 0.  1.
         21   -1    0    0  501  502 -0.00000000000E+00 -0.00000000000E+00 -0.34997453974E+03  0.34997453974E+03  0.00000000000E+00 0.  1.
         25    1    1    2    0    0 -0.23094792730E+02  0.21181279075E+02 -0.15832350839E+03  0.20414051373E+03  0.12500000000E+03 0.  0.
         25    1    1    2    0    0  0.27940531619E+02 -0.10985418768E+03  0.70666442858E+02  0.18294087024E+03  0.12500000000E+03 0.  0.
         25    1    1    2    0    0 -0.48457388898E+01  0.88672908605E+02 -0.60406700053E+02  0.16480392992E+03  0.12500000000E+03 0.  0.
</event>
<event>
 5    0  0.5619558E-005  0.3487606E+03  0.7546771E-02  0.1063125E+00
         21   -1    0    0  502  501  0.00000000000E+00  0.00000000000E+00  0.16528868854E+04  0.16528868854E+04  0.00000000000E+00 0.  1.
         21   -1    0    0  501  502 -0.00000000000E+00 -0.00000000000E+00 -0.73588789256E+02  0.73588789256E+02  0.00000000000E+00 0.  1.
         25    1    1    2    0    0 -0.38379558271E+02 -0.11813288277E+03  0.88915737834E+02  0.19738129830E+03  0.12500000000E+03 0.  0.
         25    1    1    2    0    0 -0.80800616855E+01  0.40435544094E+02  0.11219018916E+04  0.11295969082E+04  0.12500000000E+03 0.  0.
         25    1    1    2    0    0  0.46459619956E+02  0.77697338672E+02  0.36848046673E+03  0.39949746818E+03  0.12500000000E+03 0.  0.
</event>
<event>
 5    0  0.5619558E-005  0.6559666E+03  0.7546771E-02  0.9795647E-01
         21   -1    0    0  502  501  0.00000000000E+00  0.00000000000E+00  0.22739601994E+03  0.22739601994E+03  0.00000000000E+00 0.  1.
         21   -1    0    0  501  502 -0.00000000000E+00 -0.00000000000E+00 -0.18922589637E+04  0.18922589637E+04  0.00000000000E+00 0.  1.
         25    1    1    2    0    0 -0.51610673015E+03  0.18351490174E+03 -0.11838558521E+04  0.13104135052E+04  0.12500000000E+03 0.  0.
         25    1    1    2    0    0  0.22720337523E+03 -0.91342229128E+02 -0.37408461843E+03  0.46425109400E+03  0.12500000000E+03 0.  0.
         25    1    1    2    0    0  0.28890335492E+03 -0.92172672616E+02 -0.10692247321E+03  0.34499038441E+03  0.12500000000E+03 0.  0.
</event>
<event>
 5    0  0.5619558E-005  0.4043442E+03  0.7546771E-02  0.1042286E+00
         21   -1    0    0  502  501  0.00000000000E+00  0.00000000000E+00  0.18477989499E+03  0.18477989499E+03  0.00000000000E+00 0. -1.
         21   -1    0    0  501  502 -0.00000000000E+00 -0.00000000000E+00 -0.88480545180E+03  0.88480545180E+03  0.00000000000E+00 0. -1.
         25    1    1    2    0    0  0.13847712883E+03 -0.10030778771E+03 -0.68323463381E+03  0.71531261160E+03  0.12500000000E+03 0.  0.
         25    1    1    2    0    0 -0.31077386892E+02  0.11632258758E+03 -0.59155556885E+02  0.18336065081E+03  0.12500000000E+03 0.  0.
         25    1    1    2    0    0 -0.10739974193E+03 -0.16014799869E+02  0.42364633883E+02  0.17091208438E+03  0.12500000000E+03 0.  0.
</event>
<event>
 5    0  0.5619558E-005  0.2972199E+03  0.7546771E-02  0.1086639E+00
         21   -1    0    0  502  501  0.00000000000E+00  0.00000000000E+00  0.23959291841E+04  0.23959291841E+04  0.00000000000E+00 0.  1.
         21   -1    0    0  501  502 -0.00000000000E+00 -0.00000000000E+00 -0.36870734695E+02  0.36870734695E+02  0.00000000000E+00 0.  1.
         25    1    1    2    0    0 -0.90722846275E+02 -0.80429942000E+02  0.13930749100E+04  0.14039167765E+04  0.12500000000E+03 0.  0.
         25    1    1    2    0    0  0.21131356632E+02  0.75362443176E+02  0.19376582611E+03  0.24350816710E+03  0.12500000000E+03 0.  0.
         25    1    1    2    0    0  0.69591489642E+02  0.50674988240E+01  0.77221771322E+03  0.78537497515E+03  0.12500000000E+03 0.  0.
</event>
<event>
 5    0  0.5619558E-005  0.4053190E+03  0.7546771E-02  0.1041953E+00
         21   -1    0    0  502  501  0.00000000000E+00  0.00000000000E+00  0.24801419177E+03  0.24801419177E+03  0.00000000000E+00 0.  1.
         21   -1    0    0  501  502 -0.00000000000E+00 -0.00000000000E+00 -0.66239551147E+03  0.66239551147E+03  0.00000000000E+00 0.  1.
         25    1    1    2    0    0 -0.42119554785E+02  0.10117416107E+03 -0.42099962096E+03  0.45263224434E+03  0.12500000000E+03 0.  0.
         25    1    1    2    0    0 -0.14729367106E+03 -0.61277065512E+02 -0.70825798504E+02  0.21468953870E+03  0.12500000000E+03 0.  0.
         25    1    1    2    0    0  0.18941322585E+03 -0.39897095559E+02  0.77444099765E+02  0.24308792020E+03  0.12500000000E+03 0.  0.
</event>
<event>
 5    0  0.5619558E-005  0.2660482E+03  0.7546771E-02  0.1103563E+00
         21   -1    0    0  502  501  0.00000000000E+00  0.00000000000E+00  0.16250412170E+04  0.16250412170E+04  0.00000000000E+00 0. -1.
         21   -1    0    0  501  502 -0.00000000000E+00 -0.00000000000E+00 -0.43556845612E+02  0.43556845612E+02  0.00000000000E+00 0. -1.
         25    1    1    2    0    0 -0.10876950481E+03 -0.48830496834E+02  0.73524526290E+03  0.75526539654E+03  0.12500000000E+03 0.  0.
         25    1    1    2    0    0  0.96197467949E+02  0.95931655530E+02  0.64928704431E+03  0.67502259316E+03  0.12500000000E+03 0.  0.
         25    1    1    2    0    0  0.12572036861E+02 -0.47101158696E+02  0.19695206415E+03  0.23831007287E+03  0.12500000000E+03 0.  0.
</event>
<event>
 5    0  0.5619558E-005  0.2468915E+03  0.7546771E-02  0.1115285E+00
         21   -1    0    0  502  501  0.00000000000E+00  0.00000000000E+00  0.29384400496E+03  0.29384400496E+03  0.00000000000E+00 0. -1.
         21   -1    0    0  501  502 -0.00000000000E+00 -0.00000000000E+00 -0.20744138433E+03  0.20744138433E+03  0.00000000000E+00 0. -1.
         25    1    1    2    0    0  0.10092093697E+03 -0.99622751026E+01  0.26262597892E+02  0.16309201848E+03  0.12500000000E+03 0.  0.
         25    1    1    2    0    0 -0.82624727492E+02  0.82648638945E+02  0.83794250059E+02  0.19053639929E+03  0.12500000000E+03 0.  0.
         25    1    1    2    0    0 -0.18296209476E+02 -0.72686363843E+02 -0.23654227320E+02  0.14765697153E+03  0.12500000000E+03 0.  0.
</event>
<event>
 5    0  0.5619558E-005  0.3476527E+03  0.7546771E-02  0.1063583E+00
         21   -1    0    0  502  501  0.00000000000E+00  0.00000000000E+00  0.34805432589E+03  0.34805432589E+03  0.00000000000E+00 0. -1.
         21   -1    0    0  501  502 -0.00000000000E+00 -0.00000000000E+00 -0.34725154088E+03  0.34725154088E+03  0.00000000000E+00 0. -1.
         25    1    1    2    0    0 -0.20950455711E+02  0.30925494671E+01  0.45640875072E+02  0.13474633551E+03  0.12500000000E+03 0.  0.
         25    1    1    2    0    0  0.15581810275E+03 -0.28517053173E+02 -0.22475233046E+03  0.30204488659E+03  0.12500000000E+03 0.  0.
         25    1    1    2    0    0 -0.13486764704E+03  0.25424503706E+02  0.17991424041E+03  0.25851464467E+03  0.12500000000E+03 0.  0.
</event>
<event>
 5    0  0.5619558E-005  0.5834146E+03  0.7546771E-02  0.9940426E-01
         21   -1    0    0  502  501  0.00000000000E+00  0.00000000000E+00  0.10354849133E+04  0.10354849133E+04  0.00000000000E+00 0. -1.
         21   -1    0    0  501  502 -0.00000000000E+00 -0.00000000000E+00 -0.32870837211E+03  0.32870837211E+03  0.00000000000E+00 0. -1.
         25    1    1    2    0    0  0.44778611739E+03  0.10263247942E+03  0.27056601868E+03  0.54761008320E+03  0.12500000000E+03 0.  0.
         25    1    1    2    0    0 -0.42451148252E+03  0.20235062580E+02  0.45947079714E+03  0.63824593220E+03  0.12500000000E+03 0.  0.
         25    1    1    2    0    0 -0.23274634870E+02 -0.12286754200E+03 -0.23260274611E+02  0.17833727003E+03  0.12500000000E+03 0.  0.
</event>
<event>
 5    0  0.5619558E-005  0.3903581E+03  0.7546771E-02  0.1047170E+00
         21   -1    0    0  502  501  0.00000000000E+00  0.00000000000E+00  0.86143174489E+03  0.86143174489E+03  0.00000000000E+00 0.  1.
         21   -1    0    0  501  502 -0.00000000000E+00 -0.00000000000E+00 -0.17689092987E+03  0.17689092987E+03  0.00000000000E+00 0.  1.
         25    1    1    2    0    0 -0.26648219495E+03  0.12157662737E+02  0.16239568584E+03  0.33638954765E+03  0.12500000000E+03 0.  0.
         25    1    1    2    0    0  0.26818232091E+03  0.29518948273E+02  0.21268908868E+03  0.36558825747E+03  0.12500000000E+03 0.  0.
         25    1    1    2    0    0 -0.17001259594E+01 -0.41676611011E+02  0.30945604050E+03  0.33634486964E+03  0.12500000000E+03 0.  0.
</event>
<event>
 5    0  0.5793989E-005  0.3073500E+03  0.7546771E-02  0.1081623E+00
         21   -1    0    0  502  501  0.00000000000E+00  0.00000000000E+00  0.71810271369E+03  0.71810271369E+03  0.00000000000E+00 0. -1.
         21   -1    0    0  501  502 -0.00000000000E+00 -0.00000000000E+00 -0.13154665754E+03  0.13154665754E+03  0.00000000000E+00 0. -1.
         25    1    1    2    0    0  0.87256361472E+02 -0.94403098449E+02  0.33134865944E+03  0.37675263998E+03  0.12500000000E+03 0.  0.
         25    1    1    2    0    0 -0.16451915938E+03  0.11544002556E+03  0.21338025533E+03  0.31866767434E+03  0.12500000000E+03 0.  0.
         25    1    1    2    0    0  0.77262797906E+02 -0.21036927113E+02  0.41827141382E+02  0.15422905692E+03  0.12500000000E+03 0.  0.
</event>
<event>
 5    0  0.5619558E-005  0.2348135E+03  0.7546771E-02  0.1123297E+00
         21   -1    0    0  502  501  0.00000000000E+00  0.00000000000E+00  0.23354893146E+03  0.23354893146E+03  0.00000000000E+00 0. -1.
         21   -1    0    0  501  502 -0.00000000000E+00 -0.00000000000E+00 -0.23608486698E+03  0.23608486698E+03  0.00000000000E+00 0. -1.
         25    1    1    2    0    0 -0.46178419328E+02  0.12795633162E+02  0.51649392536E+02  0.14348809842E+03  0.12500000000E+03 0.  0.
         25    1    1    2    0    0 -0.62959303244E+02  0.14595847233E+02 -0.70092600196E+02  0.15720968553E+03  0.12500000000E+03 0.  0.
         25    1    1    2    0    0  0.10913772257E+03 -0.27391480395E+02  0.15907272136E+02  0.16893601449E+03  0.12500000000E+03 0.  0.
</event>
<event>
 5    0  0.5619558E-005  0.3432721E+03  0.7546771E-02  0.1065411E+00
         21   -1    0    0  502  501  0.00000000000E+00  0.00000000000E+00  0.11284815775E+04  0.11284815775E+04  0.00000000000E+00 0.  1.
         21   -1    0    0  501  502 -0.00000000000E+00 -0.00000000000E+00 -0.10441972114E+03  0.10441972114E+03  0.00000000000E+00 0.  1.
         25    1    1    2    0    0  0.40725888957E+02  0.11200173689E+02  0.38325946243E+03  0.40533548755E+03  0.12500000000E+03 0.  0.
         25    1    1    2    0    0 -0.12351937289E+01 -0.18152619668E+03  0.55315882894E+03  0.59545190890E+03  0.12500000000E+03 0.  0.
         25    1    1    2    0    0 -0.39490695229E+02  0.17032602299E+03  0.87643565045E+02  0.23211390224E+03  0.12500000000E+03 0.  0.
</event>
<event>
 5    0  0.5619558E-005  0.2454702E+03  0.7546771E-02  0.1116201E+00
         21   -1    0    0  502  501  0.00000000000E+00  0.00000000000E+00  0.15954300980E+03  0.15954300980E+03  0.00000000000E+00 0. -1.
         21   -1    0    0  501  502 -0.00000000000E+00 -0.00000000000E+00 -0.37767636411E+03  0.37767636411E+03  0.00000000000E+00 0. -1.
         25    1    1    2    0    0 -0.41230302892E+02  0.10739599887E+03 -0.81843578141E+02  0.18856619457E+03  0.12500000000E+03 0.  0.
         25    1    1    2    0    0  0.81452261837E+02 -0.59808523334E+02 -0.11150173891E+02  0.16112373134E+03  0.12500000000E+03 0.  0.
         25    1    1    2    0    0 -0.40221958946E+02 -0.47587475537E+02 -0.12513960229E+03  0.18752944801E+03  0.12500000000E+03 0.  0.
</event>
<event>
 5    0  0.5619558E-005  0.2804156E+03  0.7546771E-02  0.1095462E+00
         21   -1    0    0  502  501  0.00000000000E+00  0.00000000000E+00  0.65783171205E+03  0.65783171205E+03  0.00000000000E+00 0. -1.
         21   -1    0    0  501  502 -0.00000000000E+00 -0.00000000000E+00 -0.11953347555E+03  0.11953347555E+03  0.00000000000E+00 0. -1.
         25    1    1    2    0    0 -0.30524722967E+02  0.78041535672E+00  0.21073114649E+02  0.13038958517E+03  0.12500000000E+03 0.  0.
         25    1    1    2    0    0  0.10645831883E+03  0.11587301415E+03  0.28606723288E+03  0.34959889986E+03  0.12500000000E+03 0.  0.
         25    1    1    2    0    0 -0.75933595865E+02 -0.11665342950E+03  0.23115788897E+03  0.29737670257E+03  0.12500000000E+03 0.  0.
</event>
<event>
 5    0  0.5619558E-005  0.2766037E+03  0.7546771E-02  0.1097558E+00
         21   -1    0    0  502  501  0.00000000000E+00  0.00000000000E+00  0.12287443582E+04  0.12287443582E+04  0.00000000000E+00 0.  1.
         21   -1    0    0  501  502 -0.00000000000E+00 -0.00000000000E+00 -0.62266516059E+02  0.62266516059E+02  0.00000000000E+00 0.  1.
         25    1    1    2    0    0  0.81603785152E+02 -0.11297340524E+03  0.19120348635E+03  0.26759286469E+03  0.12500000000E+03 0.  0.
         25    1    1    2    0    0 -0.38317010674E+02 -0.71850061791E+01  0.38248215337E+03  0.40427393593E+03  0.12500000000E+03 0.  0.
         25    1    1    2    0    0 -0.43286774478E+02  0.12015841141E+03  0.59279220247E+03  0.61914407369E+03  0.12500000000E+03 0.  0.
</event>
<event>
 5    0  0.5619558E-005  0.2198131E+03  0.7546771E-02  0.1134022E+00
         21   -1    0    0  502  501  0.00000000000E+00  0.00000000000E+00  0.62669127762E+02  0.62669127762E+02  0.00000000000E+00 0.  1.
         21   -1    0    0  501  502 -0.00000000000E+00 -0.00000000000E+00 -0.77099818100E+03  0.77099818100E+03  0.00000000000E+00 0.  1.
         25    1    1    2    0    0  0.12352029203E+02 -0.38706811250E+02 -0.33175024511E+03  0.35683892024E+03  0.12500000000E+03 0.  0.
         25    1    1    2    0    0 -0.78106440750E+02  0.33309889775E+02 -0.19064535001E+03  0.24327107170E+03  0.12500000000E+03 0.  0.
         25    1    1    2    0    0  0.65754411547E+02  0.53969214750E+01 -0.18593345811E+03  0.23355731683E+03  0.12500000000E+03 0.  0.
</event>
<event>
 5    0  0.5619558E-005  0.2625867E+03  0.7546771E-02  0.1105599E+00
         21   -1    0    0  502  501  0.00000000000E+00  0.00000000000E+00  0.22769146346E+04  0.22769146346E+04  0.00000000000E+00 0. -1.
         21   -1    0    0  501  502 -0.00000000000E+00 -0.00000000000E+00 -0.30282997887E+02  0.30282997887E+02  0.00000000000E+00 0. -1.
         25    1    1    2    0    0 -0.24563028933E+02 -0.13365480604E+03  0.11367700736E+04  0.11516675517E+04  0.12500000000E+03 0.  0.
         25    1    1    2    0    0 -0.47935870656E+02  0.29265909618E+02  0.59846235538E+03  0.61395157136E+03  0.12500000000E+03 0.  0.
         25    1    1    2    0    0  0.72498899589E+02  0.10438889642E+03  0.51139920779E+03  0.54157850942E+03  0.12500000000E+03 0.  0.
</event>
<event>
 5    0  0.5619558E-005  0.2308892E+03  0.7546771E-02  0.1126015E+00
         21   -1    0    0  502  501  0.00000000000E+00  0.00000000000E+00  0.29135652966E+03  0.29135652966E+03  0.00000000000E+00 0.  1.
         21   -1    0    0  501  502 -0.00000000000E+00 -0.00000000000E+00 -0.18297111904E+03  0.18297111904E+03  0.00000000000E+00 0.  1.
         25    1    1    2    0    0  0.70240703328E+02  0.68762054361E+02  0.67237079812E+02  0.17264935976E+03  0.12500000000E+03 0.  0.
         25    1    1    2    0    0 -0.61507938291E+02 -0.63392649139E+02 -0.32166926795E+02  0.15640193610E+03  0.12500000000E+03 0.  0.
         25    1    1    2    0    0 -0.87327650374E+01 -0.53694052226E+01  0.73315257598E+02  0.14527635284E+03  0.12500000000E+03 0.  0.
</event>
<event>
 5    0  0.5619558E-005  0.2631070E+03  0.7546771E-02  0.1105291E+00
         21   -1    0    0  502  501  0.00000000000E+00  0.00000000000E+00  0.39997101178E+03  0.39997101178E+03  0.00000000000E+00 0.  1.
         21   -1    0    0  501  502 -0.00000000000E+00 -0.00000000000E+00 -0.17307577936E+03  0.17307577936E+03  0.00000000000E+00 0.  1.
         25    1    1    2    0    0 -0.40692441898E+02 -0.77069157585E+02 -0.51684562365E+01  0.15247046540E+03  0.12500000000E+03 0.  0.
         25    1    1    2    0    0  0.10142973054E+03 -0.37085017441E+02  0.14904594600E+03  0.22249265780E+03  0.12500000000E+03 0.  0.
         25    1    1    2    0    0 -0.60737288644E+02  0.11415417503E+03  0.83017742650E+02  0.19808366793E+03  0.12500000000E+03 0.  0.
</event>
<event>
 5    0  0.5619558E-005  0.2243691E+03  0.7546771E-02  0.1130667E+00
         21   -1    0    0  502  501  0.00000000000E+00  0.00000000000E+00  0.28532261833E+03  0.28532261833E+03  0.00000000000E+00 0.  1.
         21   -1    0    0  501  502 -0.00000000000E+00 -0.00000000000E+00 -0.17643713682E+03  0.17643713682E+03  0.00000000000E+00 0.  1.
         25    1    1    2    0    0  0.16599540959E+02 -0.77745984777E+02  0.12890913153E+03  0.19637348879E+03  0.12500000000E+03 0.  0.
         25    1    1    2    0    0  0.28986990680E+01  0.51927239117E+02 -0.62086540603E+01  0.13553002621E+03  0.12500000000E+03 0.  0.
         25    1    1    2    0    0 -0.19498240026E+02  0.25818745660E+02 -0.13814995953E+02  0.12985624015E+03  0.12500000000E+03 0.  0.
</event>
<event>
 5    0  0.6136777E-005  0.4301128E+03  0.7546771E-02  0.1033824E+00
         21   -1    0    0  502  501  0.00000000000E+00  0.00000000000E+00  0.62968557094E+03  0.62968557094E+03  0.00000000000E+00 0.  1.
         21   -1    0    0  501  502 -0.00000000000E+00 -0.00000000000E+00 -0.29379270861E+03  0.29379270861E+03  0.00000000000E+00 0.  1.
         25    1    1    2    0    0  0.11559018876E+03 -0.15087368138E+03 -0.12237027828E+03  0.25830881611E+03  0.12500000000E+03 0.  0.
         25    1    1    2    0    0 -0.10147480889E+03 -0.10284483252E+03  0.24486295928E+03  0.31057537771E+03  0.12500000000E+03 0.  0.
         25    1    1    2    0    0 -0.14115379874E+02  0.25371851390E+03  0.21340018134E+03  0.35459408574E+03  0.12500000000E+03 0.  0.
</event>
<event>
 5    0  0.5619558E-005  0.2806370E+03  0.7546771E-02  0.1095342E+00
         21   -1    0    0  502  501  0.00000000000E+00  0.00000000000E+00  0.27388262518E+03  0.27388262518E+03  0.00000000000E+00 0.  1.
         21   -1    0    0  501  502 -0.00000000000E+00 -0.00000000000E+00 -0.28755803997E+03  0.28755803997E+03  0.00000000000E+00 0.  1.
         25    1    1    2    0    0 -0.16900456837E+02 -0.50545183745E+02 -0.32853589069E+02  0.13980271584E+03  0.12500000000E+03 0.  0.
         25    1    1    2    0    0 -0.10249543942E+03  0.14150250889E+03  0.57918957610E+02  0.22250366463E+03  0.12500000000E+03 0.  0.
         25    1    1    2    0    0  0.11939589626E+03 -0.90957325145E+02 -0.38740783323E+02  0.19913428468E+03  0.12500000000E+03 0.  0.
</event>
<event>
 5    0  0.5619558E-005  0.3288728E+03  0.7546771E-02  0.1071637E+00
         21   -1    0    0  502  501  0.00000000000E+00  0.00000000000E+00  0.98872362055E+03  0.98872362055E+03  0.00000000000E+00 0. -1.
         21   -1    0    0  501  502 -0.00000000000E+00 -0.00000000000E+00 -0.10939084223E+03  0.10939084223E+03  0.00000000000E+00 0. -1.
         25    1    1    2    0    0 -0.63752268149E+02  0.64156345440E+02  0.77161514168E+02  0.17250880448E+03  0.12500000000E+03 0.  0.
         25    1    1    2    0    0  0.15894850241E+03 -0.78006281903E+02  0.17401659078E+03  0.27795031984E+03  0.12500000000E+03 0.  0.
         25    1    1    2    0    0 -0.95196234264E+02  0.13849936463E+02  0.62815467337E+03  0.64765533846E+03  0.12500000000E+03 0.  0.
</event>
<event>
 5    0  0.5619558E-005  0.3818207E+03  0.7546771E-02  0.1050263E+00
         21   -1    0    0  502  501  0.00000000000E+00  0.00000000000E+00  0.65950349538E+03  0.65950349538E+03  0.00000000000E+00 0.  1.
         21   -1    0    0  501  502 -0.00000000000E+00 -0.00000000000E+00 -0.22105570553E+03  0.22105570553E+03  0.00000000000E+00 0.  1.
         25    1    1    2    0    0 -0.10294570600E+03 -0.14401074041E+03 -0.28025404487E+02  0.21851163592E+03  0.12500000000E+03 0.  0.
         25    1    1    2    0    0 -0.20191236065E+02 -0.49428713335E+02  0.10187852951E+02  0.13630728544E+03  0.12500000000E+03 0.  0.
         25    1    1    2    0    0  0.12313694207E+03  0.19343945374E+03  0.45628534139E+03  0.52574027954E+03  0.12500000000E+03 0.  0.
</event>
<event>
 5    0  0.5619558E-005  0.2392061E+03  0.7546771E-02  0.1120323E+00
         21   -1    0    0  502  501  0.00000000000E+00  0.00000000000E+00  0.72716798105E+03  0.72716798105E+03  0.00000000000E+00 0.  1.
         21   -1    0    0  501  502 -0.00000000000E+00 -0.00000000000E+00 -0.78688193841E+02  0.78688193841E+02  0.00000000000E+00 0.  1.
         25    1    1    2    0    0 -0.66398383697E+02  0.23738107916E+02  0.20905514771E+03  0.25357700588E+03  0.12500000000E+03 0.  0.
         25    1    1    2    0    0  0.13887258051E+03  0.26837417045E+01  0.22704631125E+03  0.29405411669E+03  0.12500000000E+03 0.  0.
         25    1    1    2    0    0 -0.72474196812E+02 -0.26421849621E+02  0.21237832824E+03  0.25822505232E+03  0.12500000000E+03 0.  0.
</event>
<event>
 5    0  0.5619558E-005  0.2201311E+03  0.7546771E-02  0.1133785E+00
         21   -1    0    0  502  501  0.00000000000E+00  0.00000000000E+00  0.10362840772E+04  0.10362840772E+04  0.00000000000E+00 0.  1.
         21   -1    0    0  501  502 -0.00000000000E+00 -0.00000000000E+00 -0.46761004129E+02  0.46761004129E+02  0.00000000000E+00 0.  1.
         25    1    1    2    0    0 -0.38650862434E+02 -0.35662190603E+02  0.14364445804E+03  0.19754597270E+03  0.12500000000E+03 0.  0.
         25    1    1    2    0    0  0.25294735036E+02  0.64455812263E+01  0.33337781891E+03  0.35699739394E+03  0.12500000000E+03 0.  0.
         25    1    1    2    0    0  0.13356127397E+02  0.29216609377E+02  0.51250079612E+03  0.52850171468E+03  0.12500000000E+03 0.  0.
</event>
<event>
 5    0  0.6366262E-005  0.2863994E+03  0.7546771E-02  0.1092244E+00
         21   -1    0    0  502  501  0.00000000000E+00  0.00000000000E+00  0.62841888719E+03  0.62841888719E+03  0.00000000000E+00 0.  1.
         21   -1    0    0  501  502 -0.00000000000E+00 -0.00000000000E+00 -0.13052541850E+03  0.13052541850E+03  0.00000000000E+00 0.  1.
         25    1    1    2    0    0  0.13804617618E+03  0.27805961280E+02  0.18790339088E+03  0.26601241051E+03  0.12500000000E+03 0.  0.
         25    1    1    2    0    0  0.52275628371E+02  0.34808703845E+01  0.19076043427E+03  0.23400726711E+03  0.12500000000E+03 0.  0.
         25    1    1    2    0    0 -0.19032180455E+03 -0.31286831665E+02  0.11922964355E+03  0.25892462808E+03  0.12500000000E+03 0.  0.
</event>
<event>
 5    0  0.5619558E-005  0.3340605E+03  0.7546771E-02  0.1069354E+00
         21   -1    0    0  502  501  0.00000000000E+00  0.00000000000E+00  0.35455287784E+03  0.35455287784E+03  0.00000000000E+00 0. -1.
         21   -1    0    0  501  502 -0.00000000000E+00 -0.00000000000E+00 -0.31475247169E+03  0.31475247169E+03  0.00000000000E+00 0. -1.
         25    1    1    2    0    0  0.86818433645E+02  0.56461322073E+01 -0.59117470267E+02  0.16336827881E+03  0.12500000000E+03 0.  0.
         25    1    1    2    0    0 -0.13309750823E+03  0.18657979430E+03  0.34632217890E+02  0.26334645784E+03  0.12500000000E+03 0.  0.
         25    1    1    2    0    0  0.46279074587E+02 -0.19222592651E+03  0.64285658524E+02  0.24259061288E+03  0.12500000000E+03 0.  0.
</event>
<event>
 5    0  0.5619558E-005  0.2532393E+03  0.7546771E-02  0.1111275E+00
         21   -1    0    0  502  501  0.00000000000E+00  0.00000000000E+00  0.23029762221E+03  0.23029762221E+03  0.00000000000E+00 0.  1.
         21   -1    0    0  501  502 -0.00000000000E+00 -0.00000000000E+00 -0.27846637953E+03  0.27846637953E+03  0.00000000000E+00 0.  1.
         25    1    1    2    0    0  0.12483426146E+03 -0.31878033989E+02  0.37585318211E+02  0.18340517449E+03  0.12500000000E+03 0.  0.
         25    1    1    2    0    0  0.13999800760E+01  0.32731198243E+02 -0.27009338113E+01  0.12925009217E+03  0.12500000000E+03 0.  0.
         25    1    1    2    0    0 -0.12623424154E+03 -0.85316425399E+00 -0.83053141722E+02  0.19610873508E+03  0.12500000000E+03 0.  0.
</event>
<event>
 5    0  0.5619558E-005  0.6732059E+03  0.7546771E-02  0.9764184E-01
         21   -1    0    0  502  501  0.00000000000E+00  0.00000000000E+00  0.45487838150E+03  0.45487838150E+03  0.00000000000E+00 0.  1.
         21   -1    0    0  501  502 -0.00000000000E+00 -0.00000000000E+00 -0.99632384046E+03  0.99632384046E+03  0.00000000000E+00 0.  1.
         25    1    1    2    0    0  0.10949199949E+03 -0.47278528847E+02 -0.15625308170E+02  0.17347307428E+03  0.12500000000E+03 0.  0.
         25    1    1    2    0    0  0.25883670932E+03  0.24727132067E+03  0.20123971227E+03  0.42925746343E+03  0.12500000000E+03 0.  0.
         25    1    1    2    0    0 -0.36832870881E+03 -0.19999279182E+03 -0.72705986306E+03  0.84847168426E+03  0.12500000000E+03 0.  0.
</event>
<event>
 5    0  0.5619558E-005  0.2568746E+03  0.7546771E-02  0.1109036E+00
         21   -1    0    0  502  501  0.00000000000E+00  0.00000000000E+00  0.16281138478E+03  0.16281138478E+03  0.00000000000E+00 0.  1.
         21   -1    0    0  501  502 -0.00000000000E+00 -0.00000000000E+00 -0.40528229860E+03  0.40528229860E+03  0.00000000000E+00 0.  1.
         25    1    1    2    0    0  0.18950881021E+02  0.11198393682E+03 -0.24824272057E+02  0.17070671480E+03  0.12500000000E+03 0.  0.
         25    1    1    2    0    0  0.16716781041E+02 -0.18217154107E+02 -0.41072755797E+00  0.12742246336E+03  0.12500000000E+03 0.  0.
         25    1    1    2    0    0 -0.35667662062E+02 -0.93766782708E+02 -0.21723591420E+03  0.26996450521E+03  0.12500000000E+03 0.  0.
</event>
<event>
 5    0  0.5619558E-005  0.4818264E+03  0.7546771E-02  0.1018634E+00
         21   -1    0    0  502  501  0.00000000000E+00  0.00000000000E+00  0.17610900704E+03  0.17610900704E+03  0.00000000000E+00 0. -1.
         21   -1    0    0  501  502 -0.00000000000E+00 -0.00000000000E+00 -0.13182553641E+04  0.13182553641E+04  0.00000000000E+00 0. -1.
         25    1    1    2    0    0  0.23391141535E+03 -0.28989429868E+02 -0.25258212063E+03  0.36739306599E+03  0.12500000000E+03 0.  0.
         25    1    1    2    0    0 -0.35336834611E+03 -0.11714164188E+03 -0.29618974082E+03  0.49187876033E+03  0.12500000000E+03 0.  0.
         25    1    1    2    0    0  0.11945693076E+03  0.14613107175E+03 -0.59337449561E+03  0.63509254481E+03  0.12500000000E+03 0.  0.
</event>
<event>
 5    0  0.5619558E-005  0.3425716E+03  0.7546771E-02  0.1065706E+00
         21   -1    0    0  502  501  0.00000000000E+00  0.00000000000E+00  0.33103791168E+03  0.33103791168E+03  0.00000000000E+00 0.  1.
         21   -1    0    0  501  502 -0.00000000000E+00 -0.00000000000E+00 -0.35450716425E+03  0.35450716425E+03  0.00000000000E+00 0.  1.
         25    1    1    2    0    0  0.24908690334E+03 -0.28870533048E+02 -0.60124404263E+02  0.28656192539E+03  0.12500000000E+03 0.  0.
         25    1    1    2    0    0 -0.20559853341E+03  0.80260105757E+02  0.41001828192E+02  0.25694083255E+03  0.12500000000E+03 0.  0.
         25    1    1    2    0    0 -0.43488369934E+02 -0.51389572710E+02 -0.43466764936E+01  0.14204231799E+03  0.12500000000E+03 0.  0.
</event>
<event>
 5    0  0.5619558E-005  0.2350441E+03  0.7546771E-02  0.1123139E+00
         21   -1    0    0  502  501  0.00000000000E+00  0.00000000000E+00  0.40323368903E+03  0.40323368903E+03  0.00000000000E+00 0.  1.
         21   -1    0    0  501  502 -0.00000000000E+00 -0.00000000000E+00 -0.13700667817E+03  0.13700667817E+03  0.00000000000E+00 0.  1.
         25    1    1    2    0    0 -0.88280497083E+02  0.52487853361E+02  0.23597525044E+02  0.16349392681E+03  0.12500000000E+03 0.  0.
         25    1    1    2    0    0  0.65563051812E+02 -0.52496537827E+01  0.17611701282E+03  0.22576154419E+03  0.12500000000E+03 0.  0.
         25    1    1    2    0    0  0.22717445271E+02 -0.47238199578E+02  0.66512472995E+02  0.15098489621E+03  0.12500000000E+03 0.  0.
</event>
<event>
 5    0  0.5619558E-005  0.2951007E+03  0.7546771E-02  0.1087716E+00
         21   -1    0    0  502  501  0.00000000000E+00  0.00000000000E+00  0.16695847410E+04  0.16695847410E+04  0.00000000000E+00 0.  1.
         21   -1    0    0  501  502 -0.00000000000E+00 -0.00000000000E+00 -0.52159316544E+02  0.52159316544E+02  0.00000000000E+00 0. -1.
         25    1    1    2    0    0  0.36235661193E+02  0.15963306813E+03  0.33508622085E+03  0.39332367712E+03  0.12500000000E+03 0.  0.
         25    1    1    2    0    0 -0.42357456367E+02  0.13985529092E+02  0.50712257073E+03  0.52420229957E+03  0.12500000000E+03 0.  0.
         25    1    1    2    0    0  0.61217951741E+01 -0.17361859722E+03  0.77521663289E+03  0.80421808086E+03  0.12500000000E+03 0.  0.
</event>
<event>
 5    0  0.5758878E-005  0.3656748E+03  0.7546771E-02  0.1056359E+00
         21   -1    0    0  502  501  0.00000000000E+00  0.00000000000E+00  0.59748649186E+03  0.59748649186E+03  0.00000000000E+00 0. -1.
         21   -1    0    0  501  502 -0.00000000000E+00 -0.00000000000E+00 -0.22380101025E+03  0.22380101025E+03  0.00000000000E+00 0. -1.
         25    1    1    2    0    0  0.98098681218E+02  0.13543868282E+03 -0.70213167016E+02  0.22027681876E+03  0.12500000000E+03 0.  0.
         25    1    1    2    0    0  0.76673172320E+02 -0.11700361236E+03  0.17753963430E+03  0.25829042260E+03  0.12500000000E+03 0.  0.
         25    1    1    2    0    0 -0.17477185354E+03 -0.18435070457E+02  0.26635901433E+03  0.34272026075E+03  0.12500000000E+03 0.  0.
</event>
<event>
 5    0  0.5619558E-005  0.3090573E+03  0.7546771E-02  0.1080799E+00
         21   -1    0    0  502  501  0.00000000000E+00  0.00000000000E+00  0.24843710938E+03  0.24843710938E+03  0.00000000000E+00 0. -1.
         21   -1    0    0  501  502 -0.00000000000E+00 -0.00000000000E+00 -0.38446918413E+03  0.38446918413E+03  0.00000000000E+00 0. -1.
         25    1    1    2    0    0  0.23586736102E+02  0.69929162333E+02 -0.12283209230E+03  0.19015558042E+03  0.12500000000E+03 0.  0.
         25    1    1    2    0    0 -0.11926189931E+03 -0.13971230068E+02 -0.14812956451E+03  0.22800430649E+03  0.12500000000E+03 0.  0.
         25    1    1    2    0    0  0.95675163209E+02 -0.55957932265E+02  0.13492958205E+03  0.21474640661E+03  0.12500000000E+03 0.  0.
</event>
<event>
 5    0  0.5619558E-005  0.5016027E+03  0.7546771E-02  0.1013361E+00
         21   -1    0    0  502  501  0.00000000000E+00  0.00000000000E+00  0.83866857085E+03  0.83866857085E+03  0.00000000000E+00 0. -1.
         21   -1    0    0  501  502 -0.00000000000E+00 -0.00000000000E+00 -0.30000557002E+03  0.30000557002E+03  0.00000000000E+00 0. -1.
         25    1    1    2    0    0 -0.90635869686E+02 -0.26006247135E+02 -0.56910670283E+02  0.16659834980E+03  0.12500000000E+03 0.  0.
         25    1    1    2    0    0  0.23937260599E+03 -0.15987452434E+03  0.62720677908E+03  0.70133619026E+03  0.12500000000E+03 0.  0.
         25    1    1    2    0    0 -0.14873673631E+03  0.18588077148E+03 -0.31633107968E+02  0.27073960082E+03  0.12500000000E+03 0.  0.
</event>
<event>
 5    0  0.5619558E-005  0.2228547E+03  0.7546771E-02  0.1131772E+00
         21   -1    0    0  502  501  0.00000000000E+00  0.00000000000E+00  0.33851911822E+02  0.33851911822E+02  0.00000000000E+00 0.  1.
         21   -1    0    0  501  502 -0.00000000000E+00 -0.00000000000E+00 -0.14671025386E+04  0.14671025386E+04  0.00000000000E+00 0.  1.
         25    1    1    2    0    0  0.25425726643E+02  0.54799496645E+02 -0.71186503458E+03  0.72527669193E+03  0.12500000000E+03 0.  0.
         25    1    1    2    0    0 -0.92590678454E+01  0.18893192844E+02 -0.44997783571E+03  0.46749089372E+03  0.12500000000E+03 0.  0.
         25    1    1    2    0    0 -0.16166658798E+02 -0.73692689489E+02 -0.27140775653E+03  0.30818686482E+03  0.12500000000E+03 0.  0.
</event>
<event>
 5    0  0.5619558E-005  0.2571346E+03  0.7546771E-02  0.1108877E+00
         21   -1    0    0  502  501  0.00000000000E+00  0.00000000000E+00  0.73244818932E+03  0.73244818932E+03  0.00000000000E+00 0. -1.
         21   -1    0    0  501  502 -0.00000000000E+00 -0.00000000000E+00 -0.90270135552E+02  0.90270135552E+02  0.00000000000E+00 0. -1.
         25    1    1    2    0    0 -0.76337426110E+02 -0.87253823646E+02  0.12722047769E+03  0.21272207763E+03  0.12500000000E+03 0.  0.
         25    1    1    2    0    0  0.97495226892E+02  0.89166445695E+02  0.39760483080E+03  0.43723057507E+03  0.12500000000E+03 0.  0.
         25    1    1    2    0    0 -0.21157800782E+02 -0.19126220494E+01  0.11735274528E+03  0.17276567217E+03  0.12500000000E+03 0.  0.
</event>
<event>
 5    0  0.5619558E-005  0.5434684E+03  0.7546771E-02  0.1003017E+00
         21   -1    0    0  502  501  0.00000000000E+00  0.00000000000E+00  0.32422494130E+03  0.32422494130E+03  0.00000000000E+00 0.  1.
         21   -1    0    0  501  502 -0.00000000000E+00 -0.00000000000E+00 -0.91096613117E+03  0.91096613117E+03  0.00000000000E+00 0.  1.
         25    1    1    2    0    0  0.14106924723E+02  0.13440865291E+03  0.11216414414E+03  0.21557014295E+03  0.12500000000E+03 0.  0.
         25    1    1    2    0    0  0.79872249795E+02 -0.32288808326E+03 -0.68814809071E+03  0.77447342455E+03  0.12500000000E+03 0.  0.
         25    1    1    2    0    0 -0.93979174518E+02  0.18847943035E+03 -0.10757243307E+02  0.24514750497E+03  0.12500000000E+03 0.  0.
</event>
<event>
 5    0  0.6103014E-005  0.2476164E+03  0.7546771E-02  0.1114821E+00
         21   -1    0    0  502  501  0.00000000000E+00  0.00000000000E+00  0.29075155647E+03  0.29075155647E+03  0.00000000000E+00 0. -1.
         21   -1    0    0  501  502 -0.00000000000E+00 -0.00000000000E+00 -0.21088064902E+03  0.21088064902E+03  0.00000000000E+00 0. -1.
         25    1    1    2    0    0 -0.44357049244E+02 -0.24577816904E+02  0.87788127574E+02  0.16094524611E+03  0.12500000000E+03 0.  0.
         25    1    1    2    0    0  0.72807353370E+02  0.86605965827E+02 -0.73464909836E+02  0.18391192729E+03  0.12500000000E+03 0.  0.
         25    1    1    2    0    0 -0.28450304126E+02 -0.62028148924E+02  0.65547689707E+02  0.15677503210E+03  0.12500000000E+03 0.  0.
</event>
<event>
 5    0  0.5619558E-005  0.5205516E+03  0.7546771E-02  0.1008550E+00
         21   -1    0    0  502  501  0.00000000000E+00  0.00000000000E+00  0.13078317858E+04  0.13078317858E+04  0.00000000000E+00 0. -1.
         21   -1    0    0  501  502 -0.00000000000E+00 -0.00000000000E+00 -0.20719331918E+03  0.20719331918E+03  0.00000000000E+00 0. -1.
         25    1    1    2    0    0 -0.90272094376E+02  0.95468532456E+01  0.41132703845E+03  0.43938038872E+03  0.12500000000E+03 0.  0.
         25    1    1    2    0    0  0.25810441126E+03 -0.10765997998E+03 -0.41532594402E+02  0.30912540303E+03  0.12500000000E+03 0.  0.
         25    1    1    2    0    0 -0.16783231688E+03  0.98113126735E+02  0.73084402258E+03  0.76651931324E+03  0.12500000000E+03 0.  0.
</event>
<event>
 5    0  0.5619558E-005  0.3296361E+03  0.7546771E-02  0.1071298E+00
         21   -1    0    0  502  501  0.00000000000E+00  0.00000000000E+00  0.50050379510E+02  0.50050379510E+02  0.00000000000E+00 0. -1.
         21   -1    0    0  501  502 -0.00000000000E+00 -0.00000000000E+00 -0.21710114913E+04  0.21710114913E+04  0.00000000000E+00 0. -1.
         25    1    1    2    0    0 -0.91416480259E+01 -0.82597086111E+02 -0.12233513202E+03  0.19364073148E+03  0.12500000000E+03 0.  0.
         25    1    1    2    0    0 -0.48496958605E+02  0.13038282512E+02 -0.14861138623E+04  0.14922068770E+04  0.12500000000E+03 0.  0.
         25    1    1    2    0    0  0.57638606631E+02  0.69558803599E+02 -0.51251211746E+03  0.53521426240E+03  0.12500000000E+03 0.  0.
</event>
<event>
 5    0  0.5619558E-005  0.3025252E+03  0.7546771E-02  0.1083985E+00
         21   -1    0    0  502  501  0.00000000000E+00  0.00000000000E+00  0.30036478151E+03  0.30036478151E+03  0.00000000000E+00 0. -1.
         21   -1    0    0  501  502 -0.00000000000E+00 -0.00000000000E+00 -0.30470122031E+03  0.30470122031E+03  0.00000000000E+00 0. -1.
         25    1    1    2    0    0  0.46159184001E+02  0.12427272876E+02 -0.12861744616E+03  0.18561399418E+03  0.12500000000E+03 0.  0.
         25    1    1    2    0    0  0.37333914852E+02 -0.13561848029E+03 -0.10736556214E+01  0.18818168384E+03  0.12500000000E+03 0.  0.
         25    1    1    2    0    0 -0.83493098853E+02  0.12319120742E+03  0.12535466298E+03  0.23127032380E+03  0.12500000000E+03 0.  0.
</event>
<event>
 5    0  0.5619558E-005  0.3324800E+03  0.7546771E-02  0.1070045E+00
         21   -1    0    0  502  501  0.00000000000E+00  0.00000000000E+00  0.10886090302E+04  0.10886090302E+04  0.00000000000E+00 0.  1.
         21   -1    0    0  501  502 -0.00000000000E+00 -0.00000000000E+00 -0.10154515764E+03  0.10154515764E+03  0.00000000000E+00 0.  1.
         25    1    1    2    0    0 -0.63158439418E+02 -0.55923639247E+02  0.23508433660E+03  0.27929569852E+03  0.12500000000E+03 0.  0.
         25    1    1    2    0    0  0.13361365198E+03  0.50620681725E+02  0.52744511577E+02  0.19703310614E+03  0.12500000000E+03 0.  0.
         25    1    1    2    0    0 -0.70455212562E+02  0.53029575214E+01  0.69923502437E+03  0.71382538316E+03  0.12500000000E+03 0.  0.
</event>
<event>
 5    0  0.5619558E-005  0.4263697E+03  0.7546771E-02  0.1035013E+00
         21   -1    0    0  502  501  0.00000000000E+00  0.00000000000E+00  0.19808275652E+03  0.19808275652E+03  0.00000000000E+00 0.  1.
         21   -1    0    0  501  502 -0.00000000000E+00 -0.00000000000E+00 -0.91775342496E+03  0.91775342496E+03  0.00000000000E+00 0.  1.
         25    1    1    2    0    0  0.27260349526E+02  0.13663600213E+03 -0.38403949777E+03  0.42722811188E+03  0.12500000000E+03 0.  0.
         25    1    1    2    0    0  0.33914828427E+02  0.12320875086E+03 -0.35051491319E+03  0.39346704594E+03  0.12500000000E+03 0.  0.
         25    1    1    2    0    0 -0.61175177953E+02 -0.25984475299E+03  0.14883742520E+02  0.29514102366E+03  0.12500000000E+03 0.  0.
</event>
<event>
 5    0  0.5619558E-005  0.2493163E+03  0.7546771E-02  0.1113738E+00
         21   -1    0    0  502  501  0.00000000000E+00  0.00000000000E+00  0.48846930405E+03  0.48846930405E+03  0.00000000000E+00 0. -1.
         21   -1    0    0  501  502 -0.00000000000E+00 -0.00000000000E+00 -0.12725181267E+03  0.12725181267E+03  0.00000000000E+00 0. -1.
         25    1    1    2    0    0 -0.53232233111E+02 -0.79608342861E+01  0.21540420604E+02  0.13778982272E+03  0.12500000000E+03 0.  0.
         25    1    1    2    0    0 -0.51069932385E+02 -0.73870841604E+02  0.16092219380E+03  0.22267912271E+03  0.12500000000E+03 0.  0.
         25    1    1    2    0    0  0.10430216550E+03  0.81831675890E+02  0.17875487697E+03  0.25525217129E+03  0.12500000000E+03 0.  0.
</event>
<event>
 5    0  0.5619558E-005  0.3483212E+03  0.7546771E-02  0.1063306E+00
         21   -1    0    0  502  501  0.00000000000E+00  0.00000000000E+00  0.40604858013E+03  0.40604858013E+03  0.00000000000E+00 0.  1.
         21   -1    0    0  501  502 -0.00000000000E+00 -0.00000000000E+00 -0.29880083478E+03  0.29880083478E+03  0.00000000000E+00 0.  1.
         25    1    1    2    0    0 -0.88580061321E+02  0.10057691802E+03 -0.22393430807E+02  0.18463100889E+03  0.12500000000E+03 0.  0.
         25    1    1    2    0    0  0.18612552898E+03  0.10187326650E+03  0.73676106220E+02  0.25704871832E+03  0.12500000000E+03 0.  0.
         25    1    1    2    0    0 -0.97545467655E+02 -0.20245018451E+03  0.55965069939E+02  0.26316968770E+03  0.12500000000E+03 0.  0.
</event>
<event>
 5    0  0.5619558E-005  0.2918242E+03  0.7546771E-02  0.1089401E+00
         21   -1    0    0  502  501  0.00000000000E+00  0.00000000000E+00  0.28351409388E+03  0.28351409388E+03  0.00000000000E+00 0. -1.
         21   -1    0    0  501  502 -0.00000000000E+00 -0.00000000000E+00 -0.30037794524E+03  0.30037794524E+03  0.00000000000E+00 0. -1.
         25    1    1    2    0    0  0.13069113536E+03  0.77446021429E+01  0.14619342250E+03  0.23267502768E+03  0.12500000000E+03 0.  0.
         25    1    1    2    0    0  0.23812182616E+01 -0.20745226957E+02 -0.51039605098E+02  0.13662384832E+03  0.12500000000E+03 0.  0.
         25    1    1    2    0    0 -0.13307235362E+03  0.13000624814E+02 -0.11201766876E+03  0.21459316312E+03  0.12500000000E+03 0.  0.
</event>
<event>
 5    0  0.5619558E-005  0.4288580E+03  0.7546771E-02  0.1034221E+00
         21   -1    0    0  502  501  0.00000000000E+00  0.00000000000E+00  0.17443568010E+03  0.17443568010E+03  0.00000000000E+00 0. -1.
         21   -1    0    0  501  502 -0.00000000000E+00 -0.00000000000E+00 -0.10543669584E+04  0.10543669584E+04  0.00000000000E+00 0. -1.
         25    1    1    2    0    0  0.21011657462E+03 -0.36969837362E+02 -0.33835401353E+02  0.24957078793E+03  0.12500000000E+03 0.  0.
         25    1    1    2    0    0 -0.16005697519E+03 -0.14974534627E+03 -0.34149359073E+03  0.42459954845E+03  0.12500000000E+03 0.  0.
         25    1    1    2    0    0 -0.50059599430E+02  0.18671518363E+03 -0.50460228625E+03  0.55463230215E+03  0.12500000000E+03 0.  0.
</event>
<event>
 5    0  0.5619558E-005  0.2597857E+03  0.7546771E-02  0.1107272E+00
         21   -1    0    0  502  501  0.00000000000E+00  0.00000000000E+00  0.12531005881E+04  0.12531005881E+04  0.00000000000E+00 0.  1.
         21   -1    0    0  501  502 -0.00000000000E+00 -0.00000000000E+00 -0.53857305513E+02  0.53857305513E+02  0.00000000000E+00 0.  1.
         25    1    1    2    0    0 -0.12713045259E+03 -0.60103461200E+02  0.60577712645E+03  0.63432287122E+03  0.12500000000E+03 0.  0.
         25    1    1    2    0    0  0.81948919479E+02  0.97420860644E+02  0.34419302513E+03  0.38768581099E+03  0.12500000000E+03 0.  0.
         25    1    1    2    0    0  0.45181533107E+02 -0.37317399445E+02  0.24927313096E+03  0.28494921136E+03  0.12500000000E+03 0.  0.
</event>
<event>
 5    0  0.5619558E-005  0.3698498E+03  0.7546771E-02  0.1054750E+00
         21   -1    0    0  502  501  0.00000000000E+00  0.00000000000E+00  0.17323746822E+03  0.17323746822E+03  0.00000000000E+00 0. -1.
         21   -1    0    0  501  502 -0.00000000000E+00 -0.00000000000E+00 -0.78960341983E+03  0.78960341983E+03  0.00000000000E+00 0. -1.
         25    1    1    2    0    0 -0.36514996324E+02  0.19140519495E+03 -0.11396458070E+03  0.25803530623E+03  0.12500000000E+03 0.  0.
         25    1    1    2    0    0 -0.42691718689E+02 -0.14023366088E+03 -0.15412086703E+02  0.19326302002E+03  0.12500000000E+03 0.  0.
         25    1    1    2    0    0  0.79206715013E+02 -0.51171534064E+02 -0.48698928421E+03  0.51154256180E+03  0.12500000000E+03 0.  0.
</event>
<event>
 5    0  0.5619558E-005  0.3189882E+03  0.7546771E-02  0.1076116E+00
         21   -1    0    0  502  501  0.00000000000E+00  0.00000000000E+00  0.99151162782E+03  0.99151162782E+03  0.00000000000E+00 0. -1.
         21   -1    0    0  501  502 -0.00000000000E+00 -0.00000000000E+00 -0.10262461529E+03  0.10262461529E+03  0.00000000000E+00 0. -1.
         25    1    1    2    0    0 -0.10490543031E+03 -0.16012323848E+03  0.12430301322E+03  0.26023228067E+03  0.12500000000E+03 0.  0.
         25    1    1    2    0    0  0.29992594821E+02  0.12973639298E+03  0.45861150229E+03  0.49364014975E+03  0.12500000000E+03 0.  0.
         25    1    1    2    0    0  0.74912835485E+02  0.30386845496E+02  0.30597249701E+03  0.34026381269E+03  0.12500000000E+03 0.  0.
</event>
<event>
 5    0  0.5619558E-005  0.6166988E+03  0.7546771E-02  0.9871355E-01
         21   -1    0    0  502  501  0.00000000000E+00  0.00000000000E+00  0.75374960972E+03  0.75374960972E+03  0.00000000000E+00 0.  1.
         21   -1    0    0  501  502 -0.00000000000E+00 -0.00000000000E+00 -0.50456723486E+03  0.50456723486E+03  0.00000000000E+00 0.  1.
         25    1    1    2    0    0 -0.13110145922E+03  0.20805795732E+03 -0.24467282936E+03  0.36873499921E+03  0.12500000000E+03 0.  0.
         25    1    1    2    0    0 -0.17125552838E+03 -0.13444380306E+03 -0.44841864403E+02  0.25502820429E+03  0.12500000000E+03 0.  0.
         25    1    1    2    0    0  0.30235698760E+03 -0.73614154264E+02  0.53869706862E+03  0.63455364107E+03  0.12500000000E+03 0.  0.
</event>
<event>
 5    0  0.5619558E-005  0.2656890E+03  0.7546771E-02  0.1103773E+00
         21   -1    0    0  502  501  0.00000000000E+00  0.00000000000E+00  0.29281479901E+03  0.29281479901E+03  0.00000000000E+00 0. -1.
         21   -1    0    0  501  502 -0.00000000000E+00 -0.00000000000E+00 -0.24107616069E+03  0.24107616069E+03  0.00000000000E+00 0. -1.
         25    1    1    2    0    0 -0.24669517787E+02 -0.68938592893E+01 -0.37678307467E+02  0.13304422294E+03  0.12500000000E+03 0.  0.
         25    1    1    2    0    0  0.59410449133E+01  0.20121403494E+02 -0.10769139574E+03  0.16632078526E+03  0.12500000000E+03 0.  0.
         25    1    1    2    0    0  0.18728472874E+02 -0.13227544205E+02  0.19710834153E+03  0.23452595149E+03  0.12500000000E+03 0.  0.
</event>
<event>
 5    0  0.5619558E-005  0.4493557E+03  0.7546771E-02  0.1027914E+00
         21   -1    0    0  502  501  0.00000000000E+00  0.00000000000E+00  0.65817443719E+03  0.65817443719E+03  0.00000000000E+00 0.  1.
         21   -1    0    0  501  502 -0.00000000000E+00 -0.00000000000E+00 -0.30678873810E+03  0.30678873810E+03  0.00000000000E+00 0.  1.
         25    1    1    2    0    0 -0.20122111679E+03  0.23076329377E+03 -0.67543184845E+02  0.33753328341E+03  0.12500000000E+03 0.  0.
         25    1    1    2    0    0  0.87440195239E+02 -0.15302544748E+03  0.38032465510E+03  0.43741789927E+03  0.12500000000E+03 0.  0.
         25    1    1    2    0    0  0.11378092155E+03 -0.77737846284E+02  0.38604228824E+02  0.19001199261E+03  0.12500000000E+03 0.  0.
</event>
<event>
 5    0  0.5619558E-005  0.3913239E+03  0.7546771E-02  0.1046826E+00
         21   -1    0    0  502  501  0.00000000000E+00  0.00000000000E+00  0.26892859054E+03  0.26892859054E+03  0.00000000000E+00 0.  1.
         21   -1    0    0  501  502 -0.00000000000E+00 -0.00000000000E+00 -0.56942414503E+03  0.56942414503E+03  0.00000000000E+00 0.  1.
         25    1    1    2    0    0 -0.19273969797E+03  0.18842639484E+03  0.44331077529E+01  0.29714937303E+03  0.12500000000E+03 0.  0.
         25    1    1    2    0    0  0.50411277704E+02 -0.89149552452E+02  0.84322116737E+01  0.16181792798E+03  0.12500000000E+03 0.  0.
         25    1    1    2    0    0  0.14232842027E+03 -0.99276842390E+02 -0.31336087392E+03  0.37938543456E+03  0.12500000000E+03 0.  0.
</event>
<event>
 5    0  0.7582447E-005  0.6083898E+03  0.7546771E-02  0.9888151E-01
         21   -1    0    0  502  501  0.00000000000E+00  0.00000000000E+00  0.49580644283E+03  0.49580644283E+03  0.00000000000E+00 0. -1.
         21   -1    0    0  501  502 -0.00000000000E+00 -0.00000000000E+00 -0.74653754548E+03  0.74653754548E+03  0.00000000000E+00 0. -1.
         25    1    1    2    0    0 -0.39852913578E+03 -0.83555702506E+02 -0.20280195958E+03  0.47176335413E+03  0.12500000000E+03 0.  0.
         25    1    1    2    0    0  0.27688448177E+03  0.83543809315E+02 -0.31892155159E+03  0.44830853258E+03  0.12500000000E+03 0.  0.
         25    1    1    2    0    0  0.12164465401E+03  0.11893190798E-01  0.27099240852E+03  0.32227210159E+03  0.12500000000E+03 0.  0.
</event>
<event>
 5    0  0.5619558E-005  0.3372496E+03  0.7546771E-02  0.1067973E+00
         21   -1    0    0  502  501  0.00000000000E+00  0.00000000000E+00  0.59848176664E+03  0.59848176664E+03  0.00000000000E+00 0. -1.
         21   -1    0    0  501  502 -0.00000000000E+00 -0.00000000000E+00 -0.19004299765E+03  0.19004299765E+03  0.00000000000E+00 0. -1.
         25    1    1    2    0    0 -0.14786396721E+02  0.25380472397E+03  0.11826842098E+03  0.30699820006E+03  0.12500000000E+03 0.  0.
         25    1    1    2    0    0 -0.99211034637E+01 -0.16085341569E+03  0.24227979108E+03  0.31669661634E+03  0.12500000000E+03 0.  0.
         25    1    1    2    0    0  0.24707500185E+02 -0.92951308285E+02  0.47890556926E+02  0.16482994789E+03  0.12500000000E+03 0.  0.
</event>
<event>
 5    0  0.5694427E-005  0.3273152E+03  0.7546771E-02  0.1072331E+00
         21   -1    0    0  502  501  0.00000000000E+00  0.00000000000E+00  0.12265568561E+03  0.12265568561E+03  0.00000000000E+00 0. -1.
         21   -1    0    0  501  502 -0.00000000000E+00 -0.00000000000E+00 -0.87346309033E+03  0.87346309033E+03  0.00000000000E+00 0. -1.
         25    1    1    2    0    0 -0.19208732625E+02 -0.26331315646E+02 -0.42301743863E+03  0.44230200879E+03  0.12500000000E+03 0.  0.
         25    1    1    2    0    0 -0.13647278443E+03 -0.99541577340E+02 -0.14545568506E+03  0.25556936989E+03  0.12500000000E+03 0.  0.
         25    1    1    2    0    0  0.15568151705E+03  0.12587289299E+03 -0.18233428102E+03  0.29824739726E+03  0.12500000000E+03 0.  0.
</event>
<event>
 5    0  0.5619558E-005  0.2847325E+03  0.7546771E-02  0.1093132E+00
         21   -1    0    0  502  501  0.00000000000E+00  0.00000000000E+00  0.11277179245E+03  0.11277179245E+03  0.00000000000E+00 0.  1.
         21   -1    0    0  501  502 -0.00000000000E+00 -0.00000000000E+00 -0.71890831770E+03  0.71890831770E+03  0.00000000000E+00 0.  1.
         25    1    1    2    0    0 -0.40828167881E+02  0.41803041029E+02 -0.76191869355E+02  0.15762180841E+03  0.12500000000E+03 0.  0.
         25    1    1    2    0    0 -0.35536440663E+02 -0.10009522623E+03 -0.54016829565E+02  0.17269832311E+03  0.12500000000E+03 0.  0.
         25    1    1    2    0    0  0.76364608545E+02  0.58292185197E+02 -0.47592782633E+03  0.50135997863E+03  0.12500000000E+03 0.  0.
</event>
<event>
 5    0  0.5619558E-005  0.2554281E+03  0.7546771E-02  0.1109922E+00
         21   -1    0    0  502  501  0.00000000000E+00  0.00000000000E+00  0.12638983727E+03  0.12638983727E+03  0.00000000000E+00 0.  1.
         21   -1    0    0  501  502 -0.00000000000E+00 -0.00000000000E+00 -0.51620849241E+03  0.51620849241E+03  0.00000000000E+00 0.  1.
         25    1    1    2    0    0  0.51486685109E+02  0.15443731913E+02 -0.33729671808E+03  0.36370793726E+03  0.12500000000E+03 0.  0.
         25    1    1    2    0    0 -0.49077036005E+02  0.30048494174E+02 -0.48100690702E+02  0.14577429098E+03  0.12500000000E+03 0.  0.
         25    1    1    2    0    0 -0.24096491041E+01 -0.45492226087E+02 -0.44212463524E+01  0.13311610144E+03  0.12500000000E+03 0.  0.
</event>
<event>
 5    0  0.5619558E-005  0.2972473E+03  0.7546771E-02  0.1086625E+00
         21   -1    0    0  502  501  0.00000000000E+00  0.00000000000E+00  0.20458301314E+03  0.20458301314E+03  0.00000000000E+00 0.  1.
         21   -1    0    0  501  502 -0.00000000000E+00 -0.00000000000E+00 -0.43188320073E+03  0.43188320073E+03  0.00000000000E+00 0.  1.
         25    1    1    2    0    0  0.22799441661E+02 -0.43828363499E+02  0.10539888942E+03  0.17080593045E+03  0.12500000000E+03 0.  0.
         25    1    1    2    0    0 -0.98927587674E+02 -0.13237278881E+02 -0.11415070348E+03  0.19651278905E+03  0.12500000000E+03 0.  0.
         25    1    1    2    0    0  0.76128146013E+02  0.57065642380E+02 -0.21854837353E+03  0.26914749437E+03  0.12500000000E+03 0.  0.
</event>
<event>
 5    0  0.5619558E-005  0.2782173E+03  0.7546771E-02  0.1096667E+00
         21   -1    0    0  502  501  0.00000000000E+00  0.00000000000E+00  0.72072496775E+02  0.72072496775E+02  0.00000000000E+00 0.  1.
         21   -1    0    0  501  502 -0.00000000000E+00 -0.00000000000E+00 -0.10739858999E+04  0.10739858999E+04  0.00000000000E+00 0.  1.
         25    1    1    2    0    0  0.41291841264E+02 -0.74436448979E+02 -0.51873958586E+03  0.54033467317E+03  0.12500000000E+03 0.  0.
         25    1    1    2    0    0  0.96919181248E+02 -0.14021007063E+02 -0.19961892476E+03  0.25507377650E+03  0.12500000000E+03 0.  0.
         25    1    1    2    0    0 -0.13821102251E+03  0.88457456042E+02 -0.28355489249E+03  0.35064994699E+03  0.12500000000E+03 0.  0.
</event>
<event>
 5    0  0.5635838E-005  0.3474087E+03  0.7546771E-02  0.1063684E+00
         21   -1    0    0  502  501  0.00000000000E+00  0.00000000000E+00  0.34402857721E+03  0.34402857721E+03  0.00000000000E+00 0. -1.
         21   -1    0    0  501  502 -0.00000000000E+00 -0.00000000000E+00 -0.35082211718E+03  0.35082211718E+03  0.00000000000E+00 0. -1.
         25    1    1    2    0    0  0.48673692198E+02  0.99548681193E+02 -0.11240198713E+03  0.20134119040E+03  0.12500000000E+03 0.  0.
         25    1    1    2    0    0  0.13409693127E+03 -0.39328161382E+02  0.17220094906E+03  0.25457191147E+03  0.12500000000E+03 0.  0.
         25    1    1    2    0    0 -0.18277062347E+03 -0.60220519811E+02 -0.66592501907E+02  0.23893759252E+03  0.12500000000E+03 0.  0.
</event>
<event>
 5    0  0.6160418E-005  0.3693906E+03  0.7546771E-02  0.1054926E+00
         21   -1    0    0  502  501  0.00000000000E+00  0.00000000000E+00  0.57370747826E+03  0.57370747826E+03  0.00000000000E+00 0. -1.
         21   -1    0    0  501  502 -0.00000000000E+00 -0.00000000000E+00 -0.23783795286E+03  0.23783795286E+03  0.00000000000E+00 0. -1.
         25    1    1    2    0    0 -0.42790380831E+02 -0.20756313599E+03  0.21131452051E+02  0.24695143324E+03  0.12500000000E+03 0.  0.
         25    1    1    2    0    0  0.31372237766E+02 -0.38027758080E+02  0.24606806753E+03  0.28036551419E+03  0.12500000000E+03 0.  0.
         25    1    1    2    0    0  0.11418143066E+02  0.24559089407E+03  0.68670005817E+02  0.28422848369E+03  0.12500000000E+03 0.  0.
</event>
<event>
 5    0  0.5619558E-005  0.3371662E+03  0.7546771E-02  0.1068009E+00
         21   -1    0    0  502  501  0.00000000000E+00  0.00000000000E+00  0.71281937098E+02  0.71281937098E+02  0.00000000000E+00 0. -1.
         21   -1    0    0  501  502 -0.00000000000E+00 -0.00000000000E+00 -0.15948085869E+04  0.15948085869E+04  0.00000000000E+00 0. -1.
         25    1    1    2    0    0 -0.30470262806E+02  0.10459152829E+03 -0.10554852144E+03  0.19655359341E+03  0.12500000000E+03 0.  0.
         25    1    1    2    0    0  0.12802966184E+03 -0.17649251969E+02 -0.96843966305E+03  0.98498907170E+03  0.12500000000E+03 0.  0.
         25    1    1    2    0    0 -0.97559399035E+02 -0.86942276321E+02 -0.44953846534E+03  0.48454785891E+03  0.12500000000E+03 0.  0.
</event>
<event>
 5    0  0.5619558E-005  0.4435552E+03  0.7546771E-02  0.1029662E+00
         21   -1    0    0  502  501  0.00000000000E+00  0.00000000000E+00  0.28828082283E+03  0.28828082283E+03  0.00000000000E+00 0. -1.
         21   -1    0    0  501  502 -0.00000000000E+00 -0.00000000000E+00 -0.68246380447E+03  0.68246380447E+03  0.00000000000E+00 0. -1.
         25    1    1    2    0    0 -0.14379645962E+03  0.20175870239E+03  0.32676834346E+02  0.27942220973E+03  0.12500000000E+03 0.  0.
         25    1    1    2    0    0  0.15246263432E+03 -0.26076980388E+03 -0.44442721888E+03  0.55171215173E+03  0.12500000000E+03 0.  0.
         25    1    1    2    0    0 -0.86661747018E+01  0.59011101491E+02  0.17567402896E+02  0.13961026584E+03  0.12500000000E+03 0.  0.
</event>
<event>
 5    0  0.5619558E-005  0.3063257E+03  0.7546771E-02  0.1082121E+00
         21   -1    0    0  502  501  0.00000000000E+00  0.00000000000E+00  0.10314175425E+03  0.10314175425E+03  0.00000000000E+00 0. -1.
         21   -1    0    0  501  502 -0.00000000000E+00 -0.00000000000E+00 -0.90977140258E+03  0.90977140258E+03  0.00000000000E+00 0. -1.
         25    1    1    2    0    0  0.41569091168E+01 -0.28138876748E+02 -0.74053211862E+02  0.14804713596E+03  0.12500000000E+03 0.  0.
         25    1    1    2    0    0  0.17991205958E+02  0.20232858587E+03 -0.45189127843E+03  0.51097090688E+03  0.12500000000E+03 0.  0.
         25    1    1    2    0    0 -0.22148115075E+02 -0.17418970912E+03 -0.28068515804E+03  0.35389511399E+03  0.12500000000E+03 0.  0.
</event>
<event>
 5    0  0.5619558E-005  0.2862573E+03  0.7546771E-02  0.1092320E+00
         21   -1    0    0  502  501  0.00000000000E+00  0.00000000000E+00  0.71509785943E+03  0.71509785943E+03  0.00000000000E+00 0.  1.
         21   -1    0    0  501  502 -0.00000000000E+00 -0.00000000000E+00 -0.11459022100E+03  0.11459022100E+03  0.00000000000E+00 0.  1.
         25    1    1    2    0    0 -0.68310448637E+02  0.90109538962E+02  0.26928092092E+03  0.31768421550E+03  0.12500000000E+03 0.  0.
         25    1    1    2    0    0 -0.32014955165E+02 -0.15085152864E+03  0.25820347642E+03  0.32569184252E+03  0.12500000000E+03 0.  0.
         25    1    1    2    0    0  0.10032540380E+03  0.60741989678E+02  0.73023241085E+02  0.18631202242E+03  0.12500000000E+03 0.  0.
</event>
<event>
 5    0  0.5619558E-005  0.3550077E+03  0.7546771E-02  0.1060578E+00
         21   -1    0    0  502  501  0.00000000000E+00  0.00000000000E+00  0.83553728932E+03  0.83553728932E+03  0.00000000000E+00 0.  1.
         21   -1    0    0  501  502 -0.00000000000E+00 -0.00000000000E+00 -0.15083762233E+03  0.15083762233E+03  0.00000000000E+00 0.  1.
         25    1    1    2    0    0 -0.19086166905E+03  0.59752501666E+02  0.21019933072E+03  0.31592292857E+03  0.12500000000E+03 0.  0.
         25    1    1    2    0    0  0.27898930261E+03 -0.48585091344E+02  0.24662925523E+03  0.39578596692E+03  0.12500000000E+03 0.  0.
         25    1    1    2    0    0 -0.88127633569E+02 -0.11167410323E+02  0.22787108105E+03  0.27466601616E+03  0.12500000000E+03 0.  0.
</event>
<event>
 5    0  0.5619558E-005  0.4551134E+03  0.7546771E-02  0.1026208E+00
         21   -1    0    0  502  501  0.00000000000E+00  0.00000000000E+00  0.90379950233E+03  0.90379950233E+03  0.00000000000E+00 0.  1.
         21   -1    0    0  501  502 -0.00000000000E+00 -0.00000000000E+00 -0.22917496461E+03  0.22917496461E+03  0.00000000000E+00 0.  1.
         25    1    1    2    0    0  0.14027366341E+02  0.20202039998E+03 -0.86626820468E+02  0.25325523694E+03  0.12500000000E+03 0.  0.
         25    1    1    2    0    0  0.94136915471E+01  0.10908743023E+02  0.51524928703E+03  0.53039084272E+03  0.12500000000E+03 0.  0.
         25    1    1    2    0    0 -0.23441057889E+02 -0.21292914301E+03  0.24600207116E+03  0.34932838727E+03  0.12500000000E+03 0.  0.
</event>
<event>
 5    0  0.5619558E-005  0.4083275E+03  0.7546771E-02  0.1040934E+00
         21   -1    0    0  502  501  0.00000000000E+00  0.00000000000E+00  0.19764573508E+04  0.19764573508E+04  0.00000000000E+00 0. -1.
         21   -1    0    0  501  502 -0.00000000000E+00 -0.00000000000E+00 -0.84358688312E+02  0.84358688312E+02  0.00000000000E+00 0. -1.
         25    1    1    2    0    0  0.30650982936E+02 -0.29402250360E+03  0.72340660165E+03  0.79141065616E+03  0.12500000000E+03 0.  0.
         25    1    1    2    0    0  0.46568934864E+02  0.31931574190E+03  0.83928481125E+03  0.90782994174E+03  0.12500000000E+03 0.  0.
         25    1    1    2    0    0 -0.77219917800E+02 -0.25293238305E+02  0.32940724962E+03  0.36157544124E+03  0.12500000000E+03 0.  0.
</event>
<event>
 5    0  0.5619558E-005  0.2177342E+03  0.7546771E-02  0.1135584E+00
         21   -1    0    0  502  501  0.00000000000E+00  0.00000000000E+00  0.48538193241E+03  0.48538193241E+03  0.00000000000E+00 0. -1.
         21   -1    0    0  501  502 -0.00000000000E+00 -0.00000000000E+00 -0.97671896546E+02  0.97671896546E+02  0.00000000000E+00 0. -1.
         25    1    1    2    0    0  0.46030343367E+02 -0.29556068770E+02  0.23073202540E+03  0.26805712312E+03  0.12500000000E+03 0.  0.
         25    1    1    2    0    0 -0.62339995718E+02  0.21176897268E+02  0.11403829745E+03  0.18156119996E+03  0.12500000000E+03 0.  0.
         25    1    1    2    0    0  0.16309652351E+02  0.83791715025E+01  0.42939713011E+02  0.13343550588E+03  0.12500000000E+03 0.  0.
</event>
<event>
 5    0  0.5619558E-005  0.3477075E+03  0.7546771E-02  0.1063560E+00
         21   -1    0    0  502  501  0.00000000000E+00  0.00000000000E+00  0.17125204799E+03  0.17125204799E+03  0.00000000000E+00 0. -1.
         21   -1    0    0  501  502 -0.00000000000E+00 -0.00000000000E+00 -0.70598006523E+03  0.70598006523E+03  0.00000000000E+00 0. -1.
         25    1    1    2    0    0 -0.79838190605E+02 -0.87659687198E+02 -0.21236441429E+03  0.27346298085E+03  0.12500000000E+03 0.  0.
         25    1    1    2    0    0  0.59575159162E+02 -0.16564730923E+03 -0.20332801941E+03  0.29657294907E+03  0.12500000000E+03 0.  0.
         25    1    1    2    0    0  0.20263031443E+02  0.25330699642E+03 -0.11903558354E+03  0.30719618329E+03  0.12500000000E+03 0.  0.
</event>
<event>
 5    0  0.5619558E-005  0.3750387E+03  0.7546771E-02  0.1052783E+00
         21   -1    0    0  502  501  0.00000000000E+00  0.00000000000E+00  0.37482814629E+03  0.37482814629E+03  0.00000000000E+00 0. -1.
         21   -1    0    0  501  502 -0.00000000000E+00 -0.00000000000E+00 -0.37524937886E+03  0.37524937886E+03  0.00000000000E+00 0. -1.
         25    1    1    2    0    0  0.26082729719E+03 -0.21337299581E+02 -0.91292854144E+01  0.29016289075E+03  0.12500000000E+03 0.  0.
         25    1    1    2    0    0 -0.27995691876E+03  0.73259591186E+02 -0.33111736778E+02  0.31696093005E+03  0.12500000000E+03 0.  0.
         25    1    1    2    0    0  0.19129621571E+02 -0.51922291605E+02  0.41819789621E+02  0.14295370436E+03  0.12500000000E+03 0.  0.
</event>
<event>
 5    0  0.5619558E-005  0.3104258E+03  0.7546771E-02  0.1080142E+00
         21   -1    0    0  502  501  0.00000000000E+00  0.00000000000E+00  0.17475081925E+03  0.17475081925E+03  0.00000000000E+00 0.  1.
         21   -1    0    0  501  502 -0.00000000000E+00 -0.00000000000E+00 -0.55143763534E+03  0.55143763534E+03  0.00000000000E+00 0.  1.
         25    1    1    2    0    0 -0.19903119358E+03  0.91664020097E+02 -0.12121973172E+03  0.27988378295E+03  0.12500000000E+03 0.  0.
         25    1    1    2    0    0  0.17484699309E+03 -0.10252903836E+03 -0.16309137193E+03  0.28863033503E+03  0.12500000000E+03 0.  0.
         25    1    1    2    0    0  0.24184200492E+02  0.10865018260E+02 -0.92375712452E+02  0.15767433661E+03  0.12500000000E+03 0.  0.
</event>
<event>
 5    0  0.5619558E-005  0.2351310E+03  0.7546771E-02  0.1123080E+00
         21   -1    0    0  502  501  0.00000000000E+00  0.00000000000E+00  0.44778998553E+03  0.44778998553E+03  0.00000000000E+00 0.  1.
         21   -1    0    0  501  502 -0.00000000000E+00 -0.00000000000E+00 -0.12346545776E+03  0.12346545776E+03  0.00000000000E+00 0.  1.
         25    1    1    2    0    0  0.82478648585E+02 -0.30513117096E+01  0.28750940753E+02  0.15252427535E+03  0.12500000000E+03 0.  0.
         25    1    1    2    0    0  0.29505293562E+02  0.81976677128E+01  0.12818764539E+03  0.18164480872E+03  0.12500000000E+03 0.  0.
         25    1    1    2    0    0 -0.11198394215E+03 -0.51463560032E+01  0.16738594162E+03  0.23708635923E+03  0.12500000000E+03 0.  0.
</event>
<event>
 5    0  0.5619558E-005  0.2339196E+03  0.7546771E-02  0.1123911E+00
         21   -1    0    0  502  501  0.00000000000E+00  0.00000000000E+00  0.31084189977E+03  0.31084189977E+03  0.00000000000E+00 0. -1.
         21   -1    0    0  501  502 -0.00000000000E+00 -0.00000000000E+00 -0.17603286835E+03  0.17603286835E+03  0.00000000000E+00 0. -1.
         25    1    1    2    0    0  0.15692523820E+01 -0.72577059585E+01 -0.84040448027E+02  0.15080760509E+03  0.12500000000E+03 0.  0.
         25    1    1    2    0    0 -0.39409873222E+01  0.28354359013E+02  0.11187869174E+03  0.17018032413E+03  0.12500000000E+03 0.  0.
         25    1    1    2    0    0  0.23717349401E+01 -0.21096653055E+02  0.10697078771E+03  0.16588683890E+03  0.12500000000E+03 0.  0.
</event>
<event>
 5    0  0.5619558E-005  0.3484749E+03  0.7546771E-02  0.1063243E+00
         21   -1    0    0  502  501  0.00000000000E+00  0.00000000000E+00  0.13162231715E+03  0.13162231715E+03  0.00000000000E+00 0.  1.
         21   -1    0    0  501  502 -0.00000000000E+00 -0.00000000000E+00 -0.92259999306E+03  0.92259999306E+03  0.00000000000E+00 0.  1.
         25    1    1    2    0    0  0.12975519787E+03 -0.37127420727E+02 -0.86773975093E+02  0.20339513145E+03  0.12500000000E+03 0.  0.
         25    1    1    2    0    0  0.27833305316E+02 -0.13597812154E+03 -0.43208658948E+03  0.47073194414E+03  0.12500000000E+03 0.  0.
         25    1    1    2    0    0 -0.15758850319E+03  0.17310554226E+03 -0.27211711134E+03  0.38009523462E+03  0.12500000000E+03 0.  0.
</event>
<event>
 5    0  0.5619558E-005  0.5012433E+03  0.7546771E-02  0.1013455E+00
         21   -1    0    0  502  501  0.00000000000E+00  0.00000000000E+00  0.83353236229E+02  0.83353236229E+02  0.00000000000E+00 0.  1.
         21   -1    0    0  501  502 -0.00000000000E+00 -0.00000000000E+00 -0.30142186293E+04  0.30142186293E+04  0.00000000000E+00 0.  1.
         25    1    1    2    0    0 -0.80612825732E+02  0.69442319120E+02 -0.12343062450E+03  0.20537960566E+03  0.12500000000E+03 0.  0.
         25    1    1    2    0    0 -0.88745055494E+02 -0.31383349855E+03 -0.18263418961E+04  0.18594399348E+04  0.12500000000E+03 0.  0.
         25    1    1    2    0    0  0.16935788123E+03  0.24439117943E+03 -0.98109287246E+03  0.10327523251E+04  0.12500000000E+03 0.  0.
</event>
<event>
 5    0  0.5619558E-005  0.5250466E+03  0.7546771E-02  0.1007441E+00
         21   -1    0    0  502  501  0.00000000000E+00  0.00000000000E+00  0.13766081311E+04  0.13766081311E+04  0.00000000000E+00 0. -1.
         21   -1    0    0  501  502 -0.00000000000E+00 -0.00000000000E+00 -0.20025591186E+03  0.20025591186E+03  0.00000000000E+00 0. -1.
         25    1    1    2    0    0  0.19311119841E+03  0.91993581116E+02  0.57979586436E+03  0.63051010955E+03  0.12500000000E+03 0.  0.
         25    1    1    2    0    0 -0.37793842942E+03 -0.10944015441E+03  0.59294985060E+03  0.72251583315E+03  0.12500000000E+03 0.  0.
         25    1    1    2    0    0  0.18482723101E+03  0.17446573292E+02  0.36065042577E+01  0.22383810023E+03  0.12500000000E+03 0.  0.
</event>
<event>
 5    0  0.5619558E-005  0.3192423E+03  0.7546771E-02  0.1075999E+00
         21   -1    0    0  502  501  0.00000000000E+00  0.00000000000E+00  0.42544048289E+03  0.42544048289E+03  0.00000000000E+00 0. -1.
         21   -1    0    0  501  502 -0.00000000000E+00 -0.00000000000E+00 -0.23955324156E+03  0.23955324156E+03  0.00000000000E+00 0. -1.
         25    1    1    2    0    0 -0.29803800810E+02  0.69428753219E+02  0.18431766799E+02  0.14721870922E+03  0.12500000000E+03 0.  0.
         25    1    1    2    0    0  0.95592663344E+02 -0.12770342721E+03 -0.87334572456E+02  0.22067725337E+03  0.12500000000E+03 0.  0.
         25    1    1    2    0    0 -0.65788862535E+02  0.58274673995E+02  0.25479004699E+03  0.29709776187E+03  0.12500000000E+03 0.  0.
</event>
<event>
 5    0  0.5619558E-005  0.2379605E+03  0.7546771E-02  0.1121159E+00
         21   -1    0    0  502  501  0.00000000000E+00  0.00000000000E+00  0.36568140922E+03  0.36568140922E+03  0.00000000000E+00 0.  1.
         21   -1    0    0  501  502 -0.00000000000E+00 -0.00000000000E+00 -0.15484841767E+03  0.15484841767E+03  0.00000000000E+00 0.  1.
         25    1    1    2    0    0  0.51832992426E+02  0.84293964123E+02  0.48600992836E+02  0.16667089727E+03  0.12500000000E+03 0.  0.
         25    1    1    2    0    0  0.90433886234E+01 -0.53801437561E+02 -0.21635810034E+01  0.13640402723E+03  0.12500000000E+03 0.  0.
         25    1    1    2    0    0 -0.60876381050E+02 -0.30492526561E+02  0.16439557972E+03  0.21745490240E+03  0.12500000000E+03 0.  0.
</event>
<event>
 5    0  0.5619558E-005  0.5689782E+03  0.7546771E-02  0.9971942E-01
         21   -1    0    0  502  501  0.00000000000E+00  0.00000000000E+00  0.10825133761E+03  0.10825133761E+03  0.00000000000E+00 0. -1.
         21   -1    0    0  501  502 -0.00000000000E+00 -0.00000000000E+00 -0.29905980808E+04  0.29905980808E+04  0.00000000000E+00 0. -1.
         25    1    1    2    0    0 -0.17279271671E+03  0.19984524339E+01 -0.11683406127E+04  0.11876472979E+04  0.12500000000E+03 0.  0.
         25    1    1    2    0    0 -0.20751696383E+03 -0.73549135917E+02 -0.14801355253E+03  0.29326741620E+03  0.12500000000E+03 0.  0.
         25    1    1    2    0    0  0.38030968053E+03  0.71550683483E+02 -0.15659925779E+04  0.16179347043E+04  0.12500000000E+03 0.  0.
</event>
<event>
 5    0  0.5619558E-005  0.2694482E+03  0.7546771E-02  0.1101596E+00
         21   -1    0    0  502  501  0.00000000000E+00  0.00000000000E+00  0.10128392572E+03  0.10128392572E+03  0.00000000000E+00 0.  1.
         21   -1    0    0  501  502 -0.00000000000E+00 -0.00000000000E+00 -0.71681963599E+03  0.71681963599E+03  0.00000000000E+00 0.  1.
         25    1    1    2    0    0  0.13385736380E+03  0.57009165047E+02 -0.15707101548E+03  0.24791962941E+03  0.12500000000E+03 0.  0.
         25    1    1    2    0    0 -0.99223907868E+01  0.38761694021E+02 -0.24132868120E+03  0.27470976527E+03  0.12500000000E+03 0.  0.
         25    1    1    2    0    0 -0.12393497302E+03 -0.95770859068E+02 -0.21713601359E+03  0.29547416703E+03  0.12500000000E+03 0.  0.
</event>
<event>
 5    0  0.5619558E-005  0.3367075E+03  0.7546771E-02  0.1068207E+00
         21   -1    0    0  502  501  0.00000000000E+00  0.00000000000E+00  0.38540182660E+03  0.38540182660E+03  0.00000000000E+00 0. -1.
         21   -1    0    0  501  502 -0.00000000000E+00 -0.00000000000E+00 -0.29416560401E+03  0.29416560401E+03  0.00000000000E+00 0. -1.
         25    1    1    2    0    0  0.15402152468E+03  0.10177843915E+03  0.10661906438E+03  0.24713175763E+03  0.12500000000E+03 0.  0.
         25    1    1    2    0    0  0.39600832780E+00 -0.16973917042E+03  0.41606970389E+02  0.21486666280E+03  0.12500000000E+03 0.  0.
         25    1    1    2    0    0 -0.15441753301E+03  0.67960731278E+02 -0.56989812175E+02  0.21756901018E+03  0.12500000000E+03 0.  0.
</event>
<event>
 5    0  0.5619558E-005  0.2990151E+03  0.7546771E-02  0.1085734E+00
         21   -1    0    0  502  501  0.00000000000E+00  0.00000000000E+00  0.33817439754E+03  0.33817439754E+03  0.00000000000E+00 0. -1.
         21   -1    0    0  501  502 -0.00000000000E+00 -0.00000000000E+00 -0.26439027498E+03  0.26439027498E+03  0.00000000000E+00 0. -1.
         25    1    1    2    0    0  0.61030836642E+02 -0.10098545157E+03  0.21624175896E+03  0.27623961115E+03  0.12500000000E+03 0.  0.
         25    1    1    2    0    0  0.54276811189E+01  0.84135422474E+02 -0.79872165750E+02  0.17062471069E+03  0.12500000000E+03 0.  0.
         25    1    1    2    0    0 -0.66458517761E+02  0.16850029098E+02 -0.62585470647E+02  0.15570035067E+03  0.12500000000E+03 0.  0.
</event>
<event>
 5    0  0.5619558E-005  0.3059280E+03  0.7546771E-02  0.1082314E+00
         21   -1    0    0  502  501  0.00000000000E+00  0.00000000000E+00  0.18521914188E+03  0.18521914188E+03  0.00000000000E+00 0. -1.
         21   -1    0    0  501  502 -0.00000000000E+00 -0.00000000000E+00 -0.50530373121E+03  0.50530373121E+03  0.00000000000E+00 0. -1.
         25    1    1    2    0    0 -0.17783643946E+02  0.10888999757E+03 -0.89311931518E+02  0.18914256706E+03  0.12500000000E+03 0.  0.
         25    1    1    2    0    0  0.12008566639E+03  0.71677105594E+02 -0.37084787311E+02  0.19120265738E+03  0.12500000000E+03 0.  0.
         25    1    1    2    0    0 -0.10230202244E+03 -0.18056710317E+03 -0.19368787050E+03  0.31017764865E+03  0.12500000000E+03 0.  0.
</event>
<event>
 5    0  0.5619558E-005  0.2053288E+03  0.7546771E-02  0.1145319E+00
         21   -1    0    0  502  501  0.00000000000E+00  0.00000000000E+00  0.10456945654E+04  0.10456945654E+04  0.00000000000E+00 0.  1.
         21   -1    0    0  501  502 -0.00000000000E+00 -0.00000000000E+00 -0.40317625907E+02  0.40317625907E+02  0.00000000000E+00 0.  1.
         25    1    1    2    0    0 -0.18534099375E+02  0.23841063977E+01  0.38796305169E+03  0.40803128100E+03  0.12500000000E+03 0.  0.
         25    1    1    2    0    0  0.23810455208E+02  0.14277324204E+02  0.16832405340E+03  0.21149176513E+03  0.12500000000E+03 0.  0.
         25    1    1    2    0    0 -0.52763558331E+01 -0.16661430602E+02  0.44908983441E+03  0.46648914518E+03  0.12500000000E+03 0.  0.
</event>
<event>
 5    0  0.6578260E-005  0.6452313E+03  0.7546771E-02  0.9815769E-01
         21   -1    0    0  502  501  0.00000000000E+00  0.00000000000E+00  0.84341997743E+03  0.84341997743E+03  0.00000000000E+00 0.  1.
         21   -1    0    0  501  502 -0.00000000000E+00 -0.00000000000E+00 -0.49361342837E+03  0.49361342837E+03  0.00000000000E+00 0.  1.
         25    1    1    2    0    0 -0.15382496444E+03  0.25844801951E+03  0.51324547677E+02  0.32972216739E+03  0.12500000000E+03 0.  0.
         25    1    1    2    0    0  0.85916747165E+02  0.61642732304E+02  0.55144715920E+03  0.57523950080E+03  0.12500000000E+03 0.  0.
         25    1    1    2    0    0  0.67908217275E+02 -0.32009075182E+03 -0.25296515782E+03  0.43207173761E+03  0.12500000000E+03 0.  0.
</event>
<event>
 5    0  0.5619558E-005  0.4098004E+03  0.7546771E-02  0.1040438E+00
         21   -1    0    0  502  501  0.00000000000E+00  0.00000000000E+00  0.18915036416E+03  0.18915036416E+03  0.00000000000E+00 0. -1.
         21   -1    0    0  501  502 -0.00000000000E+00 -0.00000000000E+00 -0.88784596089E+03  0.88784596089E+03  0.00000000000E+00 0. -1.
         25    1    1    2    0    0 -0.51228179075E+02  0.22091204040E+03  0.37403853986E+02  0.26163047265E+03  0.12500000000E+03 0.  0.
         25    1    1    2    0    0  0.21912756660E+02 -0.11688391302E+03 -0.26585302058E+03  0.31693034973E+03  0.12500000000E+03 0.  0.
         25    1    1    2    0    0  0.29315422414E+02 -0.10402812739E+03 -0.47024643013E+03  0.49843550268E+03  0.12500000000E+03 0.  0.
</event>
<event>
 5    0  0.6175568E-005  0.6974778E+03  0.7546771E-02  0.9721555E-01
         21   -1    0    0  502  501  0.00000000000E+00  0.00000000000E+00  0.71516941893E+03  0.71516941893E+03  0.00000000000E+00 0.  1.
         21   -1    0    0  501  502 -0.00000000000E+00 -0.00000000000E+00 -0.68022376401E+03  0.68022376401E+03  0.00000000000E+00 0.  1.
         25    1    1    2    0    0  0.25682572975E+03 -0.79917527413E+02  0.14823158490E+03  0.33157784819E+03  0.12500000000E+03 0.  0.
         25    1    1    2    0    0 -0.15658542989E+03  0.46632208606E+03  0.19548787978E+03  0.54388950711E+03  0.12500000000E+03 0.  0.
         25    1    1    2    0    0 -0.10024029986E+03 -0.38640455865E+03 -0.30877380976E+03  0.51992582765E+03  0.12500000000E+03 0.  0.
</event>
<event>
 5    0  0.6554681E-005  0.5073457E+03  0.7546771E-02  0.1011879E+00
         21   -1    0    0  502  501  0.00000000000E+00  0.00000000000E+00  0.47960444293E+03  0.47960444293E+03  0.00000000000E+00 0. -1.
         21   -1    0    0  501  502 -0.00000000000E+00 -0.00000000000E+00 -0.53669153154E+03  0.53669153154E+03  0.00000000000E+00 0. -1.
         25    1    1    2    0    0 -0.95736528429E+02  0.16277742139E+03  0.19539116836E+03  0.29910647011E+03  0.12500000000E+03 0.  0.
         25    1    1    2    0    0  0.84535833697E+02 -0.22349042090E+03  0.13774581204E+03  0.30280882442E+03  0.12500000000E+03 0.  0.
         25    1    1    2    0    0  0.11200694732E+02  0.60712999507E+02 -0.39022406901E+03  0.41438067993E+03  0.12500000000E+03 0.  0.
</event>
<event>
 5    0  0.5619558E-005  0.2482275E+03  0.7546771E-02  0.1114430E+00
         21   -1    0    0  502  501  0.00000000000E+00  0.00000000000E+00  0.21184032530E+02  0.21184032530E+02  0.00000000000E+00 0. -1.
         21   -1    0    0  501  502 -0.00000000000E+00 -0.00000000000E+00 -0.29086479631E+04  0.29086479631E+04  0.00000000000E+00 0. -1.
         25    1    1    2    0    0  0.88408935848E+02 -0.11361131763E+01 -0.18340559903E+04  0.18404357653E+04  0.12500000000E+03 0.  0.
         25    1    1    2    0    0 -0.69273921284E+02 -0.32934884113E+02 -0.56899662596E+03  0.58759317824E+03  0.12500000000E+03 0.  0.
         25    1    1    2    0    0 -0.19135014563E+02  0.34070997290E+02 -0.48441131426E+03  0.50180305202E+03  0.12500000000E+03 0.  0.
</event>
<event>
 5    0  0.5619558E-005  0.5001176E+03  0.7546771E-02  0.1013748E+00
         21   -1    0    0  502  501  0.00000000000E+00  0.00000000000E+00  0.88382667279E+03  0.88382667279E+03  0.00000000000E+00 0. -1.
         21   -1    0    0  501  502 -0.00000000000E+00 -0.00000000000E+00 -0.28299396448E+03  0.28299396448E+03  0.00000000000E+00 0. -1.
         25    1    1    2    0    0  0.20220225315E+03 -0.26982438267E+03  0.48916145803E+02  0.36291698497E+03  0.12500000000E+03 0.  0.
         25    1    1    2    0    0 -0.21208957295E+03  0.35386540909E+03  0.37518089574E+03  0.57147915031E+03  0.12500000000E+03 0.  0.
         25    1    1    2    0    0  0.98873197980E+01 -0.84041026428E+02  0.17673566677E+03  0.23242450199E+03  0.12500000000E+03 0.  0.
</event>
<event>
 5    0  0.5619558E-005  0.2729907E+03  0.7546771E-02  0.1099580E+00
         21   -1    0    0  502  501  0.00000000000E+00  0.00000000000E+00  0.35156013737E+03  0.35156013737E+03  0.00000000000E+00 0.  1.
         21   -1    0    0  501  502 -0.00000000000E+00 -0.00000000000E+00 -0.21198063450E+03  0.21198063450E+03  0.00000000000E+00 0.  1.
         25    1    1    2    0    0 -0.21771879715E+01 -0.15481063772E+03  0.12908245237E+03  0.23718843397E+03  0.12500000000E+03 0.  0.
         25    1    1    2    0    0 -0.19327006507E+02  0.10263216785E+01  0.11469766447E+02  0.12700843302E+03  0.12500000000E+03 0.  0.
         25    1    1    2    0    0  0.21504194479E+02  0.15378431604E+03 -0.97271594523E+00  0.19934390489E+03  0.12500000000E+03 0.  0.
</event>
<event>
 5    0  0.5619558E-005  0.4980150E+03  0.7546771E-02  0.1014298E+00
         21   -1    0    0  502  501  0.00000000000E+00  0.00000000000E+00  0.20670860767E+03  0.20670860767E+03  0.00000000000E+00 0. -1.
         21   -1    0    0  501  502 -0.00000000000E+00 -0.00000000000E+00 -0.11998480919E+04  0.11998480919E+04  0.00000000000E+00 0. -1.
         25    1    1    2    0    0 -0.44311814852E+03  0.27727350551E+02 -0.55566683366E+03  0.72215865953E+03  0.12500000000E+03 0.  0.
         25    1    1    2    0    0  0.28744975357E+03 -0.49330774202E+01 -0.33511648336E+03  0.45888969644E+03  0.12500000000E+03 0.  0.
         25    1    1    2    0    0  0.15566839494E+03 -0.22794273131E+02 -0.10235616724E+03  0.22550834363E+03  0.12500000000E+03 0.  0.
</event>
<event>
 5    0  0.5619558E-005  0.3882642E+03  0.7546771E-02  0.1047921E+00
         21   -1    0    0  502  501  0.00000000000E+00  0.00000000000E+00  0.27248521837E+04  0.27248521837E+04  0.00000000000E+00 0.  1.
         21   -1    0    0  501  502 -0.00000000000E+00 -0.00000000000E+00 -0.55323781848E+02  0.55323781848E+02  0.00000000000E+00 0.  1.
         25    1    1    2    0    0 -0.11389612661E+03 -0.18952559487E+03  0.13576260321E+04  0.13811827257E+04  0.12500000000E+03 0.  0.
         25    1    1    2    0    0 -0.75793864324E+02  0.23783953394E+02  0.81225821209E+03  0.82565052499E+03  0.12500000000E+03 0.  0.
         25    1    1    2    0    0  0.18968999093E+03  0.16574164147E+03  0.49964415763E+03  0.57334271482E+03  0.12500000000E+03 0.  0.
</event>
<event>
 5    0  0.5619558E-005  0.4883446E+03  0.7546771E-02  0.1016867E+00
         21   -1    0    0  502  501  0.00000000000E+00  0.00000000000E+00  0.29142278352E+03  0.29142278352E+03  0.00000000000E+00 0.  1.
         21   -1    0    0  501  502 -0.00000000000E+00 -0.00000000000E+00 -0.81833151025E+03  0.81833151025E+03  0.00000000000E+00 0.  1.
         25    1    1    2    0    0 -0.37423170846E+02  0.64110262260E+02 -0.29270787097E+03  0.32682337305E+03  0.12500000000E+03 0.  0.
         25    1    1    2    0    0 -0.28350247926E+03  0.11084673038E+03 -0.22102426239E+03  0.39640557255E+03  0.12500000000E+03 0.  0.
         25    1    1    2    0    0  0.32092565011E+03 -0.17495699264E+03 -0.13176593369E+02  0.38652534818E+03  0.12500000000E+03 0.  0.
</event>
<event>
 5    0  0.5619558E-005  0.4272048E+03  0.7546771E-02  0.1034747E+00
         21   -1    0    0  502  501  0.00000000000E+00  0.00000000000E+00  0.16175155770E+03  0.16175155770E+03  0.00000000000E+00 0. -1.
         21   -1    0    0  501  502 -0.00000000000E+00 -0.00000000000E+00 -0.11282976641E+04  0.11282976641E+04  0.00000000000E+00 0. -1.
         25    1    1    2    0    0 -0.36821086780E+02 -0.57872990704E+02  0.23348461127E+02  0.14448261529E+03  0.12500000000E+03 0.  0.
         25    1    1    2    0    0  0.18919616708E+02 -0.13394497522E+03 -0.86451711175E+03  0.88391970495E+03  0.12500000000E+03 0.  0.
         25    1    1    2    0    0  0.17901470072E+02  0.19181796593E+03 -0.12537745577E+03  0.26164690156E+03  0.12500000000E+03 0.  0.
</event>
<event>
 5    0  0.5619558E-005  0.3511783E+03  0.7546771E-02  0.1062132E+00
         21   -1    0    0  502  501  0.00000000000E+00  0.00000000000E+00  0.18469123987E+03  0.18469123987E+03  0.00000000000E+00 0. -1.
         21   -1    0    0  501  502 -0.00000000000E+00 -0.00000000000E+00 -0.66774237733E+03  0.66774237733E+03  0.00000000000E+00 0. -1.
         25    1    1    2    0    0 -0.55746720448E+02 -0.21492837701E+03 -0.27952918173E+03  0.37823731641E+03  0.12500000000E+03 0.  0.
         25    1    1    2    0    0  0.13154764492E+03  0.30469465776E+02 -0.41994798087E+02  0.18873720962E+03  0.12500000000E+03 0.  0.
         25    1    1    2    0    0 -0.75800924467E+02  0.18445891123E+03 -0.16152715764E+03  0.28545909118E+03  0.12500000000E+03 0.  0.
</event>
<event>
 5    0  0.5619558E-005  0.2354233E+03  0.7546771E-02  0.1122880E+00
         21   -1    0    0  502  501  0.00000000000E+00  0.00000000000E+00  0.28298774871E+03  0.28298774871E+03  0.00000000000E+00 0. -1.
         21   -1    0    0  501  502 -0.00000000000E+00 -0.00000000000E+00 -0.19585342116E+03  0.19585342116E+03  0.00000000000E+00 0. -1.
         25    1    1    2    0    0 -0.82135932156E+02 -0.32856213012E+01  0.10576908153E+03  0.18321900902E+03  0.12500000000E+03 0.  0.
         25    1    1    2    0    0  0.74229333151E+02  0.19099552529E+02  0.46158266997E+02  0.15372173698E+03  0.12500000000E+03 0.  0.
         25    1    1    2    0    0  0.79065990047E+01 -0.15813931228E+02 -0.64793020975E+02  0.14190042387E+03  0.12500000000E+03 0.  0.
</event>
<event>
 5    0  0.5726819E-005  0.2495806E+03  0.7546771E-02  0.1113570E+00
         21   -1    0    0  502  501  0.00000000000E+00  0.00000000000E+00  0.13609134887E+03  0.13609134887E+03  0.00000000000E+00 0.  1.
         21   -1    0    0  501  502 -0.00000000000E+00 -0.00000000000E+00 -0.45771068394E+03  0.45771068394E+03  0.00000000000E+00 0.  1.
         25    1    1    2    0    0 -0.82488841512E+01 -0.33299285230E+02 -0.15775994383E+03  0.20418150348E+03  0.12500000000E+03 0.  0.
         25    1    1    2    0    0 -0.56015380750E+02 -0.26403087328E+02  0.30152403522E+02  0.14272005234E+03  0.12500000000E+03 0.  0.
         25    1    1    2    0    0  0.64264264901E+02  0.59702372558E+02 -0.19401179477E+03  0.24690047700E+03  0.12500000000E+03 0.  0.
</event>
<event>
 5    0  0.5619558E-005  0.3564998E+03  0.7546771E-02  0.1059978E+00
         21   -1    0    0  502  501  0.00000000000E+00  0.00000000000E+00  0.18027363777E+03  0.18027363777E+03  0.00000000000E+00 0. -1.
         21   -1    0    0  501  502 -0.00000000000E+00 -0.00000000000E+00 -0.70499571904E+03  0.70499571904E+03  0.00000000000E+00 0. -1.
         25    1    1    2    0    0 -0.73314131111E+02  0.11855456621E+03 -0.42930399252E+03  0.46835570348E+03  0.12500000000E+03 0.  0.
         25    1    1    2    0    0  0.76628617993E+02  0.76318589267E+02 -0.83198243954E+02  0.18504977698E+03  0.12500000000E+03 0.  0.
         25    1    1    2    0    0 -0.33144868825E+01 -0.19487315548E+03 -0.12219844794E+02  0.23186387635E+03  0.12500000000E+03 0.  0.
</event>
<event>
 5    0  0.5619558E-005  0.2334802E+03  0.7546771E-02  0.1124214E+00
         21   -1    0    0  502  501  0.00000000000E+00  0.00000000000E+00  0.31932473600E+03  0.31932473600E+03  0.00000000000E+00 0. -1.
         21   -1    0    0  501  502 -0.00000000000E+00 -0.00000000000E+00 -0.17071340078E+03  0.17071340078E+03  0.00000000000E+00 0. -1.
         25    1    1    2    0    0 -0.14757029311E+02 -0.95830136754E+02 -0.20827244804E+01  0.15821037503E+03  0.12500000000E+03 0.  0.
         25    1    1    2    0    0  0.36354610084E+02 -0.98205370404E+01  0.66135820240E+02  0.14634564340E+03  0.12500000000E+03 0.  0.
         25    1    1    2    0    0 -0.21597580773E+02  0.10565067379E+03  0.84558239468E+02  0.18548211836E+03  0.12500000000E+03 0.  0.
</event>
<event>
 5    0  0.5619558E-005  0.4034681E+03  0.7546771E-02  0.1042585E+00
         21   -1    0    0  502  501  0.00000000000E+00  0.00000000000E+00  0.35884820331E+03  0.35884820331E+03  0.00000000000E+00 0.  1.
         21   -1    0    0  501  502 -0.00000000000E+00 -0.00000000000E+00 -0.45363623525E+03  0.45363623525E+03  0.00000000000E+00 0.  1.
         25    1    1    2    0    0  0.19503362498E+03 -0.13665324083E+03  0.85514292737E+02  0.28222316943E+03  0.12500000000E+03 0.  0.
         25    1    1    2    0    0 -0.16128820417E+03  0.92058363390E+02  0.78695155984E+02  0.23729002223E+03  0.12500000000E+03 0.  0.
         25    1    1    2    0    0 -0.33745420804E+02  0.44594877435E+02 -0.25899748066E+03  0.29297124690E+03  0.12500000000E+03 0.  0.
</event>
<event>
 5    0  0.5619558E-005  0.5432029E+03  0.7546771E-02  0.1003080E+00
         21   -1    0    0  502  501  0.00000000000E+00  0.00000000000E+00  0.38246873394E+03  0.38246873394E+03  0.00000000000E+00 0.  1.
         21   -1    0    0  501  502 -0.00000000000E+00 -0.00000000000E+00 -0.77148618808E+03  0.77148618808E+03  0.00000000000E+00 0.  1.
         25    1    1    2    0    0 -0.21843882373E+03 -0.30731083987E+03  0.37657295662E+02  0.39899692221E+03  0.12500000000E+03 0.  0.
         25    1    1    2    0    0  0.15659122864E+03  0.39349452403E+03 -0.38490126016E+03  0.58577532673E+03  0.12500000000E+03 0.  0.
         25    1    1    2    0    0  0.61847595094E+02 -0.86183684156E+02 -0.41773489643E+02  0.16918267308E+03  0.12500000000E+03 0.  0.
</event>
<event>
 5    0  0.5619558E-005  0.4816765E+03  0.7546771E-02  0.1018675E+00
         21   -1    0    0  502  501  0.00000000000E+00  0.00000000000E+00  0.12469716680E+04  0.12469716680E+04  0.00000000000E+00 0. -1.
         21   -1    0    0  501  502 -0.00000000000E+00 -0.00000000000E+00 -0.18606052874E+03  0.18606052874E+03  0.00000000000E+00 0. -1.
         25    1    1    2    0    0  0.28745383115E+03  0.30021402896E+03  0.47183788670E+03  0.64110386020E+03  0.12500000000E+03 0.  0.
         25    1    1    2    0    0 -0.16734164312E+03 -0.98711129405E+02  0.41258427161E+03  0.47286138960E+03  0.12500000000E+03 0.  0.
         25    1    1    2    0    0 -0.12011218803E+03 -0.20150289956E+03  0.17648898097E+03  0.31906694697E+03  0.12500000000E+03 0.  0.
</event>
<event>
 5    0  0.5619558E-005  0.3310355E+03  0.7546771E-02  0.1070680E+00
         21   -1    0    0  502  501  0.00000000000E+00  0.00000000000E+00  0.88152057929E+02  0.88152057929E+02  0.00000000000E+00 0.  1.
         21   -1    0    0  501  502 -0.00000000000E+00 -0.00000000000E+00 -0.12431306852E+04  0.12431306852E+04  0.00000000000E+00 0.  1.
         25    1    1    2    0    0  0.70211505458E+02  0.13500472327E+03 -0.87742781031E+03  0.89925552159E+03  0.12500000000E+03 0.  0.
         25    1    1    2    0    0 -0.10898336768E+03 -0.91373270309E+02 -0.19221321529E+03  0.26980987582E+03  0.12500000000E+03 0.  0.
         25    1    1    2    0    0  0.38771862220E+02 -0.43631452959E+02 -0.85337601631E+02  0.16221734568E+03  0.12500000000E+03 0.  0.
</event>
<event>
 5    0  0.5619558E-005  0.3183406E+03  0.7546771E-02  0.1076416E+00
         21   -1    0    0  502  501  0.00000000000E+00  0.00000000000E+00  0.53311634697E+02  0.53311634697E+02  0.00000000000E+00 0. -1.
         21   -1    0    0  501  502 -0.00000000000E+00 -0.00000000000E+00 -0.19009122060E+04  0.19009122060E+04  0.00000000000E+00 0. -1.
         25    1    1    2    0    0  0.77696871145E+02  0.21258290457E+03 -0.90670272113E+03  0.94284840755E+03  0.12500000000E+03 0.  0.
         25    1    1    2    0    0 -0.67224437311E+02 -0.46838953902E+02 -0.53315123648E+03  0.55370412093E+03  0.12500000000E+03 0.  0.
         25    1    1    2    0    0 -0.10472433834E+02 -0.16574395067E+03 -0.40774661370E+03  0.45767131223E+03  0.12500000000E+03 0.  0.
</event>
<event>
 5    0  0.5619558E-005  0.2345294E+03  0.7546771E-02  0.1123492E+00
         21   -1    0    0  502  501  0.00000000000E+00  0.00000000000E+00  0.49136951455E+03  0.49136951455E+03  0.00000000000E+00 0. -1.
         21   -1    0    0  501  502 -0.00000000000E+00 -0.00000000000E+00 -0.11194030555E+03  0.11194030555E+03  0.00000000000E+00 0. -1.
         25    1    1    2    0    0 -0.71066668936E+01  0.84101111417E+02  0.62814094357E+02  0.16338332873E+03  0.12500000000E+03 0.  0.
         25    1    1    2    0    0 -0.69775650611E+02 -0.40756122205E+02  0.12263387073E+03  0.19285686186E+03  0.12500000000E+03 0.  0.
         25    1    1    2    0    0  0.76882317505E+02 -0.43344989212E+02  0.19398124392E+03  0.24706962951E+03  0.12500000000E+03 0.  0.
</event>
<event>
 5    0  0.5619558E-005  0.3902778E+03  0.7546771E-02  0.1047199E+00
         21   -1    0    0  502  501  0.00000000000E+00  0.00000000000E+00  0.13794080665E+03  0.13794080665E+03  0.00000000000E+00 0.  1.
         21   -1    0    0  501  502 -0.00000000000E+00 -0.00000000000E+00 -0.11042183935E+04  0.11042183935E+04  0.00000000000E+00 0.  1.
         25    1    1    2    0    0  0.46642631788E+02  0.43236979056E+02  0.65355841109E+02  0.15472994999E+03  0.12500000000E+03 0.  0.
         25    1    1    2    0    0  0.49612823279E+02 -0.10673326384E+03 -0.45830665708E+03  0.48941129305E+03  0.12500000000E+03 0.  0.
         25    1    1    2    0    0 -0.96255455067E+02  0.63496284786E+02 -0.57332677085E+03  0.59801795707E+03  0.12500000000E+03 0.  0.
</event>
<event>
 5    0  0.5619558E-005  0.3960118E+03  0.7546771E-02  0.1045169E+00
         21   -1    0    0  502  501  0.00000000000E+00  0.00000000000E+00  0.10904357350E+04  0.10904357350E+04  0.00000000000E+00 0.  1.
         21   -1    0    0  501  502 -0.00000000000E+00 -0.00000000000E+00 -0.14381894170E+03  0.14381894170E+03  0.00000000000E+00 0.  1.
         25    1    1    2    0    0 -0.16944278680E+02  0.16643074937E+03  0.88552154664E+03  0.90981300962E+03  0.12500000000E+03 0.  0.
         25    1    1    2    0    0  0.32287216567E+01 -0.13840145902E+03  0.13190670356E+02  0.18698765277E+03  0.12500000000E+03 0.  0.
         25    1    1    2    0    0  0.13715557024E+02 -0.28029290350E+02  0.47904576306E+02  0.13745401432E+03  0.12500000000E+03 0.  0.
</event>
<event>
 5    0  0.5619558E-005  0.2274076E+03  0.7546771E-02  0.1128478E+00
         21   -1    0    0  502  501  0.00000000000E+00  0.00000000000E+00  0.21356192932E+03  0.21356192932E+03  0.00000000000E+00 0. -1.
         21   -1    0    0  501  502 -0.00000000000E+00 -0.00000000000E+00 -0.24215082943E+03  0.24215082943E+03  0.00000000000E+00 0. -1.
         25    1    1    2    0    0 -0.33876182840E+02  0.62781589306E+02 -0.56956608256E+02  0.15478429812E+03  0.12500000000E+03 0.  0.
         25    1    1    2    0    0  0.66508503969E+02 -0.88366356938E+02  0.37327162463E+01  0.16694588138E+03  0.12500000000E+03 0.  0.
         25    1    1    2    0    0 -0.32632321129E+02  0.25584767632E+02  0.24634991895E+02  0.13398257925E+03  0.12500000000E+03 0.  0.
</event>
<event>
 5    0  0.5619558E-005  0.3922470E+03  0.7546771E-02  0.1046498E+00
         21   -1    0    0  502  501  0.00000000000E+00  0.00000000000E+00  0.72231104288E+03  0.72231104288E+03  0.00000000000E+00 0. -1.
         21   -1    0    0  501  502 -0.00000000000E+00 -0.00000000000E+00 -0.21300759533E+03  0.21300759533E+03  0.00000000000E+00 0. -1.
         25    1    1    2    0    0 -0.50909755929E+02 -0.27140780026E+03  0.29475584377E+03  0.42280019481E+03  0.12500000000E+03 0.  0.
         25    1    1    2    0    0 -0.14318199544E+02 -0.32611960193E+02  0.68975661501E+02  0.14714344248E+03  0.12500000000E+03 0.  0.
         25    1    1    2    0    0  0.65227955474E+02  0.30401976046E+03  0.14557194228E+03  0.36537500093E+03  0.12500000000E+03 0.  0.
</event>
<event>
 5    0  0.5619558E-005  0.2972956E+03  0.7546771E-02  0.1086600E+00
         21   -1    0    0  502  501  0.00000000000E+00  0.00000000000E+00  0.37393229523E+03  0.37393229523E+03  0.00000000000E+00 0. -1.
         21   -1    0    0  501  502 -0.00000000000E+00 -0.00000000000E+00 -0.23636537771E+03  0.23636537771E+03  0.00000000000E+00 0. -1.
         25    1    1    2    0    0  0.19774400950E+03  0.47586963495E+02  0.76545783338E+02  0.25070195319E+03  0.12500000000E+03 0.  0.
         25    1    1    2    0    0 -0.17883555051E+03 -0.46485128886E+02  0.10150775054E+02  0.22331829206E+03  0.12500000000E+03 0.  0.
         25    1    1    2    0    0 -0.18908458995E+02 -0.11018346090E+01  0.50870359127E+02  0.13627742769E+03  0.12500000000E+03 0.  0.
</event>
<event>
 5    0  0.5619558E-005  0.3320121E+03  0.7546771E-02  0.1070250E+00
         21   -1    0    0  502  501  0.00000000000E+00  0.00000000000E+00  0.30209802379E+03  0.30209802379E+03  0.00000000000E+00 0.  1.
         21   -1    0    0  501  502 -0.00000000000E+00 -0.00000000000E+00 -0.36488840860E+03  0.36488840860E+03  0.00000000000E+00 0.  1.
         25    1    1    2    0    0  0.61386470974E+02 -0.87852110075E+02 -0.45485682782E+02  0.17082224504E+03  0.12500000000E+03 0.  0.
         25    1    1    2    0    0 -0.16400487088E+03  0.78562067778E+02  0.14722303291E+03  0.26527196909E+03  0.12500000000E+03 0.  0.
         25    1    1    2    0    0  0.10261839991E+03  0.92900422969E+01 -0.16452773494E+03  0.23089221825E+03  0.12500000000E+03 0.  0.
</event>
<event>
 5    0  0.5619558E-005  0.2067704E+03  0.7546771E-02  0.1144149E+00
         21   -1    0    0  502  501  0.00000000000E+00  0.00000000000E+00  0.33821009183E+03  0.33821009183E+03  0.00000000000E+00 0.  1.
         21   -1    0    0  501  502 -0.00000000000E+00 -0.00000000000E+00 -0.12641257473E+03  0.12641257473E+03  0.00000000000E+00 0.  1.
         25    1    1    2    0    0 -0.47337638383E+02  0.62658223812E+01  0.16226908787E+02  0.13479030049E+03  0.12500000000E+03 0.  0.
         25    1    1    2    0    0 -0.11871504764E+02 -0.62166005082E+00  0.11115100709E+03  0.16769277106E+03  0.12500000000E+03 0.  0.
         25    1    1    2    0    0  0.59209143146E+02 -0.56441623304E+01  0.84419601222E+02  0.16213959501E+03  0.12500000000E+03 0.  0.
</event>
<event>
 5    0  0.5619558E-005  0.7010470E+03  0.7546771E-02  0.9715443E-01
         21   -1    0    0  502  501  0.00000000000E+00  0.00000000000E+00  0.23324702936E+03  0.23324702936E+03  0.00000000000E+00 0. -1.
         21   -1    0    0  501  502 -0.00000000000E+00 -0.00000000000E+00 -0.21070663038E+04  0.21070663038E+04  0.00000000000E+00 0. -1.
         25    1    1    2    0    0  0.63434334008E+03 -0.70329946541E+02 -0.11247573653E+04  0.12992466684E+04  0.12500000000E+03 0.  0.
         25    1    1    2    0    0 -0.49919883190E+03  0.86195364722E+02 -0.64280499942E+03  0.82792051668E+03  0.12500000000E+03 0.  0.
         25    1    1    2    0    0 -0.13514450818E+03 -0.15865418181E+02 -0.10625690969E+03  0.21314614808E+03  0.12500000000E+03 0.  0.
</event>
<event>
 5    0  0.5619558E-005  0.3322492E+03  0.7546771E-02  0.1070146E+00
         21   -1    0    0  502  501  0.00000000000E+00  0.00000000000E+00  0.20675851857E+04  0.20675851857E+04  0.00000000000E+00 0. -1.
         21   -1    0    0  501  502 -0.00000000000E+00 -0.00000000000E+00 -0.53390567636E+02  0.53390567636E+02  0.00000000000E+00 0. -1.
         25    1    1    2    0    0  0.11845774752E+03 -0.11436364813E+03  0.79666500019E+03  0.82305006196E+03  0.12500000000E+03 0.  0.
         25    1    1    2    0    0 -0.11769535406E+03  0.10487067809E+03  0.11231018357E+04  0.11409788731E+04  0.12500000000E+03 0.  0.
         25    1    1    2    0    0 -0.76239345741E+00  0.94929700387E+01  0.94427782180E+02  0.15694681829E+03  0.12500000000E+03 0.  0.
</event>
<event>
 5    0  0.5619558E-005  0.2864855E+03  0.7546771E-02  0.1092199E+00
         21   -1    0    0  502  501  0.00000000000E+00  0.00000000000E+00  0.89556420796E+03  0.89556420796E+03  0.00000000000E+00 0. -1.
         21   -1    0    0  501  502 -0.00000000000E+00 -0.00000000000E+00 -0.91644926132E+02  0.91644926132E+02  0.00000000000E+00 0. -1.
         25    1    1    2    0    0 -0.35161212410E+02 -0.30117477325E+02  0.31751600671E+03  0.34436142033E+03  0.12500000000E+03 0.  0.
         25    1    1    2    0    0 -0.40767826739E+02 -0.29482199378E+02  0.35167475658E+01  0.13479088727E+03  0.12500000000E+03 0.  0.
         25    1    1    2    0    0  0.75929039150E+02  0.59599676703E+02  0.48288652756E+03  0.50805682650E+03  0.12500000000E+03 0.  0.
</event>
<event>
 5    0  0.5619558E-005  0.3034762E+03  0.7546771E-02  0.1083516E+00
         21   -1    0    0  502  501  0.00000000000E+00  0.00000000000E+00  0.22470921831E+03  0.22470921831E+03  0.00000000000E+00 0.  1.
         21   -1    0    0  501  502 -0.00000000000E+00 -0.00000000000E+00 -0.40985333723E+03  0.40985333723E+03  0.00000000000E+00 0.  1.
         25    1    1    2    0    0  0.65824382711E+01 -0.18048109311E+03 -0.17705345668E+03  0.28211642984E+03  0.12500000000E+03 0.  0.
         25    1    1    2    0    0  0.13936476857E+02  0.13723495756E+02 -0.54812107684E+02  0.13788374404E+03  0.12500000000E+03 0.  0.
         25    1    1    2    0    0 -0.20518915129E+02  0.16675759736E+03  0.46721445441E+02  0.21456238165E+03  0.12500000000E+03 0.  0.
</event>
<event>
 5    0  0.5619558E-005  0.2994989E+03  0.7546771E-02  0.1085491E+00
         21   -1    0    0  502  501  0.00000000000E+00  0.00000000000E+00  0.18813900754E+03  0.18813900754E+03  0.00000000000E+00 0.  1.
         21   -1    0    0  501  502 -0.00000000000E+00 -0.00000000000E+00 -0.47677281239E+03  0.47677281239E+03  0.00000000000E+00 0.  1.
         25    1    1    2    0    0  0.65517577832E+02 -0.21586938481E+01  0.36863039800E+02  0.14588041907E+03  0.12500000000E+03 0.  0.
         25    1    1    2    0    0  0.15521554122E+02 -0.14248742737E+03 -0.20200394510E+03  0.27744220919E+03  0.12500000000E+03 0.  0.
         25    1    1    2    0    0 -0.81039131954E+02  0.14464612122E+03 -0.12349289955E+03  0.24158919167E+03  0.12500000000E+03 0.  0.
</event>
<event>
 5    0  0.5619558E-005  0.3930113E+03  0.7546771E-02  0.1046227E+00
         21   -1    0    0  502  501  0.00000000000E+00  0.00000000000E+00  0.10152235041E+04  0.10152235041E+04  0.00000000000E+00 0.  1.
         21   -1    0    0  501  502 -0.00000000000E+00 -0.00000000000E+00 -0.15214175296E+03  0.15214175296E+03  0.00000000000E+00 0.  1.
         25    1    1    2    0    0  0.12731503329E+01  0.55285837910E+02  0.95194855020E+02  0.16656892029E+03  0.12500000000E+03 0.  0.
         25    1    1    2    0    0 -0.40894371566E+02  0.13727408130E+03  0.74249723197E+03  0.76644873443E+03  0.12500000000E+03 0.  0.
         25    1    1    2    0    0  0.39621221233E+02 -0.19255991921E+03  0.25389664108E+02  0.23434760230E+03  0.12500000000E+03 0.  0.
</event>
<event>
 5    0  0.5619558E-005  0.3169461E+03  0.7546771E-02  0.1077063E+00
         21   -1    0    0  502  501  0.00000000000E+00  0.00000000000E+00  0.27441146762E+03  0.27441146762E+03  0.00000000000E+00 0.  1.
         21   -1    0    0  501  502 -0.00000000000E+00 -0.00000000000E+00 -0.36607370514E+03  0.36607370514E+03  0.00000000000E+00 0.  1.
         25    1    1    2    0    0  0.90644303532E+00  0.26539539311E+02  0.30082856448E+02  0.13128269893E+03  0.12500000000E+03 0.  0.
         25    1    1    2    0    0  0.14700293127E+03  0.14041345729E+03 -0.64001970485E+02  0.24707701839E+03  0.12500000000E+03 0.  0.
         25    1    1    2    0    0 -0.14790937431E+03 -0.16695299660E+03 -0.57743123480E+02  0.26212545544E+03  0.12500000000E+03 0.  0.
</event>
<event>
 5    0  0.5619558E-005  0.2757807E+03  0.7546771E-02  0.1098016E+00
         21   -1    0    0  502  501  0.00000000000E+00  0.00000000000E+00  0.14303190453E+03  0.14303190453E+03  0.00000000000E+00 0. -1.
         21   -1    0    0  501  502 -0.00000000000E+00 -0.00000000000E+00 -0.53173464580E+03  0.53173464580E+03  0.00000000000E+00 0. -1.
         25    1    1    2    0    0 -0.16023396750E+03  0.40803803672E+02 -0.65420236279E+02  0.21735841840E+03  0.12500000000E+03 0.  0.
         25    1    1    2    0    0  0.62548838808E+02 -0.62704039087E+02 -0.21536434179E+03  0.26429330955E+03  0.12500000000E+03 0.  0.
         25    1    1    2    0    0  0.97685128689E+02  0.21900235415E+02 -0.10791816320E+03  0.19311482239E+03  0.12500000000E+03 0.  0.
</event>
<event>
 5    0  0.5619558E-005  0.2670366E+03  0.7546771E-02  0.1102988E+00
         21   -1    0    0  502  501  0.00000000000E+00  0.00000000000E+00  0.38204937834E+03  0.38204937834E+03  0.00000000000E+00 0. -1.
         21   -1    0    0  501  502 -0.00000000000E+00 -0.00000000000E+00 -0.18664750081E+03  0.18664750081E+03  0.00000000000E+00 0. -1.
         25    1    1    2    0    0 -0.97036815956E+02  0.11562541182E+03  0.80799083589E+02  0.21198790394E+03  0.12500000000E+03 0.  0.
         25    1    1    2    0    0  0.73605965662E+02 -0.66245241637E+01  0.12110638123E+03  0.18908590132E+03  0.12500000000E+03 0.  0.
         25    1    1    2    0    0  0.23430850295E+02 -0.10900088766E+03 -0.65035872900E+01  0.16762307390E+03  0.12500000000E+03 0.  0.
</event>
<event>
 5    0  0.5619558E-005  0.2583518E+03  0.7546771E-02  0.1108138E+00
         21   -1    0    0  502  501  0.00000000000E+00  0.00000000000E+00  0.36826217408E+03  0.36826217408E+03  0.00000000000E+00 0.  1.
         21   -1    0    0  501  502 -0.00000000000E+00 -0.00000000000E+00 -0.18124491623E+03  0.18124491623E+03  0.00000000000E+00 0.  1.
         25    1    1    2    0    0  0.79035889621E+02  0.87988036225E+02  0.61097994784E+02  0.18261032647E+03  0.12500000000E+03 0.  0.
         25    1    1    2    0    0 -0.84967731053E+01  0.47988354713E+02  0.32160220681E+01  0.13420290660E+03  0.12500000000E+03 0.  0.
         25    1    1    2    0    0 -0.70539116515E+02 -0.13597639094E+03  0.12270324100E+03  0.23269385725E+03  0.12500000000E+03 0.  0.
</event>
<event>
 5    0  0.5619558E-005  0.4664388E+03  0.7546771E-02  0.1022930E+00
         21   -1    0    0  502  501  0.00000000000E+00  0.00000000000E+00  0.19080600979E+03  0.19080600979E+03  0.00000000000E+00 0.  1.
         21   -1    0    0  501  502 -0.00000000000E+00 -0.00000000000E+00 -0.11402426915E+04  0.11402426915E+04  0.00000000000E+00 0.  1.
         25    1    1    2    0    0 -0.37304335989E+03 -0.91093369875E+01 -0.25660000852E+03  0.46980090757E+03  0.12500000000E+03 0.  0.
         25    1    1    2    0    0  0.23745631071E+02 -0.12506334811E+02 -0.26719155275E+03  0.29620362804E+03  0.12500000000E+03 0.  0.
         25    1    1    2    0    0  0.34929772882E+03  0.21615671799E+02 -0.42564512045E+03  0.56504416570E+03  0.12500000000E+03 0.  0.
</event>
<event>
 5    0  0.5619558E-005  0.5166845E+03  0.7546771E-02  0.1009513E+00
         21   -1    0    0  502  501  0.00000000000E+00  0.00000000000E+00  0.13289438856E+04  0.13289438856E+04  0.00000000000E+00 0. -1.
         21   -1    0    0  501  502 -0.00000000000E+00 -0.00000000000E+00 -0.20088346893E+03  0.20088346893E+03  0.00000000000E+00 0. -1.
         25    1    1    2    0    0 -0.11615571848E+03 -0.64469517792E+02  0.68402964594E+02  0.19481384762E+03  0.12500000000E+03 0.  0.
         25    1    1    2    0    0  0.74859924741E+02 -0.25620899025E+03  0.91161158216E+03  0.95807501363E+03  0.12500000000E+03 0.  0.
         25    1    1    2    0    0  0.41295793736E+02  0.32067850804E+03  0.14804586987E+03  0.37693849324E+03  0.12500000000E+03 0.  0.
</event>
<event>
 5    0  0.5619558E-005  0.3218252E+03  0.7546771E-02  0.1074812E+00
         21   -1    0    0  502  501  0.00000000000E+00  0.00000000000E+00  0.59880236722E+02  0.59880236722E+02  0.00000000000E+00 0.  1.
         21   -1    0    0  501  502 -0.00000000000E+00 -0.00000000000E+00 -0.17296431972E+04  0.17296431972E+04  0.00000000000E+00 0.  1.
         25    1    1    2    0    0  0.51728767430E+02 -0.27132011573E+02 -0.79467190353E+03  0.80656087538E+03  0.12500000000E+03 0.  0.
         25    1    1    2    0    0  0.58865940996E+02 -0.14970909111E+03 -0.36966965193E+03  0.42208845344E+03  0.12500000000E+03 0.  0.
         25    1    1    2    0    0 -0.11059470843E+03  0.17684110268E+03 -0.50542140506E+03  0.56087410515E+03  0.12500000000E+03 0.  0.
</event>
<event>
 5    0  0.5619558E-005  0.2752233E+03  0.7546771E-02  0.1098327E+00
         21   -1    0    0  502  501  0.00000000000E+00  0.00000000000E+00  0.10111838042E+04  0.10111838042E+04  0.00000000000E+00 0.  1.
         21   -1    0    0  501  502 -0.00000000000E+00 -0.00000000000E+00 -0.74910071676E+02  0.74910071676E+02  0.00000000000E+00 0.  1.
         25    1    1    2    0    0 -0.47894337320E+02 -0.35379139138E+02  0.60754713399E+03  0.62312444267E+03  0.12500000000E+03 0.  0.
         25    1    1    2    0    0 -0.36054908375E+02  0.97983133651E+02  0.15950913864E+03  0.22796669978E+03  0.12500000000E+03 0.  0.
         25    1    1    2    0    0  0.83949245695E+02 -0.62603994513E+02  0.16921745986E+03  0.23500273340E+03  0.12500000000E+03 0.  0.
</event>
<event>
 5    0  0.5619558E-005  0.3004540E+03  0.7546771E-02  0.1085014E+00
         21   -1    0    0  502  501  0.00000000000E+00  0.00000000000E+00  0.56744483796E+03  0.56744483796E+03  0.00000000000E+00 0.  1.
         21   -1    0    0  501  502 -0.00000000000E+00 -0.00000000000E+00 -0.15908618251E+03  0.15908618251E+03  0.00000000000E+00 0.  1.
         25    1    1    2    0    0 -0.48797942068E+02  0.13282361228E+03  0.23718666948E+01  0.18882260691E+03  0.12500000000E+03 0.  0.
         25    1    1    2    0    0  0.75015789586E+02 -0.17478925244E+02  0.30416124139E+03  0.33774538084E+03  0.12500000000E+03 0.  0.
         25    1    1    2    0    0 -0.26217847518E+02 -0.11534468704E+03  0.10182554736E+03  0.19996303271E+03  0.12500000000E+03 0.  0.
</event>
<event>
 5    0  0.5619558E-005  0.2313439E+03  0.7546771E-02  0.1125697E+00
         21   -1    0    0  502  501  0.00000000000E+00  0.00000000000E+00  0.70263987035E+02  0.70263987035E+02  0.00000000000E+00 0.  1.
         21   -1    0    0  501  502 -0.00000000000E+00 -0.00000000000E+00 -0.76169896903E+03  0.76169896903E+03  0.00000000000E+00 0.  1.
         25    1    1    2    0    0 -0.37925195684E+02 -0.12445745035E+02 -0.64235590548E+02  0.14609732417E+03  0.12500000000E+03 0.  0.
         25    1    1    2    0    0  0.50224689143E+02  0.45942614191E+02 -0.26113080735E+03  0.29740131430E+03  0.12500000000E+03 0.  0.
         25    1    1    2    0    0 -0.12299493459E+02 -0.33496869155E+02 -0.36606858410E+03  0.38846431760E+03  0.12500000000E+03 0.  0.
</event>
<event>
 5    0  0.5619558E-005  0.2913348E+03  0.7546771E-02  0.1089654E+00
         21   -1    0    0  502  501  0.00000000000E+00  0.00000000000E+00  0.97195228665E+02  0.97195228665E+02  0.00000000000E+00 0.  1.
         21   -1    0    0  501  502 -0.00000000000E+00 -0.00000000000E+00 -0.87325249696E+03  0.87325249696E+03  0.00000000000E+00 0.  1.
         25    1    1    2    0    0 -0.73251904717E+02 -0.30564173416E+02 -0.12349918248E+03  0.19281353250E+03  0.12500000000E+03 0.  0.
         25    1    1    2    0    0  0.15916037486E+03  0.12738341118E+03 -0.42349903129E+03  0.48634862791E+03  0.12500000000E+03 0.  0.
         25    1    1    2    0    0 -0.85908470145E+02 -0.96819237759E+02 -0.22905905452E+03  0.29128556521E+03  0.12500000000E+03 0.  0.
</event>
<event>
 5    0  0.5619558E-005  0.2536126E+03  0.7546771E-02  0.1111043E+00
         21   -1    0    0  502  501  0.00000000000E+00  0.00000000000E+00  0.21832959032E+04  0.21832959032E+04  0.00000000000E+00 0.  1.
         21   -1    0    0  501  502 -0.00000000000E+00 -0.00000000000E+00 -0.29459743558E+02  0.29459743558E+02  0.00000000000E+00 0.  1.
         25    1    1    2    0    0 -0.44601111733E+02  0.80683528857E+02  0.28918672157E+03  0.32825759843E+03  0.12500000000E+03 0.  0.
         25    1    1    2    0    0  0.65641971129E+01 -0.18565719807E+02  0.97164940968E+03  0.97985475962E+03  0.12500000000E+03 0.  0.
         25    1    1    2    0    0  0.38036914620E+02 -0.62117809051E+02  0.89300002837E+03  0.90464328867E+03  0.12500000000E+03 0.  0.
</event>
<event>
 5    0  0.5619558E-005  0.2577266E+03  0.7546771E-02  0.1108517E+00
         21   -1    0    0  502  501  0.00000000000E+00  0.00000000000E+00  0.34653898900E+02  0.34653898900E+02  0.00000000000E+00 0. -1.
         21   -1    0    0  501  502 -0.00000000000E+00 -0.00000000000E+00 -0.19167545251E+04  0.19167545251E+04  0.00000000000E+00 0. -1.
         25    1    1    2    0    0  0.48649965762E+02  0.67162433802E+01 -0.20638437599E+03  0.24623451778E+03  0.12500000000E+03 0.  0.
         25    1    1    2    0    0  0.47460823454E+02  0.31729945809E+02 -0.50902725230E+03  0.52725047445E+03  0.12500000000E+03 0.  0.
         25    1    1    2    0    0 -0.96110789216E+02 -0.38446189189E+02 -0.11666889979E+04  0.11779234318E+04  0.12500000000E+03 0.  0.
</event>
<event>
 5    0  0.5619558E-005  0.3521845E+03  0.7546771E-02  0.1061722E+00
         21   -1    0    0  502  501  0.00000000000E+00  0.00000000000E+00  0.84683359443E+03  0.84683359443E+03  0.00000000000E+00 0.  1.
         21   -1    0    0  501  502 -0.00000000000E+00 -0.00000000000E+00 -0.14646784164E+03  0.14646784164E+03  0.00000000000E+00 0.  1.
         25    1    1    2    0    0  0.11082511623E+03  0.10621412507E+03  0.58875471455E+03  0.62114471797E+03  0.12500000000E+03 0.  0.
         25    1    1    2    0    0  0.34713888114E+02 -0.77667614908E+02  0.60370432555E+01  0.15132335684E+03  0.12500000000E+03 0.  0.
         25    1    1    2    0    0 -0.14553900435E+03 -0.28546510166E+02  0.10557399499E+03  0.22083336126E+03  0.12500000000E+03 0.  0.
</event>
<event>
 5    0  0.5619558E-005  0.2995906E+03  0.7546771E-02  0.1085445E+00
         21   -1    0    0  502  501  0.00000000000E+00  0.00000000000E+00  0.38050116298E+03  0.38050116298E+03  0.00000000000E+00 0. -1.
         21   -1    0    0  501  502 -0.00000000000E+00 -0.00000000000E+00 -0.23588507838E+03  0.23588507838E+03  0.00000000000E+00 0. -1.
         25    1    1    2    0    0  0.19475379014E+03 -0.37120109904E+02  0.59664386269E+02  0.24185073976E+03  0.12500000000E+03 0.  0.
         25    1    1    2    0    0 -0.17158014449E+03  0.83943851461E+02  0.39742596286E+02  0.23171273194E+03  0.12500000000E+03 0.  0.
         25    1    1    2    0    0 -0.23173645648E+02 -0.46823741556E+02  0.45209102051E+02  0.14282276966E+03  0.12500000000E+03 0.  0.
</event>
<event>
 5    0  0.5619558E-005  0.2403416E+03  0.7546771E-02  0.1119565E+00
         21   -1    0    0  502  501  0.00000000000E+00  0.00000000000E+00  0.10538771814E+03  0.10538771814E+03  0.00000000000E+00 0. -1.
         21   -1    0    0  501  502 -0.00000000000E+00 -0.00000000000E+00 -0.54811042735E+03  0.54811042735E+03  0.00000000000E+00 0. -1.
         25    1    1    2    0    0 -0.32847187857E+02 -0.12093262814E+02 -0.19566513581E+03  0.23480849671E+03  0.12500000000E+03 0.  0.
         25    1    1    2    0    0 -0.48765012518E+02 -0.85327170888E+02 -0.10249094079E+03  0.18917755015E+03  0.12500000000E+03 0.  0.
         25    1    1    2    0    0  0.81612200374E+02  0.97420433702E+02 -0.14456663260E+03  0.22951209862E+03  0.12500000000E+03 0.  0.
</event>
<event>
 5    0  0.5619558E-005  0.3031325E+03  0.7546771E-02  0.1083685E+00
         21   -1    0    0  502  501  0.00000000000E+00  0.00000000000E+00  0.34492510482E+03  0.34492510482E+03  0.00000000000E+00 0.  1.
         21   -1    0    0  501  502 -0.00000000000E+00 -0.00000000000E+00 -0.26640364076E+03  0.26640364076E+03  0.00000000000E+00 0.  1.
         25    1    1    2    0    0 -0.17667243623E+00  0.10929854338E+03 -0.58015568113E+02  0.17588919507E+03  0.12500000000E+03 0.  0.
         25    1    1    2    0    0  0.60034349455E+02  0.22338291832E+02  0.19063169706E+03  0.23678801980E+03  0.12500000000E+03 0.  0.
         25    1    1    2    0    0 -0.59857677018E+02 -0.13163683521E+03 -0.54094664886E+02  0.19865153071E+03  0.12500000000E+03 0.  0.
</event>
<event>
 5    0  0.5619558E-005  0.3405097E+03  0.7546771E-02  0.1066579E+00
         21   -1    0    0  502  501  0.00000000000E+00  0.00000000000E+00  0.10034693643E+04  0.10034693643E+04  0.00000000000E+00 0. -1.
         21   -1    0    0  501  502 -0.00000000000E+00 -0.00000000000E+00 -0.11554595971E+03  0.11554595971E+03  0.00000000000E+00 0. -1.
         25    1    1    2    0    0  0.20077310937E+02  0.12249787702E+03  0.68365639374E+03  0.70598859268E+03  0.12500000000E+03 0.  0.
         25    1    1    2    0    0 -0.10321957161E+03 -0.12114841199E+03  0.78110030693E+02  0.21692716424E+03  0.12500000000E+03 0.  0.
         25    1    1    2    0    0  0.83142260671E+02 -0.13494650277E+01  0.12615698013E+03  0.19609956706E+03  0.12500000000E+03 0.  0.
</event>
<event>
 5    0  0.5619558E-005  0.3278397E+03  0.7546771E-02  0.1072097E+00
         21   -1    0    0  502  501  0.00000000000E+00  0.00000000000E+00  0.73578960524E+03  0.73578960524E+03  0.00000000000E+00 0.  1.
         21   -1    0    0  501  502 -0.00000000000E+00 -0.00000000000E+00 -0.14607284734E+03  0.14607284734E+03  0.00000000000E+00 0.  1.
         25    1    1    2    0    0 -0.57098740571E+02 -0.17456780558E+02  0.54517346469E+02  0.14886956179E+03  0.12500000000E+03 0.  0.
         25    1    1    2    0    0  0.16496829264E+02  0.12751682408E+03  0.53213667105E+03  0.56153995626E+03  0.12500000000E+03 0.  0.
         25    1    1    2    0    0  0.40601911307E+02 -0.11006004352E+03  0.30627403834E+01  0.17145293454E+03  0.12500000000E+03 0.  0.
</event>
<event>
 5    0  0.5619558E-005  0.3758820E+03  0.7546771E-02  0.1052466E+00
         21   -1    0    0  502  501  0.00000000000E+00  0.00000000000E+00  0.29390550309E+03  0.29390550309E+03  0.00000000000E+00 0. -1.
         21   -1    0    0  501  502 -0.00000000000E+00 -0.00000000000E+00 -0.48072347894E+03  0.48072347894E+03  0.00000000000E+00 0. -1.
         25    1    1    2    0    0  0.24956355266E+02  0.34132448078E+02  0.51358816771E+02  0.14160004146E+03  0.12500000000E+03 0.  0.
         25    1    1    2    0    0 -0.22226593259E+03  0.14066536398E+03 -0.84224116377E+02  0.30316264808E+03  0.12500000000E+03 0.  0.
         25    1    1    2    0    0  0.19730957732E+03 -0.17479781206E+03 -0.15395267624E+03  0.32986629250E+03  0.12500000000E+03 0.  0.
</event>
<event>
 5    0  0.5619558E-005  0.4357615E+03  0.7546771E-02  0.1032055E+00
         21   -1    0    0  502  501  0.00000000000E+00  0.00000000000E+00  0.11020006780E+03  0.11020006780E+03  0.00000000000E+00 0.  1.
         21   -1    0    0  501  502 -0.00000000000E+00 -0.00000000000E+00 -0.17231209245E+04  0.17231209245E+04  0.00000000000E+00 0.  1.
         25    1    1    2    0    0  0.29357991039E+01  0.29277392489E+03 -0.28741565942E+03  0.42890319571E+03  0.12500000000E+03 0.  0.
         25    1    1    2    0    0 -0.12245952036E+03 -0.20432768805E+03 -0.81170237660E+03  0.85512097764E+03  0.12500000000E+03 0.  0.
         25    1    1    2    0    0  0.11952372126E+03 -0.88446236845E+02 -0.51380282073E+03  0.54929681898E+03  0.12500000000E+03 0.  0.
</event>
<event>
 5    0  0.5619558E-005  0.3171690E+03  0.7546771E-02  0.1076960E+00
         21   -1    0    0  502  501  0.00000000000E+00  0.00000000000E+00  0.98027536792E+03  0.98027536792E+03  0.00000000000E+00 0.  1.
         21   -1    0    0  501  502 -0.00000000000E+00 -0.00000000000E+00 -0.10262034739E+03  0.10262034739E+03  0.00000000000E+00 0.  1.
         25    1    1    2    0    0 -0.10557117339E+03  0.10539981732E+03  0.62868931227E+03  0.65812585841E+03  0.12500000000E+03 0.  0.
         25    1    1    2    0    0  0.14543377953E+03 -0.76529935357E+02  0.17918722177E+03  0.27338777529E+03  0.12500000000E+03 0.  0.
         25    1    1    2    0    0 -0.39862606141E+02 -0.28869881967E+02  0.69778486487E+02  0.15138208160E+03  0.12500000000E+03 0.  0.
</event>
<event>
 5    0  0.5619558E-005  0.3320440E+03  0.7546771E-02  0.1070236E+00
         21   -1    0    0  502  501  0.00000000000E+00  0.00000000000E+00  0.51830830308E+03  0.51830830308E+03  0.00000000000E+00 0. -1.
         21   -1    0    0  501  502 -0.00000000000E+00 -0.00000000000E+00 -0.21271750267E+03  0.21271750267E+03  0.00000000000E+00 0. -1.
         25    1    1    2    0    0 -0.56564831098E+02  0.34732045983E+02  0.63056087654E+02  0.15494181271E+03  0.12500000000E+03 0.  0.
         25    1    1    2    0    0  0.68563244038E+02 -0.16332884642E+03  0.31490830234E+03  0.38232116001E+03  0.12500000000E+03 0.  0.
         25    1    1    2    0    0 -0.11998412940E+02  0.12859680044E+03 -0.72373589591E+02  0.19376283304E+03  0.12500000000E+03 0.  0.
</event>
<event>
 5    0  0.5619558E-005  0.2364727E+03  0.7546771E-02  0.1122165E+00
         21   -1    0    0  502  501  0.00000000000E+00  0.00000000000E+00  0.62569958363E+02  0.62569958363E+02  0.00000000000E+00 0. -1.
         21   -1    0    0  501  502 -0.00000000000E+00 -0.00000000000E+00 -0.89370912867E+03  0.89370912867E+03  0.00000000000E+00 0. -1.
         25    1    1    2    0    0 -0.12373067542E+02  0.22254333709E+02 -0.37558474740E+03  0.39665759875E+03  0.12500000000E+03 0.  0.
         25    1    1    2    0    0 -0.92133295313E+02  0.20174163495E+02 -0.22563667188E+03  0.27464968355E+03  0.12500000000E+03 0.  0.
         25    1    1    2    0    0  0.10450636285E+03 -0.42428497204E+02 -0.22991775103E+03  0.28497180473E+03  0.12500000000E+03 0.  0.
</event>
<event>
 5    0  0.5619558E-005  0.2672321E+03  0.7546771E-02  0.1102874E+00
         21   -1    0    0  502  501  0.00000000000E+00  0.00000000000E+00  0.10431279882E+03  0.10431279882E+03  0.00000000000E+00 0. -1.
         21   -1    0    0  501  502 -0.00000000000E+00 -0.00000000000E+00 -0.68460459978E+03  0.68460459978E+03  0.00000000000E+00 0. -1.
         25    1    1    2    0    0  0.43812772143E+02  0.82731365656E+02 -0.43689107830E+03  0.46396427898E+03  0.12500000000E+03 0.  0.
         25    1    1    2    0    0 -0.68832939280E+01  0.13591979737E+02 -0.37651665242E+02  0.13143351758E+03  0.12500000000E+03 0.  0.
         25    1    1    2    0    0 -0.36929478215E+02 -0.96323345393E+02 -0.10574905742E+03  0.19351960204E+03  0.12500000000E+03 0.  0.
</event>
<event>
 5    0  0.5619558E-005  0.5677953E+03  0.7546771E-02  0.9974569E-01
         21   -1    0    0  502  501  0.00000000000E+00  0.00000000000E+00  0.21430947419E+04  0.21430947419E+04  0.00000000000E+00 0.  1.
         21   -1    0    0  501  502 -0.00000000000E+00 -0.00000000000E+00 -0.15043268672E+03  0.15043268672E+03  0.00000000000E+00 0.  1.
         25    1    1    2    0    0  0.15631997168E+02  0.81182030631E+02  0.84732342022E+02  0.17216111994E+03  0.12500000000E+03 0.  0.
         25    1    1    2    0    0  0.22402887973E+03  0.23858455134E+03  0.14867769248E+04  0.15274953850E+04  0.12500000000E+03 0.  0.
         25    1    1    2    0    0 -0.23966087690E+03 -0.31976658197E+03  0.42115278837E+03  0.59387092370E+03  0.12500000000E+03 0.  0.
</event>
<event>
 5    0  0.5619558E-005  0.2889551E+03  0.7546771E-02  0.1090896E+00
         21   -1    0    0  502  501  0.00000000000E+00  0.00000000000E+00  0.68319762876E+02  0.68319762876E+02  0.00000000000E+00 0. -1.
         21   -1    0    0  501  502 -0.00000000000E+00 -0.00000000000E+00 -0.12221210771E+04  0.12221210771E+04  0.00000000000E+00 0. -1.
         25    1    1    2    0    0  0.89073012522E+02  0.11887237194E+03 -0.28629165237E+03  0.34590830083E+03  0.12500000000E+03 0.  0.
         25    1    1    2    0    0  0.73698718618E+02 -0.51081454798E+02 -0.42674235236E+03  0.45362413014E+03  0.12500000000E+03 0.  0.
         25    1    1    2    0    0 -0.16277173114E+03 -0.67790917142E+02 -0.44076730950E+03  0.49090840901E+03  0.12500000000E+03 0.  0.
</event>
<event>
 5    0  0.5619558E-005  0.3989074E+03  0.7546771E-02  0.1044159E+00
         21   -1    0    0  502  501  0.00000000000E+00  0.00000000000E+00  0.11303899695E+03  0.11303899695E+03  0.00000000000E+00 0. -1.
         21   -1    0    0  501  502 -0.00000000000E+00 -0.00000000000E+00 -0.14077188055E+04  0.14077188055E+04  0.00000000000E+00 0. -1.
         25    1    1    2    0    0 -0.99921206795E+02  0.95093733490E+02 -0.80966560712E+03  0.83078905931E+03  0.12500000000E+03 0.  0.
         25    1    1    2    0    0 -0.14210400600E+03 -0.10820803403E+03 -0.21332566552E+03  0.30501699415E+03  0.12500000000E+03 0.  0.
         25    1    1    2    0    0  0.24202521280E+03  0.13114300536E+02 -0.27168853594E+03  0.38495174901E+03  0.12500000000E+03 0.  0.
</event>
<event>
 5    0  0.7034833E-005  0.4257105E+03  0.7546771E-02  0.1035224E+00
         21   -1    0    0  502  501  0.00000000000E+00  0.00000000000E+00  0.73928415557E+03  0.73928415557E+03  0.00000000000E+00 0.  1.
         21   -1    0    0  501  502 -0.00000000000E+00 -0.00000000000E+00 -0.24514172183E+03  0.24514172183E+03  0.00000000000E+00 0.  1.
         25    1    1    2    0    0 -0.12243790042E+03  0.19754122595E+03 -0.17951637312E+02  0.26450110905E+03  0.12500000000E+03 0.  0.
         25    1    1    2    0    0  0.19302057793E+03 -0.16472295340E+03  0.13170609350E+03  0.31202898895E+03  0.12500000000E+03 0.  0.
         25    1    1    2    0    0 -0.70582677513E+02 -0.32818272554E+02  0.38038797755E+03  0.40789577939E+03  0.12500000000E+03 0.  0.
</event>
<event>
 5    0  0.5619558E-005  0.3352284E+03  0.7546771E-02  0.1068847E+00
         21   -1    0    0  502  501  0.00000000000E+00  0.00000000000E+00  0.81273492909E+03  0.81273492909E+03  0.00000000000E+00 0. -1.
         21   -1    0    0  501  502 -0.00000000000E+00 -0.00000000000E+00 -0.13827148660E+03  0.13827148660E+03  0.00000000000E+00 0. -1.
         25    1    1    2    0    0  0.14224179222E+03 -0.70254822759E+01 -0.23021262025E+02  0.19088494796E+03  0.12500000000E+03 0.  0.
         25    1    1    2    0    0 -0.92708098320E+02  0.45776618004E+02  0.37151529266E+03  0.40538734925E+03  0.12500000000E+03 0.  0.
         25    1    1    2    0    0 -0.49533693897E+02 -0.38751135728E+02  0.32596941184E+03  0.35473411847E+03  0.12500000000E+03 0.  0.
</event>
<event>
 5    0  0.5619558E-005  0.9731181E+03  0.7546771E-02  0.9338530E-01
         21   -1    0    0  502  501  0.00000000000E+00  0.00000000000E+00  0.81977163411E+03  0.81977163411E+03  0.00000000000E+00 0. -1.
         21   -1    0    0  501  502 -0.00000000000E+00 -0.00000000000E+00 -0.11551494481E+04  0.11551494481E+04  0.00000000000E+00 0. -1.
         25    1    1    2    0    0  0.17742754580E+03  0.66261949618E+02  0.45238356111E+03  0.50610973744E+03  0.12500000000E+03 0.  0.
         25    1    1    2    0    0 -0.30943535194E+03 -0.55217708715E+02 -0.10759619876E+04  0.11278822772E+04  0.12500000000E+03 0.  0.
         25    1    1    2    0    0  0.13200780614E+03 -0.11044240904E+02  0.28820061246E+03  0.34092906764E+03  0.12500000000E+03 0.  0.
</event>
<event>
 5    0  0.5619558E-005  0.4854474E+03  0.7546771E-02  0.1017649E+00
         21   -1    0    0  502  501  0.00000000000E+00  0.00000000000E+00  0.11512288114E+04  0.11512288114E+04  0.00000000000E+00 0. -1.
         21   -1    0    0  501  502 -0.00000000000E+00 -0.00000000000E+00 -0.20470226461E+03  0.20470226461E+03  0.00000000000E+00 0. -1.
         25    1    1    2    0    0  0.10927464477E+03  0.31218862794E+03  0.19572396484E+03  0.40414794051E+03  0.12500000000E+03 0.  0.
         25    1    1    2    0    0  0.13038083909E+03 -0.26622193813E+02  0.32075110996E+03  0.36907205116E+03  0.12500000000E+03 0.  0.
         25    1    1    2    0    0 -0.23965548387E+03 -0.28556643412E+03  0.43005147195E+03  0.58271108431E+03  0.12500000000E+03 0.  0.
</event>
<event>
 5    0  0.5619558E-005  0.4150638E+03  0.7546771E-02  0.1038685E+00
         21   -1    0    0  502  501  0.00000000000E+00  0.00000000000E+00  0.68512449938E+03  0.68512449938E+03  0.00000000000E+00 0.  1.
         21   -1    0    0  501  502 -0.00000000000E+00 -0.00000000000E+00 -0.25145500475E+03  0.25145500475E+03  0.00000000000E+00 0.  1.
         25    1    1    2    0    0  0.11466208103E+03  0.20523310823E+03  0.58758939234E+02  0.27266395889E+03  0.12500000000E+03 0.  0.
         25    1    1    2    0    0  0.14160987536E+03 -0.25763201466E+02  0.52833614308E+02  0.19782186469E+03  0.12500000000E+03 0.  0.
         25    1    1    2    0    0 -0.25627195639E+03 -0.17946990676E+03  0.32207694108E+03  0.46609368054E+03  0.12500000000E+03 0.  0.
</event>
<event>
 5    0  0.5619558E-005  0.3430171E+03  0.7546771E-02  0.1065518E+00
         21   -1    0    0  502  501  0.00000000000E+00  0.00000000000E+00  0.13392457586E+03  0.13392457586E+03  0.00000000000E+00 0.  1.
         21   -1    0    0  501  502 -0.00000000000E+00 -0.00000000000E+00 -0.87855986799E+03  0.87855986799E+03  0.00000000000E+00 0.  1.
         25    1    1    2    0    0  0.16944243160E+02  0.21015994585E+03 -0.26921447669E+03  0.36408205761E+03  0.12500000000E+03 0.  0.
         25    1    1    2    0    0  0.27932657825E+02  0.41474042515E+02 -0.25544876515E+03  0.28875491544E+03  0.12500000000E+03 0.  0.
         25    1    1    2    0    0 -0.44876900985E+02 -0.25163398836E+03 -0.21997205029E+03  0.35964747080E+03  0.12500000000E+03 0.  0.
</event>
<event>
 5    0  0.5619558E-005  0.2893818E+03  0.7546771E-02  0.1090672E+00
         21   -1    0    0  502  501  0.00000000000E+00  0.00000000000E+00  0.92347907811E+02  0.92347907811E+02  0.00000000000E+00 0. -1.
         21   -1    0    0  501  502 -0.00000000000E+00 -0.00000000000E+00 -0.90680827757E+03  0.90680827757E+03  0.00000000000E+00 0. -1.
         25    1    1    2    0    0 -0.78537128089E+02 -0.15202105609E+03 -0.22167645863E+03  0.30666583490E+03  0.12500000000E+03 0.  0.
         25    1    1    2    0    0  0.65532639412E+02  0.51016103079E+02 -0.45922307473E+03  0.48312317474E+03  0.12500000000E+03 0.  0.
         25    1    1    2    0    0  0.13004488677E+02  0.10100495301E+03 -0.13356083639E+03  0.20936717574E+03  0.12500000000E+03 0.  0.
</event>
<event>
 5    0  0.5619558E-005  0.3023913E+03  0.7546771E-02  0.1084051E+00
         21   -1    0    0  502  501  0.00000000000E+00  0.00000000000E+00  0.26500795752E+02  0.26500795752E+02  0.00000000000E+00 0. -1.
         21   -1    0    0  501  502 -0.00000000000E+00 -0.00000000000E+00 -0.34504805336E+04  0.34504805336E+04  0.00000000000E+00 0. -1.
         25    1    1    2    0    0  0.10024514322E+03 -0.13150006839E+02 -0.46045498473E+03  0.48771488021E+03  0.12500000000E+03 0.  0.
         25    1    1    2    0    0  0.29571627780E+02 -0.80025969515E+02 -0.67455038652E+03  0.69131892851E+03  0.12500000000E+03 0.  0.
         25    1    1    2    0    0 -0.12981677100E+03  0.93175976354E+02 -0.22889743666E+04  0.22979475207E+04  0.12500000000E+03 0.  0.
</event>
<event>
 5    0  0.5619558E-005  0.3666322E+03  0.7546771E-02  0.1055988E+00
         21   -1    0    0  502  501  0.00000000000E+00  0.00000000000E+00  0.10413052136E+03  0.10413052136E+03  0.00000000000E+00 0.  1.
         21   -1    0    0  501  502 -0.00000000000E+00 -0.00000000000E+00 -0.12908719939E+04  0.12908719939E+04  0.00000000000E+00 0.  1.
         25    1    1    2    0    0 -0.15813563106E+03  0.45359523109E+02 -0.12187614014E+03  0.23988154927E+03  0.12500000000E+03 0.  0.
         25    1    1    2    0    0 -0.32544544423E+02  0.10312952971E+03 -0.28898520244E+03  0.33291484572E+03  0.12500000000E+03 0.  0.
         25    1    1    2    0    0  0.19068017548E+03 -0.14848905282E+03 -0.77588012994E+03  0.82220612024E+03  0.12500000000E+03 0.  0.
</event>
<event>
 5    0  0.5619558E-005  0.2548486E+03  0.7546771E-02  0.1110278E+00
         21   -1    0    0  502  501  0.00000000000E+00  0.00000000000E+00  0.63000784096E+03  0.63000784096E+03  0.00000000000E+00 0. -1.
         21   -1    0    0  501  502 -0.00000000000E+00 -0.00000000000E+00 -0.10309051506E+03  0.10309051506E+03  0.00000000000E+00 0. -1.
         25    1    1    2    0    0 -0.10206590369E+03  0.43331595197E+02  0.98717401569E+02  0.19407524626E+03  0.12500000000E+03 0.  0.
         25    1    1    2    0    0  0.87316040331E+02 -0.67357577373E+02  0.35317284069E+03  0.39053449212E+03  0.12500000000E+03 0.  0.
         25    1    1    2    0    0  0.14749863362E+02  0.24025982176E+02  0.75027083639E+02  0.14848861764E+03  0.12500000000E+03 0.  0.
</event>
<event>
 5    0  0.5619558E-005  0.2460518E+03  0.7546771E-02  0.1115826E+00
         21   -1    0    0  502  501  0.00000000000E+00  0.00000000000E+00  0.15982942932E+04  0.15982942932E+04  0.00000000000E+00 0. -1.
         21   -1    0    0  501  502 -0.00000000000E+00 -0.00000000000E+00 -0.37878799001E+02  0.37878799001E+02  0.00000000000E+00 0. -1.
         25    1    1    2    0    0  0.35092850276E+02  0.65567996541E+00  0.74825257943E+03  0.75943324965E+03  0.12500000000E+03 0.  0.
         25    1    1    2    0    0 -0.29364609502E+02  0.77126936880E+02  0.60014558197E+03  0.61855522328E+03  0.12500000000E+03 0.  0.
         25    1    1    2    0    0 -0.57282407735E+01 -0.77782616845E+02  0.21201733285E+03  0.25818461932E+03  0.12500000000E+03 0.  0.
</event>
<event>
 5    0  0.5619558E-005  0.4268563E+03  0.7546771E-02  0.1034858E+00
         21   -1    0    0  502  501  0.00000000000E+00  0.00000000000E+00  0.33950098669E+03  0.33950098669E+03  0.00000000000E+00 0. -1.
         21   -1    0    0  501  502 -0.00000000000E+00 -0.00000000000E+00 -0.53668855661E+03  0.53668855661E+03  0.00000000000E+00 0. -1.
         25    1    1    2    0    0  0.36738014104E+02 -0.16582525678E+03 -0.43276251292E+03  0.48141052134E+03  0.12500000000E+03 0.  0.
         25    1    1    2    0    0 -0.24409807380E+02  0.35463127319E+02  0.12896991366E+03  0.18469355897E+03  0.12500000000E+03 0.  0.
         25    1    1    2    0    0 -0.12328206724E+02  0.13036212946E+03  0.10660502935E+03  0.21008546299E+03  0.12500000000E+03 0.  0.
</event>
<event>
 5    0  0.5619558E-005  0.3303707E+03  0.7546771E-02  0.1070973E+00
         21   -1    0    0  502  501  0.00000000000E+00  0.00000000000E+00  0.84060850093E+02  0.84060850093E+02  0.00000000000E+00 0.  1.
         21   -1    0    0  501  502 -0.00000000000E+00 -0.00000000000E+00 -0.12984018910E+04  0.12984018910E+04  0.00000000000E+00 0.  1.
         25    1    1    2    0    0  0.35660148639E+02  0.13415375149E+03 -0.17657017538E+03  0.25704260751E+03  0.12500000000E+03 0.  0.
         25    1    1    2    0    0  0.11101888798E+03 -0.11287477954E+03 -0.29230178166E+03  0.35514960356E+03  0.12500000000E+03 0.  0.
         25    1    1    2    0    0 -0.14667903662E+03 -0.21278971951E+02 -0.74546908388E+03  0.77027053004E+03  0.12500000000E+03 0.  0.
</event>
<event>
 5    0  0.6071146E-005  0.3575064E+03  0.7546771E-02  0.1059576E+00
         21   -1    0    0  502  501  0.00000000000E+00  0.00000000000E+00  0.93398120540E+03  0.93398120540E+03  0.00000000000E+00 0. -1.
         21   -1    0    0  501  502 -0.00000000000E+00 -0.00000000000E+00 -0.13684518691E+03  0.13684518691E+03  0.00000000000E+00 0. -1.
         25    1    1    2    0    0 -0.65492174800E+02 -0.12835993150E+03  0.23152051285E+03  0.29998707446E+03  0.12500000000E+03 0.  0.
         25    1    1    2    0    0  0.12735686107E+03 -0.91455371384E+02  0.43627454596E+03  0.48015032486E+03  0.12500000000E+03 0.  0.
         25    1    1    2    0    0 -0.61864686270E+02  0.21981530289E+03  0.12934095968E+03  0.29068899298E+03  0.12500000000E+03 0.  0.
</event>
<event>
 5    0  0.5619558E-005  0.3436985E+03  0.7546771E-02  0.1065232E+00
         21   -1    0    0  502  501  0.00000000000E+00  0.00000000000E+00  0.85934032137E+03  0.85934032137E+03  0.00000000000E+00 0. -1.
         21   -1    0    0  501  502 -0.00000000000E+00 -0.00000000000E+00 -0.13746432982E+03  0.13746432982E+03  0.00000000000E+00 0. -1.
         25    1    1    2    0    0  0.78868550109E+02 -0.19948275310E+03  0.42177627932E+03  0.48942195167E+03  0.12500000000E+03 0.  0.
         25    1    1    2    0    0 -0.82611781191E+02  0.26454153641E+02  0.17420909434E+02  0.15314377794E+03  0.12500000000E+03 0.  0.
         25    1    1    2    0    0  0.37432310824E+01  0.17302859946E+03  0.28267880280E+03  0.35423892158E+03  0.12500000000E+03 0.  0.
</event>
<event>
 5    0  0.5619558E-005  0.3799071E+03  0.7546771E-02  0.1050968E+00
         21   -1    0    0  502  501  0.00000000000E+00  0.00000000000E+00  0.55950743933E+02  0.55950743933E+02  0.00000000000E+00 0. -1.
         21   -1    0    0  501  502 -0.00000000000E+00 -0.00000000000E+00 -0.25795792932E+04  0.25795792932E+04  0.00000000000E+00 0. -1.
         25    1    1    2    0    0  0.67870586156E+02  0.83190294460E+02 -0.38243994435E+03  0.41642808814E+03  0.12500000000E+03 0.  0.
         25    1    1    2    0    0 -0.24518131923E+03 -0.14035479532E+03 -0.16558149829E+04  0.16843876054E+04  0.12500000000E+03 0.  0.
         25    1    1    2    0    0  0.17731073308E+03  0.57164500862E+02 -0.48537362208E+03  0.53471434358E+03  0.12500000000E+03 0.  0.
</event>
<event>
 5    0  0.5619558E-005  0.3229817E+03  0.7546771E-02  0.1074285E+00
         21   -1    0    0  502  501  0.00000000000E+00  0.00000000000E+00  0.12110875189E+04  0.12110875189E+04  0.00000000000E+00 0.  1.
         21   -1    0    0  501  502 -0.00000000000E+00 -0.00000000000E+00 -0.86135121881E+02  0.86135121881E+02  0.00000000000E+00 0.  1.
         25    1    1    2    0    0 -0.18097419125E+03 -0.12986720845E+02  0.62202683557E+03  0.65989597437E+03  0.12500000000E+03 0.  0.
         25    1    1    2    0    0  0.28219649433E+02  0.84768394667E+02  0.33452958924E+03  0.36812643946E+03  0.12500000000E+03 0.  0.
         25    1    1    2    0    0  0.15275454182E+03 -0.71781673822E+02  0.16839597223E+03  0.26920022698E+03  0.12500000000E+03 0.  0.
</event>
<event>
 5    0  0.5619558E-005  0.3823484E+03  0.7546771E-02  0.1050069E+00
         21   -1    0    0  502  501  0.00000000000E+00  0.00000000000E+00  0.10949741562E+03  0.10949741562E+03  0.00000000000E+00 0. -1.
         21   -1    0    0  501  502 -0.00000000000E+00 -0.00000000000E+00 -0.13351025270E+04  0.13351025270E+04  0.00000000000E+00 0. -1.
         25    1    1    2    0    0 -0.19001311325E+03  0.90682627132E+02 -0.81503981480E+03  0.85102480679E+03  0.12500000000E+03 0.  0.
         25    1    1    2    0    0  0.11922977370E+03 -0.18668762925E+03 -0.26899697323E+03  0.37020586362E+03  0.12500000000E+03 0.  0.
         25    1    1    2    0    0  0.70783339544E+02  0.96005002123E+02 -0.14156832335E+03  0.22336927220E+03  0.12500000000E+03 0.  0.
</event>
<event>
 5    0  0.5619558E-005  0.2708863E+03  0.7546771E-02  0.1100773E+00
         21   -1    0    0  502  501  0.00000000000E+00  0.00000000000E+00  0.15731857813E+04  0.15731857813E+04  0.00000000000E+00 0.  1.
         21   -1    0    0  501  502 -0.00000000000E+00 -0.00000000000E+00 -0.46643817703E+02  0.46643817703E+02  0.00000000000E+00 0.  1.
         25    1    1    2    0    0 -0.44131459613E+02  0.68217687428E+02  0.37685655423E+03  0.40527410609E+03  0.12500000000E+03 0.  0.
         25    1    1    2    0    0 -0.39617556850E+02  0.93577710582E+01  0.14505609446E+03  0.19576360548E+03  0.12500000000E+03 0.  0.
         25    1    1    2    0    0  0.83749016463E+02 -0.77575458486E+02  0.10046293149E+04  0.10187918875E+04  0.12500000000E+03 0.  0.
</event>
<event>
 5    0  0.5619558E-005  0.3034866E+03  0.7546771E-02  0.1083511E+00
         21   -1    0    0  502  501  0.00000000000E+00  0.00000000000E+00  0.64724960275E+02  0.64724960275E+02  0.00000000000E+00 0. -1.
         21   -1    0    0  501  502 -0.00000000000E+00 -0.00000000000E+00 -0.14230078166E+04  0.14230078166E+04  0.00000000000E+00 0. -1.
         25    1    1    2    0    0 -0.31038688511E+01 -0.28367490387E+02 -0.47587229751E+03  0.49284256315E+03  0.12500000000E+03 0.  0.
         25    1    1    2    0    0  0.41780123661E+01  0.13756751181E+03 -0.13627988416E+03  0.23052002715E+03  0.12500000000E+03 0.  0.
         25    1    1    2    0    0 -0.10741435150E+01 -0.10920002142E+03 -0.74613067462E+03  0.76437018654E+03  0.12500000000E+03 0.  0.
</event>
<event>
 5    0  0.5965858E-005  0.2813672E+03  0.7546771E-02  0.1094945E+00
         21   -1    0    0  502  501  0.00000000000E+00  0.00000000000E+00  0.36527475330E+03  0.36527475330E+03  0.00000000000E+00 0. -1.
         21   -1    0    0  501  502 -0.00000000000E+00 -0.00000000000E+00 -0.21673413691E+03  0.21673413691E+03  0.00000000000E+00 0. -1.
         25    1    1    2    0    0 -0.68543870338E+02  0.87343437300E+02  0.16665662869E+02  0.16801750658E+03  0.12500000000E+03 0.  0.
         25    1    1    2    0    0  0.28906604157E+02 -0.16991726691E+03  0.37974182548E+01  0.21294809166E+03  0.12500000000E+03 0.  0.
         25    1    1    2    0    0  0.39637266181E+02  0.82573829609E+02  0.12807753526E+03  0.20104329197E+03  0.12500000000E+03 0.  0.
</event>
<event>
 5    0  0.5619558E-005  0.2804559E+03  0.7546771E-02  0.1095440E+00
         21   -1    0    0  502  501  0.00000000000E+00  0.00000000000E+00  0.69204054002E+02  0.69204054002E+02  0.00000000000E+00 0. -1.
         21   -1    0    0  501  502 -0.00000000000E+00 -0.00000000000E+00 -0.11365735129E+04  0.11365735129E+04  0.00000000000E+00 0. -1.
         25    1    1    2    0    0 -0.59065436689E+01  0.23323995511E+02 -0.49760016682E+03  0.51362420313E+03  0.12500000000E+03 0.  0.
         25    1    1    2    0    0 -0.24955376416E+02 -0.42811629176E+02 -0.31161894782E+02  0.13802778739E+03  0.12500000000E+03 0.  0.
         25    1    1    2    0    0  0.30861920085E+02  0.19487633665E+02 -0.53860739725E+03  0.55412557634E+03  0.12500000000E+03 0.  0.
</event>
<event>
 5    0  0.5619558E-005  0.3761851E+03  0.7546771E-02  0.1052353E+00
         21   -1    0    0  502  501  0.00000000000E+00  0.00000000000E+00  0.26176037241E+03  0.26176037241E+03  0.00000000000E+00 0. -1.
         21   -1    0    0  501  502 -0.00000000000E+00 -0.00000000000E+00 -0.54062897056E+03  0.54062897056E+03  0.00000000000E+00 0. -1.
         25    1    1    2    0    0  0.93108946593E+01  0.91110858215E+02 -0.44114214682E+03  0.46756740150E+03  0.12500000000E+03 0.  0.
         25    1    1    2    0    0  0.48314951051E+02 -0.60382004313E+02  0.11309674906E+03  0.18546211362E+03  0.12500000000E+03 0.  0.
         25    1    1    2    0    0 -0.57625845710E+02 -0.30728853902E+02  0.49176799604E+02  0.14935982785E+03  0.12500000000E+03 0.  0.
</event>
<event>
 5    0  0.5619558E-005  0.2989986E+03  0.7546771E-02  0.1085742E+00
         21   -1    0    0  502  501  0.00000000000E+00  0.00000000000E+00  0.26926946447E+03  0.26926946447E+03  0.00000000000E+00 0. -1.
         21   -1    0    0  501  502 -0.00000000000E+00 -0.00000000000E+00 -0.33201012802E+03  0.33201012802E+03  0.00000000000E+00 0. -1.
         25    1    1    2    0    0  0.36847737953E+02 -0.10547150857E+03  0.33944182298E+02  0.17105321518E+03  0.12500000000E+03 0.  0.
         25    1    1    2    0    0 -0.11554942084E+03 -0.74977406597E+02 -0.44917737585E+02  0.19135277188E+03  0.12500000000E+03 0.  0.
         25    1    1    2    0    0  0.78701682888E+02  0.18044891516E+03 -0.51767108272E+02  0.23887360543E+03  0.12500000000E+03 0.  0.
</event>
<event>
 5    0  0.5619558E-005  0.3692295E+03  0.7546771E-02  0.1054988E+00
         21   -1    0    0  502  501  0.00000000000E+00  0.00000000000E+00  0.17888844060E+04  0.17888844060E+04  0.00000000000E+00 0. -1.
         21   -1    0    0  501  502 -0.00000000000E+00 -0.00000000000E+00 -0.76209754106E+02  0.76209754106E+02  0.00000000000E+00 0. -1.
         25    1    1    2    0    0 -0.23005741095E+03  0.10592394832E+03  0.33718516890E+03  0.43984671567E+03  0.12500000000E+03 0.  0.
         25    1    1    2    0    0  0.10215294249E+03  0.67938555425E+01  0.62588873252E+03  0.64640783228E+03  0.12500000000E+03 0.  0.
         25    1    1    2    0    0  0.12790446846E+03 -0.11271780386E+03  0.74960075049E+03  0.77883961218E+03  0.12500000000E+03 0.  0.
</event>
<event>
 5    0  0.5762744E-005  0.2937508E+03  0.7546771E-02  0.1088407E+00
         21   -1    0    0  502  501  0.00000000000E+00  0.00000000000E+00  0.65007621037E+03  0.65007621037E+03  0.00000000000E+00 0.  1.
         21   -1    0    0  501  502 -0.00000000000E+00 -0.00000000000E+00 -0.13273759580E+03  0.13273759580E+03  0.00000000000E+00 0.  1.
         25    1    1    2    0    0  0.29628081692E+02  0.81022541480E+01  0.88072504691E+01  0.12901952336E+03  0.12500000000E+03 0.  0.
         25    1    1    2    0    0 -0.82562167257E+02  0.14268875166E+03  0.23252656668E+03  0.31123977176E+03  0.12500000000E+03 0.  0.
         25    1    1    2    0    0  0.52934085565E+02 -0.15079100581E+03  0.27600479742E+03  0.34255451106E+03  0.12500000000E+03 0.  0.
</event>
<event>
 5    0  0.5619558E-005  0.3539013E+03  0.7546771E-02  0.1061025E+00
         21   -1    0    0  502  501  0.00000000000E+00  0.00000000000E+00  0.17210052136E+04  0.17210052136E+04  0.00000000000E+00 0. -1.
         21   -1    0    0  501  502 -0.00000000000E+00 -0.00000000000E+00 -0.72775004318E+02  0.72775004318E+02  0.00000000000E+00 0. -1.
         25    1    1    2    0    0 -0.11524631984E+02 -0.13669023511E+03  0.95374180788E+03  0.97163031736E+03  0.12500000000E+03 0.  0.
         25    1    1    2    0    0  0.46676924625E+01  0.21456587469E+03  0.24407635493E+03  0.34822201104E+03  0.12500000000E+03 0.  0.
         25    1    1    2    0    0  0.68569395215E+01 -0.77875639576E+02  0.45041204652E+03  0.47392788957E+03  0.12500000000E+03 0.  0.
</event>
<event>
 5    0  0.5619558E-005  0.3555328E+03  0.7546771E-02  0.1060367E+00
         21   -1    0    0  502  501  0.00000000000E+00  0.00000000000E+00  0.11426707232E+04  0.11426707232E+04  0.00000000000E+00 0. -1.
         21   -1    0    0  501  502 -0.00000000000E+00 -0.00000000000E+00 -0.11062120065E+03  0.11062120065E+03  0.00000000000E+00 0. -1.
         25    1    1    2    0    0 -0.17676017529E+03  0.23459540728E+02  0.80458557907E+03  0.83353312092E+03  0.12500000000E+03 0.  0.
         25    1    1    2    0    0  0.26096613127E+02 -0.75039905864E+02  0.73064571528E+02  0.16515281500E+03  0.12500000000E+03 0.  0.
         25    1    1    2    0    0  0.15066356216E+03  0.51580365135E+02  0.15439937195E+03  0.25460598793E+03  0.12500000000E+03 0.  0.
</event>
<event>
 5    0  0.5619558E-005  0.5800438E+03  0.7546771E-02  0.9947696E-01
         21   -1    0    0  502  501  0.00000000000E+00  0.00000000000E+00  0.14647776190E+03  0.14647776190E+03  0.00000000000E+00 0.  1.
         21   -1    0    0  501  502 -0.00000000000E+00 -0.00000000000E+00 -0.22969408967E+04  0.22969408967E+04  0.00000000000E+00 0.  1.
         25    1    1    2    0    0 -0.38029122108E+01 -0.19913095650E+01  0.40404064972E+02  0.13143787856E+03  0.12500000000E+03 0.  0.
         25    1    1    2    0    0 -0.61304504553E+02  0.28950898076E+03 -0.16695751155E+04  0.17001999172E+04  0.12500000000E+03 0.  0.
         25    1    1    2    0    0  0.65107416764E+02 -0.28751767120E+03 -0.52129208423E+03  0.61178086277E+03  0.12500000000E+03 0.  0.
</event>
<event>
 5    0  0.5619558E-005  0.2638985E+03  0.7546771E-02  0.1104823E+00
         21   -1    0    0  502  501  0.00000000000E+00  0.00000000000E+00  0.18623550746E+03  0.18623550746E+03  0.00000000000E+00 0.  1.
         21   -1    0    0  501  502 -0.00000000000E+00 -0.00000000000E+00 -0.37394803356E+03  0.37394803356E+03  0.00000000000E+00 0.  1.
         25    1    1    2    0    0  0.38075430774E+02  0.32935840481E+02  0.87708957767E+01  0.13504235124E+03  0.12500000000E+03 0.  0.
         25    1    1    2    0    0 -0.60781421922E+02  0.10855778453E+03 -0.44986367932E+02  0.18201084345E+03  0.12500000000E+03 0.  0.
         25    1    1    2    0    0  0.22705991148E+02 -0.14149362501E+03 -0.15149705394E+03  0.24313034633E+03  0.12500000000E+03 0.  0.
</event>
<event>
 5    0  0.5619558E-005  0.2143647E+03  0.7546771E-02  0.1138156E+00
         21   -1    0    0  502  501  0.00000000000E+00  0.00000000000E+00  0.46958315219E+02  0.46958315219E+02  0.00000000000E+00 0.  1.
         21   -1    0    0  501  502 -0.00000000000E+00 -0.00000000000E+00 -0.97857472614E+03  0.97857472614E+03  0.00000000000E+00 0.  1.
         25    1    1    2    0    0  0.35125723052E+02  0.59197296389E+02 -0.34045519832E+03  0.36915156560E+03  0.12500000000E+03 0.  0.
         25    1    1    2    0    0 -0.61515813759E+02 -0.43043860753E+01 -0.22461779325E+03  0.26434991229E+03  0.12500000000E+03 0.  0.
         25    1    1    2    0    0  0.26390090707E+02 -0.54892910313E+02 -0.36654341935E+03  0.39203156347E+03  0.12500000000E+03 0.  0.
</event>
<event>
 5    0  0.5619558E-005  0.3398396E+03  0.7546771E-02  0.1066864E+00
         21   -1    0    0  502  501  0.00000000000E+00  0.00000000000E+00  0.38338615861E+03  0.38338615861E+03  0.00000000000E+00 0.  1.
         21   -1    0    0  501  502 -0.00000000000E+00 -0.00000000000E+00 -0.30123929154E+03  0.30123929154E+03  0.00000000000E+00 0.  1.
         25    1    1    2    0    0 -0.38185930345E+02 -0.67230121327E+02  0.52789485191E+02  0.15617229023E+03  0.12500000000E+03 0.  0.
         25    1    1    2    0    0  0.10836355506E+03 -0.16011155508E+03  0.99316392728E+02  0.25073315696E+03  0.12500000000E+03 0.  0.
         25    1    1    2    0    0 -0.70177624719E+02  0.22734167640E+03 -0.69959010857E+02  0.27772000296E+03  0.12500000000E+03 0.  0.
</event>
<event>
 5    0  0.5619558E-005  0.4872704E+03  0.7546771E-02  0.1017156E+00
         21   -1    0    0  502  501  0.00000000000E+00  0.00000000000E+00  0.14634179661E+04  0.14634179661E+04  0.00000000000E+00 0.  1.
         21   -1    0    0  501  502 -0.00000000000E+00 -0.00000000000E+00 -0.16224511135E+03  0.16224511135E+03  0.00000000000E+00 0.  1.
         25    1    1    2    0    0 -0.13815184918E+03  0.10808367892E+03  0.11111555990E+04  0.11318391141E+04  0.12500000000E+03 0.  0.
         25    1    1    2    0    0  0.10287404951E+03 -0.13056156226E+03  0.26910413389E+03  0.34010502272E+03  0.12500000000E+03 0.  0.
         25    1    1    2    0    0  0.35277799672E+02  0.22477883340E+02 -0.79086878176E+02  0.15371894057E+03  0.12500000000E+03 0.  0.
</event>
<event>
 5    0  0.5619558E-005  0.3790762E+03  0.7546771E-02  0.1051276E+00
         21   -1    0    0  502  501  0.00000000000E+00  0.00000000000E+00  0.24113311526E+04  0.24113311526E+04  0.00000000000E+00 0.  1.
         21   -1    0    0  501  502 -0.00000000000E+00 -0.00000000000E+00 -0.59593125817E+02  0.59593125817E+02  0.00000000000E+00 0.  1.
         25    1    1    2    0    0 -0.22261427515E+03  0.13410717908E+03  0.90451455766E+03  0.94937528723E+03  0.12500000000E+03 0.  0.
         25    1    1    2    0    0  0.21412461904E+03 -0.20797714815E+03  0.10354893376E+04  0.10848811063E+04  0.12500000000E+03 0.  0.
         25    1    1    2    0    0  0.84896561151E+01  0.73869969062E+02  0.41173413155E+03  0.43666788487E+03  0.12500000000E+03 0.  0.
</event>
<event>
 5    0  0.5619558E-005  0.2623593E+03  0.7546771E-02  0.1105734E+00
         21   -1    0    0  502  501  0.00000000000E+00  0.00000000000E+00  0.52750596468E+03  0.52750596468E+03  0.00000000000E+00 0.  1.
         21   -1    0    0  501  502 -0.00000000000E+00 -0.00000000000E+00 -0.13048651664E+03  0.13048651664E+03  0.00000000000E+00 0.  1.
         25    1    1    2    0    0 -0.36547467523E+02  0.90273060981E+02  0.11494309082E+03  0.19575969209E+03  0.12500000000E+03 0.  0.
         25    1    1    2    0    0 -0.63905039035E+02 -0.66148281660E+02  0.25399456013E+03  0.29765363387E+03  0.12500000000E+03 0.  0.
         25    1    1    2    0    0  0.10045250656E+03 -0.24124779322E+02  0.28081797093E+02  0.16457915536E+03  0.12500000000E+03 0.  0.
</event>
<event>
 5    0  0.5619558E-005  0.1432251E+04  0.7546771E-02  0.8930799E-01
         21   -1    0    0  502  501  0.00000000000E+00  0.00000000000E+00  0.92115944728E+03  0.92115944728E+03  0.00000000000E+00 0. -1.
         21   -1    0    0  501  502 -0.00000000000E+00 -0.00000000000E+00 -0.22269134507E+04  0.22269134507E+04  0.00000000000E+00 0. -1.
         25    1    1    2    0    0  0.13892125162E+03 -0.20441271358E+02 -0.71471156296E+03  0.73902271816E+03  0.12500000000E+03 0.  0.
         25    1    1    2    0    0  0.18980831265E+03 -0.85796814912E+03  0.45597247339E+03  0.99783387242E+03  0.12500000000E+03 0.  0.
         25    1    1    2    0    0 -0.32872956427E+03  0.87840942048E+03 -0.10470149138E+04  0.14112163074E+04  0.12500000000E+03 0.  0.
</event>
<event>
 5    0  0.5619558E-005  0.2528701E+03  0.7546771E-02  0.1111504E+00
         21   -1    0    0  502  501  0.00000000000E+00  0.00000000000E+00  0.85214902599E+03  0.85214902599E+03  0.00000000000E+00 0. -1.
         21   -1    0    0  501  502 -0.00000000000E+00 -0.00000000000E+00 -0.75037661333E+02  0.75037661333E+02  0.00000000000E+00 0. -1.
         25    1    1    2    0    0  0.27828107533E+02 -0.17721739943E+01  0.11731566289E+03  0.17368220671E+03  0.12500000000E+03 0.  0.
         25    1    1    2    0    0 -0.14686837798E+02 -0.90356701206E+02  0.13316000735E+03  0.20429543366E+03  0.12500000000E+03 0.  0.
         25    1    1    2    0    0 -0.13141269735E+02  0.92128875201E+02  0.52663569442E+03  0.54920904695E+03  0.12500000000E+03 0.  0.
</event>
<event>
 5    0  0.5619558E-005  0.2781587E+03  0.7546771E-02  0.1096699E+00
         21   -1    0    0  502  501  0.00000000000E+00  0.00000000000E+00  0.87249568280E+03  0.87249568280E+03  0.00000000000E+00 0. -1.
         21   -1    0    0  501  502 -0.00000000000E+00 -0.00000000000E+00 -0.88679224579E+02  0.88679224579E+02  0.00000000000E+00 0. -1.
         25    1    1    2    0    0  0.84902991215E+02  0.13052624862E+02  0.42866932899E+03  0.45471010825E+03  0.12500000000E+03 0.  0.
         25    1    1    2    0    0 -0.10119985818E+03 -0.32890628879E+02  0.34051493066E+03  0.37801934179E+03  0.12500000000E+03 0.  0.
         25    1    1    2    0    0  0.16296866969E+02  0.19838004017E+02  0.14632198579E+02  0.12844545734E+03  0.12500000000E+03 0.  0.
</event>
<event>
 5    0  0.5619558E-005  0.2696733E+03  0.7546771E-02  0.1101467E+00
         21   -1    0    0  502  501  0.00000000000E+00  0.00000000000E+00  0.15339250950E+04  0.15339250950E+04  0.00000000000E+00 0. -1.
         21   -1    0    0  501  502 -0.00000000000E+00 -0.00000000000E+00 -0.47410180878E+02  0.47410180878E+02  0.00000000000E+00 0. -1.
         25    1    1    2    0    0 -0.37032013126E+02 -0.47923039257E+02  0.89401334062E+03  0.90473910101E+03  0.12500000000E+03 0.  0.
         25    1    1    2    0    0 -0.74636607101E+02  0.60443556475E+02  0.31282583360E+03  0.35029851385E+03  0.12500000000E+03 0.  0.
         25    1    1    2    0    0  0.11166862023E+03 -0.12520517218E+02  0.27967573989E+03  0.32629766101E+03  0.12500000000E+03 0.  0.
</event>
<event>
 5    0  0.5619558E-005  0.5003803E+03  0.7546771E-02  0.1013680E+00
         21   -1    0    0  502  501  0.00000000000E+00  0.00000000000E+00  0.11976029050E+03  0.11976029050E+03  0.00000000000E+00 0. -1.
         21   -1    0    0  501  502 -0.00000000000E+00 -0.00000000000E+00 -0.20906797676E+04  0.20906797676E+04  0.00000000000E+00 0. -1.
         25    1    1    2    0    0 -0.39002109182E+03  0.14537195116E+02 -0.53754547458E+03  0.67594964261E+03  0.12500000000E+03 0.  0.
         25    1    1    2    0    0  0.15153627467E+03 -0.28299474793E+01 -0.10352128305E+04  0.10536896391E+04  0.12500000000E+03 0.  0.
         25    1    1    2    0    0  0.23848481715E+03 -0.11707247637E+02 -0.39816117202E+03  0.48080077638E+03  0.12500000000E+03 0.  0.
</event>
<event>
 5    0  0.5619558E-005  0.4559662E+03  0.7546771E-02  0.1025958E+00
         21   -1    0    0  502  501  0.00000000000E+00  0.00000000000E+00  0.17181244618E+03  0.17181244618E+03  0.00000000000E+00 0. -1.
         21   -1    0    0  501  502 -0.00000000000E+00 -0.00000000000E+00 -0.12100702973E+04  0.12100702973E+04  0.00000000000E+00 0. -1.
         25    1    1    2    0    0  0.30147219416E+03 -0.47583783716E+02 -0.52534669622E+03  0.62029335927E+03  0.12500000000E+03 0.  0.
         25    1    1    2    0    0 -0.17899419473E+03  0.10505573484E+03 -0.52374850854E+03  0.57707289780E+03  0.12500000000E+03 0.  0.
         25    1    1    2    0    0 -0.12247799943E+03 -0.57471951125E+02  0.10837353682E+02  0.18451648638E+03  0.12500000000E+03 0.  0.
</event>
<event>
 5    0  0.5619558E-005  0.5146657E+03  0.7546771E-02  0.1010020E+00
         21   -1    0    0  502  501  0.00000000000E+00  0.00000000000E+00  0.67972201653E+03  0.67972201653E+03  0.00000000000E+00 0.  1.
         21   -1    0    0  501  502 -0.00000000000E+00 -0.00000000000E+00 -0.38968987831E+03  0.38968987831E+03  0.00000000000E+00 0.  1.
         25    1    1    2    0    0  0.11578248101E+03  0.18031723691E+03  0.11648733093E+03  0.27406967563E+03  0.12500000000E+03 0.  0.
         25    1    1    2    0    0  0.18342321823E+02  0.17071561786E+03  0.31060054933E+03  0.37626847356E+03  0.12500000000E+03 0.  0.
         25    1    1    2    0    0 -0.13412480283E+03 -0.35103285477E+03 -0.13705574204E+03  0.41907374565E+03  0.12500000000E+03 0.  0.
</event>
<event>
 5    0  0.5619558E-005  0.3334960E+03  0.7546771E-02  0.1069600E+00
         21   -1    0    0  502  501  0.00000000000E+00  0.00000000000E+00  0.32953996665E+03  0.32953996665E+03  0.00000000000E+00 0.  1.
         21   -1    0    0  501  502 -0.00000000000E+00 -0.00000000000E+00 -0.33749955603E+03  0.33749955603E+03  0.00000000000E+00 0.  1.
         25    1    1    2    0    0  0.62990849342E+02  0.10880199505E+03  0.88148098726E+02  0.19799194059E+03  0.12500000000E+03 0.  0.
         25    1    1    2    0    0  0.58933909291E+02 -0.83461095156E+02 -0.20558512862E+03  0.26139855619E+03  0.12500000000E+03 0.  0.
         25    1    1    2    0    0 -0.12192475863E+03 -0.25340899895E+02  0.10947744052E+03  0.20764902590E+03  0.12500000000E+03 0.  0.
</event>
<event>
 5    0  0.5619558E-005  0.2465937E+03  0.7546771E-02  0.1115477E+00
         21   -1    0    0  502  501  0.00000000000E+00  0.00000000000E+00  0.46221109588E+03  0.46221109588E+03  0.00000000000E+00 0.  1.
         21   -1    0    0  501  502 -0.00000000000E+00 -0.00000000000E+00 -0.13155988288E+03  0.13155988288E+03  0.00000000000E+00 0.  1.
         25    1    1    2    0    0  0.28063419839E+02  0.42299896198E+02  0.14571406250E+03  0.19858102820E+03  0.12500000000E+03 0.  0.
         25    1    1    2    0    0  0.20782616169E+02  0.13140323461E+02 -0.34569430754E+02  0.13200238929E+03  0.12500000000E+03 0.  0.
         25    1    1    2    0    0 -0.48846036007E+02 -0.55440219660E+02  0.21950658126E+03  0.26318756127E+03  0.12500000000E+03 0.  0.
</event>
<event>
 5    0  0.5619558E-005  0.2912588E+03  0.7546771E-02  0.1089694E+00
         21   -1    0    0  502  501  0.00000000000E+00  0.00000000000E+00  0.70387361108E+02  0.70387361108E+02  0.00000000000E+00 0.  1.
         21   -1    0    0  501  502 -0.00000000000E+00 -0.00000000000E+00 -0.12052117570E+04  0.12052117570E+04  0.00000000000E+00 0.  1.
         25    1    1    2    0    0 -0.34730942082E+01 -0.43325819218E+02 -0.12716204536E+03  0.18353303456E+03  0.12500000000E+03 0.  0.
         25    1    1    2    0    0  0.85768117359E+02 -0.84070880258E+02 -0.73978346214E+03  0.75982146173E+03  0.12500000000E+03 0.  0.
         25    1    1    2    0    0 -0.82295023151E+02  0.12739669948E+03 -0.26787888836E+03  0.33224462178E+03  0.12500000000E+03 0.  0.
</event>
<event>
 5    0  0.5619558E-005  0.4078453E+03  0.7546771E-02  0.1041096E+00
         21   -1    0    0  502  501  0.00000000000E+00  0.00000000000E+00  0.85543820872E+03  0.85543820872E+03  0.00000000000E+00 0.  1.
         21   -1    0    0  501  502 -0.00000000000E+00 -0.00000000000E+00 -0.19444750863E+03  0.19444750863E+03  0.00000000000E+00 0.  1.
         25    1    1    2    0    0 -0.23305261832E+01  0.16596649816E+03  0.39877996572E+03  0.44966740033E+03  0.12500000000E+03 0.  0.
         25    1    1    2    0    0 -0.20292856404E+03 -0.20298460052E+02  0.20138183148E+03  0.31268462008E+03  0.12500000000E+03 0.  0.
         25    1    1    2    0    0  0.20525909023E+03 -0.14566803811E+03  0.60828902900E+02  0.28753369694E+03  0.12500000000E+03 0.  0.
</event>
<event>
 5    0  0.5619558E-005  0.4414217E+03  0.7546771E-02  0.1030311E+00
         21   -1    0    0  502  501  0.00000000000E+00  0.00000000000E+00  0.37065524127E+03  0.37065524127E+03  0.00000000000E+00 0.  1.
         21   -1    0    0  501  502 -0.00000000000E+00 -0.00000000000E+00 -0.52569909521E+03  0.52569909521E+03  0.00000000000E+00 0.  1.
         25    1    1    2    0    0 -0.38506771497E+02 -0.35446601430E+03 -0.55608483849E+02  0.38189819353E+03  0.12500000000E+03 0.  0.
         25    1    1    2    0    0  0.26852619553E+02  0.45540144066E+02 -0.11888856253E+03  0.18042854042E+03  0.12500000000E+03 0.  0.
         25    1    1    2    0    0  0.11654151944E+02  0.30892587023E+03  0.19453192441E+02  0.33402760253E+03  0.12500000000E+03 0.  0.
</event>
<event>
 5    0  0.5619558E-005  0.2993545E+03  0.7546771E-02  0.1085564E+00
         21   -1    0    0  502  501  0.00000000000E+00  0.00000000000E+00  0.13414669904E+04  0.13414669904E+04  0.00000000000E+00 0. -1.
         21   -1    0    0  501  502 -0.00000000000E+00 -0.00000000000E+00 -0.66802314203E+02  0.66802314203E+02  0.00000000000E+00 0. -1.
         25    1    1    2    0    0 -0.12325910792E+03 -0.17677154494E+03  0.68729004093E+03  0.73104964753E+03  0.12500000000E+03 0.  0.
         25    1    1    2    0    0  0.96448259118E+02  0.10536310738E+03  0.35487698168E+03  0.40245039845E+03  0.12500000000E+03 0.  0.
         25    1    1    2    0    0  0.26810848799E+02  0.71408437562E+02  0.23249765363E+03  0.27476925867E+03  0.12500000000E+03 0.  0.
</event>
<event>
 5    0  0.5619558E-005  0.3201842E+03  0.7546771E-02  0.1075565E+00
         21   -1    0    0  502  501  0.00000000000E+00  0.00000000000E+00  0.88946803568E+02  0.88946803568E+02  0.00000000000E+00 0.  1.
         21   -1    0    0  501  502 -0.00000000000E+00 -0.00000000000E+00 -0.11525757521E+04  0.11525757521E+04  0.00000000000E+00 0.  1.
         25    1    1    2    0    0 -0.33843409164E+02  0.48050498481E+02 -0.55752437805E+03  0.57438023893E+03  0.12500000000E+03 0.  0.
         25    1    1    2    0    0 -0.36734695582E+01  0.14749099217E+03 -0.17320677553E+03  0.25960099044E+03  0.12500000000E+03 0.  0.
         25    1    1    2    0    0  0.37516878722E+02 -0.19554149065E+03 -0.33289779494E+03  0.40754132629E+03  0.12500000000E+03 0.  0.
</event>
<event>
 5    0  0.7673911E-005  0.7204366E+03  0.7546771E-02  0.9682907E-01
         21   -1    0    0  502  501  0.00000000000E+00  0.00000000000E+00  0.42939234187E+03  0.42939234187E+03  0.00000000000E+00 0. -1.
         21   -1    0    0  501  502 -0.00000000000E+00 -0.00000000000E+00 -0.12087519904E+04  0.12087519904E+04  0.00000000000E+00 0. -1.
         25    1    1    2    0    0  0.49751114095E+03 -0.75754293347E+02 -0.10924425546E+03  0.52992014086E+03  0.12500000000E+03 0.  0.
         25    1    1    2    0    0 -0.70827828011E+02 -0.27589652261E+03 -0.29334038733E+03  0.42756175606E+03  0.12500000000E+03 0.  0.
         25    1    1    2    0    0 -0.42668331294E+03  0.35165081596E+03 -0.37677500570E+03  0.68066243530E+03  0.12500000000E+03 0.  0.
</event>
<event>
 5    0  0.5619558E-005  0.2835757E+03  0.7546771E-02  0.1093752E+00
         21   -1    0    0  502  501  0.00000000000E+00  0.00000000000E+00  0.16403712180E+03  0.16403712180E+03  0.00000000000E+00 0.  1.
         21   -1    0    0  501  502 -0.00000000000E+00 -0.00000000000E+00 -0.49022540201E+03  0.49022540201E+03  0.00000000000E+00 0.  1.
         25    1    1    2    0    0 -0.68005906570E+02 -0.76517916423E+02 -0.12961294525E+03  0.20713355701E+03  0.12500000000E+03 0.  0.
         25    1    1    2    0    0  0.15204462193E+03 -0.91575682922E+01 -0.18998786962E+03  0.27371850269E+03  0.12500000000E+03 0.  0.
         25    1    1    2    0    0 -0.84038715365E+02  0.85675484716E+02 -0.65874653503E+01  0.17341046411E+03  0.12500000000E+03 0.  0.
</event>
<event>
 5    0  0.5619558E-005  0.2747971E+03  0.7546771E-02  0.1098565E+00
         21   -1    0    0  502  501  0.00000000000E+00  0.00000000000E+00  0.31485408129E+02  0.31485408129E+02  0.00000000000E+00 0. -1.
         21   -1    0    0  501  502 -0.00000000000E+00 -0.00000000000E+00 -0.23983634329E+04  0.23983634329E+04  0.00000000000E+00 0. -1.
         25    1    1    2    0    0  0.88429550812E+02  0.57277698768E+02 -0.44713733387E+03  0.47608540786E+03  0.12500000000E+03 0.  0.
         25    1    1    2    0    0 -0.11487738602E+02 -0.85296541378E+02 -0.41967325404E+03  0.44627133929E+03  0.12500000000E+03 0.  0.
         25    1    1    2    0    0 -0.76941812209E+02  0.28018842610E+02 -0.15000674369E+04  0.15074920939E+04  0.12500000000E+03 0.  0.
</event>
<event>
 5    0  0.5619558E-005  0.4900062E+03  0.7546771E-02  0.1016421E+00
         21   -1    0    0  502  501  0.00000000000E+00  0.00000000000E+00  0.35618879183E+03  0.35618879183E+03  0.00000000000E+00 0.  1.
         21   -1    0    0  501  502 -0.00000000000E+00 -0.00000000000E+00 -0.67409785158E+03  0.67409785158E+03  0.00000000000E+00 0.  1.
         25    1    1    2    0    0  0.66266233142E+02  0.16758940949E+03 -0.10875033480E+02  0.21959209954E+03  0.12500000000E+03 0.  0.
         25    1    1    2    0    0 -0.11976315996E+03 -0.15887903926E+02  0.19956877518E+03  0.26466646180E+03  0.12500000000E+03 0.  0.
         25    1    1    2    0    0  0.53496926814E+02 -0.15170150556E+03 -0.50660280145E+03  0.54602808207E+03  0.12500000000E+03 0.  0.
</event>
<event>
 5    0  0.5619558E-005  0.3897856E+03  0.7546771E-02  0.1047375E+00
         21   -1    0    0  502  501  0.00000000000E+00  0.00000000000E+00  0.15913184667E+03  0.15913184667E+03  0.00000000000E+00 0. -1.
         21   -1    0    0  501  502 -0.00000000000E+00 -0.00000000000E+00 -0.95476052844E+03  0.95476052844E+03  0.00000000000E+00 0. -1.
         25    1    1    2    0    0 -0.20468228165E+03 -0.22930417855E+03 -0.27240849801E+03  0.42930948336E+03  0.12500000000E+03 0.  0.
         25    1    1    2    0    0  0.41538424881E+02  0.69301537015E+02 -0.76188960661E+02  0.16720616466E+03  0.12500000000E+03 0.  0.
         25    1    1    2    0    0  0.16314385677E+03  0.16000264153E+03 -0.44703122311E+03  0.51737672708E+03  0.12500000000E+03 0.  0.
</event>
<event>
 5    0  0.5619558E-005  0.2737959E+03  0.7546771E-02  0.1099127E+00
         21   -1    0    0  502  501  0.00000000000E+00  0.00000000000E+00  0.97460405300E+02  0.97460405300E+02  0.00000000000E+00 0. -1.
         21   -1    0    0  501  502 -0.00000000000E+00 -0.00000000000E+00 -0.76917591954E+03  0.76917591954E+03  0.00000000000E+00 0. -1.
         25    1    1    2    0    0 -0.65070343677E+02 -0.16181403415E+02 -0.47532700626E+03  0.49604107726E+03  0.12500000000E+03 0.  0.
         25    1    1    2    0    0  0.72000041021E+02  0.57489344102E+02 -0.29742933961E+02  0.15810968570E+03  0.12500000000E+03 0.  0.
         25    1    1    2    0    0 -0.69296973438E+01 -0.41307940687E+02 -0.16664557401E+03  0.21248556188E+03  0.12500000000E+03 0.  0.
</event>
<event>
 5    0  0.5619558E-005  0.3561289E+03  0.7546771E-02  0.1060127E+00
         21   -1    0    0  502  501  0.00000000000E+00  0.00000000000E+00  0.31763518849E+03  0.31763518849E+03  0.00000000000E+00 0.  1.
         21   -1    0    0  501  502 -0.00000000000E+00 -0.00000000000E+00 -0.39928755179E+03  0.39928755179E+03  0.00000000000E+00 0.  1.
         25    1    1    2    0    0 -0.62987217018E+02 -0.10122958414E+03  0.24962216890E+02  0.17453632999E+03  0.12500000000E+03 0.  0.
         25    1    1    2    0    0  0.19725609445E+03  0.21372710774E+03 -0.60058141562E+02  0.32221300990E+03  0.12500000000E+03 0.  0.
         25    1    1    2    0    0 -0.13426887743E+03 -0.11249752360E+03 -0.46556438621E+02  0.22017340039E+03  0.12500000000E+03 0.  0.
</event>
<event>
 5    0  0.5619558E-005  0.3922147E+03  0.7546771E-02  0.1046509E+00
         21   -1    0    0  502  501  0.00000000000E+00  0.00000000000E+00  0.11058841602E+03  0.11058841602E+03  0.00000000000E+00 0. -1.
         21   -1    0    0  501  502 -0.00000000000E+00 -0.00000000000E+00 -0.13910350495E+04  0.13910350495E+04  0.00000000000E+00 0. -1.
         25    1    1    2    0    0 -0.13865061927E+02 -0.11128488030E+03 -0.21674663618E+03  0.27419093497E+03  0.12500000000E+03 0.  0.
         25    1    1    2    0    0 -0.15498240076E+03 -0.12736711068E+03 -0.72646573104E+03  0.76394985687E+03  0.12500000000E+03 0.  0.
         25    1    1    2    0    0  0.16884746269E+03  0.23865199098E+03 -0.33723426622E+03  0.46348267364E+03  0.12500000000E+03 0.  0.
</event>
<event>
 5    0  0.5619558E-005  0.2623341E+03  0.7546771E-02  0.1105749E+00
         21   -1    0    0  502  501  0.00000000000E+00  0.00000000000E+00  0.51119767815E+03  0.51119767815E+03  0.00000000000E+00 0.  1.
         21   -1    0    0  501  502 -0.00000000000E+00 -0.00000000000E+00 -0.13462342146E+03  0.13462342146E+03  0.00000000000E+00 0.  1.
         25    1    1    2    0    0 -0.81802928359E+02 -0.87482747490E+02  0.25353705084E+03  0.30700323507E+03  0.12500000000E+03 0.  0.
         25    1    1    2    0    0  0.97537158893E+02  0.10057673308E+03  0.88228220322E+02  0.20745697256E+03  0.12500000000E+03 0.  0.
         25    1    1    2    0    0 -0.15734230535E+02 -0.13093985586E+02  0.34808985525E+02  0.13136089198E+03  0.12500000000E+03 0.  0.
</event>
<event>
 5    0  0.5619558E-005  0.3909415E+03  0.7546771E-02  0.1046962E+00
         21   -1    0    0  502  501  0.00000000000E+00  0.00000000000E+00  0.14779265476E+04  0.14779265476E+04  0.00000000000E+00 0.  1.
         21   -1    0    0  501  502 -0.00000000000E+00 -0.00000000000E+00 -0.10341196302E+03  0.10341196302E+03  0.00000000000E+00 0.  1.
         25    1    1    2    0    0 -0.20740759552E+03  0.67752034414E+02  0.34541242704E+03  0.42725050451E+03  0.12500000000E+03 0.  0.
         25    1    1    2    0    0  0.58065926707E+02  0.70559698319E+02  0.82647219925E+03  0.84085172236E+03  0.12500000000E+03 0.  0.
         25    1    1    2    0    0  0.14934166881E+03 -0.13831173273E+03  0.20262995824E+03  0.31323628371E+03  0.12500000000E+03 0.  0.
</event>
<event>
 5    0  0.5619558E-005  0.2132315E+03  0.7546771E-02  0.1139032E+00
         21   -1    0    0  502  501  0.00000000000E+00  0.00000000000E+00  0.15756012972E+03  0.15756012972E+03  0.00000000000E+00 0. -1.
         21   -1    0    0  501  502 -0.00000000000E+00 -0.00000000000E+00 -0.28857357280E+03  0.28857357280E+03  0.00000000000E+00 0. -1.
         25    1    1    2    0    0 -0.20318486908E+02 -0.13345047414E+02 -0.80432350145E+02  0.15061638075E+03  0.12500000000E+03 0.  0.
         25    1    1    2    0    0 -0.18269085399E+02  0.44398013793E+02  0.32070405209E+02  0.13768970187E+03  0.12500000000E+03 0.  0.
         25    1    1    2    0    0  0.38587572308E+02 -0.31052966378E+02 -0.82651498147E+02  0.15782761990E+03  0.12500000000E+03 0.  0.
</event>
<event>
 5    0  0.5619558E-005  0.2660696E+03  0.7546771E-02  0.1103550E+00
         21   -1    0    0  502  501  0.00000000000E+00  0.00000000000E+00  0.38576536635E+02  0.38576536635E+02  0.00000000000E+00 0.  1.
         21   -1    0    0  501  502 -0.00000000000E+00 -0.00000000000E+00 -0.18351314194E+04  0.18351314194E+04  0.00000000000E+00 0.  1.
         25    1    1    2    0    0  0.41513676278E+02  0.71119775344E+01 -0.22922932752E+03  0.26447126524E+03  0.12500000000E+03 0.  0.
         25    1    1    2    0    0  0.10689003078E+03  0.68186474138E+01 -0.57884296729E+03  0.60179411215E+03  0.12500000000E+03 0.  0.
         25    1    1    2    0    0 -0.14840370706E+03 -0.13930624948E+02 -0.98848258792E+03  0.10074425786E+04  0.12500000000E+03 0.  0.
</event>
<event>
 5    0  0.6409696E-005  0.4242273E+03  0.7546771E-02  0.1035699E+00
         21   -1    0    0  502  501  0.00000000000E+00  0.00000000000E+00  0.23041079178E+03  0.23041079178E+03  0.00000000000E+00 0.  1.
         21   -1    0    0  501  502 -0.00000000000E+00 -0.00000000000E+00 -0.78107818849E+03  0.78107818849E+03  0.00000000000E+00 0.  1.
         25    1    1    2    0    0 -0.85848357994E+02  0.14616513672E+03  0.72709394186E+02  0.22281347304E+03  0.12500000000E+03 0.  0.
         25    1    1    2    0    0  0.76349362442E+02  0.91485727436E+02 -0.41225614443E+03  0.44696643284E+03  0.12500000000E+03 0.  0.
         25    1    1    2    0    0  0.94989955512E+01 -0.23765086416E+03 -0.21112064647E+03  0.34170907439E+03  0.12500000000E+03 0.  0.
</event>
<event>
 5    0  0.5619558E-005  0.3757527E+03  0.7546771E-02  0.1052515E+00
         21   -1    0    0  502  501  0.00000000000E+00  0.00000000000E+00  0.15969466487E+04  0.15969466487E+04  0.00000000000E+00 0.  1.
         21   -1    0    0  501  502 -0.00000000000E+00 -0.00000000000E+00 -0.88412528695E+02  0.88412528695E+02  0.00000000000E+00 0.  1.
         25    1    1    2    0    0  0.13381288447E+03 -0.14704798340E+02  0.17234235603E+03  0.25189086293E+03  0.12500000000E+03 0.  0.
         25    1    1    2    0    0  0.61805500774E+02 -0.17114436168E+03  0.52736602894E+03  0.57170817813E+03  0.12500000000E+03 0.  0.
         25    1    1    2    0    0 -0.19561838524E+03  0.18584916001E+03  0.80882573501E+03  0.86176013631E+03  0.12500000000E+03 0.  0.
</event>
<event>
 5    0  0.5619558E-005  0.2457648E+03  0.7546771E-02  0.1116011E+00
         21   -1    0    0  502  501  0.00000000000E+00  0.00000000000E+00  0.16509399881E+03  0.16509399881E+03  0.00000000000E+00 0.  1.
         21   -1    0    0  501  502 -0.00000000000E+00 -0.00000000000E+00 -0.36585437321E+03  0.36585437321E+03  0.00000000000E+00 0.  1.
         25    1    1    2    0    0  0.43820014030E+02 -0.31995504017E+02 -0.32229593418E+02  0.14002732804E+03  0.12500000000E+03 0.  0.
         25    1    1    2    0    0 -0.13814064995E+03 -0.12785983929E+02 -0.11579089737E+03  0.21972449219E+03  0.12500000000E+03 0.  0.
         25    1    1    2    0    0  0.94320635919E+02  0.44781487946E+02 -0.52739883609E+02  0.17119655179E+03  0.12500000000E+03 0.  0.
</event>
<event>
 5    0  0.5619558E-005  0.4352386E+03  0.7546771E-02  0.1032218E+00
         21   -1    0    0  502  501  0.00000000000E+00  0.00000000000E+00  0.12435000491E+03  0.12435000491E+03  0.00000000000E+00 0. -1.
         21   -1    0    0  501  502 -0.00000000000E+00 -0.00000000000E+00 -0.15233823361E+04  0.15233823361E+04  0.00000000000E+00 0. -1.
         25    1    1    2    0    0  0.17753511128E+03  0.23549119850E+03 -0.51452160272E+03  0.60607945022E+03  0.12500000000E+03 0.  0.
         25    1    1    2    0    0 -0.13661173102E+03  0.83044031901E+02 -0.37780966259E+03  0.42886386819E+03  0.12500000000E+03 0.  0.
         25    1    1    2    0    0 -0.40923380262E+02 -0.31853523040E+03 -0.50670106588E+03  0.61278902261E+03  0.12500000000E+03 0.  0.
</event>
<event>
 5    0  0.5619558E-005  0.4026094E+03  0.7546771E-02  0.1042880E+00
         21   -1    0    0  502  501  0.00000000000E+00  0.00000000000E+00  0.13707940509E+03  0.13707940509E+03  0.00000000000E+00 0.  1.
         21   -1    0    0  501  502 -0.00000000000E+00 -0.00000000000E+00 -0.11824846683E+04  0.11824846683E+04  0.00000000000E+00 0.  1.
         25    1    1    2    0    0 -0.15468151368E+03 -0.59816352966E+02 -0.71357663187E+03  0.74318300324E+03  0.12500000000E+03 0.  0.
         25    1    1    2    0    0 -0.15448448143E+02  0.60755604921E+02 -0.33735823215E+03  0.36519238064E+03  0.12500000000E+03 0.  0.
         25    1    1    2    0    0  0.17012996182E+03 -0.93925195537E+00  0.55296007738E+01  0.21118868954E+03  0.12500000000E+03 0.  0.
</event>
<event>
 5    0  0.5619558E-005  0.4646817E+03  0.7546771E-02  0.1023432E+00
         21   -1    0    0  502  501  0.00000000000E+00  0.00000000000E+00  0.14265240408E+04  0.14265240408E+04  0.00000000000E+00 0.  1.
         21   -1    0    0  501  502 -0.00000000000E+00 -0.00000000000E+00 -0.15136730040E+03  0.15136730040E+03  0.00000000000E+00 0.  1.
         25    1    1    2    0    0  0.17967627382E+03  0.30576589248E+03  0.81113159881E+03  0.89405582318E+03  0.12500000000E+03 0.  0.
         25    1    1    2    0    0 -0.16637081480E+03 -0.22129603348E+03  0.43350307229E+03  0.52934024610E+03  0.12500000000E+03 0.  0.
         25    1    1    2    0    0 -0.13305459014E+02 -0.84469858995E+02  0.30522069253E+02  0.15449527187E+03  0.12500000000E+03 0.  0.
</event>
<event>
 5    0  0.5619558E-005  0.4193720E+03  0.7546771E-02  0.1037271E+00
         21   -1    0    0  502  501  0.00000000000E+00  0.00000000000E+00  0.37036060665E+03  0.37036060665E+03  0.00000000000E+00 0.  1.
         21   -1    0    0  501  502 -0.00000000000E+00 -0.00000000000E+00 -0.47486922763E+03  0.47486922763E+03  0.00000000000E+00 0.  1.
         25    1    1    2    0    0  0.67739357257E+02 -0.14054040791E+03  0.64213946543E+02  0.20997299281E+03  0.12500000000E+03 0.  0.
         25    1    1    2    0    0 -0.28816055569E+03  0.16772807631E+03 -0.12023291528E+03  0.37583263210E+03  0.12500000000E+03 0.  0.
         25    1    1    2    0    0  0.22042119843E+03 -0.27187668398E+02 -0.48489652254E+02  0.25942420937E+03  0.12500000000E+03 0.  0.
</event>
<event>
 5    0  0.5619558E-005  0.2934170E+03  0.7546771E-02  0.1088578E+00
         21   -1    0    0  502  501  0.00000000000E+00  0.00000000000E+00  0.30436104474E+03  0.30436104474E+03  0.00000000000E+00 0.  1.
         21   -1    0    0  501  502 -0.00000000000E+00 -0.00000000000E+00 -0.28286648767E+03  0.28286648767E+03  0.00000000000E+00 0.  1.
         25    1    1    2    0    0 -0.13452624065E+03  0.63533155512E+02  0.47269754693E+02  0.19998300173E+03  0.12500000000E+03 0.  0.
         25    1    1    2    0    0 -0.22120665987E+02 -0.21996372019E+02  0.85169963980E+02  0.15444120891E+03  0.12500000000E+03 0.  0.
         25    1    1    2    0    0  0.15664690664E+03 -0.41536783492E+02 -0.11094516160E+03  0.23280332177E+03  0.12500000000E+03 0.  0.
</event>
<event>
 5    0  0.5619558E-005  0.3398677E+03  0.7546771E-02  0.1066852E+00
         21   -1    0    0  502  501  0.00000000000E+00  0.00000000000E+00  0.30332100169E+03  0.30332100169E+03  0.00000000000E+00 0.  1.
         21   -1    0    0  501  502 -0.00000000000E+00 -0.00000000000E+00 -0.38081795241E+03  0.38081795241E+03  0.00000000000E+00 0.  1.
         25    1    1    2    0    0 -0.52393174360E+02 -0.52206695782E+02 -0.17282339694E+03  0.22575099188E+03  0.12500000000E+03 0.  0.
         25    1    1    2    0    0 -0.21496095649E+02  0.12470832098E+03 -0.10029780147E+03  0.20420307644E+03  0.12500000000E+03 0.  0.
         25    1    1    2    0    0  0.73889270009E+02 -0.72501625200E+02  0.19562424768E+03  0.25418488578E+03  0.12500000000E+03 0.  0.
</event>
<event>
 5    0  0.5619558E-005  0.3129173E+03  0.7546771E-02  0.1078956E+00
         21   -1    0    0  502  501  0.00000000000E+00  0.00000000000E+00  0.36202679553E+03  0.36202679553E+03  0.00000000000E+00 0. -1.
         21   -1    0    0  501  502 -0.00000000000E+00 -0.00000000000E+00 -0.27046962419E+03  0.27046962419E+03  0.00000000000E+00 0. -1.
         25    1    1    2    0    0  0.22560289961E+02 -0.13698502211E+03  0.28369829848E+02  0.18895425428E+03  0.12500000000E+03 0.  0.
         25    1    1    2    0    0 -0.16105967769E+03 -0.55874729305E+01  0.36985419870E+02  0.20727846226E+03  0.12500000000E+03 0.  0.
         25    1    1    2    0    0  0.13849938773E+03  0.14257249504E+03  0.26201921617E+02  0.23626370318E+03  0.12500000000E+03 0.  0.
</event>
<event>
 5    0  0.7353726E-005  0.5729015E+03  0.7546771E-02  0.9963278E-01
         21   -1    0    0  502  501  0.00000000000E+00  0.00000000000E+00  0.57238442752E+03  0.57238442752E+03  0.00000000000E+00 0. -1.
         21   -1    0    0  501  502 -0.00000000000E+00 -0.00000000000E+00 -0.57341903068E+03  0.57341903068E+03  0.00000000000E+00 0. -1.
         25    1    1    2    0    0 -0.10105308683E+03 -0.31297598773E+03 -0.22788463373E+03  0.41919220120E+03  0.12500000000E+03 0.  0.
         25    1    1    2    0    0  0.18588188023E+03  0.35974473500E+01  0.30021391980E+03  0.37459099384E+03  0.12500000000E+03 0.  0.
         25    1    1    2    0    0 -0.84828793399E+02  0.30937854038E+03 -0.73363889225E+02  0.35202026316E+03  0.12500000000E+03 0.  0.
</event>
<event>
 5    0  0.5619558E-005  0.3001078E+03  0.7546771E-02  0.1085187E+00
         21   -1    0    0  502  501  0.00000000000E+00  0.00000000000E+00  0.24958050212E+03  0.24958050212E+03  0.00000000000E+00 0. -1.
         21   -1    0    0  501  502 -0.00000000000E+00 -0.00000000000E+00 -0.36086425567E+03  0.36086425567E+03  0.00000000000E+00 0. -1.
         25    1    1    2    0    0 -0.13922311940E+03  0.17572254177E+03 -0.58458083351E+02  0.26325621772E+03  0.12500000000E+03 0.  0.
         25    1    1    2    0    0  0.84897822170E+02 -0.12300590995E+03 -0.49435168872E+02  0.20101475074E+03  0.12500000000E+03 0.  0.
         25    1    1    2    0    0  0.54325297227E+02 -0.52716631811E+02 -0.33905013245E+01  0.14617378933E+03  0.12500000000E+03 0.  0.
</event>
<event>
 5    0  0.5619558E-005  0.2534460E+03  0.7546771E-02  0.1111146E+00
         21   -1    0    0  502  501  0.00000000000E+00  0.00000000000E+00  0.13719423088E+03  0.13719423088E+03  0.00000000000E+00 0. -1.
         21   -1    0    0  501  502 -0.00000000000E+00 -0.00000000000E+00 -0.46820379675E+03  0.46820379675E+03  0.00000000000E+00 0. -1.
         25    1    1    2    0    0  0.97357317978E+02  0.71956898576E+01 -0.15653883211E+03  0.22284441046E+03  0.12500000000E+03 0.  0.
         25    1    1    2    0    0 -0.13192390029E+03  0.62912459656E+02 -0.11089978696E+03  0.22200372924E+03  0.12500000000E+03 0.  0.
         25    1    1    2    0    0  0.34566582307E+02 -0.70108149514E+02 -0.63570946799E+02  0.16054988794E+03  0.12500000000E+03 0.  0.
</event>
<event>
 5    0  0.5619558E-005  0.2966764E+03  0.7546771E-02  0.1086914E+00
         21   -1    0    0  502  501  0.00000000000E+00  0.00000000000E+00  0.30140179116E+04  0.30140179116E+04  0.00000000000E+00 0.  1.
         21   -1    0    0  501  502 -0.00000000000E+00 -0.00000000000E+00 -0.29202499838E+02  0.29202499838E+02  0.00000000000E+00 0.  1.
         25    1    1    2    0    0  0.14200631002E+03  0.28259882706E+02  0.84314310415E+03  0.86456908754E+03  0.12500000000E+03 0.  0.
         25    1    1    2    0    0 -0.90954808595E+02 -0.87459304743E+02  0.17687271462E+04  0.17776227453E+04  0.12500000000E+03 0.  0.
         25    1    1    2    0    0 -0.51051501427E+02  0.59199422037E+02  0.37294516145E+03  0.40102857856E+03  0.12500000000E+03 0.  0.
</event>
<event>
 5    0  0.5619558E-005  0.3929539E+03  0.7546771E-02  0.1046247E+00
         21   -1    0    0  502  501  0.00000000000E+00  0.00000000000E+00  0.60483854190E+03  0.60483854190E+03  0.00000000000E+00 0. -1.
         21   -1    0    0  501  502 -0.00000000000E+00 -0.00000000000E+00 -0.25529589992E+03  0.25529589992E+03  0.00000000000E+00 0. -1.
         25    1    1    2    0    0  0.48734985502E+02  0.43704760459E+02  0.24726338879E+03  0.28469174265E+03  0.12500000000E+03 0.  0.
         25    1    1    2    0    0 -0.18015315306E+02  0.11977790800E+03  0.26101815154E+03  0.31373041654E+03  0.12500000000E+03 0.  0.
         25    1    1    2    0    0 -0.30719670195E+02 -0.16348266846E+03 -0.15873889835E+03  0.26171228262E+03  0.12500000000E+03 0.  0.
</event>
<event>
 5    0  0.5619558E-005  0.3212353E+03  0.7546771E-02  0.1075082E+00
         21   -1    0    0  502  501  0.00000000000E+00  0.00000000000E+00  0.99089691706E+02  0.99089691706E+02  0.00000000000E+00 0.  1.
         21   -1    0    0  501  502 -0.00000000000E+00 -0.00000000000E+00 -0.10414011110E+04  0.10414011110E+04  0.00000000000E+00 0.  1.
         25    1    1    2    0    0 -0.14919587000E+03  0.16476378640E+03 -0.54500260771E+03  0.60171368220E+03  0.12500000000E+03 0.  0.
         25    1    1    2    0    0  0.12519031948E+03 -0.12100113193E+03 -0.16576939058E+03  0.27095826408E+03  0.12500000000E+03 0.  0.
         25    1    1    2    0    0  0.24005550519E+02 -0.43762654470E+02 -0.23153942099E+03  0.26781885642E+03  0.12500000000E+03 0.  0.
</event>
<event>
 5    0  0.5619558E-005  0.4527806E+03  0.7546771E-02  0.1026896E+00
         21   -1    0    0  502  501  0.00000000000E+00  0.00000000000E+00  0.25794313733E+03  0.25794313733E+03  0.00000000000E+00 0. -1.
         21   -1    0    0  501  502 -0.00000000000E+00 -0.00000000000E+00 -0.79478852951E+03  0.79478852951E+03  0.00000000000E+00 0. -1.
         25    1    1    2    0    0  0.31170221638E+03  0.32030211501E+02 -0.16056714268E+03  0.37361880768E+03  0.12500000000E+03 0.  0.
         25    1    1    2    0    0  0.88546414955E+01  0.94194003605E+02 -0.24292411867E+03  0.28911596708E+03  0.12500000000E+03 0.  0.
         25    1    1    2    0    0 -0.32055685788E+03 -0.12622421511E+03 -0.13335413084E+03  0.38999689207E+03  0.12500000000E+03 0.  0.
</event>
<event>
 5    0  0.5619558E-005  0.2620739E+03  0.7546771E-02  0.1105904E+00
         21   -1    0    0  502  501  0.00000000000E+00  0.00000000000E+00  0.11713845325E+03  0.11713845325E+03  0.00000000000E+00 0.  1.
         21   -1    0    0  501  502 -0.00000000000E+00 -0.00000000000E+00 -0.58633784003E+03  0.58633784003E+03  0.00000000000E+00 0.  1.
         25    1    1    2    0    0 -0.40486687728E+02  0.43015299895E+02 -0.13625951049E+02  0.13892499577E+03  0.12500000000E+03 0.  0.
         25    1    1    2    0    0 -0.15095988297E+02  0.73501767024E+02 -0.14427769903E+03  0.20511326885E+03  0.12500000000E+03 0.  0.
         25    1    1    2    0    0  0.55582676025E+02 -0.11651706692E+03 -0.31129573670E+03  0.35943802866E+03  0.12500000000E+03 0.  0.
</event>
<event>
 5    0  0.5619558E-005  0.2959189E+03  0.7546771E-02  0.1087299E+00
         21   -1    0    0  502  501  0.00000000000E+00  0.00000000000E+00  0.19926468275E+03  0.19926468275E+03  0.00000000000E+00 0.  1.
         21   -1    0    0  501  502 -0.00000000000E+00 -0.00000000000E+00 -0.43945575930E+03  0.43945575930E+03  0.00000000000E+00 0.  1.
         25    1    1    2    0    0 -0.11019069873E+00  0.13689232539E+03 -0.13113824737E+02  0.18583996689E+03  0.12500000000E+03 0.  0.
         25    1    1    2    0    0  0.13145716563E+03 -0.98347957311E+02 -0.11400364601E+03  0.23574379824E+03  0.12500000000E+03 0.  0.
         25    1    1    2    0    0 -0.13134697493E+03 -0.38544368081E+02 -0.11307360581E+03  0.21713667692E+03  0.12500000000E+03 0.  0.
</event>
<event>
 5    0  0.5619558E-005  0.2316528E+03  0.7546771E-02  0.1125482E+00
         21   -1    0    0  502  501  0.00000000000E+00  0.00000000000E+00  0.48798214325E+02  0.48798214325E+02  0.00000000000E+00 0.  1.
         21   -1    0    0  501  502 -0.00000000000E+00 -0.00000000000E+00 -0.10996926757E+04  0.10996926757E+04  0.00000000000E+00 0.  1.
         25    1    1    2    0    0  0.64619007681E+02 -0.97785574210E+02 -0.31523372182E+03  0.35879650786E+03  0.12500000000E+03 0.  0.
         25    1    1    2    0    0 -0.31760686993E+02  0.37454033690E+02 -0.25348538754E+03  0.28686475485E+03  0.12500000000E+03 0.  0.
         25    1    1    2    0    0 -0.32858320687E+02  0.60331540520E+02 -0.48217535202E+03  0.50282962732E+03  0.12500000000E+03 0.  0.
</event>
<event>
 5    0  0.5619558E-005  0.3890426E+03  0.7546771E-02  0.1047641E+00
         21   -1    0    0  502  501  0.00000000000E+00  0.00000000000E+00  0.66748955915E+03  0.66748955915E+03  0.00000000000E+00 0.  1.
         21   -1    0    0  501  502 -0.00000000000E+00 -0.00000000000E+00 -0.22675131405E+03  0.22675131405E+03  0.00000000000E+00 0.  1.
         25    1    1    2    0    0  0.59950656871E+02  0.20464867747E+03  0.63370586812E+02  0.25517835668E+03  0.12500000000E+03 0.  0.
         25    1    1    2    0    0 -0.17000496897E+03 -0.24656156482E+03  0.15938664933E+03  0.36155690936E+03  0.12500000000E+03 0.  0.
         25    1    1    2    0    0  0.11005431210E+03  0.41912887350E+02  0.21798100896E+03  0.27750560716E+03  0.12500000000E+03 0.  0.
</event>
<event>
 5    0  0.5619558E-005  0.3167422E+03  0.7546771E-02  0.1077158E+00
         21   -1    0    0  502  501  0.00000000000E+00  0.00000000000E+00  0.73786940360E+02  0.73786940360E+02  0.00000000000E+00 0.  1.
         21   -1    0    0  501  502 -0.00000000000E+00 -0.00000000000E+00 -0.13596666258E+04  0.13596666258E+04  0.00000000000E+00 0.  1.
         25    1    1    2    0    0 -0.44117990401E+02 -0.14499583917E+03 -0.45097615230E+03  0.49190921967E+03  0.12500000000E+03 0.  0.
         25    1    1    2    0    0 -0.12153857686E+02 -0.81413490435E+02 -0.45147089687E+03  0.47563309746E+03  0.12500000000E+03 0.  0.
         25    1    1    2    0    0  0.56271848088E+02  0.22640932960E+03 -0.38343263631E+03  0.46591124907E+03  0.12500000000E+03 0.  0.
</event>
<event>
 5    0  0.5619558E-005  0.2910818E+03  0.7546771E-02  0.1089786E+00
         21   -1    0    0  502  501  0.00000000000E+00  0.00000000000E+00  0.10828960600E+04  0.10828960600E+04  0.00000000000E+00 0.  1.
         21   -1    0    0  501  502 -0.00000000000E+00 -0.00000000000E+00 -0.78242587740E+02  0.78242587740E+02  0.00000000000E+00 0.  1.
         25    1    1    2    0    0  0.11721731134E+03  0.12128507393E+03  0.36115861982E+03  0.41774455820E+03  0.12500000000E+03 0.  0.
         25    1    1    2    0    0 -0.15428651858E+03 -0.13632921373E+03  0.42522873466E+03  0.48870692763E+03  0.12500000000E+03 0.  0.
         25    1    1    2    0    0  0.37069207238E+02  0.15044139802E+02  0.21826611774E+03  0.25468716187E+03  0.12500000000E+03 0.  0.
</event>
<event>
 5    0  0.5619558E-005  0.3721754E+03  0.7546771E-02  0.1053864E+00
         21   -1    0    0  502  501  0.00000000000E+00  0.00000000000E+00  0.14689781596E+03  0.14689781596E+03  0.00000000000E+00 0. -1.
         21   -1    0    0  501  502 -0.00000000000E+00 -0.00000000000E+00 -0.94293113032E+03  0.94293113032E+03  0.00000000000E+00 0. -1.
         25    1    1    2    0    0 -0.26473418952E+03  0.11573007099E+03 -0.41776992662E+03  0.52310070925E+03  0.12500000000E+03 0.  0.
         25    1    1    2    0    0  0.14555896035E+03 -0.10392376758E+03 -0.31336885410E+03  0.38185415950E+03  0.12500000000E+03 0.  0.
         25    1    1    2    0    0  0.11917522917E+03 -0.11806303408E+02 -0.64894533632E+02  0.18487407753E+03  0.12500000000E+03 0.  0.
</event>
<event>
 5    0  0.5619558E-005  0.2916881E+03  0.7546771E-02  0.1089471E+00
         21   -1    0    0  502  501  0.00000000000E+00  0.00000000000E+00  0.11820802472E+04  0.11820802472E+04  0.00000000000E+00 0. -1.
         21   -1    0    0  501  502 -0.00000000000E+00 -0.00000000000E+00 -0.71976441031E+02  0.71976441031E+02  0.00000000000E+00 0. -1.
         25    1    1    2    0    0 -0.53893829574E+02  0.48650251727E+02  0.17285774990E+03  0.22533573521E+03  0.12500000000E+03 0.  0.
         25    1    1    2    0    0 -0.81664267971E+01  0.84028035037E+02  0.73162272924E+03  0.74701018677E+03  0.12500000000E+03 0.  0.
         25    1    1    2    0    0  0.62060256371E+02 -0.13267828676E+03  0.20562332698E+03  0.28171076621E+03  0.12500000000E+03 0.  0.
</event>
<event>
 5    0  0.5619558E-005  0.3759161E+03  0.7546771E-02  0.1052454E+00
         21   -1    0    0  502  501  0.00000000000E+00  0.00000000000E+00  0.14902286666E+04  0.14902286666E+04  0.00000000000E+00 0. -1.
         21   -1    0    0  501  502 -0.00000000000E+00 -0.00000000000E+00 -0.94826314040E+02  0.94826314040E+02  0.00000000000E+00 0. -1.
         25    1    1    2    0    0 -0.13026206630E+03 -0.18523354383E+03  0.58864034941E+03  0.64296355467E+03  0.12500000000E+03 0.  0.
         25    1    1    2    0    0  0.92876252419E+02 -0.35077895757E+02  0.57494861502E+03  0.59669704788E+03  0.12500000000E+03 0.  0.
         25    1    1    2    0    0  0.37385813877E+02  0.22031143959E+03  0.23181338809E+03  0.34539437805E+03  0.12500000000E+03 0.  0.
</event>
<event>
 5    0  0.5619558E-005  0.3359273E+03  0.7546771E-02  0.1068544E+00
         21   -1    0    0  502  501  0.00000000000E+00  0.00000000000E+00  0.82822980980E+03  0.82822980980E+03  0.00000000000E+00 0.  1.
         21   -1    0    0  501  502 -0.00000000000E+00 -0.00000000000E+00 -0.13625104725E+03  0.13625104725E+03  0.00000000000E+00 0.  1.
         25    1    1    2    0    0  0.11413943407E+03  0.13173542908E+03  0.16159329810E+03  0.26855060543E+03  0.12500000000E+03 0.  0.
         25    1    1    2    0    0 -0.14245573472E+03  0.77755430294E+02  0.23301310069E+03  0.31025739054E+03  0.12500000000E+03 0.  0.
         25    1    1    2    0    0  0.28316300649E+02 -0.20949085937E+03  0.29737236376E+03  0.38567286108E+03  0.12500000000E+03 0.  0.
</event>
<event>
 5    0  0.5619558E-005  0.2778898E+03  0.7546771E-02  0.1096847E+00
         21   -1    0    0  502  501  0.00000000000E+00  0.00000000000E+00  0.32121170836E+03  0.32121170836E+03  0.00000000000E+00 0. -1.
         21   -1    0    0  501  502 -0.00000000000E+00 -0.00000000000E+00 -0.24041072678E+03  0.24041072678E+03  0.00000000000E+00 0. -1.
         25    1    1    2    0    0 -0.12547478487E+03  0.37248374446E+02 -0.11188383831E+03  0.21277771573E+03  0.12500000000E+03 0.  0.
         25    1    1    2    0    0  0.54299605953E+02 -0.38676058886E+02  0.62532184554E+02  0.15485334624E+03  0.12500000000E+03 0.  0.
         25    1    1    2    0    0  0.71175178917E+02  0.14276844397E+01  0.13015263533E+03  0.19399137316E+03  0.12500000000E+03 0.  0.
</event>
<event>
 5    0  0.5619558E-005  0.4780729E+03  0.7546771E-02  0.1019666E+00
         21   -1    0    0  502  501  0.00000000000E+00  0.00000000000E+00  0.39525999541E+03  0.39525999541E+03  0.00000000000E+00 0.  1.
         21   -1    0    0  501  502 -0.00000000000E+00 -0.00000000000E+00 -0.57823628560E+03  0.57823628560E+03  0.00000000000E+00 0.  1.
         25    1    1    2    0    0 -0.13891828210E+01  0.33426247220E+03 -0.96327362484E+02  0.36964481725E+03  0.12500000000E+03 0.  0.
         25    1    1    2    0    0 -0.11833197637E+03 -0.37949074125E+03 -0.37840258476E+02  0.41841673543E+03  0.12500000000E+03 0.  0.
         25    1    1    2    0    0  0.11972115919E+03  0.45228269047E+02 -0.48808669229E+02  0.18543472833E+03  0.12500000000E+03 0.  0.
</event>
<event>
 5    0  0.5619558E-005  0.7419082E+03  0.7546771E-02  0.9648131E-01
         21   -1    0    0  502  501  0.00000000000E+00  0.00000000000E+00  0.79489399092E+03  0.79489399092E+03  0.00000000000E+00 0.  1.
         21   -1    0    0  501  502 -0.00000000000E+00 -0.00000000000E+00 -0.69245423261E+03  0.69245423261E+03  0.00000000000E+00 0.  1.
         25    1    1    2    0    0 -0.47780868181E+03  0.10311717264E+03  0.14633845613E+03  0.52533249609E+03  0.12500000000E+03 0.  0.
         25    1    1    2    0    0  0.57074304340E+03 -0.28173421310E+03  0.13811762247E+03  0.66319172647E+03  0.12500000000E+03 0.  0.
         25    1    1    2    0    0 -0.92934361588E+02  0.17861704045E+03 -0.18201632030E+03  0.29882400097E+03  0.12500000000E+03 0.  0.
</event>
<event>
 5    0  0.5619558E-005  0.2228850E+03  0.7546771E-02  0.1131750E+00
         21   -1    0    0  502  501  0.00000000000E+00  0.00000000000E+00  0.12971722528E+04  0.12971722528E+04  0.00000000000E+00 0.  1.
         21   -1    0    0  501  502 -0.00000000000E+00 -0.00000000000E+00 -0.38296920676E+02  0.38296920676E+02  0.00000000000E+00 0.  1.
         25    1    1    2    0    0 -0.22973079169E+02 -0.31466099823E+02  0.20802091847E+03  0.24579581023E+03  0.12500000000E+03 0.  0.
         25    1    1    2    0    0  0.31137038966E+02  0.29993207541E+02  0.29214618442E+03  0.32069222124E+03  0.12500000000E+03 0.  0.
         25    1    1    2    0    0 -0.81639597972E+01  0.14728922826E+01  0.75870822921E+03  0.76898114198E+03  0.12500000000E+03 0.  0.
</event>
<event>
 5    0  0.5619558E-005  0.2879858E+03  0.7546771E-02  0.1091405E+00
         21   -1    0    0  502  501  0.00000000000E+00  0.00000000000E+00  0.67906480108E+03  0.67906480108E+03  0.00000000000E+00 0.  1.
         21   -1    0    0  501  502 -0.00000000000E+00 -0.00000000000E+00 -0.12213239913E+03  0.12213239913E+03  0.00000000000E+00 0.  1.
         25    1    1    2    0    0  0.54618881130E+02 -0.55969710605E+02  0.10118514425E+02  0.14779450266E+03  0.12500000000E+03 0.  0.
         25    1    1    2    0    0 -0.11559585010E+03  0.10171149796E+03  0.22549894024E+03  0.30030384850E+03  0.12500000000E+03 0.  0.
         25    1    1    2    0    0  0.60976968966E+02 -0.45741787350E+02  0.32131494729E+03  0.35309884905E+03  0.12500000000E+03 0.  0.
</event>
<event>
 5    0  0.5619558E-005  0.2572475E+03  0.7546771E-02  0.1108808E+00
         21   -1    0    0  502  501  0.00000000000E+00  0.00000000000E+00  0.23460335419E+03  0.23460335419E+03  0.00000000000E+00 0.  1.
         21   -1    0    0  501  502 -0.00000000000E+00 -0.00000000000E+00 -0.28207717823E+03  0.28207717823E+03  0.00000000000E+00 0.  1.
         25    1    1    2    0    0  0.10314266968E+03 -0.99263633044E+01 -0.78242073385E+02  0.18023253048E+03  0.12500000000E+03 0.  0.
         25    1    1    2    0    0  0.41820232980E+01  0.75177723800E+02  0.58257081642E+02  0.15712436805E+03  0.12500000000E+03 0.  0.
         25    1    1    2    0    0 -0.10732469298E+03 -0.65251360495E+02 -0.27488832298E+02  0.17932363389E+03  0.12500000000E+03 0.  0.
</event>
<event>
 5    0  0.5619558E-005  0.2664146E+03  0.7546771E-02  0.1103349E+00
         21   -1    0    0  502  501  0.00000000000E+00  0.00000000000E+00  0.15877495729E+03  0.15877495729E+03  0.00000000000E+00 0. -1.
         21   -1    0    0  501  502 -0.00000000000E+00 -0.00000000000E+00 -0.44702730712E+03  0.44702730712E+03  0.00000000000E+00 0. -1.
         25    1    1    2    0    0  0.38985028919E+02  0.35563973312E+02 -0.17157538118E+03  0.21874126292E+03  0.12500000000E+03 0.  0.
         25    1    1    2    0    0  0.11106219445E+03 -0.20963963168E+02 -0.84772594172E+02  0.18864170141E+03  0.12500000000E+03 0.  0.
         25    1    1    2    0    0 -0.15004722337E+03 -0.14600010144E+02 -0.31904374485E+02  0.19841930009E+03  0.12500000000E+03 0.  0.
</event>
<event>
 5    0  0.5619558E-005  0.3107737E+03  0.7546771E-02  0.1079976E+00
         21   -1    0    0  502  501  0.00000000000E+00  0.00000000000E+00  0.65313217927E+02  0.65313217927E+02  0.00000000000E+00 0. -1.
         21   -1    0    0  501  502 -0.00000000000E+00 -0.00000000000E+00 -0.14787249054E+04  0.14787249054E+04  0.00000000000E+00 0. -1.
         25    1    1    2    0    0 -0.89962338021E+00 -0.16939638765E+03 -0.48303988238E+03  0.52692359355E+03  0.12500000000E+03 0.  0.
         25    1    1    2    0    0  0.70135979790E+02  0.41317270009E+02 -0.70732024987E+03  0.72287834961E+03  0.12500000000E+03 0.  0.
         25    1    1    2    0    0 -0.69236356410E+02  0.12807911764E+03 -0.22305155518E+03  0.29423618012E+03  0.12500000000E+03 0.  0.
</event>
<event>
 5    0  0.5619558E-005  0.2594200E+03  0.7546771E-02  0.1107492E+00
         21   -1    0    0  502  501  0.00000000000E+00  0.00000000000E+00  0.43727750251E+03  0.43727750251E+03  0.00000000000E+00 0. -1.
         21   -1    0    0  501  502 -0.00000000000E+00 -0.00000000000E+00 -0.15390398659E+03  0.15390398659E+03  0.00000000000E+00 0. -1.
         25    1    1    2    0    0  0.32464457181E+02  0.47524203143E+02  0.12643706337E+03  0.18687916379E+03  0.12500000000E+03 0.  0.
         25    1    1    2    0    0 -0.12677547254E+03 -0.91129452183E+02  0.13254518537E+03  0.23993712439E+03  0.12500000000E+03 0.  0.
         25    1    1    2    0    0  0.94311015357E+02  0.43605249040E+02  0.24391267173E+02  0.16436520093E+03  0.12500000000E+03 0.  0.
</event>
<event>
 5    0  0.5619558E-005  0.2945154E+03  0.7546771E-02  0.1088015E+00
         21   -1    0    0  502  501  0.00000000000E+00  0.00000000000E+00  0.49033732694E+03  0.49033732694E+03  0.00000000000E+00 0.  1.
         21   -1    0    0  501  502 -0.00000000000E+00 -0.00000000000E+00 -0.17689721087E+03  0.17689721087E+03  0.00000000000E+00 0.  1.
         25    1    1    2    0    0 -0.15260071183E+03  0.26956693221E+02  0.94665058734E+02  0.22045433519E+03  0.12500000000E+03 0.  0.
         25    1    1    2    0    0  0.17238430520E+03 -0.18518055790E+02  0.25015210317E+02  0.21519764826E+03  0.12500000000E+03 0.  0.
         25    1    1    2    0    0 -0.19783593369E+02 -0.84386374312E+01  0.19375984702E+03  0.23158255436E+03  0.12500000000E+03 0.  0.
</event>
<event>
 5    0  0.5619558E-005  0.2912691E+03  0.7546771E-02  0.1089688E+00
         21   -1    0    0  502  501  0.00000000000E+00  0.00000000000E+00  0.28951546886E+03  0.28951546886E+03  0.00000000000E+00 0.  1.
         21   -1    0    0  501  502 -0.00000000000E+00 -0.00000000000E+00 -0.29303337026E+03  0.29303337026E+03  0.00000000000E+00 0.  1.
         25    1    1    2    0    0  0.20582180158E+02 -0.40344955665E+02  0.11515281823E+03  0.17588778563E+03  0.12500000000E+03 0.  0.
         25    1    1    2    0    0  0.65044919200E+02 -0.10738741801E+03 -0.60195432438E+02  0.18711330564E+03  0.12500000000E+03 0.  0.
         25    1    1    2    0    0 -0.85627099357E+02  0.14773237368E+03 -0.58475287189E+02  0.21954774785E+03  0.12500000000E+03 0.  0.
</event>
<event>
 5    0  0.5619558E-005  0.2618780E+03  0.7546771E-02  0.1106020E+00
         21   -1    0    0  502  501  0.00000000000E+00  0.00000000000E+00  0.46057926477E+03  0.46057926477E+03  0.00000000000E+00 0.  1.
         21   -1    0    0  501  502 -0.00000000000E+00 -0.00000000000E+00 -0.14889961725E+03  0.14889961725E+03  0.00000000000E+00 0.  1.
         25    1    1    2    0    0  0.13355808030E+03  0.43987936149E+02  0.22430640613E+03  0.29276451829E+03  0.12500000000E+03 0.  0.
         25    1    1    2    0    0 -0.89426995918E+02 -0.48558943719E+02  0.88881653462E+02  0.18406549632E+03  0.12500000000E+03 0.  0.
         25    1    1    2    0    0 -0.44131084378E+02  0.45710075701E+01 -0.15084120616E+01  0.13264886741E+03  0.12500000000E+03 0.  0.
</event>
<event>
 5    0  0.5619558E-005  0.3411188E+03  0.7546771E-02  0.1066320E+00
         21   -1    0    0  502  501  0.00000000000E+00  0.00000000000E+00  0.32251835735E+03  0.32251835735E+03  0.00000000000E+00 0. -1.
         21   -1    0    0  501  502 -0.00000000000E+00 -0.00000000000E+00 -0.36079194170E+03  0.36079194170E+03  0.00000000000E+00 0. -1.
         25    1    1    2    0    0  0.98848028931E+02  0.65091353370E+02 -0.17168460412E+03  0.24312223345E+03  0.12500000000E+03 0.  0.
         25    1    1    2    0    0  0.11037681410E+03 -0.21104408797E+02  0.25381128839E+02  0.16999305534E+03  0.12500000000E+03 0.  0.
         25    1    1    2    0    0 -0.20922484303E+03 -0.43986944574E+02  0.10802989093E+03  0.27019501026E+03  0.12500000000E+03 0.  0.
</event>
<event>
 5    0  0.5619558E-005  0.2591292E+03  0.7546771E-02  0.1107668E+00
         21   -1    0    0  502  501  0.00000000000E+00  0.00000000000E+00  0.40838433631E+03  0.40838433631E+03  0.00000000000E+00 0. -1.
         21   -1    0    0  501  502 -0.00000000000E+00 -0.00000000000E+00 -0.16442334186E+03  0.16442334186E+03  0.00000000000E+00 0. -1.
         25    1    1    2    0    0 -0.46224467193E+02 -0.11355893895E+03  0.57300508300E+02  0.18422997105E+03  0.12500000000E+03 0.  0.
         25    1    1    2    0    0 -0.62362864593E+02  0.10500052773E+03  0.88278443568E+02  0.19578641756E+03  0.12500000000E+03 0.  0.
         25    1    1    2    0    0  0.10858733179E+03  0.85584112193E+01  0.98382042582E+02  0.19279128956E+03  0.12500000000E+03 0.  0.
</event>
<event>
 5    0  0.5619558E-005  0.4040144E+03  0.7546771E-02  0.1042398E+00
         21   -1    0    0  502  501  0.00000000000E+00  0.00000000000E+00  0.10186721293E+03  0.10186721293E+03  0.00000000000E+00 0.  1.
         21   -1    0    0  501  502 -0.00000000000E+00 -0.00000000000E+00 -0.16023567394E+04  0.16023567394E+04  0.00000000000E+00 0.  1.
         25    1    1    2    0    0 -0.16937765935E+03  0.12816831385E+03 -0.61800188317E+03  0.66533242501E+03  0.12500000000E+03 0.  0.
         25    1    1    2    0    0  0.26444482005E+03  0.64262553214E+02 -0.50038854244E+03  0.58315901091E+03  0.12500000000E+03 0.  0.
         25    1    1    2    0    0 -0.95067160693E+02 -0.19243086706E+03 -0.38209910087E+03  0.45573251643E+03  0.12500000000E+03 0.  0.
</event>
<event>
 5    0  0.5619558E-005  0.8325624E+03  0.7546771E-02  0.9514045E-01
         21   -1    0    0  502  501  0.00000000000E+00  0.00000000000E+00  0.54807245832E+03  0.54807245832E+03  0.00000000000E+00 0. -1.
         21   -1    0    0  501  502 -0.00000000000E+00 -0.00000000000E+00 -0.12647237042E+04  0.12647237042E+04  0.00000000000E+00 0. -1.
         25    1    1    2    0    0  0.56115222794E+03  0.47724092130E+03 -0.37100772226E+03  0.83421966523E+03  0.12500000000E+03 0.  0.
         25    1    1    2    0    0 -0.88559758006E+02 -0.24792931334E+03  0.66947573445E+02  0.29902968538E+03  0.12500000000E+03 0.  0.
         25    1    1    2    0    0 -0.47259246994E+03 -0.22931160796E+03 -0.41259109706E+03  0.67954681189E+03  0.12500000000E+03 0.  0.
</event>
<event>
 5    0  0.5619558E-005  0.2442107E+03  0.7546771E-02  0.1117019E+00
         21   -1    0    0  502  501  0.00000000000E+00  0.00000000000E+00  0.67654268259E+02  0.67654268259E+02  0.00000000000E+00 0.  1.
         21   -1    0    0  501  502 -0.00000000000E+00 -0.00000000000E+00 -0.88152431255E+03  0.88152431255E+03  0.00000000000E+00 0.  1.
         25    1    1    2    0    0 -0.15048548269E+02 -0.24732143906E+02 -0.26073430698E+03  0.29059510764E+03  0.12500000000E+03 0.  0.
         25    1    1    2    0    0 -0.10246893316E+03  0.15386590030E+02 -0.15289971710E+03  0.22302455673E+03  0.12500000000E+03 0.  0.
         25    1    1    2    0    0  0.11751748142E+03  0.93455538763E+01 -0.40023602021E+03  0.43555891644E+03  0.12500000000E+03 0.  0.
</event>
<event>
 5    0  0.5619558E-005  0.2374447E+03  0.7546771E-02  0.1121507E+00
         21   -1    0    0  502  501  0.00000000000E+00  0.00000000000E+00  0.62381097852E+02  0.62381097852E+02  0.00000000000E+00 0.  1.
         21   -1    0    0  501  502 -0.00000000000E+00 -0.00000000000E+00 -0.90379881029E+03  0.90379881029E+03  0.00000000000E+00 0.  1.
         25    1    1    2    0    0 -0.30010189880E+02  0.78138525482E+01 -0.11401556469E+03  0.17200644401E+03  0.12500000000E+03 0.  0.
         25    1    1    2    0    0  0.10665391146E+03 -0.97442865411E+01 -0.46921175197E+03  0.49724709767E+03  0.12500000000E+03 0.  0.
         25    1    1    2    0    0 -0.76643721580E+02  0.19304339929E+01 -0.25819039577E+03  0.29692636646E+03  0.12500000000E+03 0.  0.
</event>
<event>
 5    0  0.5619558E-005  0.4297753E+03  0.7546771E-02  0.1033931E+00
         21   -1    0    0  502  501  0.00000000000E+00  0.00000000000E+00  0.15069315262E+03  0.15069315262E+03  0.00000000000E+00 0.  1.
         21   -1    0    0  501  502 -0.00000000000E+00 -0.00000000000E+00 -0.12257145649E+04  0.12257145649E+04  0.00000000000E+00 0.  1.
         25    1    1    2    0    0 -0.11538228339E+02 -0.94840598272E+01 -0.50158271627E+03  0.51713953568E+03  0.12500000000E+03 0.  0.
         25    1    1    2    0    0 -0.18049523631E+03 -0.20852658691E+03 -0.17211206692E+03  0.34829503493E+03  0.12500000000E+03 0.  0.
         25    1    1    2    0    0  0.19203346465E+03  0.21801064674E+03 -0.40132662909E+03  0.51097314690E+03  0.12500000000E+03 0.  0.
</event>
<event>
 5    0  0.5619558E-005  0.6953753E+03  0.7546771E-02  0.9725174E-01
         21   -1    0    0  502  501  0.00000000000E+00  0.00000000000E+00  0.10670095082E+04  0.10670095082E+04  0.00000000000E+00 0. -1.
         21   -1    0    0  501  502 -0.00000000000E+00 -0.00000000000E+00 -0.45317946320E+03  0.45317946320E+03  0.00000000000E+00 0. -1.
         25    1    1    2    0    0 -0.75335774083E+02 -0.60540685622E+02 -0.12983507018E+03  0.20450623198E+03  0.12500000000E+03 0.  0.
         25    1    1    2    0    0  0.53005290460E+03  0.10187763024E+03  0.60942175175E+03  0.82362309628E+03  0.12500000000E+03 0.  0.
         25    1    1    2    0    0 -0.45471713052E+03 -0.41336944617E+02  0.13424336343E+03  0.49205964313E+03  0.12500000000E+03 0.  0.
</event>
<event>
 5    0  0.5619558E-005  0.4458676E+03  0.7546771E-02  0.1028962E+00
         21   -1    0    0  502  501  0.00000000000E+00  0.00000000000E+00  0.44449276863E+03  0.44449276863E+03  0.00000000000E+00 0. -1.
         21   -1    0    0  501  502 -0.00000000000E+00 -0.00000000000E+00 -0.44724665853E+03  0.44724665853E+03  0.00000000000E+00 0.  1.
         25    1    1    2    0    0  0.19041134040E+03  0.24259267140E+03  0.22434543547E+02  0.33352060133E+03  0.12500000000E+03 0.  0.
         25    1    1    2    0    0  0.46163466694E+02 -0.12254363814E+02 -0.13340264024E+03  0.18895105057E+03  0.12500000000E+03 0.  0.
         25    1    1    2    0    0 -0.23657480709E+03 -0.23033830758E+03  0.10821420679E+03  0.36926777526E+03  0.12500000000E+03 0.  0.
</event>
<event>
 5    0  0.5619558E-005  0.5070314E+03  0.7546771E-02  0.1011960E+00
         21   -1    0    0  502  501  0.00000000000E+00  0.00000000000E+00  0.36512080091E+03  0.36512080091E+03  0.00000000000E+00 0. -1.
         21   -1    0    0  501  502 -0.00000000000E+00 -0.00000000000E+00 -0.70409795918E+03  0.70409795918E+03  0.00000000000E+00 0. -1.
         25    1    1    2    0    0  0.15531294190E+03  0.24902318575E+03 -0.22445248361E+03  0.39004945117E+03  0.12500000000E+03 0.  0.
         25    1    1    2    0    0 -0.25659035615E+03  0.40725489690E+02 -0.18200744313E+03  0.34095290838E+03  0.12500000000E+03 0.  0.
         25    1    1    2    0    0  0.10127741424E+03 -0.28974867543E+03  0.67482768464E+02  0.33821640054E+03  0.12500000000E+03 0.  0.
</event>
<event>
 5    0  0.5619558E-005  0.2454882E+03  0.7546771E-02  0.1116190E+00
         21   -1    0    0  502  501  0.00000000000E+00  0.00000000000E+00  0.27244983339E+03  0.27244983339E+03  0.00000000000E+00 0.  1.
         21   -1    0    0  501  502 -0.00000000000E+00 -0.00000000000E+00 -0.22119468033E+03  0.22119468033E+03  0.00000000000E+00 0.  1.
         25    1    1    2    0    0  0.46787297611E+02  0.36999895969E+02 -0.67770075215E+02  0.15419411991E+03  0.12500000000E+03 0.  0.
         25    1    1    2    0    0 -0.51854058132E+02  0.14130148758E+02  0.14820105794E+03  0.20118911010E+03  0.12500000000E+03 0.  0.
         25    1    1    2    0    0  0.50667605206E+01 -0.51130044728E+02 -0.29175829673E+02  0.13826128371E+03  0.12500000000E+03 0.  0.
</event>
<event>
 5    0  0.5619558E-005  0.5629232E+03  0.7546771E-02  0.9985462E-01
         21   -1    0    0  502  501  0.00000000000E+00  0.00000000000E+00  0.35679533836E+03  0.35679533836E+03  0.00000000000E+00 0.  1.
         21   -1    0    0  501  502 -0.00000000000E+00 -0.00000000000E+00 -0.88813543452E+03  0.88813543452E+03  0.00000000000E+00 0.  1.
         25    1    1    2    0    0 -0.42591816820E+03 -0.18268970091E+03 -0.38561803305E+03  0.61571753283E+03  0.12500000000E+03 0.  0.
         25    1    1    2    0    0  0.41752188875E+03  0.17636171497E+03 -0.17274709695E+03  0.50089374282E+03  0.12500000000E+03 0.  0.
         25    1    1    2    0    0  0.83962794511E+01  0.63279859399E+01  0.27025033832E+02  0.12831949723E+03  0.12500000000E+03 0.  0.
</event>
<event>
 5    0  0.5619558E-005  0.3446225E+03  0.7546771E-02  0.1064844E+00
         21   -1    0    0  502  501  0.00000000000E+00  0.00000000000E+00  0.70782554117E+03  0.70782554117E+03  0.00000000000E+00 0.  1.
         21   -1    0    0  501  502 -0.00000000000E+00 -0.00000000000E+00 -0.16778805471E+03  0.16778805471E+03  0.00000000000E+00 0.  1.
         25    1    1    2    0    0  0.42979852605E+01  0.12048391929E+03  0.21202923107E+03  0.27407342504E+03  0.12500000000E+03 0.  0.
         25    1    1    2    0    0  0.66375975376E+02 -0.26059989815E+03  0.14552253676E+03  0.33033299219E+03  0.12500000000E+03 0.  0.
         25    1    1    2    0    0 -0.70673960637E+02  0.14011597886E+03  0.18248571864E+03  0.27120717865E+03  0.12500000000E+03 0.  0.
</event>
<event>
 5    0  0.5619558E-005  0.2215650E+03  0.7546771E-02  0.1132722E+00
         21   -1    0    0  502  501  0.00000000000E+00  0.00000000000E+00  0.68360569574E+03  0.68360569574E+03  0.00000000000E+00 0.  1.
         21   -1    0    0  501  502 -0.00000000000E+00 -0.00000000000E+00 -0.71811946287E+02  0.71811946287E+02  0.00000000000E+00 0.  1.
         25    1    1    2    0    0 -0.14997717352E+02 -0.16655458057E+01  0.13451890599E+03  0.18424994339E+03  0.12500000000E+03 0.  0.
         25    1    1    2    0    0 -0.38434581058E+02 -0.64737730623E+02  0.32625248588E+03  0.35739876235E+03  0.12500000000E+03 0.  0.
         25    1    1    2    0    0  0.53432298410E+02  0.66403276429E+02  0.15102235758E+03  0.21376893629E+03  0.12500000000E+03 0.  0.
</event>
<event>
 5    0  0.5619558E-005  0.5145339E+03  0.7546771E-02  0.1010053E+00
         21   -1    0    0  502  501  0.00000000000E+00  0.00000000000E+00  0.21844066628E+03  0.21844066628E+03  0.00000000000E+00 0.  1.
         21   -1    0    0  501  502 -0.00000000000E+00 -0.00000000000E+00 -0.12119774289E+04  0.12119774289E+04  0.00000000000E+00 0. -1.
         25    1    1    2    0    0  0.14784611426E+03 -0.28154194241E+03 -0.32461745979E+03  0.47130227460E+03  0.12500000000E+03 0.  0.
         25    1    1    2    0    0 -0.33956413383E+03  0.25654525482E+03 -0.52632749319E+03  0.68830581782E+03  0.12500000000E+03 0.  0.
         25    1    1    2    0    0  0.19171801957E+03  0.24996687591E+02 -0.14259180961E+03  0.27081000275E+03  0.12500000000E+03 0.  0.
</event>
<event>
 5    0  0.1091052E-004  0.7116755E+03  0.7546771E-02  0.9697471E-01
         21   -1    0    0  502  501  0.00000000000E+00  0.00000000000E+00  0.74502983426E+03  0.74502983426E+03  0.00000000000E+00 0.  1.
         21   -1    0    0  501  502 -0.00000000000E+00 -0.00000000000E+00 -0.67981442384E+03  0.67981442384E+03  0.00000000000E+00 0.  1.
         25    1    1    2    0    0 -0.44626400352E+02  0.36078574196E+03  0.20469631199E+03  0.43552663219E+03  0.12500000000E+03 0.  0.
         25    1    1    2    0    0 -0.13049250829E+02 -0.54006457635E+02 -0.48694434632E+03  0.50579321548E+03  0.12500000000E+03 0.  0.
         25    1    1    2    0    0  0.57675651181E+02 -0.30677928432E+03  0.34746344475E+03  0.48352441042E+03  0.12500000000E+03 0.  0.
</event>
<event>
 5    0  0.5619558E-005  0.4316182E+03  0.7546771E-02  0.1033350E+00
         21   -1    0    0  502  501  0.00000000000E+00  0.00000000000E+00  0.62690774081E+03  0.62690774081E+03  0.00000000000E+00 0.  1.
         21   -1    0    0  501  502 -0.00000000000E+00 -0.00000000000E+00 -0.29716380227E+03  0.29716380227E+03  0.00000000000E+00 0.  1.
         25    1    1    2    0    0 -0.28252509040E+03 -0.20265279359E+03  0.16742513767E+03  0.40564116924E+03  0.12500000000E+03 0.  0.
         25    1    1    2    0    0  0.26673195631E+03  0.21655456463E+03  0.12104422657E+03  0.38512143639E+03  0.12500000000E+03 0.  0.
         25    1    1    2    0    0  0.15793134088E+02 -0.13901771040E+02  0.41274574297E+02  0.13330893746E+03  0.12500000000E+03 0.  0.
</event>
<event>
 5    0  0.5619558E-005  0.3730489E+03  0.7546771E-02  0.1053533E+00
         21   -1    0    0  502  501  0.00000000000E+00  0.00000000000E+00  0.21999356596E+03  0.21999356596E+03  0.00000000000E+00 0. -1.
         21   -1    0    0  501  502 -0.00000000000E+00 -0.00000000000E+00 -0.63258881035E+03  0.63258881035E+03  0.00000000000E+00 0. -1.
         25    1    1    2    0    0 -0.40047163632E+02  0.26819832389E+03 -0.12157319710E+03  0.32239596540E+03  0.12500000000E+03 0.  0.
         25    1    1    2    0    0  0.77302282542E+02 -0.13728562527E+03 -0.19935342771E+02  0.20210245838E+03  0.12500000000E+03 0.  0.
         25    1    1    2    0    0 -0.37255118910E+02 -0.13091269863E+03 -0.27108670451E+03  0.32808395253E+03  0.12500000000E+03 0.  0.
</event>
<event>
 5    0  0.5619558E-005  0.2630715E+03  0.7546771E-02  0.1105312E+00
         21   -1    0    0  502  501  0.00000000000E+00  0.00000000000E+00  0.12939395253E+03  0.12939395253E+03  0.00000000000E+00 0. -1.
         21   -1    0    0  501  502 -0.00000000000E+00 -0.00000000000E+00 -0.53485209580E+03  0.53485209580E+03  0.00000000000E+00 0. -1.
         25    1    1    2    0    0 -0.36825160574E+01 -0.34602789403E+02 -0.14392628467E+03  0.19378000252E+03  0.12500000000E+03 0.  0.
         25    1    1    2    0    0  0.99919596220E+02 -0.92459707532E+02 -0.92664941148E+02  0.20674746563E+03  0.12500000000E+03 0.  0.
         25    1    1    2    0    0 -0.96237080163E+02  0.12706249693E+03 -0.16886691744E+03  0.26371858018E+03  0.12500000000E+03 0.  0.
</event>
<event>
 5    0  0.5619558E-005  0.2502436E+03  0.7546771E-02  0.1113151E+00
         21   -1    0    0  502  501  0.00000000000E+00  0.00000000000E+00  0.37302376260E+02  0.37302376260E+02  0.00000000000E+00 0. -1.
         21   -1    0    0  501  502 -0.00000000000E+00 -0.00000000000E+00 -0.16787633707E+04  0.16787633707E+04  0.00000000000E+00 0. -1.
         25    1    1    2    0    0 -0.86750815055E+02 -0.80677933117E+02 -0.53107606257E+03  0.55830226315E+03  0.12500000000E+03 0.  0.
         25    1    1    2    0    0  0.42700046406E+02 -0.47744349672E+02 -0.55610598741E+03  0.57356925138E+03  0.12500000000E+03 0.  0.
         25    1    1    2    0    0  0.44050768650E+02  0.12842228279E+03 -0.55427894442E+03  0.58419423240E+03  0.12500000000E+03 0.  0.
</event>
<event>
 5    0  0.5619558E-005  0.2299836E+03  0.7546771E-02  0.1126651E+00
         21   -1    0    0  502  501  0.00000000000E+00  0.00000000000E+00  0.34251817989E+03  0.34251817989E+03  0.00000000000E+00 0.  1.
         21   -1    0    0  501  502 -0.00000000000E+00 -0.00000000000E+00 -0.15442235666E+03  0.15442235666E+03  0.00000000000E+00 0.  1.
         25    1    1    2    0    0  0.97538082386E+01 -0.19543112415E+02  0.67453861367E+01  0.12707309020E+03  0.12500000000E+03 0.  0.
         25    1    1    2    0    0  0.43875465793E+02 -0.78929206026E+02  0.93757678819E+02  0.18047265278E+03  0.12500000000E+03 0.  0.
         25    1    1    2    0    0 -0.53629274032E+02  0.98472318440E+02  0.87592758279E+02  0.18939479358E+03  0.12500000000E+03 0.  0.
</event>
<event>
 5    0  0.5619558E-005  0.3914248E+03  0.7546771E-02  0.1046790E+00
         21   -1    0    0  502  501  0.00000000000E+00  0.00000000000E+00  0.14509238073E+03  0.14509238073E+03  0.00000000000E+00 0. -1.
         21   -1    0    0  501  502 -0.00000000000E+00 -0.00000000000E+00 -0.10559711947E+04  0.10559711947E+04  0.00000000000E+00 0. -1.
         25    1    1    2    0    0  0.15808883606E+03  0.48766955321E+02 -0.48771911077E+03  0.52996719430E+03  0.12500000000E+03 0.  0.
         25    1    1    2    0    0  0.71514408603E+02 -0.17037124740E+03 -0.24873672776E+03  0.33411918878E+03  0.12500000000E+03 0.  0.
         25    1    1    2    0    0 -0.22960324466E+03  0.12160429208E+03 -0.17442297547E+03  0.33697719238E+03  0.12500000000E+03 0.  0.
</event>
<event>
 5    0  0.5619558E-005  0.3267806E+03  0.7546771E-02  0.1072570E+00
         21   -1    0    0  502  501  0.00000000000E+00  0.00000000000E+00  0.73663527074E+02  0.73663527074E+02  0.00000000000E+00 0. -1.
         21   -1    0    0  501  502 -0.00000000000E+00 -0.00000000000E+00 -0.14496396504E+04  0.14496396504E+04  0.00000000000E+00 0. -1.
         25    1    1    2    0    0 -0.23299365139E+03  0.92492689142E+02 -0.50363168810E+03  0.57629056594E+03  0.12500000000E+03 0.  0.
         25    1    1    2    0    0  0.97157046630E+02 -0.55667282091E+01 -0.46833915538E+03  0.49440574899E+03  0.12500000000E+03 0.  0.
         25    1    1    2    0    0  0.13583660476E+03 -0.86925960933E+02 -0.40400527987E+03  0.45260686256E+03  0.12500000000E+03 0.  0.
</event>
<event>
 5    0  0.5619558E-005  0.2386371E+03  0.7546771E-02  0.1120704E+00
         21   -1    0    0  502  501  0.00000000000E+00  0.00000000000E+00  0.31858741349E+02  0.31858741349E+02  0.00000000000E+00 0.  1.
         21   -1    0    0  501  502 -0.00000000000E+00 -0.00000000000E+00 -0.17875045139E+04  0.17875045139E+04  0.00000000000E+00 0.  1.
         25    1    1    2    0    0 -0.34364442140E+02 -0.12740595596E+03 -0.80022445187E+03  0.82060792457E+03  0.12500000000E+03 0.  0.
         25    1    1    2    0    0 -0.92106644041E+01  0.72218711179E+02 -0.55035301987E+03  0.56904641732E+03  0.12500000000E+03 0.  0.
         25    1    1    2    0    0  0.43575106544E+02  0.55187244782E+02 -0.40506830080E+03  0.42970891334E+03  0.12500000000E+03 0.  0.
</event>
<event>
 5    0  0.5619558E-005  0.2503863E+03  0.7546771E-02  0.1113061E+00
         21   -1    0    0  502  501  0.00000000000E+00  0.00000000000E+00  0.39824595827E+03  0.39824595827E+03  0.00000000000E+00 0.  1.
         21   -1    0    0  501  502 -0.00000000000E+00 -0.00000000000E+00 -0.15742352272E+03  0.15742352272E+03  0.00000000000E+00 0.  1.
         25    1    1    2    0    0 -0.42941227407E+02  0.48229680904E+02  0.72494735983E+02  0.15827361712E+03  0.12500000000E+03 0.  0.
         25    1    1    2    0    0  0.68547710431E+02 -0.79049471598E+02 -0.23767783425E+02  0.16473468091E+03  0.12500000000E+03 0.  0.
         25    1    1    2    0    0 -0.25606483024E+02  0.30819790695E+02  0.19209548299E+03  0.23266118296E+03  0.12500000000E+03 0.  0.
</event>
<event>
 5    0  0.5619558E-005  0.2174761E+03  0.7546771E-02  0.1135779E+00
         21   -1    0    0  502  501  0.00000000000E+00  0.00000000000E+00  0.63291471340E+02  0.63291471340E+02  0.00000000000E+00 0. -1.
         21   -1    0    0  501  502 -0.00000000000E+00 -0.00000000000E+00 -0.74727025553E+03  0.74727025553E+03  0.00000000000E+00 0. -1.
         25    1    1    2    0    0 -0.28657597126E+02 -0.90100230069E+02 -0.19061731611E+03  0.24677777561E+03  0.12500000000E+03 0.  0.
         25    1    1    2    0    0  0.42625790456E+01  0.18355779748E+02 -0.24112717192E+03  0.27225432461E+03  0.12500000000E+03 0.  0.
         25    1    1    2    0    0  0.24395018080E+02  0.71744450322E+02 -0.25223429616E+03  0.29152962666E+03  0.12500000000E+03 0.  0.
</event>
<event>
 5    0  0.6011219E-005  0.3427613E+03  0.7546771E-02  0.1065626E+00
         21   -1    0    0  502  501  0.00000000000E+00  0.00000000000E+00  0.57250499445E+03  0.57250499445E+03  0.00000000000E+00 0. -1.
         21   -1    0    0  501  502 -0.00000000000E+00 -0.00000000000E+00 -0.20521273524E+03  0.20521273524E+03  0.00000000000E+00 0. -1.
         25    1    1    2    0    0 -0.72750720076E+02  0.15244451578E+03  0.14196251715E+03  0.25359486182E+03  0.12500000000E+03 0.  0.
         25    1    1    2    0    0  0.15739545074E+03 -0.20104991578E+03  0.51674822804E+02  0.28894581474E+03  0.12500000000E+03 0.  0.
         25    1    1    2    0    0 -0.84644730662E+02  0.48605399992E+02  0.17365491926E+03  0.23517705314E+03  0.12500000000E+03 0.  0.
</event>
