<event>
 5    0  0.5684733E-005  0.2154962E+03  0.7546771E-02  0.1137286E+00
         21   -1    0    0  502  501  0.00000000000E+00  0.00000000000E+00  0.16103037296E+03  0.16103037296E+03  0.00000000000E+00 0. -1.
         21   -1    0    0  501  502 -0.00000000000E+00 -0.00000000000E+00 -0.28838422782E+03  0.28838422782E+03  0.00000000000E+00 0. -1.
         25    1    1    2    0    0 -0.56148516352E+02  0.53024443057E+02 -0.25132238026E+02  0.14906668588E+03  0.12500000000E+03 0.  0.
         25    1    1    2    0    0 -0.29658865969E+01 -0.63405009765E+02 -0.27607642365E+02  0.14288517650E+03  0.12500000000E+03 0.  0.
         25    1    1    2    0    0  0.59114402949E+02  0.10380566709E+02 -0.74613974472E+02  0.15746273841E+03  0.12500000000E+03 0.  0.
</event>
<event>
 5    0  0.5684733E-005  0.3231354E+03  0.7546771E-02  0.1074215E+00
         21   -1    0    0  502  501  0.00000000000E+00  0.00000000000E+00  0.16562502103E+04  0.16562502103E+04  0.00000000000E+00 0.  1.
         21   -1    0    0  501  502 -0.00000000000E+00 -0.00000000000E+00 -0.63043913596E+02  0.63043913596E+02  0.00000000000E+00 0. -1.
         25    1    1    2    0    0  0.18373054949E+03  0.81329201223E+02  0.71632924041E+03  0.75440303185E+03  0.12500000000E+03 0.  0.
         25    1    1    2    0    0 -0.97915640577E+02 -0.14852729798E+03  0.63845210122E+03  0.67445823923E+03  0.12500000000E+03 0.  0.
         25    1    1    2    0    0 -0.85814908913E+02  0.67198096759E+02  0.23842495511E+03  0.29043285286E+03  0.12500000000E+03 0.  0.
</event>
<event>
 5    0  0.5684733E-005  0.2757086E+03  0.7546771E-02  0.1098056E+00
         21   -1    0    0  502  501  0.00000000000E+00  0.00000000000E+00  0.52898268900E+03  0.52898268900E+03  0.00000000000E+00 0. -1.
         21   -1    0    0  501  502 -0.00000000000E+00 -0.00000000000E+00 -0.14370080861E+03  0.14370080861E+03  0.00000000000E+00 0. -1.
         25    1    1    2    0    0 -0.13438757528E+02 -0.69093879254E+02  0.43470267034E+02  0.14989739314E+03  0.12500000000E+03 0.  0.
         25    1    1    2    0    0 -0.10861881471E+03 -0.30427747188E+02  0.64611887887E+02  0.18034298091E+03  0.12500000000E+03 0.  0.
         25    1    1    2    0    0  0.12205757224E+03  0.99521626442E+02  0.27719972547E+03  0.34244312356E+03  0.12500000000E+03 0.  0.
</event>
<event>
 5    0  0.5684733E-005  0.2897457E+03  0.7546771E-02  0.1090482E+00
         21   -1    0    0  502  501  0.00000000000E+00  0.00000000000E+00  0.70691858473E+03  0.70691858473E+03  0.00000000000E+00 0. -1.
         21   -1    0    0  501  502 -0.00000000000E+00 -0.00000000000E+00 -0.11875846965E+03  0.11875846965E+03  0.00000000000E+00 0. -1.
         25    1    1    2    0    0  0.10366286065E+03 -0.14878235720E+03  0.12607381958E+03  0.25377507063E+03  0.12500000000E+03 0.  0.
         25    1    1    2    0    0 -0.10156200255E+03  0.40376294445E+02  0.18018930765E+03  0.24502708443E+03  0.12500000000E+03 0.  0.
         25    1    1    2    0    0 -0.21008581003E+01  0.10840606275E+03  0.28189698785E+03  0.32687489932E+03  0.12500000000E+03 0.  0.
</event>
<event>
 5    0  0.5684733E-005  0.3736347E+03  0.7546771E-02  0.1053312E+00
         21   -1    0    0  502  501  0.00000000000E+00  0.00000000000E+00  0.90209578345E+02  0.90209578345E+02  0.00000000000E+00 0. -1.
         21   -1    0    0  501  502 -0.00000000000E+00 -0.00000000000E+00 -0.15475398625E+04  0.15475398625E+04  0.00000000000E+00 0. -1.
         25    1    1    2    0    0  0.12145583818E+03 -0.91451067386E+02 -0.51904566215E+03  0.55511099588E+03  0.12500000000E+03 0.  0.
         25    1    1    2    0    0 -0.16314748918E+03  0.85993742085E+02 -0.11856608360E+03  0.25237857097E+03  0.12500000000E+03 0.  0.
         25    1    1    2    0    0  0.41691650999E+02  0.54573253015E+01 -0.81971853837E+03  0.83025987396E+03  0.12500000000E+03 0.  0.
</event>
<event>
 5    0  0.5684733E-005  0.4683782E+03  0.7546771E-02  0.1022379E+00
         21   -1    0    0  502  501  0.00000000000E+00  0.00000000000E+00  0.11032908570E+04  0.11032908570E+04  0.00000000000E+00 0. -1.
         21   -1    0    0  501  502 -0.00000000000E+00 -0.00000000000E+00 -0.19883983098E+03  0.19883983098E+03  0.00000000000E+00 0. -1.
         25    1    1    2    0    0 -0.77509016942E+02 -0.98331945354E+02  0.16761965128E+03  0.24371739101E+03  0.12500000000E+03 0.  0.
         25    1    1    2    0    0 -0.62060152898E+01 -0.15799827577E+03  0.73401043357E+03  0.76118216371E+03  0.12500000000E+03 0.  0.
         25    1    1    2    0    0  0.83715032232E+02  0.25633022112E+03  0.28209411992E+01  0.29723113328E+03  0.12500000000E+03 0.  0.
</event>
<event>
 5    0  0.8702741E-005  0.4826869E+03  0.7546771E-02  0.1018399E+00
         21   -1    0    0  502  501  0.00000000000E+00  0.00000000000E+00  0.65850979048E+03  0.65850979048E+03  0.00000000000E+00 0.  1.
         21   -1    0    0  501  502 -0.00000000000E+00 -0.00000000000E+00 -0.35380893490E+03  0.35380893490E+03  0.00000000000E+00 0.  1.
         25    1    1    2    0    0 -0.45431489544E+02 -0.12694486783E+03  0.30317730164E+03  0.35457086166E+03  0.12500000000E+03 0.  0.
         25    1    1    2    0    0  0.11732258675E+03  0.30233271511E+03  0.15821638629E+03  0.38187312668E+03  0.12500000000E+03 0.  0.
         25    1    1    2    0    0 -0.71891097207E+02 -0.17538784728E+03 -0.15669283234E+03  0.27587473705E+03  0.12500000000E+03 0.  0.
</event>
<event>
 5    0  0.5684733E-005  0.2806180E+03  0.7546771E-02  0.1095352E+00
         21   -1    0    0  502  501  0.00000000000E+00  0.00000000000E+00  0.56312254241E+02  0.56312254241E+02  0.00000000000E+00 0.  1.
         21   -1    0    0  501  502 -0.00000000000E+00 -0.00000000000E+00 -0.13983898097E+04  0.13983898097E+04  0.00000000000E+00 0.  1.
         25    1    1    2    0    0 -0.43938745921E+02  0.91165700892E+02 -0.35614787226E+03  0.39077884453E+03  0.12500000000E+03 0.  0.
         25    1    1    2    0    0  0.37752228306E+02  0.82329955375E+02 -0.63014391702E+03  0.64877562258E+03  0.12500000000E+03 0.  0.
         25    1    1    2    0    0  0.61865176153E+01 -0.17349565627E+03 -0.35578576616E+03  0.41514759682E+03  0.12500000000E+03 0.  0.
</event>
<event>
 5    0  0.6054571E-005  0.3112650E+03  0.7546771E-02  0.1079741E+00
         21   -1    0    0  502  501  0.00000000000E+00  0.00000000000E+00  0.29564229518E+03  0.29564229518E+03  0.00000000000E+00 0. -1.
         21   -1    0    0  501  502 -0.00000000000E+00 -0.00000000000E+00 -0.32771335874E+03  0.32771335874E+03  0.00000000000E+00 0. -1.
         25    1    1    2    0    0  0.12466016272E+03 -0.17165748057E+03  0.27359978055E+02  0.24774990455E+03  0.12500000000E+03 0.  0.
         25    1    1    2    0    0 -0.11607652213E+03  0.31941834502E+02  0.13935315234E+02  0.17410695790E+03  0.12500000000E+03 0.  0.
         25    1    1    2    0    0 -0.85836405905E+01  0.13971564607E+03 -0.73366356856E+02  0.20149879146E+03  0.12500000000E+03 0.  0.
</event>
<event>
 5    0  0.5684733E-005  0.3289317E+03  0.7546771E-02  0.1071611E+00
         21   -1    0    0  502  501  0.00000000000E+00  0.00000000000E+00  0.65401834807E+03  0.65401834807E+03  0.00000000000E+00 0.  1.
         21   -1    0    0  501  502 -0.00000000000E+00 -0.00000000000E+00 -0.16543278870E+03  0.16543278870E+03  0.00000000000E+00 0.  1.
         25    1    1    2    0    0  0.86050466605E+02  0.56195613078E+02  0.91562070399E+02  0.18593343558E+03  0.12500000000E+03 0.  0.
         25    1    1    2    0    0 -0.12968461772E+03 -0.79839142264E+02 -0.17428120349E+02  0.19779061679E+03  0.12500000000E+03 0.  0.
         25    1    1    2    0    0  0.43634151117E+02  0.23643529186E+02  0.41445160931E+03  0.43572708440E+03  0.12500000000E+03 0.  0.
</event>
<event>
 5    0  0.5684733E-005  0.3066180E+03  0.7546771E-02  0.1081978E+00
         21   -1    0    0  502  501  0.00000000000E+00  0.00000000000E+00  0.24773850027E+03  0.24773850027E+03  0.00000000000E+00 0.  1.
         21   -1    0    0  501  502 -0.00000000000E+00 -0.00000000000E+00 -0.37949130743E+03  0.37949130743E+03  0.00000000000E+00 0.  1.
         25    1    1    2    0    0 -0.15270108964E+03  0.52123771284E+02 -0.10396084047E+03  0.22905756189E+03  0.12500000000E+03 0.  0.
         25    1    1    2    0    0 -0.86997389832E+01  0.13369368732E+02  0.88769678543E+02  0.15414110843E+03  0.12500000000E+03 0.  0.
         25    1    1    2    0    0  0.16140082862E+03 -0.65493140016E+02 -0.11656164524E+03  0.24403113737E+03  0.12500000000E+03 0.  0.
</event>
<event>
 5    0  0.5684733E-005  0.3048439E+03  0.7546771E-02  0.1082844E+00
         21   -1    0    0  502  501  0.00000000000E+00  0.00000000000E+00  0.13010165519E+03  0.13010165519E+03  0.00000000000E+00 0. -1.
         21   -1    0    0  501  502 -0.00000000000E+00 -0.00000000000E+00 -0.71428594035E+03  0.71428594035E+03  0.00000000000E+00 0. -1.
         25    1    1    2    0    0  0.52650200586E+02 -0.11384229197E+03  0.36543376528E+01  0.17711709473E+03  0.12500000000E+03 0.  0.
         25    1    1    2    0    0 -0.63808541589E+02  0.93509110343E+02 -0.21436078259E+03  0.27274718845E+03  0.12500000000E+03 0.  0.
         25    1    1    2    0    0  0.11158341003E+02  0.20333181628E+02 -0.37347784022E+03  0.39452331235E+03  0.12500000000E+03 0.  0.
</event>
<event>
 5    0  0.5684733E-005  0.2711983E+03  0.7546771E-02  0.1100596E+00
         21   -1    0    0  502  501  0.00000000000E+00  0.00000000000E+00  0.44104047234E+03  0.44104047234E+03  0.00000000000E+00 0. -1.
         21   -1    0    0  501  502 -0.00000000000E+00 -0.00000000000E+00 -0.16676140604E+03  0.16676140604E+03  0.00000000000E+00 0. -1.
         25    1    1    2    0    0  0.67456714215E+02  0.44054634155E+02  0.33971949025E+02  0.15254609927E+03  0.12500000000E+03 0.  0.
         25    1    1    2    0    0  0.25782296417E+02 -0.15089448569E+03  0.12287579385E+03  0.23271728199E+03  0.12500000000E+03 0.  0.
         25    1    1    2    0    0 -0.93239010631E+02  0.10683985154E+03  0.11743132343E+03  0.22253849712E+03  0.12500000000E+03 0.  0.
</event>
<event>
 5    0  0.6261370E-005  0.2789711E+03  0.7546771E-02  0.1096252E+00
         21   -1    0    0  502  501  0.00000000000E+00  0.00000000000E+00  0.28197995463E+03  0.28197995463E+03  0.00000000000E+00 0.  1.
         21   -1    0    0  501  502 -0.00000000000E+00 -0.00000000000E+00 -0.27599441442E+03  0.27599441442E+03  0.00000000000E+00 0.  1.
         25    1    1    2    0    0  0.12993803891E+03 -0.41104226850E+02 -0.12848672559E+03  0.22518279258E+03  0.12500000000E+03 0.  0.
         25    1    1    2    0    0 -0.77994458375E+02 -0.95645588621E+01  0.21205412004E+02  0.14916194495E+03  0.12500000000E+03 0.  0.
         25    1    1    2    0    0 -0.51943580534E+02  0.50668785712E+02  0.11326685379E+03  0.18362963152E+03  0.12500000000E+03 0.  0.
</event>
<event>
 5    0  0.5684733E-005  0.2902262E+03  0.7546771E-02  0.1090231E+00
         21   -1    0    0  502  501  0.00000000000E+00  0.00000000000E+00  0.16465718905E+03  0.16465718905E+03  0.00000000000E+00 0.  1.
         21   -1    0    0  501  502 -0.00000000000E+00 -0.00000000000E+00 -0.51155518909E+03  0.51155518909E+03  0.00000000000E+00 0.  1.
         25    1    1    2    0    0 -0.11599179452E+03  0.65426410720E+02 -0.88800991669E+02  0.20308945747E+03  0.12500000000E+03 0.  0.
         25    1    1    2    0    0  0.15703701060E+03 -0.11297515699E+03 -0.74031962551E+02  0.24192920509E+03  0.12500000000E+03 0.  0.
         25    1    1    2    0    0 -0.41045216079E+02  0.47548746267E+02 -0.18406504582E+03  0.23119371559E+03  0.12500000000E+03 0.  0.
</event>
<event>
 5    0  0.5684733E-005  0.3184745E+03  0.7546771E-02  0.1076354E+00
         21   -1    0    0  502  501  0.00000000000E+00  0.00000000000E+00  0.77059181179E+03  0.77059181179E+03  0.00000000000E+00 0. -1.
         21   -1    0    0  501  502 -0.00000000000E+00 -0.00000000000E+00 -0.13162089827E+03  0.13162089827E+03  0.00000000000E+00 0. -1.
         25    1    1    2    0    0 -0.11493559223E+03 -0.13885124403E+03  0.75405680883E+02  0.23195015637E+03  0.12500000000E+03 0.  0.
         25    1    1    2    0    0  0.13780580428E+03  0.13216633903E+03  0.42312057863E+03  0.48074359583E+03  0.12500000000E+03 0.  0.
         25    1    1    2    0    0 -0.22870212052E+02  0.66849049996E+01  0.14044465400E+03  0.18951895787E+03  0.12500000000E+03 0.  0.
</event>
<event>
 5    0  0.5684733E-005  0.4470067E+03  0.7546771E-02  0.1028618E+00
         21   -1    0    0  502  501  0.00000000000E+00  0.00000000000E+00  0.14038463424E+03  0.14038463424E+03  0.00000000000E+00 0.  1.
         21   -1    0    0  501  502 -0.00000000000E+00 -0.00000000000E+00 -0.14233394502E+04  0.14233394502E+04  0.00000000000E+00 0.  1.
         25    1    1    2    0    0  0.19676292294E+03  0.26967745572E+02 -0.70049281664E+03  0.73875442016E+03  0.12500000000E+03 0.  0.
         25    1    1    2    0    0 -0.25853593535E+03 -0.10048552040E+03 -0.59352178645E+03  0.66695673073E+03  0.12500000000E+03 0.  0.
         25    1    1    2    0    0  0.61773012409E+02  0.73517774828E+02  0.11059787130E+02  0.15801293355E+03  0.12500000000E+03 0.  0.
</event>
<event>
 5    0  0.5684733E-005  0.2423818E+03  0.7546771E-02  0.1118216E+00
         21   -1    0    0  502  501  0.00000000000E+00  0.00000000000E+00  0.11077798494E+04  0.11077798494E+04  0.00000000000E+00 0.  1.
         21   -1    0    0  501  502 -0.00000000000E+00 -0.00000000000E+00 -0.53033024640E+02  0.53033024640E+02  0.00000000000E+00 0.  1.
         25    1    1    2    0    0  0.92565340081E+02 -0.24239357067E+02  0.33153137256E+03  0.36700672964E+03  0.12500000000E+03 0.  0.
         25    1    1    2    0    0 -0.97759483983E+02 -0.11073745592E+02  0.57528799778E+03  0.59687588738E+03  0.12500000000E+03 0.  0.
         25    1    1    2    0    0  0.51941439019E+01  0.35313102659E+02  0.14792745438E+03  0.19693025697E+03  0.12500000000E+03 0.  0.
</event>
<event>
 5    0  0.5684733E-005  0.4036059E+03  0.7546771E-02  0.1042538E+00
         21   -1    0    0  502  501  0.00000000000E+00  0.00000000000E+00  0.13354635659E+04  0.13354635659E+04  0.00000000000E+00 0. -1.
         21   -1    0    0  501  502 -0.00000000000E+00 -0.00000000000E+00 -0.12197839910E+03  0.12197839910E+03  0.00000000000E+00 0. -1.
         25    1    1    2    0    0  0.84880780237E+01 -0.73816024011E+02  0.25403799510E+03  0.29271343636E+03  0.12500000000E+03 0.  0.
         25    1    1    2    0    0 -0.40217715523E+02  0.29228326980E+02  0.10102175396E+04  0.10191350436E+04  0.12500000000E+03 0.  0.
         25    1    1    2    0    0  0.31729637500E+02  0.44587697031E+02 -0.50770367927E+02  0.14559348503E+03  0.12500000000E+03 0.  0.
</event>
<event>
 5    0  0.5684733E-005  0.4213244E+03  0.7546771E-02  0.1036636E+00
         21   -1    0    0  502  501  0.00000000000E+00  0.00000000000E+00  0.15010300826E+04  0.15010300826E+04  0.00000000000E+00 0.  1.
         21   -1    0    0  501  502 -0.00000000000E+00 -0.00000000000E+00 -0.11826163567E+03  0.11826163567E+03  0.00000000000E+00 0.  1.
         25    1    1    2    0    0  0.10286362942E+03  0.17135371721E+03  0.10555701427E+04  0.10815712408E+04  0.12500000000E+03 0.  0.
         25    1    1    2    0    0 -0.53820276042E+02 -0.14200433449E+03  0.34698651023E+03  0.39885647971E+03  0.12500000000E+03 0.  0.
         25    1    1    2    0    0 -0.49043353382E+02 -0.29349382720E+02 -0.19788206044E+02  0.13886399777E+03  0.12500000000E+03 0.  0.
</event>
<event>
 5    0  0.5684733E-005  0.2760054E+03  0.7546771E-02  0.1097891E+00
         21   -1    0    0  502  501  0.00000000000E+00  0.00000000000E+00  0.34911189901E+02  0.34911189901E+02  0.00000000000E+00 0. -1.
         21   -1    0    0  501  502 -0.00000000000E+00 -0.00000000000E+00 -0.21820799734E+04  0.21820799734E+04  0.00000000000E+00 0. -1.
         25    1    1    2    0    0 -0.61738861593E+02  0.85013106991E+02 -0.12598752691E+04  0.12704131648E+04  0.12500000000E+03 0.  0.
         25    1    1    2    0    0  0.62651280018E+02  0.42585755376E+02 -0.31941690178E+03  0.35127038958E+03  0.12500000000E+03 0.  0.
         25    1    1    2    0    0 -0.91241842566E+00 -0.12759886237E+03 -0.56787661255E+03  0.59530760894E+03  0.12500000000E+03 0.  0.
</event>
<event>
 5    0  0.5684733E-005  0.4142825E+03  0.7546771E-02  0.1038943E+00
         21   -1    0    0  502  501  0.00000000000E+00  0.00000000000E+00  0.45539919716E+03  0.45539919716E+03  0.00000000000E+00 0. -1.
         21   -1    0    0  501  502 -0.00000000000E+00 -0.00000000000E+00 -0.37687810057E+03  0.37687810057E+03  0.00000000000E+00 0. -1.
         25    1    1    2    0    0 -0.25251903258E+03 -0.10404094360E+03 -0.93042928611E+02  0.31443976581E+03  0.12500000000E+03 0.  0.
         25    1    1    2    0    0  0.94005012068E+02 -0.97394876164E+02  0.13900700227E+03  0.23080435628E+03  0.12500000000E+03 0.  0.
         25    1    1    2    0    0  0.15851402051E+03  0.20143581976E+03  0.32557022935E+02  0.28703317565E+03  0.12500000000E+03 0.  0.
</event>
<event>
 5    0  0.5684733E-005  0.4417614E+03  0.7546771E-02  0.1030208E+00
         21   -1    0    0  502  501  0.00000000000E+00  0.00000000000E+00  0.23125575140E+03  0.23125575140E+03  0.00000000000E+00 0.  1.
         21   -1    0    0  501  502 -0.00000000000E+00 -0.00000000000E+00 -0.84388433712E+03  0.84388433712E+03  0.00000000000E+00 0.  1.
         25    1    1    2    0    0  0.18905401784E+03 -0.35611368445E+02 -0.30077698883E+03  0.37828744129E+03  0.12500000000E+03 0.  0.
         25    1    1    2    0    0 -0.36569445874E+03  0.28162264818E+02 -0.27983972333E+03  0.47797575363E+03  0.12500000000E+03 0.  0.
         25    1    1    2    0    0  0.17664044089E+03  0.74491036271E+01 -0.32011873565E+02  0.21887689360E+03  0.12500000000E+03 0.  0.
</event>
<event>
 5    0  0.5684733E-005  0.3886774E+03  0.7546771E-02  0.1047772E+00
         21   -1    0    0  502  501  0.00000000000E+00  0.00000000000E+00  0.27036189484E+03  0.27036189484E+03  0.00000000000E+00 0.  1.
         21   -1    0    0  501  502 -0.00000000000E+00 -0.00000000000E+00 -0.55877005054E+03  0.55877005054E+03  0.00000000000E+00 0.  1.
         25    1    1    2    0    0  0.55531310769E+02 -0.15324720604E+03  0.16544329590E+02  0.20607558681E+03  0.12500000000E+03 0.  0.
         25    1    1    2    0    0  0.11777053946E+03  0.23155866212E+03 -0.26581711547E+03  0.39213907334E+03  0.12500000000E+03 0.  0.
         25    1    1    2    0    0 -0.17330185023E+03 -0.78311456074E+02 -0.39135369818E+02  0.23091728523E+03  0.12500000000E+03 0.  0.
</event>
<event>
 5    0  0.5684733E-005  0.2242624E+03  0.7546771E-02  0.1130745E+00
         21   -1    0    0  502  501  0.00000000000E+00  0.00000000000E+00  0.73278001596E+03  0.73278001596E+03  0.00000000000E+00 0.  1.
         21   -1    0    0  501  502 -0.00000000000E+00 -0.00000000000E+00 -0.68634020066E+02  0.68634020066E+02  0.00000000000E+00 0.  1.
         25    1    1    2    0    0  0.45324405409E+01  0.21925918616E+01  0.13014002665E+03  0.18051807946E+03  0.12500000000E+03 0.  0.
         25    1    1    2    0    0 -0.13148496567E+02  0.81493697617E+02  0.36462897375E+03  0.39419968825E+03  0.12500000000E+03 0.  0.
         25    1    1    2    0    0  0.86160560266E+01 -0.83686289479E+02  0.16937699550E+03  0.22669626832E+03  0.12500000000E+03 0.  0.
</event>
<event>
 5    0  0.5684733E-005  0.2946951E+03  0.7546771E-02  0.1087923E+00
         21   -1    0    0  502  501  0.00000000000E+00  0.00000000000E+00  0.10432408674E+04  0.10432408674E+04  0.00000000000E+00 0. -1.
         21   -1    0    0  501  502 -0.00000000000E+00 -0.00000000000E+00 -0.83245576362E+02  0.83245576362E+02  0.00000000000E+00 0. -1.
         25    1    1    2    0    0 -0.79166063623E+02  0.24147954906E+01  0.26205805300E+03  0.30095268732E+03  0.12500000000E+03 0.  0.
         25    1    1    2    0    0  0.11969285280E+03 -0.14137318435E+03  0.23321653755E+03  0.32299800255E+03  0.12500000000E+03 0.  0.
         25    1    1    2    0    0 -0.40526789175E+02  0.13895838886E+03  0.46472070053E+03  0.50253575393E+03  0.12500000000E+03 0.  0.
</event>
<event>
 5    0  0.6063871E-005  0.2648437E+03  0.7546771E-02  0.1104267E+00
         21   -1    0    0  502  501  0.00000000000E+00  0.00000000000E+00  0.38735337358E+03  0.38735337358E+03  0.00000000000E+00 0.  1.
         21   -1    0    0  501  502 -0.00000000000E+00 -0.00000000000E+00 -0.18108062439E+03  0.18108062439E+03  0.00000000000E+00 0.  1.
         25    1    1    2    0    0 -0.89851361218E+02  0.24190798691E+02  0.14522243726E+03  0.21300943204E+03  0.12500000000E+03 0.  0.
         25    1    1    2    0    0  0.59857656623E+02 -0.49407452490E+02 -0.76196486736E+02  0.16569532283E+03  0.12500000000E+03 0.  0.
         25    1    1    2    0    0  0.29993704596E+02  0.25216653799E+02  0.13724679867E+03  0.18972924311E+03  0.12500000000E+03 0.  0.
</event>
<event>
 5    0  0.5684733E-005  0.3239040E+03  0.7546771E-02  0.1073866E+00
         21   -1    0    0  502  501  0.00000000000E+00  0.00000000000E+00  0.28146202776E+03  0.28146202776E+03  0.00000000000E+00 0.  1.
         21   -1    0    0  501  502 -0.00000000000E+00 -0.00000000000E+00 -0.37274578465E+03  0.37274578465E+03  0.00000000000E+00 0.  1.
         25    1    1    2    0    0  0.23702067863E+02 -0.42471585671E+02 -0.24601354546E+03  0.28020222726E+03  0.12500000000E+03 0.  0.
         25    1    1    2    0    0  0.69435103915E+01  0.10240482980E+03 -0.30304940643E+01  0.16176880230E+03  0.12500000000E+03 0.  0.
         25    1    1    2    0    0 -0.30645578255E+02 -0.59933244134E+02  0.15776028264E+03  0.21223678285E+03  0.12500000000E+03 0.  0.
</event>
<event>
 5    0  0.5684733E-005  0.2429748E+03  0.7546771E-02  0.1117827E+00
         21   -1    0    0  502  501  0.00000000000E+00  0.00000000000E+00  0.94904056059E+02  0.94904056059E+02  0.00000000000E+00 0.  1.
         21   -1    0    0  501  502 -0.00000000000E+00 -0.00000000000E+00 -0.62206757985E+03  0.62206757985E+03  0.00000000000E+00 0.  1.
         25    1    1    2    0    0  0.68969389200E+02 -0.32565687535E+02 -0.57336381348E+02  0.15725699119E+03  0.12500000000E+03 0.  0.
         25    1    1    2    0    0 -0.10550691151E+03 -0.16465629271E+02 -0.27262401461E+03  0.31835778405E+03  0.12500000000E+03 0.  0.
         25    1    1    2    0    0  0.36537522313E+02  0.49031316806E+02 -0.19720312783E+03  0.24135686066E+03  0.12500000000E+03 0.  0.
</event>
<event>
 5    0  0.5684733E-005  0.2512095E+03  0.7546771E-02  0.1112543E+00
         21   -1    0    0  502  501  0.00000000000E+00  0.00000000000E+00  0.11027202679E+04  0.11027202679E+04  0.00000000000E+00 0. -1.
         21   -1    0    0  501  502 -0.00000000000E+00 -0.00000000000E+00 -0.57227751540E+02  0.57227751540E+02  0.00000000000E+00 0. -1.
         25    1    1    2    0    0  0.30517636714E+02 -0.29079919028E+02  0.27169497973E+03  0.30202670387E+03  0.12500000000E+03 0.  0.
         25    1    1    2    0    0 -0.14302515301E+03 -0.22042255593E+02  0.46161903098E+03  0.49965906895E+03  0.12500000000E+03 0.  0.
         25    1    1    2    0    0  0.11250751630E+03  0.51122174622E+02  0.31217850567E+03  0.35826224663E+03  0.12500000000E+03 0.  0.
</event>
<event>
 5    0  0.5792050E-005  0.3945387E+03  0.7546771E-02  0.1045687E+00
         21   -1    0    0  502  501  0.00000000000E+00  0.00000000000E+00  0.10476917106E+04  0.10476917106E+04  0.00000000000E+00 0. -1.
         21   -1    0    0  501  502 -0.00000000000E+00 -0.00000000000E+00 -0.14857501666E+03  0.14857501666E+03  0.00000000000E+00 0. -1.
         25    1    1    2    0    0  0.12234854660E+03  0.19305511274E+03  0.15965866721E+03  0.30554105031E+03  0.12500000000E+03 0.  0.
         25    1    1    2    0    0  0.57270979822E+02 -0.44780550115E+02  0.54151832950E+03  0.56049296515E+03  0.12500000000E+03 0.  0.
         25    1    1    2    0    0 -0.17961952642E+03 -0.14827456263E+03  0.19793969722E+03  0.33023271178E+03  0.12500000000E+03 0.  0.
</event>
<event>
 5    0  0.5684733E-005  0.2335673E+03  0.7546771E-02  0.1124154E+00
         21   -1    0    0  502  501  0.00000000000E+00  0.00000000000E+00  0.77976431328E+02  0.77976431328E+02  0.00000000000E+00 0. -1.
         21   -1    0    0  501  502 -0.00000000000E+00 -0.00000000000E+00 -0.69961750021E+03  0.69961750021E+03  0.00000000000E+00 0. -1.
         25    1    1    2    0    0  0.45444572613E+02 -0.94158929445E+02 -0.14209458068E+03  0.21621050630E+03  0.12500000000E+03 0.  0.
         25    1    1    2    0    0 -0.52673260856E+02  0.76186767919E+00 -0.22569034145E+03  0.26331764672E+03  0.12500000000E+03 0.  0.
         25    1    1    2    0    0  0.72286882435E+01  0.93397061766E+02 -0.25385614676E+03  0.29806577852E+03  0.12500000000E+03 0.  0.
</event>
<event>
 5    0  0.5684733E-005  0.2255259E+03  0.7546771E-02  0.1129829E+00
         21   -1    0    0  502  501  0.00000000000E+00  0.00000000000E+00  0.52697132122E+02  0.52697132122E+02  0.00000000000E+00 0.  1.
         21   -1    0    0  501  502 -0.00000000000E+00 -0.00000000000E+00 -0.96517476243E+03  0.96517476243E+03  0.00000000000E+00 0.  1.
         25    1    1    2    0    0 -0.63960782483E+01  0.12798605793E+02 -0.19700858859E+03  0.23375649319E+03  0.12500000000E+03 0.  0.
         25    1    1    2    0    0 -0.60547011291E+02  0.70258016665E+02 -0.37679500899E+03  0.40767831471E+03  0.12500000000E+03 0.  0.
         25    1    1    2    0    0  0.66943089539E+02 -0.83056622459E+02 -0.33867403273E+03  0.37643708666E+03  0.12500000000E+03 0.  0.
</event>
<event>
 5    0  0.5684733E-005  0.5767620E+03  0.7546771E-02  0.9954826E-01
         21   -1    0    0  502  501  0.00000000000E+00  0.00000000000E+00  0.29581139105E+03  0.29581139105E+03  0.00000000000E+00 0.  1.
         21   -1    0    0  501  502 -0.00000000000E+00 -0.00000000000E+00 -0.11245491395E+04  0.11245491395E+04  0.00000000000E+00 0.  1.
         25    1    1    2    0    0  0.14215816708E+03  0.53774844371E+02 -0.47219738124E+03  0.51156235710E+03  0.12500000000E+03 0.  0.
         25    1    1    2    0    0 -0.40781206295E+03 -0.16375399692E+03 -0.32702474445E+02  0.45806167928E+03  0.12500000000E+03 0.  0.
         25    1    1    2    0    0  0.26565389587E+03  0.10997915255E+03 -0.32383789276E+03  0.45073649417E+03  0.12500000000E+03 0.  0.
</event>
<event>
 5    0  0.5684733E-005  0.2936384E+03  0.7546771E-02  0.1088465E+00
         21   -1    0    0  502  501  0.00000000000E+00  0.00000000000E+00  0.48102585732E+03  0.48102585732E+03  0.00000000000E+00 0. -1.
         21   -1    0    0  501  502 -0.00000000000E+00 -0.00000000000E+00 -0.17924923847E+03  0.17924923847E+03  0.00000000000E+00 0. -1.
         25    1    1    2    0    0  0.91316199397E+02 -0.12987531166E+03 -0.19571271343E+02  0.20301300331E+03  0.12500000000E+03 0.  0.
         25    1    1    2    0    0  0.81390666422E+01  0.20369906049E+02  0.90172619278E+02  0.15568326418E+03  0.12500000000E+03 0.  0.
         25    1    1    2    0    0 -0.99455266039E+02  0.10950540561E+03  0.23117527091E+03  0.30157882830E+03  0.12500000000E+03 0.  0.
</event>
<event>
 5    0  0.5684733E-005  0.2653540E+03  0.7546771E-02  0.1103968E+00
         21   -1    0    0  502  501  0.00000000000E+00  0.00000000000E+00  0.12322551453E+03  0.12322551453E+03  0.00000000000E+00 0.  1.
         21   -1    0    0  501  502 -0.00000000000E+00 -0.00000000000E+00 -0.57141365560E+03  0.57141365560E+03  0.00000000000E+00 0.  1.
         25    1    1    2    0    0 -0.78299937095E+02 -0.77842491211E+02 -0.15378556556E+02  0.16748681616E+03  0.12500000000E+03 0.  0.
         25    1    1    2    0    0  0.46323845698E+02  0.82928636818E+02 -0.15412075500E+03  0.22000287408E+03  0.12500000000E+03 0.  0.
         25    1    1    2    0    0  0.31976091397E+02 -0.50861456067E+01 -0.27868882952E+03  0.30714947989E+03  0.12500000000E+03 0.  0.
</event>
<event>
 5    0  0.6747500E-005  0.7135651E+03  0.7546771E-02  0.9694311E-01
         21   -1    0    0  502  501  0.00000000000E+00  0.00000000000E+00  0.43869788541E+03  0.43869788541E+03  0.00000000000E+00 0.  1.
         21   -1    0    0  501  502 -0.00000000000E+00 -0.00000000000E+00 -0.11606510078E+04  0.11606510078E+04  0.00000000000E+00 0.  1.
         25    1    1    2    0    0  0.28972114072E+03  0.54349798236E+02  0.23994141027E+03  0.40011138488E+03  0.12500000000E+03 0.  0.
         25    1    1    2    0    0 -0.43509008442E+03  0.29577914377E+02 -0.84611674882E+03  0.96006082475E+03  0.12500000000E+03 0.  0.
         25    1    1    2    0    0  0.14536894370E+03 -0.83927712613E+02 -0.11577778382E+03  0.23917668357E+03  0.12500000000E+03 0.  0.
</event>
<event>
 5    0  0.5684733E-005  0.2880864E+03  0.7546771E-02  0.1091353E+00
         21   -1    0    0  502  501  0.00000000000E+00  0.00000000000E+00  0.26974024506E+03  0.26974024506E+03  0.00000000000E+00 0. -1.
         21   -1    0    0  501  502 -0.00000000000E+00 -0.00000000000E+00 -0.30768036525E+03  0.30768036525E+03  0.00000000000E+00 0. -1.
         25    1    1    2    0    0 -0.35826831078E+01  0.82141383385E+02  0.44619565783E+02  0.15612798639E+03  0.12500000000E+03 0.  0.
         25    1    1    2    0    0 -0.78134091602E+02 -0.14003843346E+03 -0.14462869221E+03  0.24951584665E+03  0.12500000000E+03 0.  0.
         25    1    1    2    0    0  0.81716774710E+02  0.57897050074E+02  0.62069006243E+02  0.17177677728E+03  0.12500000000E+03 0.  0.
</event>
<event>
 5    0  0.5684733E-005  0.2928525E+03  0.7546771E-02  0.1088869E+00
         21   -1    0    0  502  501  0.00000000000E+00  0.00000000000E+00  0.20353019428E+03  0.20353019428E+03  0.00000000000E+00 0. -1.
         21   -1    0    0  501  502 -0.00000000000E+00 -0.00000000000E+00 -0.42137520256E+03  0.42137520256E+03  0.00000000000E+00 0. -1.
         25    1    1    2    0    0 -0.49028085018E+02  0.64203151783E+02 -0.16544161892E+03  0.22253477726E+03  0.12500000000E+03 0.  0.
         25    1    1    2    0    0 -0.35561948649E+02 -0.14262500550E+03  0.55701424967E+02  0.20083374499E+03  0.12500000000E+03 0.  0.
         25    1    1    2    0    0  0.84590033667E+02  0.78421853714E+02 -0.10810481432E+03  0.20153687458E+03  0.12500000000E+03 0.  0.
</event>
<event>
 5    0  0.5684733E-005  0.3369562E+03  0.7546771E-02  0.1068100E+00
         21   -1    0    0  502  501  0.00000000000E+00  0.00000000000E+00  0.18924867451E+03  0.18924867451E+03  0.00000000000E+00 0. -1.
         21   -1    0    0  501  502 -0.00000000000E+00 -0.00000000000E+00 -0.59994844156E+03  0.59994844156E+03  0.00000000000E+00 0. -1.
         25    1    1    2    0    0 -0.12702551460E+03  0.23851870400E+01 -0.21483679424E+03  0.27914336574E+03  0.12500000000E+03 0.  0.
         25    1    1    2    0    0  0.13345795708E+03  0.94535725130E+02  0.55317473076E+02  0.21315030486E+03  0.12500000000E+03 0.  0.
         25    1    1    2    0    0 -0.64324424881E+01 -0.96920912170E+02 -0.25118044590E+03  0.29690344547E+03  0.12500000000E+03 0.  0.
</event>
<event>
 5    0  0.5684733E-005  0.2253507E+03  0.7546771E-02  0.1129956E+00
         21   -1    0    0  502  501  0.00000000000E+00  0.00000000000E+00  0.10042036527E+03  0.10042036527E+03  0.00000000000E+00 0.  1.
         21   -1    0    0  501  502 -0.00000000000E+00 -0.00000000000E+00 -0.50570353195E+03  0.50570353195E+03  0.00000000000E+00 0.  1.
         25    1    1    2    0    0  0.94334824064E+02  0.42965047003E+01 -0.19781414850E+03  0.25233500813E+03  0.12500000000E+03 0.  0.
         25    1    1    2    0    0 -0.21650455772E+02 -0.94211456130E+00 -0.15414341676E+03  0.19963672695E+03  0.12500000000E+03 0.  0.
         25    1    1    2    0    0 -0.72684368292E+02 -0.33543901390E+01 -0.53325601415E+02  0.15415216214E+03  0.12500000000E+03 0.  0.
</event>
<event>
 5    0  0.5684733E-005  0.3666215E+03  0.7546771E-02  0.1055992E+00
         21   -1    0    0  502  501  0.00000000000E+00  0.00000000000E+00  0.38484225112E+02  0.38484225112E+02  0.00000000000E+00 0. -1.
         21   -1    0    0  501  502 -0.00000000000E+00 -0.00000000000E+00 -0.34926343728E+04  0.34926343728E+04  0.00000000000E+00 0. -1.
         25    1    1    2    0    0 -0.11536235120E+02  0.59287406955E+02 -0.99107700676E+03  0.10007530738E+04  0.12500000000E+03 0.  0.
         25    1    1    2    0    0  0.19544420202E+02  0.21861893902E+03 -0.77902896750E+03  0.81895503971E+03  0.12500000000E+03 0.  0.
         25    1    1    2    0    0 -0.80081850815E+01 -0.27790634597E+03 -0.16840441734E+04  0.17114104844E+04  0.12500000000E+03 0.  0.
</event>
<event>
 5    0  0.5684733E-005  0.3549499E+03  0.7546771E-02  0.1060602E+00
         21   -1    0    0  502  501  0.00000000000E+00  0.00000000000E+00  0.78959109150E+02  0.78959109150E+02  0.00000000000E+00 0.  1.
         21   -1    0    0  501  502 -0.00000000000E+00 -0.00000000000E+00 -0.15956286215E+04  0.15956286215E+04  0.00000000000E+00 0.  1.
         25    1    1    2    0    0  0.15308847704E+02 -0.18387810059E+03 -0.24430122039E+03  0.33068656305E+03  0.12500000000E+03 0.  0.
         25    1    1    2    0    0 -0.23479366478E+00  0.14978846405E+03 -0.11453097025E+04  0.11618071930E+04  0.12500000000E+03 0.  0.
         25    1    1    2    0    0 -0.15074054040E+02  0.34089636536E+02 -0.12705858942E+03  0.18209397456E+03  0.12500000000E+03 0.  0.
</event>
<event>
 5    0  0.5684733E-005  0.3134739E+03  0.7546771E-02  0.1078693E+00
         21   -1    0    0  502  501  0.00000000000E+00  0.00000000000E+00  0.14992067338E+03  0.14992067338E+03  0.00000000000E+00 0.  1.
         21   -1    0    0  501  502 -0.00000000000E+00 -0.00000000000E+00 -0.65545249940E+03  0.65545249940E+03  0.00000000000E+00 0.  1.
         25    1    1    2    0    0 -0.43133803914E+02 -0.25158063852E+02 -0.38356835430E+03  0.40650108934E+03  0.12500000000E+03 0.  0.
         25    1    1    2    0    0  0.10554029646E+02 -0.11365454438E+03  0.72228905604E+01  0.16942819467E+03  0.12500000000E+03 0.  0.
         25    1    1    2    0    0  0.32579774268E+02  0.13881260823E+03 -0.12918636229E+03  0.22944388877E+03  0.12500000000E+03 0.  0.
</event>
<event>
 5    0  0.5684733E-005  0.4677215E+03  0.7546771E-02  0.1022565E+00
         21   -1    0    0  502  501  0.00000000000E+00  0.00000000000E+00  0.15097303436E+04  0.15097303436E+04  0.00000000000E+00 0.  1.
         21   -1    0    0  501  502 -0.00000000000E+00 -0.00000000000E+00 -0.14490229034E+03  0.14490229034E+03  0.00000000000E+00 0.  1.
         25    1    1    2    0    0 -0.13934868313E+03 -0.23476124370E+03  0.38554265669E+03  0.48867068376E+03  0.12500000000E+03 0.  0.
         25    1    1    2    0    0  0.18168141338E+03 -0.70511136897E+02  0.68076288718E+03  0.71905706655E+03  0.12500000000E+03 0.  0.
         25    1    1    2    0    0 -0.42332730251E+02  0.30527238060E+03  0.29852250937E+03  0.44690488362E+03  0.12500000000E+03 0.  0.
</event>
<event>
 5    0  0.5994972E-005  0.3143556E+03  0.7546771E-02  0.1078277E+00
         21   -1    0    0  502  501  0.00000000000E+00  0.00000000000E+00  0.47041137499E+03  0.47041137499E+03  0.00000000000E+00 0.  1.
         21   -1    0    0  501  502 -0.00000000000E+00 -0.00000000000E+00 -0.21007025473E+03  0.21007025473E+03  0.00000000000E+00 0.  1.
         25    1    1    2    0    0 -0.52449547551E+02  0.16255872405E+02 -0.30863770258E+02  0.13997421456E+03  0.12500000000E+03 0.  0.
         25    1    1    2    0    0 -0.15934846846E+03 -0.22962349475E+02  0.17398985841E+03  0.26798633310E+03  0.12500000000E+03 0.  0.
         25    1    1    2    0    0  0.21179801602E+03  0.67064770702E+01  0.11721503210E+03  0.27252108207E+03  0.12500000000E+03 0.  0.
</event>
<event>
 5    0  0.5684733E-005  0.3154711E+03  0.7546771E-02  0.1077753E+00
         21   -1    0    0  502  501  0.00000000000E+00  0.00000000000E+00  0.57157938857E+03  0.57157938857E+03  0.00000000000E+00 0. -1.
         21   -1    0    0  501  502 -0.00000000000E+00 -0.00000000000E+00 -0.17411761659E+03  0.17411761659E+03  0.00000000000E+00 0. -1.
         25    1    1    2    0    0  0.33307600392E+02  0.15099276534E+03  0.20611624784E+02  0.19989509876E+03  0.12500000000E+03 0.  0.
         25    1    1    2    0    0  0.31262783946E+01 -0.21577327437E+03  0.23622792114E+03  0.34350620122E+03  0.12500000000E+03 0.  0.
         25    1    1    2    0    0 -0.36433878787E+02  0.64780509027E+02  0.14062222605E+03  0.20229570518E+03  0.12500000000E+03 0.  0.
</event>
<event>
 5    0  0.5684733E-005  0.4637189E+03  0.7546771E-02  0.1023708E+00
         21   -1    0    0  502  501  0.00000000000E+00  0.00000000000E+00  0.70689729532E+03  0.70689729532E+03  0.00000000000E+00 0. -1.
         21   -1    0    0  501  502 -0.00000000000E+00 -0.00000000000E+00 -0.30419579123E+03  0.30419579123E+03  0.00000000000E+00 0. -1.
         25    1    1    2    0    0 -0.15745177550E+02 -0.25638652567E+03 -0.71952015004E+02  0.29459133324E+03  0.12500000000E+03 0.  0.
         25    1    1    2    0    0  0.14065695670E+03  0.55231742419E+02  0.31334839424E+02  0.19859958963E+03  0.12500000000E+03 0.  0.
         25    1    1    2    0    0 -0.12491177915E+03  0.20115478325E+03  0.44331867968E+03  0.51790216368E+03  0.12500000000E+03 0.  0.
</event>
<event>
 5    0  0.5684733E-005  0.3031861E+03  0.7546771E-02  0.1083659E+00
         21   -1    0    0  502  501  0.00000000000E+00  0.00000000000E+00  0.18797010360E+03  0.18797010360E+03  0.00000000000E+00 0. -1.
         21   -1    0    0  501  502 -0.00000000000E+00 -0.00000000000E+00 -0.48902360217E+03  0.48902360217E+03  0.00000000000E+00 0. -1.
         25    1    1    2    0    0  0.95044043850E+02 -0.70796878837E+02 -0.57042965295E+02  0.18145100775E+03  0.12500000000E+03 0.  0.
         25    1    1    2    0    0 -0.71594505430E+01  0.18550438693E+03 -0.63369696618E+02  0.23260235113E+03  0.12500000000E+03 0.  0.
         25    1    1    2    0    0 -0.87884593307E+02 -0.11470750810E+03 -0.18064083665E+03  0.26294034689E+03  0.12500000000E+03 0.  0.
</event>
<event>
 5    0  0.5684733E-005  0.4335053E+03  0.7546771E-02  0.1032758E+00
         21   -1    0    0  502  501  0.00000000000E+00  0.00000000000E+00  0.25060328406E+04  0.25060328406E+04  0.00000000000E+00 0. -1.
         21   -1    0    0  501  502 -0.00000000000E+00 -0.00000000000E+00 -0.74989774876E+02  0.74989774876E+02  0.00000000000E+00 0. -1.
         25    1    1    2    0    0 -0.12728326123E+02  0.66170947764E+02  0.40110114751E+02  0.14756160042E+03  0.12500000000E+03 0.  0.
         25    1    1    2    0    0 -0.72717631997E+02 -0.16112646610E+03  0.69014118481E+03  0.72330453272E+03  0.12500000000E+03 0.  0.
         25    1    1    2    0    0  0.85445958120E+02  0.94955518337E+02  0.17007917661E+04  0.17101564823E+04  0.12500000000E+03 0.  0.
</event>
<event>
 5    0  0.5684733E-005  0.3201452E+03  0.7546771E-02  0.1075583E+00
         21   -1    0    0  502  501  0.00000000000E+00  0.00000000000E+00  0.96953984281E+03  0.96953984281E+03  0.00000000000E+00 0.  1.
         21   -1    0    0  501  502 -0.00000000000E+00 -0.00000000000E+00 -0.10571297332E+03  0.10571297332E+03  0.00000000000E+00 0.  1.
         25    1    1    2    0    0  0.26063538103E+02 -0.77318978700E+02  0.18781324639E+03  0.23990904111E+03  0.12500000000E+03 0.  0.
         25    1    1    2    0    0  0.31977809934E+02 -0.21398997919E+02  0.65096944058E+03  0.66397794392E+03  0.12500000000E+03 0.  0.
         25    1    1    2    0    0 -0.58041348036E+02  0.98717976619E+02  0.25044182518E+02  0.17136583110E+03  0.12500000000E+03 0.  0.
</event>
<event>
 5    0  0.5684733E-005  0.3166440E+03  0.7546771E-02  0.1077204E+00
         21   -1    0    0  502  501  0.00000000000E+00  0.00000000000E+00  0.21429398311E+03  0.21429398311E+03  0.00000000000E+00 0. -1.
         21   -1    0    0  501  502 -0.00000000000E+00 -0.00000000000E+00 -0.46787802842E+03  0.46787802842E+03  0.00000000000E+00 0. -1.
         25    1    1    2    0    0 -0.82648316639E+02 -0.27133499122E+02  0.32058634730E+02  0.15562688418E+03  0.12500000000E+03 0.  0.
         25    1    1    2    0    0 -0.34181642216E+02  0.16981154054E+03 -0.18289698110E+03  0.28121281916E+03  0.12500000000E+03 0.  0.
         25    1    1    2    0    0  0.11682995885E+03 -0.14267804142E+03 -0.10274569894E+03  0.24533230819E+03  0.12500000000E+03 0.  0.
</event>
<event>
 5    0  0.5684733E-005  0.2032392E+03  0.7546771E-02  0.1147035E+00
         21   -1    0    0  502  501  0.00000000000E+00  0.00000000000E+00  0.25655139588E+03  0.25655139588E+03  0.00000000000E+00 0.  1.
         21   -1    0    0  501  502 -0.00000000000E+00 -0.00000000000E+00 -0.16100545872E+03  0.16100545872E+03  0.00000000000E+00 0.  1.
         25    1    1    2    0    0 -0.18187522678E+02  0.29245808661E+02  0.20531042774E+02  0.13127310091E+03  0.12500000000E+03 0.  0.
         25    1    1    2    0    0  0.27755221668E+02  0.17336564923E+02 -0.69941737741E+01  0.12940180555E+03  0.12500000000E+03 0.  0.
         25    1    1    2    0    0 -0.95676989905E+01 -0.46582373584E+02  0.82009068159E+02  0.15688194814E+03  0.12500000000E+03 0.  0.
</event>
<event>
 5    0  0.5684733E-005  0.3243348E+03  0.7546771E-02  0.1073671E+00
         21   -1    0    0  502  501  0.00000000000E+00  0.00000000000E+00  0.66391115592E+03  0.66391115592E+03  0.00000000000E+00 0.  1.
         21   -1    0    0  501  502 -0.00000000000E+00 -0.00000000000E+00 -0.15844449481E+03  0.15844449481E+03  0.00000000000E+00 0.  1.
         25    1    1    2    0    0 -0.70357725541E+02  0.28612799983E+02 -0.14756773297E+02  0.14700906171E+03  0.12500000000E+03 0.  0.
         25    1    1    2    0    0  0.86426627515E+02  0.12102281028E+03  0.11599650186E+03  0.22626592982E+03  0.12500000000E+03 0.  0.
         25    1    1    2    0    0 -0.16068901974E+02 -0.14963561026E+03  0.40422693254E+03  0.44908065919E+03  0.12500000000E+03 0.  0.
</event>
<event>
 5    0  0.5684733E-005  0.2954937E+03  0.7546771E-02  0.1087515E+00
         21   -1    0    0  502  501  0.00000000000E+00  0.00000000000E+00  0.44099799197E+03  0.44099799197E+03  0.00000000000E+00 0.  1.
         21   -1    0    0  501  502 -0.00000000000E+00 -0.00000000000E+00 -0.19799749640E+03  0.19799749640E+03  0.00000000000E+00 0.  1.
         25    1    1    2    0    0 -0.68609677260E+02  0.65310255566E+02 -0.56621334537E+02  0.16674439367E+03  0.12500000000E+03 0.  0.
         25    1    1    2    0    0 -0.42953408230E+02  0.32532572216E+02  0.22778533129E+03  0.26535734526E+03  0.12500000000E+03 0.  0.
         25    1    1    2    0    0  0.11156308549E+03 -0.97842827782E+02  0.71836498812E+02  0.20689374943E+03  0.12500000000E+03 0.  0.
</event>
<event>
 5    0  0.5684733E-005  0.3176622E+03  0.7546771E-02  0.1076730E+00
         21   -1    0    0  502  501  0.00000000000E+00  0.00000000000E+00  0.31257787930E+03  0.31257787930E+03  0.00000000000E+00 0.  1.
         21   -1    0    0  501  502 -0.00000000000E+00 -0.00000000000E+00 -0.32282931972E+03  0.32282931972E+03  0.00000000000E+00 0.  1.
         25    1    1    2    0    0 -0.19084790931E+03  0.15077907098E+02  0.52667175824E+02  0.23462544444E+03  0.12500000000E+03 0.  0.
         25    1    1    2    0    0  0.10518231509E+03  0.91408585216E+02 -0.99489207651E+02  0.21199516810E+03  0.12500000000E+03 0.  0.
         25    1    1    2    0    0  0.85665594215E+02 -0.10648649231E+03  0.36570591413E+02  0.18878658648E+03  0.12500000000E+03 0.  0.
</event>
<event>
 5    0  0.5684733E-005  0.4114417E+03  0.7546771E-02  0.1039888E+00
         21   -1    0    0  502  501  0.00000000000E+00  0.00000000000E+00  0.14486983805E+04  0.14486983805E+04  0.00000000000E+00 0.  1.
         21   -1    0    0  501  502 -0.00000000000E+00 -0.00000000000E+00 -0.11685266738E+03  0.11685266738E+03  0.00000000000E+00 0.  1.
         25    1    1    2    0    0 -0.28023912408E+02 -0.76163891266E+02  0.17960805781E+03  0.23338880099E+03  0.12500000000E+03 0.  0.
         25    1    1    2    0    0 -0.28862847275E+03  0.46841610347E+02  0.44778823165E+03  0.54921747255E+03  0.12500000000E+03 0.  0.
         25    1    1    2    0    0  0.31665238516E+03  0.29322280920E+02  0.70444942362E+03  0.78294477431E+03  0.12500000000E+03 0.  0.
</event>
<event>
 5    0  0.5684733E-005  0.3717973E+03  0.7546771E-02  0.1054008E+00
         21   -1    0    0  502  501  0.00000000000E+00  0.00000000000E+00  0.17783693884E+03  0.17783693884E+03  0.00000000000E+00 0. -1.
         21   -1    0    0  501  502 -0.00000000000E+00 -0.00000000000E+00 -0.77730341219E+03  0.77730341219E+03  0.00000000000E+00 0. -1.
         25    1    1    2    0    0  0.19917005970E+03 -0.16637819655E+03 -0.48905861974E+03  0.56758589703E+03  0.12500000000E+03 0.  0.
         25    1    1    2    0    0 -0.11182720289E+03  0.82194561900E+02 -0.11237547900E+02  0.18711641241E+03  0.12500000000E+03 0.  0.
         25    1    1    2    0    0 -0.87342856812E+02  0.84183634648E+02 -0.99170305709E+02  0.20043804158E+03  0.12500000000E+03 0.  0.
</event>
<event>
 5    0  0.5684733E-005  0.4775497E+03  0.7546771E-02  0.1019811E+00
         21   -1    0    0  502  501  0.00000000000E+00  0.00000000000E+00  0.43545560391E+04  0.43545560391E+04  0.00000000000E+00 0. -1.
         21   -1    0    0  501  502 -0.00000000000E+00 -0.00000000000E+00 -0.52371280215E+02  0.52371280215E+02  0.00000000000E+00 0. -1.
         25    1    1    2    0    0 -0.80621185898E+02 -0.87689930445E+02  0.14115537902E+04  0.14220753856E+04  0.12500000000E+03 0.  0.
         25    1    1    2    0    0 -0.15176295105E+03 -0.15567468121E+03  0.21192801277E+04  0.21340665077E+04  0.12500000000E+03 0.  0.
         25    1    1    2    0    0  0.23238413695E+03  0.24336461166E+03  0.77135084095E+03  0.85078542603E+03  0.12500000000E+03 0.  0.
</event>
<event>
 5    0  0.5684733E-005  0.4230891E+03  0.7546771E-02  0.1036066E+00
         21   -1    0    0  502  501  0.00000000000E+00  0.00000000000E+00  0.41196348814E+03  0.41196348814E+03  0.00000000000E+00 0. -1.
         21   -1    0    0  501  502 -0.00000000000E+00 -0.00000000000E+00 -0.43451513813E+03  0.43451513813E+03  0.00000000000E+00 0. -1.
         25    1    1    2    0    0 -0.36009939739E+02 -0.28885890822E+03 -0.20895528900E+03  0.37950427853E+03  0.12500000000E+03 0.  0.
         25    1    1    2    0    0 -0.71611258973E+02  0.17409697321E+03  0.11639278008E+03  0.25418538068E+03  0.12500000000E+03 0.  0.
         25    1    1    2    0    0  0.10762119871E+03  0.11476193501E+03  0.70010858924E+02  0.21278896707E+03  0.12500000000E+03 0.  0.
</event>
<event>
 5    0  0.5684733E-005  0.3139278E+03  0.7546771E-02  0.1078478E+00
         21   -1    0    0  502  501  0.00000000000E+00  0.00000000000E+00  0.17686799244E+03  0.17686799244E+03  0.00000000000E+00 0. -1.
         21   -1    0    0  501  502 -0.00000000000E+00 -0.00000000000E+00 -0.55719913302E+03  0.55719913302E+03  0.00000000000E+00 0. -1.
         25    1    1    2    0    0 -0.79581808942E+02 -0.19076781496E+02  0.26761995788E+02  0.15178403185E+03  0.12500000000E+03 0.  0.
         25    1    1    2    0    0 -0.20869567995E+02  0.15757499193E+03 -0.16879450385E+03  0.26340463451E+03  0.12500000000E+03 0.  0.
         25    1    1    2    0    0  0.10045137694E+03 -0.13849821043E+03 -0.23829863252E+03  0.31887845911E+03  0.12500000000E+03 0.  0.
</event>
<event>
 5    0  0.5684733E-005  0.3627237E+03  0.7546771E-02  0.1057511E+00
         21   -1    0    0  502  501  0.00000000000E+00  0.00000000000E+00  0.33216541226E+03  0.33216541226E+03  0.00000000000E+00 0. -1.
         21   -1    0    0  501  502 -0.00000000000E+00 -0.00000000000E+00 -0.39609333394E+03  0.39609333394E+03  0.00000000000E+00 0. -1.
         25    1    1    2    0    0  0.11232418474E+03 -0.73390849675E+02 -0.23816353473E+01  0.18339468771E+03  0.12500000000E+03 0.  0.
         25    1    1    2    0    0 -0.22872957013E+03  0.61680810569E+02 -0.19204827803E+03  0.32958956255E+03  0.12500000000E+03 0.  0.
         25    1    1    2    0    0  0.11640538539E+03  0.11710039106E+02  0.13050199170E+03  0.21527449594E+03  0.12500000000E+03 0.  0.
</event>
<event>
 5    0  0.5684733E-005  0.3124805E+03  0.7546771E-02  0.1079163E+00
         21   -1    0    0  502  501  0.00000000000E+00  0.00000000000E+00  0.98300017826E+02  0.98300017826E+02  0.00000000000E+00 0. -1.
         21   -1    0    0  501  502 -0.00000000000E+00 -0.00000000000E+00 -0.99332707549E+03  0.99332707549E+03  0.00000000000E+00 0. -1.
         25    1    1    2    0    0 -0.14723334355E+02 -0.52027383072E+02 -0.38303794529E+03  0.40653006370E+03  0.12500000000E+03 0.  0.
         25    1    1    2    0    0 -0.13023036917E+03 -0.86286737018E+02 -0.33415958329E+03  0.38947782625E+03  0.12500000000E+03 0.  0.
         25    1    1    2    0    0  0.14495370352E+03  0.13831412009E+03 -0.17782952909E+03  0.29561920336E+03  0.12500000000E+03 0.  0.
</event>
<event>
 5    0  0.5684733E-005  0.3947103E+03  0.7546771E-02  0.1045627E+00
         21   -1    0    0  502  501  0.00000000000E+00  0.00000000000E+00  0.91504843327E+03  0.91504843327E+03  0.00000000000E+00 0.  1.
         21   -1    0    0  501  502 -0.00000000000E+00 -0.00000000000E+00 -0.17026010783E+03  0.17026010783E+03  0.00000000000E+00 0.  1.
         25    1    1    2    0    0 -0.16710993496E+03  0.14218594157E+03  0.16749584625E+03  0.30302216231E+03  0.12500000000E+03 0.  0.
         25    1    1    2    0    0  0.23815066860E+03 -0.21290329928E+03  0.49478487344E+03  0.60206364015E+03  0.12500000000E+03 0.  0.
         25    1    1    2    0    0 -0.71040733648E+02  0.70717357709E+02  0.82507605744E+02  0.18022273864E+03  0.12500000000E+03 0.  0.
</event>
<event>
 5    0  0.5684733E-005  0.2778946E+03  0.7546771E-02  0.1096844E+00
         21   -1    0    0  502  501  0.00000000000E+00  0.00000000000E+00  0.11686983599E+03  0.11686983599E+03  0.00000000000E+00 0.  1.
         21   -1    0    0  501  502 -0.00000000000E+00 -0.00000000000E+00 -0.66078138705E+03  0.66078138705E+03  0.00000000000E+00 0.  1.
         25    1    1    2    0    0  0.10542374492E+03  0.47288188209E+02 -0.18343472539E+03  0.25024715227E+03  0.12500000000E+03 0.  0.
         25    1    1    2    0    0 -0.91024781551E+02  0.84316562507E+02 -0.27426833891E+03  0.32594925264E+03  0.12500000000E+03 0.  0.
         25    1    1    2    0    0 -0.14398963371E+02 -0.13160475072E+03 -0.86208486758E+02  0.20145481813E+03  0.12500000000E+03 0.  0.
</event>
<event>
 5    0  0.5684733E-005  0.2268150E+03  0.7546771E-02  0.1128902E+00
         21   -1    0    0  502  501  0.00000000000E+00  0.00000000000E+00  0.27197986135E+02  0.27197986135E+02  0.00000000000E+00 0.  1.
         21   -1    0    0  501  502 -0.00000000000E+00 -0.00000000000E+00 -0.18915022591E+04  0.18915022591E+04  0.00000000000E+00 0.  1.
         25    1    1    2    0    0 -0.20069910520E+02  0.27841808699E+02 -0.75943537471E+03  0.77041875366E+03  0.12500000000E+03 0.  0.
         25    1    1    2    0    0 -0.70519271159E+02 -0.32172969709E+02 -0.69239026053E+03  0.70783991161E+03  0.12500000000E+03 0.  0.
         25    1    1    2    0    0  0.90589181678E+02  0.43311610105E+01 -0.41247863773E+03  0.44044157998E+03  0.12500000000E+03 0.  0.
</event>
<event>
 5    0  0.5684733E-005  0.2843551E+03  0.7546771E-02  0.1093334E+00
         21   -1    0    0  502  501  0.00000000000E+00  0.00000000000E+00  0.49964869725E+03  0.49964869725E+03  0.00000000000E+00 0. -1.
         21   -1    0    0  501  502 -0.00000000000E+00 -0.00000000000E+00 -0.16182934657E+03  0.16182934657E+03  0.00000000000E+00 0. -1.
         25    1    1    2    0    0 -0.11886049882E+03  0.37600868850E+02  0.97250055711E+02  0.20155450095E+03  0.12500000000E+03 0.  0.
         25    1    1    2    0    0  0.19700109532E+03 -0.27148330238E+02  0.19497706729E+03  0.30526631023E+03  0.12500000000E+03 0.  0.
         25    1    1    2    0    0 -0.78140596497E+02 -0.10452538612E+02  0.45592227670E+02  0.15465723264E+03  0.12500000000E+03 0.  0.
</event>
<event>
 5    0  0.5684733E-005  0.3137910E+03  0.7546771E-02  0.1078543E+00
         21   -1    0    0  502  501  0.00000000000E+00  0.00000000000E+00  0.55758180791E+03  0.55758180791E+03  0.00000000000E+00 0. -1.
         21   -1    0    0  501  502 -0.00000000000E+00 -0.00000000000E+00 -0.17659254473E+03  0.17659254473E+03  0.00000000000E+00 0. -1.
         25    1    1    2    0    0  0.87133461296E+02 -0.48840810946E+02 -0.59568079005E+02  0.17073670059E+03  0.12500000000E+03 0.  0.
         25    1    1    2    0    0 -0.14523681035E+03 -0.12951633899E+02  0.30522130214E+03  0.36061963228E+03  0.12500000000E+03 0.  0.
         25    1    1    2    0    0  0.58103349058E+02  0.61792444845E+02  0.13533604004E+03  0.20281801977E+03  0.12500000000E+03 0.  0.
</event>
<event>
 5    0  0.5684733E-005  0.3026164E+03  0.7546771E-02  0.1083940E+00
         21   -1    0    0  502  501  0.00000000000E+00  0.00000000000E+00  0.72978517817E+02  0.72978517817E+02  0.00000000000E+00 0.  1.
         21   -1    0    0  501  502 -0.00000000000E+00 -0.00000000000E+00 -0.12548445598E+04  0.12548445598E+04  0.00000000000E+00 0.  1.
         25    1    1    2    0    0  0.11922861888E+01  0.61887910322E+02 -0.50887291145E+02  0.14847912779E+03  0.12500000000E+03 0.  0.
         25    1    1    2    0    0 -0.71263539617E+01 -0.13784474698E+03 -0.69094546790E+03  0.71559946814E+03  0.12500000000E+03 0.  0.
         25    1    1    2    0    0  0.59340677729E+01  0.75956836663E+02 -0.44003328292E+03  0.46374448166E+03  0.12500000000E+03 0.  0.
</event>
<event>
 5    0  0.5684733E-005  0.3900539E+03  0.7546771E-02  0.1047279E+00
         21   -1    0    0  502  501  0.00000000000E+00  0.00000000000E+00  0.10984164779E+04  0.10984164779E+04  0.00000000000E+00 0.  1.
         21   -1    0    0  501  502 -0.00000000000E+00 -0.00000000000E+00 -0.13851037689E+03  0.13851037689E+03  0.00000000000E+00 0.  1.
         25    1    1    2    0    0  0.21812917680E+03 -0.24197805983E+03  0.41257693386E+03  0.54035029893E+03  0.12500000000E+03 0.  0.
         25    1    1    2    0    0 -0.52994112047E+02  0.87905653557E+02  0.29020046385E+03  0.33223047581E+03  0.12500000000E+03 0.  0.
         25    1    1    2    0    0 -0.16513506475E+03  0.15407240627E+03  0.25712870331E+03  0.36434608005E+03  0.12500000000E+03 0.  0.
</event>
<event>
 5    0  0.6411640E-005  0.3216077E+03  0.7546771E-02  0.1074912E+00
         21   -1    0    0  502  501  0.00000000000E+00  0.00000000000E+00  0.17742525379E+03  0.17742525379E+03  0.00000000000E+00 0. -1.
         21   -1    0    0  501  502 -0.00000000000E+00 -0.00000000000E+00 -0.58295812269E+03  0.58295812269E+03  0.00000000000E+00 0.  1.
         25    1    1    2    0    0  0.95143129238E+02  0.10176548372E+03 -0.12113601336E+03  0.22295148003E+03  0.12500000000E+03 0.  0.
         25    1    1    2    0    0  0.71546420947E+02 -0.18825118902E+02  0.32857211623E+02  0.14892236839E+03  0.12500000000E+03 0.  0.
         25    1    1    2    0    0 -0.16668955019E+03 -0.82940364815E+02 -0.31725406717E+03  0.38850952806E+03  0.12500000000E+03 0.  0.
</event>
<event>
 5    0  0.5684733E-005  0.2256425E+03  0.7546771E-02  0.1129745E+00
         21   -1    0    0  502  501  0.00000000000E+00  0.00000000000E+00  0.27903065142E+03  0.27903065142E+03  0.00000000000E+00 0. -1.
         21   -1    0    0  501  502 -0.00000000000E+00 -0.00000000000E+00 -0.18246935873E+03  0.18246935873E+03  0.00000000000E+00 0. -1.
         25    1    1    2    0    0 -0.35665073735E+02  0.50469486717E+02 -0.47497226921E+02  0.14730971841E+03  0.12500000000E+03 0.  0.
         25    1    1    2    0    0 -0.33264834167E+02 -0.36685130485E+02  0.54272670132E+02  0.14499265745E+03  0.12500000000E+03 0.  0.
         25    1    1    2    0    0  0.68929907903E+02 -0.13784356232E+02  0.89785849478E+02  0.16919763428E+03  0.12500000000E+03 0.  0.
</event>
<event>
 5    0  0.5684733E-005  0.2354447E+03  0.7546771E-02  0.1122865E+00
         21   -1    0    0  502  501  0.00000000000E+00  0.00000000000E+00  0.73781644384E+02  0.73781644384E+02  0.00000000000E+00 0.  1.
         21   -1    0    0  501  502 -0.00000000000E+00 -0.00000000000E+00 -0.75132797921E+03  0.75132797921E+03  0.00000000000E+00 0.  1.
         25    1    1    2    0    0  0.38934979844E+01 -0.88408505470E+02 -0.15964035822E+03  0.22122673242E+03  0.12500000000E+03 0.  0.
         25    1    1    2    0    0 -0.64462586109E+02  0.86570436789E+02 -0.34158671516E+03  0.37941580029E+03  0.12500000000E+03 0.  0.
         25    1    1    2    0    0  0.60569088125E+02  0.18380686814E+01 -0.17631926145E+03  0.22446709088E+03  0.12500000000E+03 0.  0.
</event>
<event>
 5    0  0.5684733E-005  0.2491311E+03  0.7546771E-02  0.1113855E+00
         21   -1    0    0  502  501  0.00000000000E+00  0.00000000000E+00  0.24240951622E+03  0.24240951622E+03  0.00000000000E+00 0.  1.
         21   -1    0    0  501  502 -0.00000000000E+00 -0.00000000000E+00 -0.25603907366E+03  0.25603907366E+03  0.00000000000E+00 0.  1.
         25    1    1    2    0    0  0.32644506399E+02 -0.90323654137E+01  0.88045873611E+02  0.15660243703E+03  0.12500000000E+03 0.  0.
         25    1    1    2    0    0  0.84744990811E+02 -0.96795648363E+01 -0.68841330404E+02  0.16625142470E+03  0.12500000000E+03 0.  0.
         25    1    1    2    0    0 -0.11738949721E+03  0.18711930250E+02 -0.32834100654E+02  0.17559472815E+03  0.12500000000E+03 0.  0.
</event>
<event>
 5    0  0.5684733E-005  0.2248414E+03  0.7546771E-02  0.1130324E+00
         21   -1    0    0  502  501  0.00000000000E+00  0.00000000000E+00  0.84842108815E+02  0.84842108815E+02  0.00000000000E+00 0. -1.
         21   -1    0    0  501  502 -0.00000000000E+00 -0.00000000000E+00 -0.59585572412E+03  0.59585572412E+03  0.00000000000E+00 0. -1.
         25    1    1    2    0    0  0.70551506301E+02  0.50461132364E+02 -0.13688340656E+03  0.20466046983E+03  0.12500000000E+03 0.  0.
         25    1    1    2    0    0 -0.52684292982E+02  0.35609285958E+02 -0.15692511598E+03  0.21046174949E+03  0.12500000000E+03 0.  0.
         25    1    1    2    0    0 -0.17867213320E+02 -0.86070418322E+02 -0.21720509276E+03  0.26557561361E+03  0.12500000000E+03 0.  0.
</event>
<event>
 5    0  0.6073791E-005  0.3243607E+03  0.7546771E-02  0.1073660E+00
         21   -1    0    0  502  501  0.00000000000E+00  0.00000000000E+00  0.56331421576E+03  0.56331421576E+03  0.00000000000E+00 0. -1.
         21   -1    0    0  501  502 -0.00000000000E+00 -0.00000000000E+00 -0.18676945782E+03  0.18676945782E+03  0.00000000000E+00 0. -1.
         25    1    1    2    0    0  0.60967855659E+02 -0.56861957247E+02  0.30839257573E+03  0.34304714307E+03  0.12500000000E+03 0.  0.
         25    1    1    2    0    0 -0.15134457359E+03 -0.31949787543E+02  0.10556729238E+03  0.22515643917E+03  0.12500000000E+03 0.  0.
         25    1    1    2    0    0  0.90376717926E+02  0.88811744790E+02 -0.37415110173E+02  0.18188009134E+03  0.12500000000E+03 0.  0.
</event>
<event>
 5    0  0.5684733E-005  0.3352880E+03  0.7546771E-02  0.1068821E+00
         21   -1    0    0  502  501  0.00000000000E+00  0.00000000000E+00  0.81626952617E+02  0.81626952617E+02  0.00000000000E+00 0.  1.
         21   -1    0    0  501  502 -0.00000000000E+00 -0.00000000000E+00 -0.13772171652E+04  0.13772171652E+04  0.00000000000E+00 0.  1.
         25    1    1    2    0    0 -0.57964993125E+01  0.10353216616E+03 -0.21740802874E+03  0.27137383771E+03  0.12500000000E+03 0.  0.
         25    1    1    2    0    0  0.18467280060E+03  0.25037456872E+02 -0.67508364951E+03  0.71140273500E+03  0.12500000000E+03 0.  0.
         25    1    1    2    0    0 -0.17887630129E+03 -0.12856962303E+03 -0.40309853435E+03  0.47606754513E+03  0.12500000000E+03 0.  0.
</event>
<event>
 5    0  0.5684733E-005  0.2203989E+03  0.7546771E-02  0.1133586E+00
         21   -1    0    0  502  501  0.00000000000E+00  0.00000000000E+00  0.79570599461E+03  0.79570599461E+03  0.00000000000E+00 0. -1.
         21   -1    0    0  501  502 -0.00000000000E+00 -0.00000000000E+00 -0.61047286453E+02  0.61047286453E+02  0.00000000000E+00 0. -1.
         25    1    1    2    0    0 -0.44167671827E+01  0.49550684829E+01  0.46198044125E+03  0.47863868276E+03  0.12500000000E+03 0.  0.
         25    1    1    2    0    0  0.16142195081E+02  0.33477924540E+02  0.14398228089E+03  0.19426075029E+03  0.12500000000E+03 0.  0.
         25    1    1    2    0    0 -0.11725427898E+02 -0.38432993023E+02  0.12869598602E+03  0.18385384801E+03  0.12500000000E+03 0.  0.
</event>
<event>
 5    0  0.5684733E-005  0.3351979E+03  0.7546771E-02  0.1068860E+00
         21   -1    0    0  502  501  0.00000000000E+00  0.00000000000E+00  0.15480408994E+03  0.15480408994E+03  0.00000000000E+00 0.  1.
         21   -1    0    0  501  502 -0.00000000000E+00 -0.00000000000E+00 -0.72580522550E+03  0.72580522550E+03  0.00000000000E+00 0.  1.
         25    1    1    2    0    0 -0.48719814468E+02  0.64423895981E+02 -0.11026571384E+03  0.18522307185E+03  0.12500000000E+03 0.  0.
         25    1    1    2    0    0 -0.31392522082E+02  0.17305219290E+03 -0.97661579538E+02  0.23684453979E+03  0.12500000000E+03 0.  0.
         25    1    1    2    0    0  0.80112336550E+02 -0.23747608888E+03 -0.36307384217E+03  0.45854170380E+03  0.12500000000E+03 0.  0.
</event>
<event>
 5    0  0.5684733E-005  0.2395339E+03  0.7546771E-02  0.1120104E+00
         21   -1    0    0  502  501  0.00000000000E+00  0.00000000000E+00  0.75372529945E+03  0.75372529945E+03  0.00000000000E+00 0.  1.
         21   -1    0    0  501  502 -0.00000000000E+00 -0.00000000000E+00 -0.76123862170E+02  0.76123862170E+02  0.00000000000E+00 0.  1.
         25    1    1    2    0    0  0.13958072965E+00  0.13022471346E+02  0.23369947788E+03  0.26534892162E+03  0.12500000000E+03 0.  0.
         25    1    1    2    0    0 -0.88708322245E+02 -0.84871627131E+02  0.26996680264E+03  0.32183758956E+03  0.12500000000E+03 0.  0.
         25    1    1    2    0    0  0.88568741516E+02  0.71849155786E+02  0.17393515676E+03  0.24266265044E+03  0.12500000000E+03 0.  0.
</event>
<event>
 5    0  0.5684733E-005  0.2611213E+03  0.7546771E-02  0.1106471E+00
         21   -1    0    0  502  501  0.00000000000E+00  0.00000000000E+00  0.17647709947E+04  0.17647709947E+04  0.00000000000E+00 0.  1.
         21   -1    0    0  501  502 -0.00000000000E+00 -0.00000000000E+00 -0.38636364658E+02  0.38636364658E+02  0.00000000000E+00 0.  1.
         25    1    1    2    0    0  0.29456307324E+02  0.56948575408E+02  0.24124684786E+03  0.27916994087E+03  0.12500000000E+03 0.  0.
         25    1    1    2    0    0 -0.52245868869E+02 -0.52955351986E+02  0.12382614134E+04  0.12467759333E+04  0.12500000000E+03 0.  0.
         25    1    1    2    0    0  0.22789561545E+02 -0.39932234227E+01  0.24662636884E+03  0.27746148518E+03  0.12500000000E+03 0.  0.
</event>
<event>
 5    0  0.5684733E-005  0.2644148E+03  0.7546771E-02  0.1104519E+00
         21   -1    0    0  502  501  0.00000000000E+00  0.00000000000E+00  0.12514746037E+03  0.12514746037E+03  0.00000000000E+00 0. -1.
         21   -1    0    0  501  502 -0.00000000000E+00 -0.00000000000E+00 -0.55866260437E+03  0.55866260437E+03  0.00000000000E+00 0. -1.
         25    1    1    2    0    0 -0.79779605420E+02  0.14367438824E+03 -0.21777480373E+03  0.30009661847E+03  0.12500000000E+03 0.  0.
         25    1    1    2    0    0  0.63854330251E+02 -0.78729351123E+02 -0.17155007541E+03  0.23522354175E+03  0.12500000000E+03 0.  0.
         25    1    1    2    0    0  0.15925275169E+02 -0.64945037120E+02 -0.44190264859E+02  0.14848990452E+03  0.12500000000E+03 0.  0.
</event>
<event>
 5    0  0.5684733E-005  0.3550517E+03  0.7546771E-02  0.1060560E+00
         21   -1    0    0  502  501  0.00000000000E+00  0.00000000000E+00  0.38680750873E+03  0.38680750873E+03  0.00000000000E+00 0.  1.
         21   -1    0    0  501  502 -0.00000000000E+00 -0.00000000000E+00 -0.32590303404E+03  0.32590303404E+03  0.00000000000E+00 0.  1.
         25    1    1    2    0    0  0.24804607372E+02  0.85733995438E+02 -0.13586567260E+03  0.20506113116E+03  0.12500000000E+03 0.  0.
         25    1    1    2    0    0  0.67265975789E+02 -0.32553291555E+00 -0.91780871533E+02  0.16903711382E+03  0.12500000000E+03 0.  0.
         25    1    1    2    0    0 -0.92070583161E+02 -0.85408462523E+02  0.28855101882E+03  0.33861229779E+03  0.12500000000E+03 0.  0.
</event>
<event>
 5    0  0.5684733E-005  0.4821855E+03  0.7546771E-02  0.1018536E+00
         21   -1    0    0  502  501  0.00000000000E+00  0.00000000000E+00  0.31798657585E+03  0.31798657585E+03  0.00000000000E+00 0.  1.
         21   -1    0    0  501  502 -0.00000000000E+00 -0.00000000000E+00 -0.73117203340E+03  0.73117203340E+03  0.00000000000E+00 0.  1.
         25    1    1    2    0    0 -0.27549030441E+01 -0.10263068925E+03 -0.17232992736E+03  0.23635408127E+03  0.12500000000E+03 0.  0.
         25    1    1    2    0    0 -0.26581220556E+03  0.28462466027E+03 -0.22019727552E+03  0.46452036124E+03  0.12500000000E+03 0.  0.
         25    1    1    2    0    0  0.26856710861E+03 -0.18199397102E+03 -0.20658254661E+02  0.34828416674E+03  0.12500000000E+03 0.  0.
</event>
<event>
 5    0  0.5684733E-005  0.5443794E+03  0.7546771E-02  0.1002803E+00
         21   -1    0    0  502  501  0.00000000000E+00  0.00000000000E+00  0.15412102538E+04  0.15412102538E+04  0.00000000000E+00 0. -1.
         21   -1    0    0  501  502 -0.00000000000E+00 -0.00000000000E+00 -0.19228326701E+03  0.19228326701E+03  0.00000000000E+00 0. -1.
         25    1    1    2    0    0  0.70382417099E+02 -0.11814821845E+03 -0.42901484995E+02  0.19073076201E+03  0.12500000000E+03 0.  0.
         25    1    1    2    0    0 -0.29373307236E+03 -0.93740985919E+02  0.66499024516E+03  0.74357482233E+03  0.12500000000E+03 0.  0.
         25    1    1    2    0    0  0.22335065527E+03  0.21188920437E+03  0.72683822663E+03  0.79918793649E+03  0.12500000000E+03 0.  0.
</event>
<event>
 5    0  0.5684733E-005  0.2930483E+03  0.7546771E-02  0.1088768E+00
         21   -1    0    0  502  501  0.00000000000E+00  0.00000000000E+00  0.13078582729E+04  0.13078582729E+04  0.00000000000E+00 0.  1.
         21   -1    0    0  501  502 -0.00000000000E+00 -0.00000000000E+00 -0.65662550324E+02  0.65662550324E+02  0.00000000000E+00 0.  1.
         25    1    1    2    0    0 -0.10259860353E+02  0.18717260026E+03  0.56713757683E+03  0.61025312623E+03  0.12500000000E+03 0.  0.
         25    1    1    2    0    0  0.45102963479E+02 -0.10040481770E+03  0.50809658610E+03  0.53469855576E+03  0.12500000000E+03 0.  0.
         25    1    1    2    0    0 -0.34843103126E+02 -0.86767782562E+02  0.16696155968E+03  0.22856914126E+03  0.12500000000E+03 0.  0.
</event>
<event>
 5    0  0.5684733E-005  0.5181914E+03  0.7546771E-02  0.1009137E+00
         21   -1    0    0  502  501  0.00000000000E+00  0.00000000000E+00  0.70397768091E+03  0.70397768091E+03  0.00000000000E+00 0. -1.
         21   -1    0    0  501  502 -0.00000000000E+00 -0.00000000000E+00 -0.38143580473E+03  0.38143580473E+03  0.00000000000E+00 0. -1.
         25    1    1    2    0    0 -0.69059346978E+02 -0.42479835262E+03  0.33339977885E+03  0.55857250767E+03  0.12500000000E+03 0.  0.
         25    1    1    2    0    0 -0.34251922470E+02  0.13846924783E+03 -0.48128308052E+02  0.19567386342E+03  0.12500000000E+03 0.  0.
         25    1    1    2    0    0  0.10331126945E+03  0.28632910478E+03  0.37270405382E+02  0.33116711455E+03  0.12500000000E+03 0.  0.
</event>
<event>
 5    0  0.5684733E-005  0.2526755E+03  0.7546771E-02  0.1111626E+00
         21   -1    0    0  502  501  0.00000000000E+00  0.00000000000E+00  0.81985702055E+02  0.81985702055E+02  0.00000000000E+00 0. -1.
         21   -1    0    0  501  502 -0.00000000000E+00 -0.00000000000E+00 -0.77873225863E+03  0.77873225863E+03  0.00000000000E+00 0. -1.
         25    1    1    2    0    0 -0.39674295547E+02  0.62188080136E+02 -0.63953821100E+02  0.15860800191E+03  0.12500000000E+03 0.  0.
         25    1    1    2    0    0  0.75767078564E+02 -0.54756900980E+02 -0.22379144637E+03  0.27284900562E+03  0.12500000000E+03 0.  0.
         25    1    1    2    0    0 -0.36092783017E+02 -0.74311791557E+01 -0.40900128911E+03  0.42926095315E+03  0.12500000000E+03 0.  0.
</event>
<event>
 5    0  0.5684733E-005  0.2256142E+03  0.7546771E-02  0.1129765E+00
         21   -1    0    0  502  501  0.00000000000E+00  0.00000000000E+00  0.20005376603E+03  0.20005376603E+03  0.00000000000E+00 0. -1.
         21   -1    0    0  501  502 -0.00000000000E+00 -0.00000000000E+00 -0.25444047163E+03  0.25444047163E+03  0.00000000000E+00 0. -1.
         25    1    1    2    0    0 -0.14318687045E+02  0.26355741881E+02 -0.10591686288E+03  0.16656239603E+03  0.12500000000E+03 0.  0.
         25    1    1    2    0    0 -0.33801104883E+02 -0.22903376146E+02  0.75774911029E+02  0.15176928698E+03  0.12500000000E+03 0.  0.
         25    1    1    2    0    0  0.48119791928E+02 -0.34523657356E+01 -0.24244753740E+02  0.13616255465E+03  0.12500000000E+03 0.  0.
</event>
<event>
 5    0  0.5684733E-005  0.2359969E+03  0.7546771E-02  0.1122489E+00
         21   -1    0    0  502  501  0.00000000000E+00  0.00000000000E+00  0.48732081194E+03  0.48732081194E+03  0.00000000000E+00 0.  1.
         21   -1    0    0  501  502 -0.00000000000E+00 -0.00000000000E+00 -0.11428719039E+03  0.11428719039E+03  0.00000000000E+00 0.  1.
         25    1    1    2    0    0  0.61367420430E+02  0.40652995945E+01  0.91958007411E+02  0.16692442026E+03  0.12500000000E+03 0.  0.
         25    1    1    2    0    0 -0.11787304768E+02 -0.69088837900E+02  0.36138682540E+02  0.14779449398E+03  0.12500000000E+03 0.  0.
         25    1    1    2    0    0 -0.49580115662E+02  0.65023538306E+02  0.24493693160E+03  0.28688908809E+03  0.12500000000E+03 0.  0.
</event>
<event>
 5    0  0.5684733E-005  0.4089837E+03  0.7546771E-02  0.1040713E+00
         21   -1    0    0  502  501  0.00000000000E+00  0.00000000000E+00  0.63522873047E+03  0.63522873047E+03  0.00000000000E+00 0.  1.
         21   -1    0    0  501  502 -0.00000000000E+00 -0.00000000000E+00 -0.26331881705E+03  0.26331881705E+03  0.00000000000E+00 0.  1.
         25    1    1    2    0    0 -0.68513206872E+02  0.13475615143E+03  0.42388497075E+03  0.46707253001E+03  0.12500000000E+03 0.  0.
         25    1    1    2    0    0  0.87860517746E+02  0.82361448413E+02  0.56922909525E+01  0.17366715562E+03  0.12500000000E+03 0.  0.
         25    1    1    2    0    0 -0.19347310875E+02 -0.21711759984E+03 -0.57667348282E+02  0.25780786190E+03  0.12500000000E+03 0.  0.
</event>
<event>
 5    0  0.5684733E-005  0.2472643E+03  0.7546771E-02  0.1115046E+00
         21   -1    0    0  502  501  0.00000000000E+00  0.00000000000E+00  0.12295921477E+04  0.12295921477E+04  0.00000000000E+00 0.  1.
         21   -1    0    0  501  502 -0.00000000000E+00 -0.00000000000E+00 -0.49723494969E+02  0.49723494969E+02  0.00000000000E+00 0.  1.
         25    1    1    2    0    0 -0.26119413468E+02  0.88824158000E+01  0.49138982060E+03  0.50778940207E+03  0.12500000000E+03 0.  0.
         25    1    1    2    0    0 -0.25257855891E+02  0.10461009022E+03  0.40880272206E+03  0.44082410985E+03  0.12500000000E+03 0.  0.
         25    1    1    2    0    0  0.51377269359E+02 -0.11349250602E+03  0.27967611003E+03  0.33070213070E+03  0.12500000000E+03 0.  0.
</event>
<event>
 5    0  0.5684733E-005  0.3705294E+03  0.7546771E-02  0.1054491E+00
         21   -1    0    0  502  501  0.00000000000E+00  0.00000000000E+00  0.77174668891E+02  0.77174668891E+02  0.00000000000E+00 0. -1.
         21   -1    0    0  501  502 -0.00000000000E+00 -0.00000000000E+00 -0.17789779001E+04  0.17789779001E+04  0.00000000000E+00 0. -1.
         25    1    1    2    0    0 -0.25602263060E+02 -0.41332939004E+02 -0.71152137671E+02  0.15182725189E+03  0.12500000000E+03 0.  0.
         25    1    1    2    0    0 -0.44523437950E+02  0.10246104576E+03 -0.14735506529E+04  0.14830566844E+04  0.12500000000E+03 0.  0.
         25    1    1    2    0    0  0.70125701010E+02 -0.61128106758E+02 -0.15710044064E+03  0.22126863272E+03  0.12500000000E+03 0.  0.
</event>
<event>
 5    0  0.5684733E-005  0.2683328E+03  0.7546771E-02  0.1102238E+00
         21   -1    0    0  502  501  0.00000000000E+00  0.00000000000E+00  0.64820598934E+03  0.64820598934E+03  0.00000000000E+00 0.  1.
         21   -1    0    0  501  502 -0.00000000000E+00 -0.00000000000E+00 -0.11107964251E+03  0.11107964251E+03  0.00000000000E+00 0.  1.
         25    1    1    2    0    0  0.90984257472E+02  0.14554913261E+02  0.23857019233E+03  0.28465894905E+03  0.12500000000E+03 0.  0.
         25    1    1    2    0    0 -0.12170159450E+03 -0.10688002511E+03  0.20981932533E+03  0.29305932361E+03  0.12500000000E+03 0.  0.
         25    1    1    2    0    0  0.30717337027E+02  0.92325111847E+02  0.88736829167E+02  0.18156735919E+03  0.12500000000E+03 0.  0.
</event>
<event>
 5    0  0.5684733E-005  0.2863589E+03  0.7546771E-02  0.1092266E+00
         21   -1    0    0  502  501  0.00000000000E+00  0.00000000000E+00  0.36843155074E+03  0.36843155074E+03  0.00000000000E+00 0. -1.
         21   -1    0    0  501  502 -0.00000000000E+00 -0.00000000000E+00 -0.22256888117E+03  0.22256888117E+03  0.00000000000E+00 0. -1.
         25    1    1    2    0    0  0.20047280078E+02  0.95810911635E+02 -0.10517718591E+03  0.19044386223E+03  0.12500000000E+03 0.  0.
         25    1    1    2    0    0  0.49706833398E+02 -0.45485873027E+02  0.54136031294E+02  0.15197185205E+03  0.12500000000E+03 0.  0.
         25    1    1    2    0    0 -0.69754113475E+02 -0.50325038608E+02  0.19690382419E+03  0.24858471763E+03  0.12500000000E+03 0.  0.
</event>
<event>
 5    0  0.5684733E-005  0.2714120E+03  0.7546771E-02  0.1100474E+00
         21   -1    0    0  502  501  0.00000000000E+00  0.00000000000E+00  0.16734514110E+04  0.16734514110E+04  0.00000000000E+00 0. -1.
         21   -1    0    0  501  502 -0.00000000000E+00 -0.00000000000E+00 -0.44019478756E+02  0.44019478756E+02  0.00000000000E+00 0. -1.
         25    1    1    2    0    0  0.24552150827E+02  0.37054887816E+02  0.21299693365E+03  0.25093538325E+03  0.12500000000E+03 0.  0.
         25    1    1    2    0    0  0.12038461695E+03  0.79570890903E+01  0.83103415895E+03  0.84899855395E+03  0.12500000000E+03 0.  0.
         25    1    1    2    0    0 -0.14493676778E+03 -0.45011976907E+02  0.58540083960E+03  0.61753695251E+03  0.12500000000E+03 0.  0.
</event>
<event>
 5    0  0.5684733E-005  0.3967721E+03  0.7546771E-02  0.1044903E+00
         21   -1    0    0  502  501  0.00000000000E+00  0.00000000000E+00  0.30800452184E+03  0.30800452184E+03  0.00000000000E+00 0. -1.
         21   -1    0    0  501  502 -0.00000000000E+00 -0.00000000000E+00 -0.51112265440E+03  0.51112265440E+03  0.00000000000E+00 0. -1.
         25    1    1    2    0    0  0.16578758454E+03  0.83178893205E+02  0.66649434915E+02  0.23339108517E+03  0.12500000000E+03 0.  0.
         25    1    1    2    0    0 -0.75126304284E+02 -0.25196812972E+03 -0.14861907112E+03  0.32687081284E+03  0.12500000000E+03 0.  0.
         25    1    1    2    0    0 -0.90661280258E+02  0.16878923651E+03 -0.12114849636E+03  0.25886527822E+03  0.12500000000E+03 0.  0.
</event>
<event>
 5    0  0.5762677E-005  0.3072441E+03  0.7546771E-02  0.1081674E+00
         21   -1    0    0  502  501  0.00000000000E+00  0.00000000000E+00  0.23445625571E+03  0.23445625571E+03  0.00000000000E+00 0.  1.
         21   -1    0    0  501  502 -0.00000000000E+00 -0.00000000000E+00 -0.40262914088E+03  0.40262914088E+03  0.00000000000E+00 0.  1.
         25    1    1    2    0    0 -0.76030526807E+02  0.17596898230E+02 -0.15716424444E+03  0.21544347650E+03  0.12500000000E+03 0.  0.
         25    1    1    2    0    0  0.12787410735E+03 -0.14729169802E+03  0.16204662698E+02  0.23223742749E+03  0.12500000000E+03 0.  0.
         25    1    1    2    0    0 -0.51843580544E+02  0.12969479979E+03 -0.27213303431E+02  0.18940449260E+03  0.12500000000E+03 0.  0.
</event>
<event>
 5    0  0.5684733E-005  0.5922175E+03  0.7546771E-02  0.9921685E-01
         21   -1    0    0  502  501  0.00000000000E+00  0.00000000000E+00  0.10933460379E+04  0.10933460379E+04  0.00000000000E+00 0. -1.
         21   -1    0    0  501  502 -0.00000000000E+00 -0.00000000000E+00 -0.32077819063E+03  0.32077819063E+03  0.00000000000E+00 0. -1.
         25    1    1    2    0    0 -0.48540336883E+03 -0.12846800092E+03  0.19852296986E+03  0.55421731054E+03  0.12500000000E+03 0.  0.
         25    1    1    2    0    0  0.11106840600E+03  0.50858477451E+02  0.36932150355E+03  0.40859044106E+03  0.12500000000E+03 0.  0.
         25    1    1    2    0    0  0.37433496283E+03  0.77609523474E+02  0.20472337381E+03  0.45131647689E+03  0.12500000000E+03 0.  0.
</event>
<event>
 5    0  0.5684733E-005  0.3223296E+03  0.7546771E-02  0.1074582E+00
         21   -1    0    0  502  501  0.00000000000E+00  0.00000000000E+00  0.15880417072E+03  0.15880417072E+03  0.00000000000E+00 0.  1.
         21   -1    0    0  501  502 -0.00000000000E+00 -0.00000000000E+00 -0.65424200801E+03  0.65424200801E+03  0.00000000000E+00 0.  1.
         25    1    1    2    0    0 -0.26457169823E+02  0.78944345752E+02 -0.33400232927E+02  0.15385956948E+03  0.12500000000E+03 0.  0.
         25    1    1    2    0    0 -0.34357146413E+00  0.64907719438E+02 -0.44410362378E+03  0.46590359383E+03  0.12500000000E+03 0.  0.
         25    1    1    2    0    0  0.26800741287E+02 -0.14385206519E+03 -0.17933980580E+02  0.19328301543E+03  0.12500000000E+03 0.  0.
</event>
<event>
 5    0  0.5684733E-005  0.3719834E+03  0.7546771E-02  0.1053937E+00
         21   -1    0    0  502  501  0.00000000000E+00  0.00000000000E+00  0.66238252399E+02  0.66238252399E+02  0.00000000000E+00 0.  1.
         21   -1    0    0  501  502 -0.00000000000E+00 -0.00000000000E+00 -0.20889989174E+04  0.20889989174E+04  0.00000000000E+00 0.  1.
         25    1    1    2    0    0  0.12120158903E+03 -0.13882819296E+02 -0.12718883232E+03  0.21606609388E+03  0.12500000000E+03 0.  0.
         25    1    1    2    0    0 -0.11119124807E+03  0.14501178942E+03 -0.87359495360E+03  0.90121310225E+03  0.12500000000E+03 0.  0.
         25    1    1    2    0    0 -0.10010340963E+02 -0.13112897012E+03 -0.10219768791E+04  0.10379579737E+04  0.12500000000E+03 0.  0.
</event>
<event>
 5    0  0.5684733E-005  0.2758432E+03  0.7546771E-02  0.1097981E+00
         21   -1    0    0  502  501  0.00000000000E+00  0.00000000000E+00  0.57541902557E+03  0.57541902557E+03  0.00000000000E+00 0. -1.
         21   -1    0    0  501  502 -0.00000000000E+00 -0.00000000000E+00 -0.13223311794E+03  0.13223311794E+03  0.00000000000E+00 0. -1.
         25    1    1    2    0    0  0.10968757846E+03  0.39550519830E+02  0.10484951825E+03  0.20053436106E+03  0.12500000000E+03 0.  0.
         25    1    1    2    0    0 -0.94146394163E+02  0.99818663370E+02  0.20624386933E+03  0.27746863377E+03  0.12500000000E+03 0.  0.
         25    1    1    2    0    0 -0.15541184295E+02 -0.13936918320E+03  0.13209252006E+03  0.22964914868E+03  0.12500000000E+03 0.  0.
</event>
<event>
 5    0  0.5684733E-005  0.3894860E+03  0.7546771E-02  0.1047482E+00
         21   -1    0    0  502  501  0.00000000000E+00  0.00000000000E+00  0.87188845974E+02  0.87188845974E+02  0.00000000000E+00 0. -1.
         21   -1    0    0  501  502 -0.00000000000E+00 -0.00000000000E+00 -0.17398941785E+04  0.17398941785E+04  0.00000000000E+00 0. -1.
         25    1    1    2    0    0 -0.12175647457E+03 -0.89857487420E+02 -0.61907462421E+03  0.64944391404E+03  0.12500000000E+03 0.  0.
         25    1    1    2    0    0 -0.23351185151E+02  0.15003542662E+03 -0.96178397530E+02  0.21893193289E+03  0.12500000000E+03 0.  0.
         25    1    1    2    0    0  0.14510765972E+03 -0.60177939195E+02 -0.93745231080E+03  0.95870717756E+03  0.12500000000E+03 0.  0.
</event>
<event>
 5    0  0.5684733E-005  0.4009447E+03  0.7546771E-02  0.1043453E+00
         21   -1    0    0  502  501  0.00000000000E+00  0.00000000000E+00  0.32479426304E+03  0.32479426304E+03  0.00000000000E+00 0. -1.
         21   -1    0    0  501  502 -0.00000000000E+00 -0.00000000000E+00 -0.49494909046E+03  0.49494909046E+03  0.00000000000E+00 0. -1.
         25    1    1    2    0    0  0.84755584360E+02 -0.19638808147E+03 -0.15629770424E+03  0.29292620227E+03  0.12500000000E+03 0.  0.
         25    1    1    2    0    0  0.10739502016E+03 -0.22549353365E+01  0.11109824832E+03  0.19876266216E+03  0.12500000000E+03 0.  0.
         25    1    1    2    0    0 -0.19215060452E+03  0.19864301681E+03 -0.12495537149E+03  0.32805448908E+03  0.12500000000E+03 0.  0.
</event>
<event>
 5    0  0.5684733E-005  0.2447607E+03  0.7546771E-02  0.1116661E+00
         21   -1    0    0  502  501  0.00000000000E+00  0.00000000000E+00  0.32632679609E+03  0.32632679609E+03  0.00000000000E+00 0. -1.
         21   -1    0    0  501  502 -0.00000000000E+00 -0.00000000000E+00 -0.18358224635E+03  0.18358224635E+03  0.00000000000E+00 0. -1.
         25    1    1    2    0    0  0.13120195292E+03 -0.63564914809E+02  0.17529087762E+02  0.19283858473E+03  0.12500000000E+03 0.  0.
         25    1    1    2    0    0 -0.79340331694E+02  0.26096263719E+02  0.55093416313E+02  0.16011304673E+03  0.12500000000E+03 0.  0.
         25    1    1    2    0    0 -0.51861621226E+02  0.37468651091E+02  0.70122045671E+02  0.15695741097E+03  0.12500000000E+03 0.  0.
</event>
<event>
 5    0  0.5684733E-005  0.2794724E+03  0.7546771E-02  0.1095977E+00
         21   -1    0    0  502  501  0.00000000000E+00  0.00000000000E+00  0.17022297615E+03  0.17022297615E+03  0.00000000000E+00 0.  1.
         21   -1    0    0  501  502 -0.00000000000E+00 -0.00000000000E+00 -0.45883835766E+03  0.45883835766E+03  0.00000000000E+00 0.  1.
         25    1    1    2    0    0  0.57549712822E+02  0.84577129221E+02 -0.93243770940E+02  0.18650646384E+03  0.12500000000E+03 0.  0.
         25    1    1    2    0    0 -0.71732350960E+02  0.98784611401E+02 -0.86619248328E+02  0.19501749615E+03  0.12500000000E+03 0.  0.
         25    1    1    2    0    0  0.14182638138E+02 -0.18336174062E+03 -0.10875236224E+03  0.24753737383E+03  0.12500000000E+03 0.  0.
</event>
<event>
 5    0  0.5684733E-005  0.2319907E+03  0.7546771E-02  0.1125246E+00
         21   -1    0    0  502  501  0.00000000000E+00  0.00000000000E+00  0.41294723456E+03  0.41294723456E+03  0.00000000000E+00 0.  1.
         21   -1    0    0  501  502 -0.00000000000E+00 -0.00000000000E+00 -0.13033069025E+03  0.13033069025E+03  0.00000000000E+00 0.  1.
         25    1    1    2    0    0  0.83881167535E+01  0.10848716918E+02  0.43868276034E+02  0.13318213395E+03  0.12500000000E+03 0.  0.
         25    1    1    2    0    0 -0.70761527505E+02  0.68131314526E+02  0.60115145479E+02  0.16996440954E+03  0.12500000000E+03 0.  0.
         25    1    1    2    0    0  0.62373410751E+02 -0.78980031444E+02  0.17863312280E+03  0.24013138132E+03  0.12500000000E+03 0.  0.
</event>
<event>
 5    0  0.5684733E-005  0.2419479E+03  0.7546771E-02  0.1118502E+00
         21   -1    0    0  502  501  0.00000000000E+00  0.00000000000E+00  0.36863681206E+03  0.36863681206E+03  0.00000000000E+00 0.  1.
         21   -1    0    0  501  502 -0.00000000000E+00 -0.00000000000E+00 -0.15879801781E+03  0.15879801781E+03  0.00000000000E+00 0.  1.
         25    1    1    2    0    0 -0.43374985263E+02  0.10361827931E+03  0.14320982254E+03  0.22079898194E+03  0.12500000000E+03 0.  0.
         25    1    1    2    0    0 -0.31560046133E+02 -0.44317698941E+02  0.60567537729E+02  0.14917614279E+03  0.12500000000E+03 0.  0.
         25    1    1    2    0    0  0.74935031396E+02 -0.59300580369E+02  0.60614339774E+01  0.15745970514E+03  0.12500000000E+03 0.  0.
</event>
<event>
 5    0  0.5684733E-005  0.2852618E+03  0.7546771E-02  0.1092849E+00
         21   -1    0    0  502  501  0.00000000000E+00  0.00000000000E+00  0.42175077183E+03  0.42175077183E+03  0.00000000000E+00 0.  1.
         21   -1    0    0  501  502 -0.00000000000E+00 -0.00000000000E+00 -0.19294407892E+03  0.19294407892E+03  0.00000000000E+00 0.  1.
         25    1    1    2    0    0  0.12149954050E+03 -0.57437573766E+02  0.92249208519E+02  0.20541696545E+03  0.12500000000E+03 0.  0.
         25    1    1    2    0    0 -0.17076970543E+03  0.79789500799E+02  0.14918895952E+02  0.22666325283E+03  0.12500000000E+03 0.  0.
         25    1    1    2    0    0  0.49270164926E+02 -0.22351927033E+02  0.12163858844E+03  0.18261463247E+03  0.12500000000E+03 0.  0.
</event>
<event>
 5    0  0.5684733E-005  0.2672148E+03  0.7546771E-02  0.1102884E+00
         21   -1    0    0  502  501  0.00000000000E+00  0.00000000000E+00  0.90243567553E+03  0.90243567553E+03  0.00000000000E+00 0. -1.
         21   -1    0    0  501  502 -0.00000000000E+00 -0.00000000000E+00 -0.79123389102E+02  0.79123389102E+02  0.00000000000E+00 0. -1.
         25    1    1    2    0    0 -0.43250765997E-01 -0.10323037120E+03  0.15968520586E+03  0.22755411747E+03  0.12500000000E+03 0.  0.
         25    1    1    2    0    0  0.72778510409E+02  0.69487141146E+02  0.53161572186E+03  0.55530662709E+03  0.12500000000E+03 0.  0.
         25    1    1    2    0    0 -0.72735259643E+02  0.33743230057E+02  0.13201135872E+03  0.19869832007E+03  0.12500000000E+03 0.  0.
</event>
<event>
 5    0  0.5684733E-005  0.2990503E+03  0.7546771E-02  0.1085716E+00
         21   -1    0    0  502  501  0.00000000000E+00  0.00000000000E+00  0.12503741084E+04  0.12503741084E+04  0.00000000000E+00 0.  1.
         21   -1    0    0  501  502 -0.00000000000E+00 -0.00000000000E+00 -0.71523450746E+02  0.71523450746E+02  0.00000000000E+00 0.  1.
         25    1    1    2    0    0 -0.15273969601E+03  0.11762018721E+03  0.50800427028E+03  0.55754574861E+03  0.12500000000E+03 0.  0.
         25    1    1    2    0    0  0.15390020280E+02 -0.26783070756E+02  0.12008639498E+03  0.17606796376E+03  0.12500000000E+03 0.  0.
         25    1    1    2    0    0  0.13734967573E+03 -0.90837116452E+02  0.55075999238E+03  0.58828384676E+03  0.12500000000E+03 0.  0.
</event>
<event>
 5    0  0.5684733E-005  0.2546873E+03  0.7546771E-02  0.1110378E+00
         21   -1    0    0  502  501  0.00000000000E+00  0.00000000000E+00  0.57749998188E+03  0.57749998188E+03  0.00000000000E+00 0.  1.
         21   -1    0    0  501  502 -0.00000000000E+00 -0.00000000000E+00 -0.11232140228E+03  0.11232140228E+03  0.00000000000E+00 0.  1.
         25    1    1    2    0    0  0.23140926793E+02 -0.98935226396E+02  0.82769289140E+02  0.18110614771E+03  0.12500000000E+03 0.  0.
         25    1    1    2    0    0  0.77806075958E+02  0.94116082943E+02  0.19946987643E+03  0.26518833709E+03  0.12500000000E+03 0.  0.
         25    1    1    2    0    0 -0.10094700275E+03  0.48191434531E+01  0.18293941402E+03  0.24352689936E+03  0.12500000000E+03 0.  0.
</event>
<event>
 5    0  0.5684733E-005  0.4440202E+03  0.7546771E-02  0.1029520E+00
         21   -1    0    0  502  501  0.00000000000E+00  0.00000000000E+00  0.18057358610E+03  0.18057358610E+03  0.00000000000E+00 0. -1.
         21   -1    0    0  501  502 -0.00000000000E+00 -0.00000000000E+00 -0.10918205211E+04  0.10918205211E+04  0.00000000000E+00 0. -1.
         25    1    1    2    0    0 -0.21316103730E+03 -0.28006600018E+03 -0.46701766408E+03  0.59800091208E+03  0.12500000000E+03 0.  0.
         25    1    1    2    0    0 -0.54606782924E+01  0.17430940614E+03 -0.10503230164E+03  0.23889406118E+03  0.12500000000E+03 0.  0.
         25    1    1    2    0    0  0.21862171560E+03  0.10575659404E+03 -0.33919696932E+03  0.43549913400E+03  0.12500000000E+03 0.  0.
</event>
<event>
 5    0  0.6459062E-005  0.2877175E+03  0.7546771E-02  0.1091547E+00
         21   -1    0    0  502  501  0.00000000000E+00  0.00000000000E+00  0.22672395692E+03  0.22672395692E+03  0.00000000000E+00 0.  1.
         21   -1    0    0  501  502 -0.00000000000E+00 -0.00000000000E+00 -0.36511959677E+03  0.36511959677E+03  0.00000000000E+00 0.  1.
         25    1    1    2    0    0 -0.10056175352E+03  0.76722583967E+02 -0.17036806754E+01  0.17783960101E+03  0.12500000000E+03 0.  0.
         25    1    1    2    0    0  0.17004175255E+03 -0.44146176939E+02 -0.15590948533E+03  0.26607489578E+03  0.12500000000E+03 0.  0.
         25    1    1    2    0    0 -0.69479999027E+02 -0.32576407029E+02  0.19217526160E+02  0.14792905689E+03  0.12500000000E+03 0.  0.
</event>
<event>
 5    0  0.5684733E-005  0.3098723E+03  0.7546771E-02  0.1080407E+00
         21   -1    0    0  502  501  0.00000000000E+00  0.00000000000E+00  0.78378831566E+03  0.78378831566E+03  0.00000000000E+00 0.  1.
         21   -1    0    0  501  502 -0.00000000000E+00 -0.00000000000E+00 -0.12250867438E+03  0.12250867438E+03  0.00000000000E+00 0.  1.
         25    1    1    2    0    0  0.33969535032E+02  0.62789447906E+02  0.62385639716E+01  0.14408457155E+03  0.12500000000E+03 0.  0.
         25    1    1    2    0    0 -0.14611315402E+03  0.34928865703E+02  0.32710308228E+03  0.38103871966E+03  0.12500000000E+03 0.  0.
         25    1    1    2    0    0  0.11214361899E+03 -0.97718313609E+02  0.32793799503E+03  0.38117369883E+03  0.12500000000E+03 0.  0.
</event>
<event>
 5    0  0.5684733E-005  0.3793312E+03  0.7546771E-02  0.1051181E+00
         21   -1    0    0  502  501  0.00000000000E+00  0.00000000000E+00  0.37490171240E+03  0.37490171240E+03  0.00000000000E+00 0.  1.
         21   -1    0    0  501  502 -0.00000000000E+00 -0.00000000000E+00 -0.38381292828E+03  0.38381292828E+03  0.00000000000E+00 0.  1.
         25    1    1    2    0    0 -0.10451181852E+03  0.12156445464E+03  0.10185810796E+03  0.22737790350E+03  0.12500000000E+03 0.  0.
         25    1    1    2    0    0  0.20037917946E+02 -0.26267221494E+03 -0.13868201962E+03  0.32288684276E+03  0.12500000000E+03 0.  0.
         25    1    1    2    0    0  0.84473900579E+02  0.14110776030E+03  0.27912695776E+02  0.20844989442E+03  0.12500000000E+03 0.  0.
</event>
<event>
 5    0  0.5684733E-005  0.3449078E+03  0.7546771E-02  0.1064725E+00
         21   -1    0    0  502  501  0.00000000000E+00  0.00000000000E+00  0.63386589834E+02  0.63386589834E+02  0.00000000000E+00 0. -1.
         21   -1    0    0  501  502 -0.00000000000E+00 -0.00000000000E+00 -0.18767593132E+04  0.18767593132E+04  0.00000000000E+00 0. -1.
         25    1    1    2    0    0  0.96954794971E+02  0.11433577355E+03 -0.49080058941E+03  0.52818852690E+03  0.12500000000E+03 0.  0.
         25    1    1    2    0    0 -0.66882603616E+02  0.14337422891E+03 -0.45058666033E+03  0.49364237121E+03  0.12500000000E+03 0.  0.
         25    1    1    2    0    0 -0.30072191354E+02 -0.25771000247E+03 -0.87198547363E+03  0.91831500493E+03  0.12500000000E+03 0.  0.
</event>
<event>
 5    0  0.5684733E-005  0.3458066E+03  0.7546771E-02  0.1064349E+00
         21   -1    0    0  502  501  0.00000000000E+00  0.00000000000E+00  0.53028268425E+03  0.53028268425E+03  0.00000000000E+00 0. -1.
         21   -1    0    0  501  502 -0.00000000000E+00 -0.00000000000E+00 -0.22550655228E+03  0.22550655228E+03  0.00000000000E+00 0. -1.
         25    1    1    2    0    0  0.92418852533E+01 -0.13693701952E+03  0.16092827020E+03  0.24568286043E+03  0.12500000000E+03 0.  0.
         25    1    1    2    0    0 -0.10079657041E+03  0.24628726428E+03  0.12516562365E+03  0.31954467371E+03  0.12500000000E+03 0.  0.
         25    1    1    2    0    0  0.91554685156E+02 -0.10935024476E+03  0.18682238124E+02  0.19056170241E+03  0.12500000000E+03 0.  0.
</event>
<event>
 5    0  0.5684733E-005  0.2591152E+03  0.7546771E-02  0.1107676E+00
         21   -1    0    0  502  501  0.00000000000E+00  0.00000000000E+00  0.83482661905E+03  0.83482661905E+03  0.00000000000E+00 0.  1.
         21   -1    0    0  501  502 -0.00000000000E+00 -0.00000000000E+00 -0.80424693913E+02  0.80424693913E+02  0.00000000000E+00 0.  1.
         25    1    1    2    0    0  0.26012724038E+02 -0.48297829275E+02  0.33683533900E+03  0.36344516467E+03  0.12500000000E+03 0.  0.
         25    1    1    2    0    0  0.98805109091E+02  0.79813446503E+02  0.24410545973E+03  0.30223353768E+03  0.12500000000E+03 0.  0.
         25    1    1    2    0    0 -0.12481783313E+03 -0.31515617228E+02  0.17346112641E+03  0.24957261062E+03  0.12500000000E+03 0.  0.
</event>
<event>
 5    0  0.5684733E-005  0.2629032E+03  0.7546771E-02  0.1105411E+00
         21   -1    0    0  502  501  0.00000000000E+00  0.00000000000E+00  0.18727201940E+04  0.18727201940E+04  0.00000000000E+00 0.  1.
         21   -1    0    0  501  502 -0.00000000000E+00 -0.00000000000E+00 -0.36907849679E+02  0.36907849679E+02  0.00000000000E+00 0.  1.
         25    1    1    2    0    0  0.13186761367E+02  0.23016411770E+02  0.20864298405E+03  0.24466413852E+03  0.12500000000E+03 0.  0.
         25    1    1    2    0    0  0.10288749399E+03 -0.68352105585E+02  0.85612186808E+03  0.87397225343E+03  0.12500000000E+03 0.  0.
         25    1    1    2    0    0 -0.11607425535E+03  0.45335693815E+02  0.77104749219E+03  0.79099165173E+03  0.12500000000E+03 0.  0.
</event>
<event>
 5    0  0.5684733E-005  0.2672836E+03  0.7546771E-02  0.1102844E+00
         21   -1    0    0  502  501  0.00000000000E+00  0.00000000000E+00  0.48965011015E+03  0.48965011015E+03  0.00000000000E+00 0. -1.
         21   -1    0    0  501  502 -0.00000000000E+00 -0.00000000000E+00 -0.14590121877E+03  0.14590121877E+03  0.00000000000E+00 0. -1.
         25    1    1    2    0    0  0.13467214688E+02  0.19284219600E+02  0.16232982880E+03  0.20622613878E+03  0.12500000000E+03 0.  0.
         25    1    1    2    0    0 -0.66165998235E+02  0.10897908199E+03  0.14913446480E+02  0.17916972545E+03  0.12500000000E+03 0.  0.
         25    1    1    2    0    0  0.52698783546E+02 -0.12826330159E+03  0.16650561611E+03  0.25015546469E+03  0.12500000000E+03 0.  0.
</event>
<event>
 5    0  0.5684733E-005  0.3089175E+03  0.7546771E-02  0.1080866E+00
         21   -1    0    0  502  501  0.00000000000E+00  0.00000000000E+00  0.69842572024E+03  0.69842572024E+03  0.00000000000E+00 0.  1.
         21   -1    0    0  501  502 -0.00000000000E+00 -0.00000000000E+00 -0.13663589505E+03  0.13663589505E+03  0.00000000000E+00 0.  1.
         25    1    1    2    0    0  0.18308043662E+03  0.43316209182E+02  0.20906069341E+03  0.30777607734E+03  0.12500000000E+03 0.  0.
         25    1    1    2    0    0  0.23644459267E+01  0.64829091543E+02  0.98648104098E+02  0.17194432284E+03  0.12500000000E+03 0.  0.
         25    1    1    2    0    0 -0.18544488255E+03 -0.10814530072E+03  0.25408102768E+03  0.35534121511E+03  0.12500000000E+03 0.  0.
</event>
<event>
 5    0  0.5684733E-005  0.2807008E+03  0.7546771E-02  0.1095307E+00
         21   -1    0    0  502  501  0.00000000000E+00  0.00000000000E+00  0.20278493833E+03  0.20278493833E+03  0.00000000000E+00 0. -1.
         21   -1    0    0  501  502 -0.00000000000E+00 -0.00000000000E+00 -0.38855413259E+03  0.38855413259E+03  0.00000000000E+00 0. -1.
         25    1    1    2    0    0 -0.81189307510E+02 -0.59936881723E+02  0.87921272276E+02  0.18313733525E+03  0.12500000000E+03 0.  0.
         25    1    1    2    0    0  0.52132697717E+02 -0.24300488607E+02 -0.73715992295E+02  0.15610054272E+03  0.12500000000E+03 0.  0.
         25    1    1    2    0    0  0.29056609793E+02  0.84237370330E+02 -0.19997447424E+03  0.25210119294E+03  0.12500000000E+03 0.  0.
</event>
<event>
 5    0  0.5684733E-005  0.3952632E+03  0.7546771E-02  0.1045432E+00
         21   -1    0    0  502  501  0.00000000000E+00  0.00000000000E+00  0.11329010926E+04  0.11329010926E+04  0.00000000000E+00 0. -1.
         21   -1    0    0  501  502 -0.00000000000E+00 -0.00000000000E+00 -0.13790526362E+03  0.13790526362E+03  0.00000000000E+00 0. -1.
         25    1    1    2    0    0  0.25273298905E+03  0.40543453636E+02  0.44499574129E+03  0.52835967404E+03  0.12500000000E+03 0.  0.
         25    1    1    2    0    0 -0.15779626766E+03 -0.19369425757E+03  0.31399956760E+03  0.42028306646E+03  0.12500000000E+03 0.  0.
         25    1    1    2    0    0 -0.94936721389E+02  0.15315080393E+03  0.23600052009E+03  0.32216361572E+03  0.12500000000E+03 0.  0.
</event>
<event>
 5    0  0.5684733E-005  0.2507750E+03  0.7546771E-02  0.1112816E+00
         21   -1    0    0  502  501  0.00000000000E+00  0.00000000000E+00  0.43389566449E+03  0.43389566449E+03  0.00000000000E+00 0. -1.
         21   -1    0    0  501  502 -0.00000000000E+00 -0.00000000000E+00 -0.14493827617E+03  0.14493827617E+03  0.00000000000E+00 0. -1.
         25    1    1    2    0    0 -0.65018723151E+02  0.16677309689E+02  0.12978607545E+03  0.19228882547E+03  0.12500000000E+03 0.  0.
         25    1    1    2    0    0  0.88651722072E+02  0.34695217978E+02 -0.22673111527E+02  0.15875123925E+03  0.12500000000E+03 0.  0.
         25    1    1    2    0    0 -0.23632998921E+02 -0.51372527666E+02  0.18184442440E+03  0.22779387595E+03  0.12500000000E+03 0.  0.
</event>
<event>
 5    0  0.7975908E-005  0.3253839E+03  0.7546771E-02  0.1073198E+00
         21   -1    0    0  502  501  0.00000000000E+00  0.00000000000E+00  0.34149180851E+03  0.34149180851E+03  0.00000000000E+00 0.  1.
         21   -1    0    0  501  502 -0.00000000000E+00 -0.00000000000E+00 -0.31003580626E+03  0.31003580626E+03  0.00000000000E+00 0.  1.
         25    1    1    2    0    0 -0.75664326245E+02  0.98029173640E+01  0.20025481504E+03  0.24808905337E+03  0.12500000000E+03 0.  0.
         25    1    1    2    0    0 -0.76085963974E+02  0.57855555608E+02 -0.88610295167E+02  0.18059103975E+03  0.12500000000E+03 0.  0.
         25    1    1    2    0    0  0.15175029022E+03 -0.67658472972E+02 -0.80188517629E+02  0.22284752165E+03  0.12500000000E+03 0.  0.
</event>
<event>
 5    0  0.5684733E-005  0.4959779E+03  0.7546771E-02  0.1014834E+00
         21   -1    0    0  502  501  0.00000000000E+00  0.00000000000E+00  0.16804702938E+03  0.16804702938E+03  0.00000000000E+00 0. -1.
         21   -1    0    0  501  502 -0.00000000000E+00 -0.00000000000E+00 -0.14638405700E+04  0.14638405700E+04  0.00000000000E+00 0. -1.
         25    1    1    2    0    0 -0.32950559364E+03  0.12487923281E+03 -0.47364949351E+03  0.60343815071E+03  0.12500000000E+03 0.  0.
         25    1    1    2    0    0  0.20344372378E+02 -0.20568821169E+03 -0.18306836166E+03  0.30308506885E+03  0.12500000000E+03 0.  0.
         25    1    1    2    0    0  0.30916122126E+03  0.80808978881E+02 -0.63907568545E+03  0.72536437984E+03  0.12500000000E+03 0.  0.
</event>
<event>
 5    0  0.5684733E-005  0.3713209E+03  0.7546771E-02  0.1054189E+00
         21   -1    0    0  502  501  0.00000000000E+00  0.00000000000E+00  0.18106832587E+03  0.18106832587E+03  0.00000000000E+00 0. -1.
         21   -1    0    0  501  502 -0.00000000000E+00 -0.00000000000E+00 -0.76147634148E+03  0.76147634148E+03  0.00000000000E+00 0. -1.
         25    1    1    2    0    0 -0.19064245105E+03  0.13270376391E+03 -0.42027548559E+02  0.26710699716E+03  0.12500000000E+03 0.  0.
         25    1    1    2    0    0 -0.17800494559E+02 -0.10089545754E+03 -0.23882874306E+03  0.28837635040E+03  0.12500000000E+03 0.  0.
         25    1    1    2    0    0  0.20844294561E+03 -0.31808306370E+02 -0.29955172398E+03  0.38706131978E+03  0.12500000000E+03 0.  0.
</event>
<event>
 5    0  0.5684733E-005  0.3659435E+03  0.7546771E-02  0.1056255E+00
         21   -1    0    0  502  501  0.00000000000E+00  0.00000000000E+00  0.99216011775E+02  0.99216011775E+02  0.00000000000E+00 0. -1.
         21   -1    0    0  501  502 -0.00000000000E+00 -0.00000000000E+00 -0.13497278415E+04  0.13497278415E+04  0.00000000000E+00 0. -1.
         25    1    1    2    0    0  0.94383167739E+01 -0.56235455943E+02 -0.31191153869E+03  0.34083033360E+03  0.12500000000E+03 0.  0.
         25    1    1    2    0    0 -0.80825762091E+02  0.15519096630E+02  0.78942836380E+01  0.14986982983E+03  0.12500000000E+03 0.  0.
         25    1    1    2    0    0  0.71387445317E+02  0.40716359313E+02 -0.94649457462E+03  0.95824368981E+03  0.12500000000E+03 0.  0.
</event>
<event>
 5    0  0.5684733E-005  0.2678563E+03  0.7546771E-02  0.1102513E+00
         21   -1    0    0  502  501  0.00000000000E+00  0.00000000000E+00  0.18958975678E+03  0.18958975678E+03  0.00000000000E+00 0. -1.
         21   -1    0    0  501  502 -0.00000000000E+00 -0.00000000000E+00 -0.37843274115E+03  0.37843274115E+03  0.00000000000E+00 0. -1.
         25    1    1    2    0    0  0.65469242938E+02 -0.63451277776E+02 -0.11550948270E+03  0.19307958726E+03  0.12500000000E+03 0.  0.
         25    1    1    2    0    0 -0.83877535442E+02  0.13787732227E+03 -0.97672494585E+02  0.22629739978E+03  0.12500000000E+03 0.  0.
         25    1    1    2    0    0  0.18408292505E+02 -0.74426044494E+02  0.24338992925E+02  0.14864551089E+03  0.12500000000E+03 0.  0.
</event>
<event>
 5    0  0.5684733E-005  0.3476733E+03  0.7546771E-02  0.1063574E+00
         21   -1    0    0  502  501  0.00000000000E+00  0.00000000000E+00  0.10575532493E+03  0.10575532493E+03  0.00000000000E+00 0. -1.
         21   -1    0    0  501  502 -0.00000000000E+00 -0.00000000000E+00 -0.11429848310E+04  0.11429848310E+04  0.00000000000E+00 0. -1.
         25    1    1    2    0    0  0.85370921206E+02  0.83730040399E+02 -0.72474128023E+03  0.74509988399E+03  0.12500000000E+03 0.  0.
         25    1    1    2    0    0 -0.54559053631E+02 -0.17144319561E+03 -0.10169258640E+03  0.24152813870E+03  0.12500000000E+03 0.  0.
         25    1    1    2    0    0 -0.30811867575E+02  0.87713155208E+02 -0.21079563940E+03  0.26211213320E+03  0.12500000000E+03 0.  0.
</event>
<event>
 5    0  0.5684733E-005  0.3684666E+03  0.7546771E-02  0.1055281E+00
         21   -1    0    0  502  501  0.00000000000E+00  0.00000000000E+00  0.87124720521E+03  0.87124720521E+03  0.00000000000E+00 0. -1.
         21   -1    0    0  501  502 -0.00000000000E+00 -0.00000000000E+00 -0.15583133834E+03  0.15583133834E+03  0.00000000000E+00 0. -1.
         25    1    1    2    0    0 -0.53812998530E+02  0.96784391989E+02  0.98909891913E+02  0.19409076243E+03  0.12500000000E+03 0.  0.
         25    1    1    2    0    0  0.38530317053E+02 -0.29466856815E+03  0.31229556032E+03  0.44885149814E+03  0.12500000000E+03 0.  0.
         25    1    1    2    0    0  0.15282681477E+02  0.19788417617E+03  0.30421041464E+03  0.38413628299E+03  0.12500000000E+03 0.  0.
</event>
<event>
 5    0  0.5684733E-005  0.3116284E+03  0.7546771E-02  0.1079568E+00
         21   -1    0    0  502  501  0.00000000000E+00  0.00000000000E+00  0.30225850367E+03  0.30225850367E+03  0.00000000000E+00 0. -1.
         21   -1    0    0  501  502 -0.00000000000E+00 -0.00000000000E+00 -0.32128884832E+03  0.32128884832E+03  0.00000000000E+00 0. -1.
         25    1    1    2    0    0  0.15932308860E+03  0.27512540295E+02 -0.18017932686E+03  0.27245252112E+03  0.12500000000E+03 0.  0.
         25    1    1    2    0    0 -0.77135761517E+02 -0.60105275844E+02  0.86751196287E+02  0.18086829448E+03  0.12500000000E+03 0.  0.
         25    1    1    2    0    0 -0.82187327086E+02  0.32592735549E+02  0.74397785925E+02  0.17022653640E+03  0.12500000000E+03 0.  0.
</event>
<event>
 5    0  0.5684733E-005  0.4134415E+03  0.7546771E-02  0.1039222E+00
         21   -1    0    0  502  501  0.00000000000E+00  0.00000000000E+00  0.60396318850E+03  0.60396318850E+03  0.00000000000E+00 0.  1.
         21   -1    0    0  501  502 -0.00000000000E+00 -0.00000000000E+00 -0.28302041574E+03  0.28302041574E+03  0.00000000000E+00 0.  1.
         25    1    1    2    0    0 -0.97192927495E+02 -0.25551548917E+02  0.17132255034E+03  0.23468225979E+03  0.12500000000E+03 0.  0.
         25    1    1    2    0    0 -0.44114691473E+02  0.78222898804E+02 -0.19950831777E+03  0.25197915938E+03  0.12500000000E+03 0.  0.
         25    1    1    2    0    0  0.14130761897E+03 -0.52671349887E+02  0.34912854020E+03  0.40032218507E+03  0.12500000000E+03 0.  0.
</event>
<event>
 5    0  0.5684733E-005  0.2890319E+03  0.7546771E-02  0.1090856E+00
         21   -1    0    0  502  501  0.00000000000E+00  0.00000000000E+00  0.31026942953E+03  0.31026942953E+03  0.00000000000E+00 0.  1.
         21   -1    0    0  501  502 -0.00000000000E+00 -0.00000000000E+00 -0.26924796047E+03  0.26924796047E+03  0.00000000000E+00 0.  1.
         25    1    1    2    0    0 -0.12019378451E+03 -0.16922868221E+03 -0.31557091984E+02  0.24434758598E+03  0.12500000000E+03 0.  0.
         25    1    1    2    0    0  0.75304495810E+02  0.84643682448E+02  0.50952240960E+02  0.17622840556E+03  0.12500000000E+03 0.  0.
         25    1    1    2    0    0  0.44889288702E+02  0.84584999766E+02  0.21626320088E+02  0.15894139847E+03  0.12500000000E+03 0.  0.
</event>
<event>
 5    0  0.5684733E-005  0.2640210E+03  0.7546771E-02  0.1104751E+00
         21   -1    0    0  502  501  0.00000000000E+00  0.00000000000E+00  0.61173955935E+03  0.61173955935E+03  0.00000000000E+00 0. -1.
         21   -1    0    0  501  502 -0.00000000000E+00 -0.00000000000E+00 -0.11394895429E+03  0.11394895429E+03  0.00000000000E+00 0. -1.
         25    1    1    2    0    0 -0.19952793561E+02  0.13479867201E+03  0.11202474504E+03  0.21620208012E+03  0.12500000000E+03 0.  0.
         25    1    1    2    0    0 -0.54333463180E+02 -0.63431449774E+02  0.98590136514E+02  0.17977955685E+03  0.12500000000E+03 0.  0.
         25    1    1    2    0    0  0.74286256742E+02 -0.71367222239E+02  0.28717572351E+03  0.32970687667E+03  0.12500000000E+03 0.  0.
</event>
<event>
 5    0  0.5684733E-005  0.2332968E+03  0.7546771E-02  0.1124341E+00
         21   -1    0    0  502  501  0.00000000000E+00  0.00000000000E+00  0.54785017034E+03  0.54785017034E+03  0.00000000000E+00 0. -1.
         21   -1    0    0  501  502 -0.00000000000E+00 -0.00000000000E+00 -0.99347266013E+02  0.99347266013E+02  0.00000000000E+00 0. -1.
         25    1    1    2    0    0 -0.59147843666E+02  0.49815544686E+02  0.37307820535E+02  0.15164738499E+03  0.12500000000E+03 0.  0.
         25    1    1    2    0    0  0.49063010311E+02 -0.66014776747E+02  0.23740479987E+03  0.28062638638E+03  0.12500000000E+03 0.  0.
         25    1    1    2    0    0  0.10084833355E+02  0.16199232061E+02  0.17379028393E+03  0.21492366498E+03  0.12500000000E+03 0.  0.
</event>
<event>
 5    0  0.5684733E-005  0.3063280E+03  0.7546771E-02  0.1082119E+00
         21   -1    0    0  502  501  0.00000000000E+00  0.00000000000E+00  0.32787263740E+02  0.32787263740E+02  0.00000000000E+00 0. -1.
         21   -1    0    0  501  502 -0.00000000000E+00 -0.00000000000E+00 -0.28619912378E+04  0.28619912378E+04  0.00000000000E+00 0. -1.
         25    1    1    2    0    0  0.74702917370E+02  0.45496586403E+02 -0.75320548909E+03  0.76850112169E+03  0.12500000000E+03 0.  0.
         25    1    1    2    0    0  0.61730135663E+02  0.28303189455E+02 -0.16486673241E+04  0.16547932275E+04  0.12500000000E+03 0.  0.
         25    1    1    2    0    0 -0.13643305303E+03 -0.73799775858E+02 -0.42733116081E+03  0.47148415230E+03  0.12500000000E+03 0.  0.
</event>
<event>
 5    0  0.5684733E-005  0.3699470E+03  0.7546771E-02  0.1054713E+00
         21   -1    0    0  502  501  0.00000000000E+00  0.00000000000E+00  0.99160684043E+03  0.99160684043E+03  0.00000000000E+00 0. -1.
         21   -1    0    0  501  502 -0.00000000000E+00 -0.00000000000E+00 -0.13801923203E+03  0.13801923203E+03  0.00000000000E+00 0. -1.
         25    1    1    2    0    0 -0.20136216556E+03  0.52239423952E+02  0.37957129936E+03  0.45052752460E+03  0.12500000000E+03 0.  0.
         25    1    1    2    0    0  0.56489421336E+02 -0.11566475229E+03  0.43932300406E+03  0.47455146353E+03  0.12500000000E+03 0.  0.
         25    1    1    2    0    0  0.14487274422E+03  0.63425328342E+02  0.34693304989E+02  0.20454708432E+03  0.12500000000E+03 0.  0.
</event>
<event>
 5    0  0.5684733E-005  0.3446210E+03  0.7546771E-02  0.1064845E+00
         21   -1    0    0  502  501  0.00000000000E+00  0.00000000000E+00  0.17656712422E+03  0.17656712422E+03  0.00000000000E+00 0. -1.
         21   -1    0    0  501  502 -0.00000000000E+00 -0.00000000000E+00 -0.67262579103E+03  0.67262579103E+03  0.00000000000E+00 0. -1.
         25    1    1    2    0    0 -0.11855646653E+03 -0.33776549609E+02 -0.12861354583E+02  0.17603097881E+03  0.12500000000E+03 0.  0.
         25    1    1    2    0    0 -0.73378776769E+02  0.12598436010E+03 -0.33226054557E+03  0.38376890704E+03  0.12500000000E+03 0.  0.
         25    1    1    2    0    0  0.19193524330E+03 -0.92207810488E+02 -0.15093676666E+03  0.28939302940E+03  0.12500000000E+03 0.  0.
</event>
<event>
 5    0  0.5684733E-005  0.3277327E+03  0.7546771E-02  0.1072145E+00
         21   -1    0    0  502  501  0.00000000000E+00  0.00000000000E+00  0.18486129073E+03  0.18486129073E+03  0.00000000000E+00 0.  1.
         21   -1    0    0  501  502 -0.00000000000E+00 -0.00000000000E+00 -0.58102319317E+03  0.58102319317E+03  0.00000000000E+00 0.  1.
         25    1    1    2    0    0  0.96975569091E+02 -0.96439550633E+02 -0.12942668406E+03  0.22601131493E+03  0.12500000000E+03 0.  0.
         25    1    1    2    0    0 -0.12225526816E+03  0.83174659663E+02  0.48462386032E+02  0.19959453265E+03  0.12500000000E+03 0.  0.
         25    1    1    2    0    0  0.25279699068E+02  0.13264890970E+02 -0.31519760441E+03  0.34027863633E+03  0.12500000000E+03 0.  0.
</event>
<event>
 5    0  0.5684733E-005  0.4528101E+03  0.7546771E-02  0.1026887E+00
         21   -1    0    0  502  501  0.00000000000E+00  0.00000000000E+00  0.22506711034E+03  0.22506711034E+03  0.00000000000E+00 0.  1.
         21   -1    0    0  501  502 -0.00000000000E+00 -0.00000000000E+00 -0.91100361082E+03  0.91100361082E+03  0.00000000000E+00 0.  1.
         25    1    1    2    0    0  0.13783767414E+03  0.16972475730E+03 -0.23965910528E+03  0.34765960996E+03  0.12500000000E+03 0.  0.
         25    1    1    2    0    0  0.14662648773E+03 -0.23867139264E+03 -0.11120941222E+03  0.32627579428E+03  0.12500000000E+03 0.  0.
         25    1    1    2    0    0 -0.28446416187E+03  0.68946635346E+02 -0.33506798298E+03  0.46213531691E+03  0.12500000000E+03 0.  0.
</event>
<event>
 5    0  0.5684733E-005  0.4585563E+03  0.7546771E-02  0.1025201E+00
         21   -1    0    0  502  501  0.00000000000E+00  0.00000000000E+00  0.53607060364E+03  0.53607060364E+03  0.00000000000E+00 0. -1.
         21   -1    0    0  501  502 -0.00000000000E+00 -0.00000000000E+00 -0.39225027461E+03  0.39225027461E+03  0.00000000000E+00 0. -1.
         25    1    1    2    0    0 -0.12988629937E+03  0.56024222876E+02  0.12966535826E+03  0.22901368834E+03  0.12500000000E+03 0.  0.
         25    1    1    2    0    0 -0.22077722470E+03  0.38760263152E+01  0.15438124635E+03  0.29701208015E+03  0.12500000000E+03 0.  0.
         25    1    1    2    0    0  0.35066352408E+03 -0.59900249191E+02 -0.14022627559E+03  0.40229510976E+03  0.12500000000E+03 0.  0.
</event>
<event>
 5    0  0.5684733E-005  0.3187469E+03  0.7546771E-02  0.1076227E+00
         21   -1    0    0  502  501  0.00000000000E+00  0.00000000000E+00  0.66833322431E+02  0.66833322431E+02  0.00000000000E+00 0.  1.
         21   -1    0    0  501  502 -0.00000000000E+00 -0.00000000000E+00 -0.15201933587E+04  0.15201933587E+04  0.00000000000E+00 0.  1.
         25    1    1    2    0    0  0.48632691933E+02  0.95989478932E+02 -0.68522185011E+03  0.70479295020E+03  0.12500000000E+03 0.  0.
         25    1    1    2    0    0  0.44159695052E+02  0.46782035525E+02 -0.78594367119E+02  0.16106120594E+03  0.12500000000E+03 0.  0.
         25    1    1    2    0    0 -0.92792386984E+02 -0.14277151446E+03 -0.68954381904E+03  0.72117252499E+03  0.12500000000E+03 0.  0.
</event>
<event>
 5    0  0.6161972E-005  0.3975986E+03  0.7546771E-02  0.1044614E+00
         21   -1    0    0  502  501  0.00000000000E+00  0.00000000000E+00  0.87437963258E+03  0.87437963258E+03  0.00000000000E+00 0.  1.
         21   -1    0    0  501  502 -0.00000000000E+00 -0.00000000000E+00 -0.18079631602E+03  0.18079631602E+03  0.00000000000E+00 0.  1.
         25    1    1    2    0    0 -0.51874402755E+02  0.20625793886E+03  0.39952683015E+03  0.46955295655E+03  0.12500000000E+03 0.  0.
         25    1    1    2    0    0  0.97386448884E+02 -0.24304744041E+03  0.33353095934E+03  0.44206795807E+03  0.12500000000E+03 0.  0.
         25    1    1    2    0    0 -0.45512046129E+02  0.36789501551E+02 -0.39474472929E+02  0.14355503398E+03  0.12500000000E+03 0.  0.
</event>
<event>
 5    0  0.5684733E-005  0.2588273E+03  0.7546771E-02  0.1107850E+00
         21   -1    0    0  502  501  0.00000000000E+00  0.00000000000E+00  0.54387274254E+02  0.54387274254E+02  0.00000000000E+00 0. -1.
         21   -1    0    0  501  502 -0.00000000000E+00 -0.00000000000E+00 -0.12317508035E+04  0.12317508035E+04  0.00000000000E+00 0. -1.
         25    1    1    2    0    0  0.85676679003E-01 -0.46657576651E+02 -0.16299158343E+03  0.21063758703E+03  0.12500000000E+03 0.  0.
         25    1    1    2    0    0 -0.49704185907E+02 -0.43536300892E+02 -0.19845943166E+03  0.24367408892E+03  0.12500000000E+03 0.  0.
         25    1    1    2    0    0  0.49618509228E+02  0.90193877542E+02 -0.81591251412E+03  0.83182640178E+03  0.12500000000E+03 0.  0.
</event>
<event>
 5    0  0.5684733E-005  0.2995388E+03  0.7546771E-02  0.1085471E+00
         21   -1    0    0  502  501  0.00000000000E+00  0.00000000000E+00  0.17972462179E+03  0.17972462179E+03  0.00000000000E+00 0.  1.
         21   -1    0    0  501  502 -0.00000000000E+00 -0.00000000000E+00 -0.49922772830E+03  0.49922772830E+03  0.00000000000E+00 0.  1.
         25    1    1    2    0    0 -0.40400625102E+02 -0.11391946902E+02 -0.71289106065E+02  0.14989704335E+03  0.12500000000E+03 0.  0.
         25    1    1    2    0    0 -0.17113275763E+03 -0.36694509521E+02 -0.13771185153E+03  0.25538688653E+03  0.12500000000E+03 0.  0.
         25    1    1    2    0    0  0.21153338273E+03  0.48086456422E+02 -0.11050214892E+03  0.27366842020E+03  0.12500000000E+03 0.  0.
</event>
<event>
 5    0  0.5684733E-005  0.3630936E+03  0.7546771E-02  0.1057366E+00
         21   -1    0    0  502  501  0.00000000000E+00  0.00000000000E+00  0.13791912001E+03  0.13791912001E+03  0.00000000000E+00 0.  1.
         21   -1    0    0  501  502 -0.00000000000E+00 -0.00000000000E+00 -0.95590046880E+03  0.95590046880E+03  0.00000000000E+00 0.  1.
         25    1    1    2    0    0  0.59310055381E+01  0.20066428889E+03 -0.54410576514E+03  0.59327684711E+03  0.12500000000E+03 0.  0.
         25    1    1    2    0    0  0.76199719038E+02 -0.21677957270E+03 -0.21644702762E+03  0.33952039127E+03  0.12500000000E+03 0.  0.
         25    1    1    2    0    0 -0.82130724576E+02  0.16115283809E+02 -0.57428556030E+02  0.16102235043E+03  0.12500000000E+03 0.  0.
</event>
<event>
 5    0  0.5684733E-005  0.3439808E+03  0.7546771E-02  0.1065113E+00
         21   -1    0    0  502  501  0.00000000000E+00  0.00000000000E+00  0.15085797104E+04  0.15085797104E+04  0.00000000000E+00 0. -1.
         21   -1    0    0  501  502 -0.00000000000E+00 -0.00000000000E+00 -0.78433218362E+02  0.78433218362E+02  0.00000000000E+00 0. -1.
         25    1    1    2    0    0  0.65974645337E+02  0.51934225763E+02  0.82275377683E+02  0.17159270208E+03  0.12500000000E+03 0.  0.
         25    1    1    2    0    0 -0.99569279247E+02 -0.11275185662E+03  0.30188948145E+03  0.35970721643E+03  0.12500000000E+03 0.  0.
         25    1    1    2    0    0  0.33594633910E+02  0.60817630854E+02  0.10459816329E+04  0.10557130102E+04  0.12500000000E+03 0.  0.
</event>
<event>
 5    0  0.5684733E-005  0.3558618E+03  0.7546771E-02  0.1060234E+00
         21   -1    0    0  502  501  0.00000000000E+00  0.00000000000E+00  0.15903238509E+03  0.15903238509E+03  0.00000000000E+00 0. -1.
         21   -1    0    0  501  502 -0.00000000000E+00 -0.00000000000E+00 -0.79630103855E+03  0.79630103855E+03  0.00000000000E+00 0. -1.
         25    1    1    2    0    0  0.16230604164E+03  0.10918585811E+03 -0.82282112099E+02  0.24629281097E+03  0.12500000000E+03 0.  0.
         25    1    1    2    0    0 -0.33982435227E+02  0.88214307324E+02 -0.30827566614E+03  0.34582575996E+03  0.12500000000E+03 0.  0.
         25    1    1    2    0    0 -0.12832360641E+03 -0.19740016543E+03 -0.24671087522E+03  0.36321485271E+03  0.12500000000E+03 0.  0.
</event>
<event>
 5    0  0.5684733E-005  0.2452498E+03  0.7546771E-02  0.1116344E+00
         21   -1    0    0  502  501  0.00000000000E+00  0.00000000000E+00  0.12511636200E+03  0.12511636200E+03  0.00000000000E+00 0. -1.
         21   -1    0    0  501  502 -0.00000000000E+00 -0.00000000000E+00 -0.48073236501E+03  0.48073236501E+03  0.00000000000E+00 0. -1.
         25    1    1    2    0    0 -0.33360829831E+02 -0.87734216768E+02 -0.21171976187E+03  0.26317388800E+03  0.12500000000E+03 0.  0.
         25    1    1    2    0    0  0.75188015535E+02  0.10253108432E+03 -0.79236355323E+02  0.19511345657E+03  0.12500000000E+03 0.  0.
         25    1    1    2    0    0 -0.41827185704E+02 -0.14796867547E+02 -0.64659885812E+02  0.14756138244E+03  0.12500000000E+03 0.  0.
</event>
<event>
 5    0  0.5684733E-005  0.2425349E+03  0.7546771E-02  0.1118116E+00
         21   -1    0    0  502  501  0.00000000000E+00  0.00000000000E+00  0.30165446418E+03  0.30165446418E+03  0.00000000000E+00 0. -1.
         21   -1    0    0  501  502 -0.00000000000E+00 -0.00000000000E+00 -0.19500187598E+03  0.19500187598E+03  0.00000000000E+00 0. -1.
         25    1    1    2    0    0 -0.63338591316E+01  0.99375394992E+02  0.11633579596E+03  0.19767297317E+03  0.12500000000E+03 0.  0.
         25    1    1    2    0    0  0.32843123018E+02  0.11316467193E+02 -0.63690996088E+01  0.12989341242E+03  0.12500000000E+03 0.  0.
         25    1    1    2    0    0 -0.26509263887E+02 -0.11069186219E+03 -0.33141081559E+01  0.16908995458E+03  0.12500000000E+03 0.  0.
</event>
<event>
 5    0  0.5684733E-005  0.4158216E+03  0.7546771E-02  0.1038435E+00
         21   -1    0    0  502  501  0.00000000000E+00  0.00000000000E+00  0.16497696592E+04  0.16497696592E+04  0.00000000000E+00 0. -1.
         21   -1    0    0  501  502 -0.00000000000E+00 -0.00000000000E+00 -0.10480712303E+03  0.10480712303E+03  0.00000000000E+00 0. -1.
         25    1    1    2    0    0  0.19174991801E+03 -0.13868266486E+03  0.41538824502E+03  0.49413895484E+03  0.12500000000E+03 0.  0.
         25    1    1    2    0    0  0.92859966806E+02 -0.74851088837E+02  0.25501671644E+03  0.30803276546E+03  0.12500000000E+03 0.  0.
         25    1    1    2    0    0 -0.28460988482E+03  0.21353375370E+03  0.87455757466E+03  0.95240506188E+03  0.12500000000E+03 0.  0.
</event>
<event>
 5    0  0.5684733E-005  0.2613545E+03  0.7546771E-02  0.1106332E+00
         21   -1    0    0  502  501  0.00000000000E+00  0.00000000000E+00  0.22706348353E+04  0.22706348353E+04  0.00000000000E+00 0.  1.
         21   -1    0    0  501  502 -0.00000000000E+00 -0.00000000000E+00 -0.30082404897E+02  0.30082404897E+02  0.00000000000E+00 0.  1.
         25    1    1    2    0    0 -0.55327668779E+02  0.22630225651E+02  0.71911157630E+03  0.73233854003E+03  0.12500000000E+03 0.  0.
         25    1    1    2    0    0  0.88678210324E+02 -0.92099336134E+02  0.41018534199E+03  0.44746299008E+03  0.12500000000E+03 0.  0.
         25    1    1    2    0    0 -0.33350541545E+02  0.69469110482E+02  0.11112555121E+04  0.11209157101E+04  0.12500000000E+03 0.  0.
</event>
<event>
 5    0  0.5684733E-005  0.4635945E+03  0.7546771E-02  0.1023744E+00
         21   -1    0    0  502  501  0.00000000000E+00  0.00000000000E+00  0.64082186857E+03  0.64082186857E+03  0.00000000000E+00 0. -1.
         21   -1    0    0  501  502 -0.00000000000E+00 -0.00000000000E+00 -0.33538152602E+03  0.33538152602E+03  0.00000000000E+00 0. -1.
         25    1    1    2    0    0  0.29444738602E+02  0.78367916722E+02  0.41838970129E+03  0.44461608737E+03  0.12500000000E+03 0.  0.
         25    1    1    2    0    0 -0.19996975119E+03 -0.16789511480E+03 -0.72782009875E+02  0.29849437504E+03  0.12500000000E+03 0.  0.
         25    1    1    2    0    0  0.17052501259E+03  0.89527198083E+02 -0.40167348871E+02  0.23309293218E+03  0.12500000000E+03 0.  0.
</event>
<event>
 5    0  0.5684733E-005  0.2801381E+03  0.7546771E-02  0.1095614E+00
         21   -1    0    0  502  501  0.00000000000E+00  0.00000000000E+00  0.13066842843E+03  0.13066842843E+03  0.00000000000E+00 0.  1.
         21   -1    0    0  501  502 -0.00000000000E+00 -0.00000000000E+00 -0.60058379152E+03  0.60058379152E+03  0.00000000000E+00 0.  1.
         25    1    1    2    0    0  0.97659328529E+02  0.39020644692E+02  0.24208972325E+02  0.16513942443E+03  0.12500000000E+03 0.  0.
         25    1    1    2    0    0 -0.35105824618E+02 -0.23059642228E+02 -0.19304229888E+03  0.23378300875E+03  0.12500000000E+03 0.  0.
         25    1    1    2    0    0 -0.62553503912E+02 -0.15961002465E+02 -0.30108203654E+03  0.33232978677E+03  0.12500000000E+03 0.  0.
</event>
<event>
 5    0  0.5684733E-005  0.4230023E+03  0.7546771E-02  0.1036094E+00
         21   -1    0    0  502  501  0.00000000000E+00  0.00000000000E+00  0.13024689486E+03  0.13024689486E+03  0.00000000000E+00 0.  1.
         21   -1    0    0  501  502 -0.00000000000E+00 -0.00000000000E+00 -0.13737830967E+04  0.13737830967E+04  0.00000000000E+00 0.  1.
         25    1    1    2    0    0  0.31290217861E+03 -0.39739175728E+02 -0.87078078798E+03  0.93454328748E+03  0.12500000000E+03 0.  0.
         25    1    1    2    0    0 -0.11867667419E+03 -0.48200498445E+01 -0.70024758631E+02  0.18610710007E+03  0.12500000000E+03 0.  0.
         25    1    1    2    0    0 -0.19422550443E+03  0.44559225572E+02 -0.30273065526E+03  0.38337960404E+03  0.12500000000E+03 0.  0.
</event>
<event>
 5    0  0.5684733E-005  0.4940766E+03  0.7546771E-02  0.1015337E+00
         21   -1    0    0  502  501  0.00000000000E+00  0.00000000000E+00  0.19683451403E+03  0.19683451403E+03  0.00000000000E+00 0.  1.
         21   -1    0    0  501  502 -0.00000000000E+00 -0.00000000000E+00 -0.12401873033E+04  0.12401873033E+04  0.00000000000E+00 0.  1.
         25    1    1    2    0    0  0.13611326588E+03 -0.17294267928E+03 -0.46058793505E+03  0.52554946235E+03  0.12500000000E+03 0.  0.
         25    1    1    2    0    0 -0.25394133942E+03 -0.24724657225E+02 -0.13010216853E+02  0.28441479969E+03  0.12500000000E+03 0.  0.
         25    1    1    2    0    0  0.11782807355E+03  0.19766733651E+03 -0.56975463742E+03  0.62705755533E+03  0.12500000000E+03 0.  0.
</event>
<event>
 5    0  0.5684733E-005  0.2279589E+03  0.7546771E-02  0.1128085E+00
         21   -1    0    0  502  501  0.00000000000E+00  0.00000000000E+00  0.22808587591E+03  0.22808587591E+03  0.00000000000E+00 0. -1.
         21   -1    0    0  501  502 -0.00000000000E+00 -0.00000000000E+00 -0.22783202041E+03  0.22783202041E+03  0.00000000000E+00 0. -1.
         25    1    1    2    0    0  0.37260035150E+02  0.34613058612E+02  0.51952436256E+02  0.14460439025E+03  0.12500000000E+03 0.  0.
         25    1    1    2    0    0  0.35156951639E+02  0.31737763047E+00 -0.89806712317E+02  0.15788083340E+03  0.12500000000E+03 0.  0.
         25    1    1    2    0    0 -0.72416986789E+02 -0.34930436243E+02  0.38108131565E+02  0.15343267267E+03  0.12500000000E+03 0.  0.
</event>
<event>
 5    0  0.5684733E-005  0.2817166E+03  0.7546771E-02  0.1094755E+00
         21   -1    0    0  502  501  0.00000000000E+00  0.00000000000E+00  0.65445801576E+02  0.65445801576E+02  0.00000000000E+00 0.  1.
         21   -1    0    0  501  502 -0.00000000000E+00 -0.00000000000E+00 -0.12126714984E+04  0.12126714984E+04  0.00000000000E+00 0.  1.
         25    1    1    2    0    0  0.55049966804E+02  0.11376889899E+03 -0.18043309448E+03  0.25328829978E+03  0.12500000000E+03 0.  0.
         25    1    1    2    0    0 -0.53393309398E+02 -0.25831837152E+01 -0.67430634949E+03  0.68787467702E+03  0.12500000000E+03 0.  0.
         25    1    1    2    0    0 -0.16566574064E+01 -0.11118571528E+03 -0.29248625287E+03  0.33695432318E+03  0.12500000000E+03 0.  0.
</event>
<event>
 5    0  0.6577924E-005  0.4393080E+03  0.7546771E-02  0.1030959E+00
         21   -1    0    0  502  501  0.00000000000E+00  0.00000000000E+00  0.66839263661E+03  0.66839263661E+03  0.00000000000E+00 0.  1.
         21   -1    0    0  501  502 -0.00000000000E+00 -0.00000000000E+00 -0.28873978386E+03  0.28873978386E+03  0.00000000000E+00 0.  1.
         25    1    1    2    0    0 -0.22723844392E+03 -0.29098449581E+02  0.31762756727E+03  0.41109159765E+03  0.12500000000E+03 0.  0.
         25    1    1    2    0    0  0.18418962649E+03 -0.18595679865E+03  0.31379649989E+02  0.29174549167E+03  0.12500000000E+03 0.  0.
         25    1    1    2    0    0  0.43048817427E+02  0.21505524823E+03  0.30645635490E+02  0.25429533116E+03  0.12500000000E+03 0.  0.
</event>
<event>
 5    0  0.5684733E-005  0.2589190E+03  0.7546771E-02  0.1107794E+00
         21   -1    0    0  502  501  0.00000000000E+00  0.00000000000E+00  0.79263014557E+02  0.79263014557E+02  0.00000000000E+00 0. -1.
         21   -1    0    0  501  502 -0.00000000000E+00 -0.00000000000E+00 -0.84577969613E+03  0.84577969613E+03  0.00000000000E+00 0. -1.
         25    1    1    2    0    0 -0.66520296036E+02  0.71790909940E+02 -0.17238525904E+03  0.23435136456E+03  0.12500000000E+03 0.  0.
         25    1    1    2    0    0 -0.46369773107E+02  0.48347404751E+02 -0.19488192058E+03  0.24102197073E+03  0.12500000000E+03 0.  0.
         25    1    1    2    0    0  0.11289006914E+03 -0.12013831469E+03 -0.39924950196E+03  0.44966937541E+03  0.12500000000E+03 0.  0.
</event>
<event>
 5    0  0.5684733E-005  0.3095661E+03  0.7546771E-02  0.1080554E+00
         21   -1    0    0  502  501  0.00000000000E+00  0.00000000000E+00  0.14593127985E+03  0.14593127985E+03  0.00000000000E+00 0. -1.
         21   -1    0    0  501  502 -0.00000000000E+00 -0.00000000000E+00 -0.65668701594E+03  0.65668701594E+03  0.00000000000E+00 0. -1.
         25    1    1    2    0    0  0.33748374439E+01  0.66563191645E+02  0.58064829978E+02  0.15309661162E+03  0.12500000000E+03 0.  0.
         25    1    1    2    0    0 -0.69622480595E+00 -0.35319165697E+02 -0.46858651790E+03  0.48625739372E+03  0.12500000000E+03 0.  0.
         25    1    1    2    0    0 -0.26786126379E+01 -0.31244025948E+02 -0.10023404817E+03  0.16326429045E+03  0.12500000000E+03 0.  0.
</event>
<event>
 5    0  0.5684733E-005  0.2418176E+03  0.7546771E-02  0.1118588E+00
         21   -1    0    0  502  501  0.00000000000E+00  0.00000000000E+00  0.18474620446E+04  0.18474620446E+04  0.00000000000E+00 0. -1.
         21   -1    0    0  501  502 -0.00000000000E+00 -0.00000000000E+00 -0.31651939906E+02  0.31651939906E+02  0.00000000000E+00 0. -1.
         25    1    1    2    0    0 -0.39612211946E+02 -0.47196465497E+02  0.33689138377E+03  0.36457843896E+03  0.12500000000E+03 0.  0.
         25    1    1    2    0    0  0.61075292626E+02  0.89657662896E+02  0.50388790999E+03  0.53037412618E+03  0.12500000000E+03 0.  0.
         25    1    1    2    0    0 -0.21463080680E+02 -0.42461197400E+02  0.97503081097E+03  0.98416141941E+03  0.12500000000E+03 0.  0.
</event>
<event>
 5    0  0.5684733E-005  0.3861020E+03  0.7546771E-02  0.1048701E+00
         21   -1    0    0  502  501  0.00000000000E+00  0.00000000000E+00  0.11069709647E+03  0.11069709647E+03  0.00000000000E+00 0. -1.
         21   -1    0    0  501  502 -0.00000000000E+00 -0.00000000000E+00 -0.13466904901E+04  0.13466904901E+04  0.00000000000E+00 0. -1.
         25    1    1    2    0    0  0.14086604658E+03  0.70513169184E+02 -0.81059688620E+03  0.83516924155E+03  0.12500000000E+03 0.  0.
         25    1    1    2    0    0 -0.16395477430E+03 -0.65024754636E+02 -0.44380845818E+03  0.49366014047E+03  0.12500000000E+03 0.  0.
         25    1    1    2    0    0  0.23088727715E+02 -0.54884145484E+01  0.18411950715E+02  0.12855820460E+03  0.12500000000E+03 0.  0.
</event>
<event>
 5    0  0.5684733E-005  0.3352037E+03  0.7546771E-02  0.1068857E+00
         21   -1    0    0  502  501  0.00000000000E+00  0.00000000000E+00  0.81307995091E+03  0.81307995091E+03  0.00000000000E+00 0.  1.
         21   -1    0    0  501  502 -0.00000000000E+00 -0.00000000000E+00 -0.13819249678E+03  0.13819249678E+03  0.00000000000E+00 0.  1.
         25    1    1    2    0    0  0.17824185425E+03  0.14222693285E+03  0.50491861607E+03  0.56794935327E+03  0.12500000000E+03 0.  0.
         25    1    1    2    0    0 -0.87670483677E+02 -0.50096687778E+02  0.54558860347E+02  0.16969814695E+03  0.12500000000E+03 0.  0.
         25    1    1    2    0    0 -0.90571370569E+02 -0.92130245069E+02  0.11540997771E+03  0.21362494746E+03  0.12500000000E+03 0.  0.
</event>
<event>
 5    0  0.5684733E-005  0.2901160E+03  0.7546771E-02  0.1090289E+00
         21   -1    0    0  502  501  0.00000000000E+00  0.00000000000E+00  0.18042586431E+03  0.18042586431E+03  0.00000000000E+00 0.  1.
         21   -1    0    0  501  502 -0.00000000000E+00 -0.00000000000E+00 -0.46649240209E+03  0.46649240209E+03  0.00000000000E+00 0.  1.
         25    1    1    2    0    0 -0.45059398138E+02 -0.19699227516E+03 -0.61366763673E+02  0.24541227662E+03  0.12500000000E+03 0.  0.
         25    1    1    2    0    0  0.31784796677E+02  0.80760374602E+02 -0.15331172017E+03  0.21601387675E+03  0.12500000000E+03 0.  0.
         25    1    1    2    0    0  0.13274601461E+02  0.11623190056E+03 -0.71388053929E+02  0.18549211303E+03  0.12500000000E+03 0.  0.
</event>
<event>
 5    0  0.5684733E-005  0.3074689E+03  0.7546771E-02  0.1081565E+00
         21   -1    0    0  502  501  0.00000000000E+00  0.00000000000E+00  0.60150442275E+02  0.60150442275E+02  0.00000000000E+00 0. -1.
         21   -1    0    0  501  502 -0.00000000000E+00 -0.00000000000E+00 -0.15716783573E+04  0.15716783573E+04  0.00000000000E+00 0. -1.
         25    1    1    2    0    0 -0.15945551844E+03  0.72049181252E+02 -0.82294234342E+03  0.85057406936E+03  0.12500000000E+03 0.  0.
         25    1    1    2    0    0  0.64593367612E+02  0.49023107910E+02 -0.16983128540E+03  0.22592749667E+03  0.12500000000E+03 0.  0.
         25    1    1    2    0    0  0.94862150823E+02 -0.12107228916E+03 -0.51875428617E+03  0.55532723351E+03  0.12500000000E+03 0.  0.
</event>
<event>
 5    0  0.5684733E-005  0.2815897E+03  0.7546771E-02  0.1094824E+00
         21   -1    0    0  502  501  0.00000000000E+00  0.00000000000E+00  0.96859560047E+02  0.96859560047E+02  0.00000000000E+00 0.  1.
         21   -1    0    0  501  502 -0.00000000000E+00 -0.00000000000E+00 -0.81863611914E+03  0.81863611914E+03  0.00000000000E+00 0.  1.
         25    1    1    2    0    0 -0.78431013917E+02  0.36102269141E+02 -0.24262467439E+03  0.28626304408E+03  0.12500000000E+03 0.  0.
         25    1    1    2    0    0 -0.20679270704E+02 -0.50476888938E+02 -0.44504209720E+03  0.46547074756E+03  0.12500000000E+03 0.  0.
         25    1    1    2    0    0  0.99110284620E+02  0.14374619797E+02 -0.34109787507E+02  0.16376188755E+03  0.12500000000E+03 0.  0.
</event>
<event>
 5    0  0.5684733E-005  0.3639747E+03  0.7546771E-02  0.1057021E+00
         21   -1    0    0  502  501  0.00000000000E+00  0.00000000000E+00  0.57012436246E+03  0.57012436246E+03  0.00000000000E+00 0.  1.
         21   -1    0    0  501  502 -0.00000000000E+00 -0.00000000000E+00 -0.23236616187E+03  0.23236616187E+03  0.00000000000E+00 0.  1.
         25    1    1    2    0    0  0.18350785230E+03 -0.24557223906E+03  0.15799998696E+03  0.36683763756E+03  0.12500000000E+03 0.  0.
         25    1    1    2    0    0 -0.77231108730E+02  0.11973490540E+03  0.74802617825E+02  0.20376830804E+03  0.12500000000E+03 0.  0.
         25    1    1    2    0    0 -0.10627674357E+03  0.12583733366E+03  0.10495559581E+03  0.23188457874E+03  0.12500000000E+03 0.  0.
</event>
<event>
 5    0  0.5684733E-005  0.3057784E+03  0.7546771E-02  0.1082387E+00
         21   -1    0    0  502  501  0.00000000000E+00  0.00000000000E+00  0.76153823082E+03  0.76153823082E+03  0.00000000000E+00 0.  1.
         21   -1    0    0  501  502 -0.00000000000E+00 -0.00000000000E+00 -0.12277841456E+03  0.12277841456E+03  0.00000000000E+00 0.  1.
         25    1    1    2    0    0  0.20963924676E+03 -0.74396494820E+02  0.36538774350E+03  0.44566428545E+03  0.12500000000E+03 0.  0.
         25    1    1    2    0    0 -0.79762916326E+02  0.30661326098E+02  0.82230011204E+02  0.17230500423E+03  0.12500000000E+03 0.  0.
         25    1    1    2    0    0 -0.12987633044E+03  0.43735168722E+02  0.19114206156E+03  0.26634735570E+03  0.12500000000E+03 0.  0.
</event>
<event>
 5    0  0.5684733E-005  0.2196578E+03  0.7546771E-02  0.1134138E+00
         21   -1    0    0  502  501  0.00000000000E+00  0.00000000000E+00  0.98581201546E+02  0.98581201546E+02  0.00000000000E+00 0. -1.
         21   -1    0    0  501  502 -0.00000000000E+00 -0.00000000000E+00 -0.48943944867E+03  0.48943944867E+03  0.00000000000E+00 0. -1.
         25    1    1    2    0    0  0.35156035679E+02 -0.28413725864E+02 -0.44055908552E+02  0.14003288807E+03  0.12500000000E+03 0.  0.
         25    1    1    2    0    0 -0.80624358265E+02  0.21738598802E+02 -0.18920563492E+03  0.24165393874E+03  0.12500000000E+03 0.  0.
         25    1    1    2    0    0  0.45468322586E+02  0.66751270617E+01 -0.15759670365E+03  0.20633382341E+03  0.12500000000E+03 0.  0.
</event>
<event>
 5    0  0.5684733E-005  0.5214439E+03  0.7546771E-02  0.1008328E+00
         21   -1    0    0  502  501  0.00000000000E+00  0.00000000000E+00  0.32975630812E+03  0.32975630812E+03  0.00000000000E+00 0. -1.
         21   -1    0    0  501  502 -0.00000000000E+00 -0.00000000000E+00 -0.82455961933E+03  0.82455961933E+03  0.00000000000E+00 0. -1.
         25    1    1    2    0    0  0.38725760904E+02 -0.39689876883E+03  0.30021238249E+02  0.41899235315E+03  0.12500000000E+03 0.  0.
         25    1    1    2    0    0  0.39812243427E+02  0.92500450203E+02 -0.88794549746E+02  0.18344159855E+03  0.12500000000E+03 0.  0.
         25    1    1    2    0    0 -0.78538004331E+02  0.30439831863E+03 -0.43602999971E+03  0.55188197575E+03  0.12500000000E+03 0.  0.
</event>
<event>
 5    0  0.5684733E-005  0.2850557E+03  0.7546771E-02  0.1092959E+00
         21   -1    0    0  502  501  0.00000000000E+00  0.00000000000E+00  0.10280439611E+03  0.10280439611E+03  0.00000000000E+00 0.  1.
         21   -1    0    0  501  502 -0.00000000000E+00 -0.00000000000E+00 -0.79040168990E+03  0.79040168990E+03  0.00000000000E+00 0.  1.
         25    1    1    2    0    0 -0.73470650417E+02 -0.44531690700E+02 -0.56495481896E+03  0.58496149909E+03  0.12500000000E+03 0.  0.
         25    1    1    2    0    0 -0.43216190922E+01  0.49584425972E+02 -0.71068243425E+02  0.15216105584E+03  0.12500000000E+03 0.  0.
         25    1    1    2    0    0  0.77792269509E+02 -0.50527352714E+01 -0.51574231413E+02  0.15608353108E+03  0.12500000000E+03 0.  0.
</event>
<event>
 5    0  0.5684733E-005  0.2657340E+03  0.7546771E-02  0.1103746E+00
         21   -1    0    0  502  501  0.00000000000E+00  0.00000000000E+00  0.35404369740E+03  0.35404369740E+03  0.00000000000E+00 0. -1.
         21   -1    0    0  501  502 -0.00000000000E+00 -0.00000000000E+00 -0.19945156799E+03  0.19945156799E+03  0.00000000000E+00 0. -1.
         25    1    1    2    0    0  0.60736113442E+02  0.11921909049E+02 -0.22579636587E+02  0.14130055690E+03  0.12500000000E+03 0.  0.
         25    1    1    2    0    0  0.37360257285E+02 -0.74273873280E+02  0.18867788139E+03  0.24111561543E+03  0.12500000000E+03 0.  0.
         25    1    1    2    0    0 -0.98096370727E+02  0.62351964231E+02 -0.11506115400E+02  0.17107909307E+03  0.12500000000E+03 0.  0.
</event>
<event>
 5    0  0.5684733E-005  0.2534840E+03  0.7546771E-02  0.1111123E+00
         21   -1    0    0  502  501  0.00000000000E+00  0.00000000000E+00  0.24097142535E+02  0.24097142535E+02  0.00000000000E+00 0.  1.
         21   -1    0    0  501  502 -0.00000000000E+00 -0.00000000000E+00 -0.26664631847E+04  0.26664631847E+04  0.00000000000E+00 0.  1.
         25    1    1    2    0    0 -0.73748620316E+02 -0.32608419901E+02 -0.58149254600E+03  0.60021725159E+03  0.12500000000E+03 0.  0.
         25    1    1    2    0    0  0.10784874267E+03  0.63225444686E+02 -0.66373468403E+03  0.68687519896E+03  0.12500000000E+03 0.  0.
         25    1    1    2    0    0 -0.34100122351E+02 -0.30617024785E+02 -0.13971388121E+04  0.14034678767E+04  0.12500000000E+03 0.  0.
</event>
<event>
 5    0  0.5684733E-005  0.3037617E+03  0.7546771E-02  0.1083375E+00
         21   -1    0    0  502  501  0.00000000000E+00  0.00000000000E+00  0.69922027801E+02  0.69922027801E+02  0.00000000000E+00 0.  1.
         21   -1    0    0  501  502 -0.00000000000E+00 -0.00000000000E+00 -0.13196296075E+04  0.13196296075E+04  0.00000000000E+00 0.  1.
         25    1    1    2    0    0 -0.12231363398E+03  0.12307568117E+03 -0.26541856873E+03  0.34085226269E+03  0.12500000000E+03 0.  0.
         25    1    1    2    0    0  0.28207019051E+02 -0.62207254201E+02 -0.19344696905E+03  0.24023344528E+03  0.12500000000E+03 0.  0.
         25    1    1    2    0    0  0.94106614932E+02 -0.60868426974E+02 -0.79084204191E+03  0.80846592731E+03  0.12500000000E+03 0.  0.
</event>
<event>
 5    0  0.5684733E-005  0.2281964E+03  0.7546771E-02  0.1127916E+00
         21   -1    0    0  502  501  0.00000000000E+00  0.00000000000E+00  0.80759722419E+02  0.80759722419E+02  0.00000000000E+00 0. -1.
         21   -1    0    0  501  502 -0.00000000000E+00 -0.00000000000E+00 -0.64479673293E+03  0.64479673293E+03  0.00000000000E+00 0. -1.
         25    1    1    2    0    0  0.37106807330E+02  0.47041081141E+02 -0.20699524184E+03  0.24912207572E+03  0.12500000000E+03 0.  0.
         25    1    1    2    0    0 -0.50555138929E+02 -0.54688147770E+02 -0.30915500077E+03  0.34168469395E+03  0.12500000000E+03 0.  0.
         25    1    1    2    0    0  0.13448331599E+02  0.76470666292E+01 -0.47886767897E+02  0.13474968568E+03  0.12500000000E+03 0.  0.
</event>
<event>
 5    0  0.5684733E-005  0.2479375E+03  0.7546771E-02  0.1114615E+00
         21   -1    0    0  502  501  0.00000000000E+00  0.00000000000E+00  0.31685476132E+03  0.31685476132E+03  0.00000000000E+00 0. -1.
         21   -1    0    0  501  502 -0.00000000000E+00 -0.00000000000E+00 -0.19401006415E+03  0.19401006415E+03  0.00000000000E+00 0. -1.
         25    1    1    2    0    0  0.10938287019E+03  0.73240249586E+02  0.12599900744E+03  0.22097397206E+03  0.12500000000E+03 0.  0.
         25    1    1    2    0    0 -0.32050394108E+02 -0.59574369542E+02 -0.57329089113E+01  0.14224696662E+03  0.12500000000E+03 0.  0.
         25    1    1    2    0    0 -0.77332476085E+02 -0.13665880044E+02  0.25785986337E+01  0.14764388679E+03  0.12500000000E+03 0.  0.
</event>
<event>
 5    0  0.5684733E-005  0.3423506E+03  0.7546771E-02  0.1065799E+00
         21   -1    0    0  502  501  0.00000000000E+00  0.00000000000E+00  0.32946287239E+04  0.32946287239E+04  0.00000000000E+00 0. -1.
         21   -1    0    0  501  502 -0.00000000000E+00 -0.00000000000E+00 -0.35574254300E+02  0.35574254300E+02  0.00000000000E+00 0. -1.
         25    1    1    2    0    0 -0.19072936011E+03 -0.55599725491E+01  0.65891410851E+03  0.69728143851E+03  0.12500000000E+03 0.  0.
         25    1    1    2    0    0  0.57237431084E+02 -0.79599421486E+02  0.18270483866E+04  0.18339419289E+04  0.12500000000E+03 0.  0.
         25    1    1    2    0    0  0.13349192902E+03  0.85159394035E+02  0.77309197443E+03  0.79897961077E+03  0.12500000000E+03 0.  0.
</event>
<event>
 5    0  0.5684733E-005  0.3064186E+03  0.7546771E-02  0.1082075E+00
         21   -1    0    0  502  501  0.00000000000E+00  0.00000000000E+00  0.18078404750E+03  0.18078404750E+03  0.00000000000E+00 0. -1.
         21   -1    0    0  501  502 -0.00000000000E+00 -0.00000000000E+00 -0.51936196629E+03  0.51936196629E+03  0.00000000000E+00 0. -1.
         25    1    1    2    0    0  0.38079490626E+02  0.17033796907E+02  0.45977633731E+02  0.13956769199E+03  0.12500000000E+03 0.  0.
         25    1    1    2    0    0 -0.17133066532E+03 -0.55452613712E+02 -0.18013050431E+03  0.28372731245E+03  0.12500000000E+03 0.  0.
         25    1    1    2    0    0  0.13325117469E+03  0.38418816805E+02 -0.20442504821E+03  0.27685100935E+03  0.12500000000E+03 0.  0.
</event>
<event>
 5    0  0.5684733E-005  0.3292102E+03  0.7546771E-02  0.1071487E+00
         21   -1    0    0  502  501  0.00000000000E+00  0.00000000000E+00  0.86522766428E+02  0.86522766428E+02  0.00000000000E+00 0.  1.
         21   -1    0    0  501  502 -0.00000000000E+00 -0.00000000000E+00 -0.12526107398E+04  0.12526107398E+04  0.00000000000E+00 0.  1.
         25    1    1    2    0    0  0.94181724177E+02 -0.82530469469E+02 -0.14334136756E+03  0.22771302820E+03  0.12500000000E+03 0.  0.
         25    1    1    2    0    0 -0.99300824327E+02 -0.11083991008E+03 -0.34994250292E+03  0.40028851436E+03  0.12500000000E+03 0.  0.
         25    1    1    2    0    0  0.51191001500E+01  0.19337037955E+03 -0.67280410285E+03  0.71113196362E+03  0.12500000000E+03 0.  0.
</event>
<event>
 5    0  0.5684733E-005  0.3573273E+03  0.7546771E-02  0.1059647E+00
         21   -1    0    0  502  501  0.00000000000E+00  0.00000000000E+00  0.27256736858E+03  0.27256736858E+03  0.00000000000E+00 0.  1.
         21   -1    0    0  501  502 -0.00000000000E+00 -0.00000000000E+00 -0.46844497457E+03  0.46844497457E+03  0.00000000000E+00 0.  1.
         25    1    1    2    0    0  0.17729930339E+02  0.19211730284E+02 -0.14848082099E+03  0.19584431371E+03  0.12500000000E+03 0.  0.
         25    1    1    2    0    0 -0.11467323950E+03 -0.18831076063E+03  0.98016238488E+02  0.27174082769E+03  0.12500000000E+03 0.  0.
         25    1    1    2    0    0  0.96943309159E+02  0.16909903035E+03 -0.14541302349E+03  0.27342720175E+03  0.12500000000E+03 0.  0.
</event>
<event>
 5    0  0.5684733E-005  0.2969456E+03  0.7546771E-02  0.1086778E+00
         21   -1    0    0  502  501  0.00000000000E+00  0.00000000000E+00  0.34538887665E+03  0.34538887665E+03  0.00000000000E+00 0.  1.
         21   -1    0    0  501  502 -0.00000000000E+00 -0.00000000000E+00 -0.25529687524E+03  0.25529687524E+03  0.00000000000E+00 0.  1.
         25    1    1    2    0    0  0.10876107105E+03  0.88457313051E+02 -0.96444453792E+02  0.21114023651E+03  0.12500000000E+03 0.  0.
         25    1    1    2    0    0 -0.11244925584E+03 -0.45751969815E+02  0.18940903766E+03  0.25736911514E+03  0.12500000000E+03 0.  0.
         25    1    1    2    0    0  0.36881847928E+01 -0.42705343236E+02 -0.28725824599E+01  0.13217640023E+03  0.12500000000E+03 0.  0.
</event>
<event>
 5    0  0.5684733E-005  0.2745311E+03  0.7546771E-02  0.1098714E+00
         21   -1    0    0  502  501  0.00000000000E+00  0.00000000000E+00  0.11096758625E+04  0.11096758625E+04  0.00000000000E+00 0. -1.
         21   -1    0    0  501  502 -0.00000000000E+00 -0.00000000000E+00 -0.67918326637E+02  0.67918326637E+02  0.00000000000E+00 0. -1.
         25    1    1    2    0    0 -0.48386215341E+02 -0.37574467914E+02  0.25239205841E+03  0.28823569803E+03  0.12500000000E+03 0.  0.
         25    1    1    2    0    0 -0.11641985615E+03 -0.33861955865E+02  0.22835896764E+03  0.28718118508E+03  0.12500000000E+03 0.  0.
         25    1    1    2    0    0  0.16480607149E+03  0.71436423779E+02  0.56100650984E+03  0.60217730605E+03  0.12500000000E+03 0.  0.
</event>
<event>
 5    0  0.5684733E-005  0.3717878E+03  0.7546771E-02  0.1054011E+00
         21   -1    0    0  502  501  0.00000000000E+00  0.00000000000E+00  0.13680486581E+03  0.13680486581E+03  0.00000000000E+00 0. -1.
         21   -1    0    0  501  502 -0.00000000000E+00 -0.00000000000E+00 -0.10103891301E+04  0.10103891301E+04  0.00000000000E+00 0. -1.
         25    1    1    2    0    0 -0.17485678110E+03 -0.22630138247E+01 -0.48328209200E+03  0.52892966978E+03  0.12500000000E+03 0.  0.
         25    1    1    2    0    0  0.95855231599E+02  0.18110748488E+03 -0.25246472540E+03  0.34835554262E+03  0.12500000000E+03 0.  0.
         25    1    1    2    0    0  0.79001549497E+02 -0.17884447105E+03 -0.13783744688E+03  0.26990878350E+03  0.12500000000E+03 0.  0.
</event>
<event>
 5    0  0.5684733E-005  0.2448853E+03  0.7546771E-02  0.1116581E+00
         21   -1    0    0  502  501  0.00000000000E+00  0.00000000000E+00  0.59538592841E+03  0.59538592841E+03  0.00000000000E+00 0. -1.
         21   -1    0    0  501  502 -0.00000000000E+00 -0.00000000000E+00 -0.10072258795E+03  0.10072258795E+03  0.00000000000E+00 0. -1.
         25    1    1    2    0    0 -0.45348060834E+02 -0.36824833734E+01  0.36752026910E+03  0.39085311244E+03  0.12500000000E+03 0.  0.
         25    1    1    2    0    0  0.30354114335E+02  0.38386600523E+02  0.18752369401E+02  0.13554170840E+03  0.12500000000E+03 0.  0.
         25    1    1    2    0    0  0.14993946499E+02 -0.34704117150E+02  0.10839070195E+03  0.16971369552E+03  0.12500000000E+03 0.  0.
</event>
<event>
 5    0  0.5684733E-005  0.2675203E+03  0.7546771E-02  0.1102707E+00
         21   -1    0    0  502  501  0.00000000000E+00  0.00000000000E+00  0.12544752342E+04  0.12544752342E+04  0.00000000000E+00 0.  1.
         21   -1    0    0  501  502 -0.00000000000E+00 -0.00000000000E+00 -0.57049428665E+02  0.57049428665E+02  0.00000000000E+00 0.  1.
         25    1    1    2    0    0 -0.37869751329E+02 -0.14930319815E+02  0.60964841890E+03  0.62366114773E+03  0.12500000000E+03 0.  0.
         25    1    1    2    0    0 -0.14173755072E+02  0.12886110515E+03  0.28305127110E+03  0.33548338532E+03  0.12500000000E+03 0.  0.
         25    1    1    2    0    0  0.52043506401E+02 -0.11393078534E+03  0.30472611556E+03  0.35238012985E+03  0.12500000000E+03 0.  0.
</event>
<event>
 5    0  0.5684733E-005  0.2928885E+03  0.7546771E-02  0.1088851E+00
         21   -1    0    0  502  501  0.00000000000E+00  0.00000000000E+00  0.65526083915E+02  0.65526083915E+02  0.00000000000E+00 0.  1.
         21   -1    0    0  501  502 -0.00000000000E+00 -0.00000000000E+00 -0.13091529551E+04  0.13091529551E+04  0.00000000000E+00 0.  1.
         25    1    1    2    0    0 -0.66963460127E+02 -0.10211208997E+02 -0.64423458747E+03  0.65973599074E+03  0.12500000000E+03 0.  0.
         25    1    1    2    0    0  0.99735202262E+01  0.43924724571E+02 -0.41204050772E+02  0.13911012305E+03  0.12500000000E+03 0.  0.
         25    1    1    2    0    0  0.56989939901E+02 -0.33713515573E+02 -0.55818823290E+03  0.57583292519E+03  0.12500000000E+03 0.  0.
</event>
<event>
 5    0  0.5684733E-005  0.2670624E+03  0.7546771E-02  0.1102973E+00
         21   -1    0    0  502  501  0.00000000000E+00  0.00000000000E+00  0.26269046061E+03  0.26269046061E+03  0.00000000000E+00 0.  1.
         21   -1    0    0  501  502 -0.00000000000E+00 -0.00000000000E+00 -0.27150705181E+03  0.27150705181E+03  0.00000000000E+00 0.  1.
         25    1    1    2    0    0  0.17916409809E+01  0.16605993705E+02  0.43758966686E+02  0.13348713859E+03  0.12500000000E+03 0.  0.
         25    1    1    2    0    0 -0.59951850407E+02  0.12603853924E+03  0.22265535631E+02  0.18868145595E+03  0.12500000000E+03 0.  0.
         25    1    1    2    0    0  0.58160209426E+02 -0.14264453294E+03 -0.74841093522E+02  0.21202891788E+03  0.12500000000E+03 0.  0.
</event>
<event>
 5    0  0.5684733E-005  0.2381261E+03  0.7546771E-02  0.1121048E+00
         21   -1    0    0  502  501  0.00000000000E+00  0.00000000000E+00  0.24099412165E+03  0.24099412165E+03  0.00000000000E+00 0.  1.
         21   -1    0    0  501  502 -0.00000000000E+00 -0.00000000000E+00 -0.23529211856E+03  0.23529211856E+03  0.00000000000E+00 0.  1.
         25    1    1    2    0    0  0.98897096659E+02 -0.10023345686E+02  0.18602971585E+02  0.16078611177E+03  0.12500000000E+03 0.  0.
         25    1    1    2    0    0 -0.10557449835E+03  0.62643956856E+02  0.18359120385E+02  0.17615986300E+03  0.12500000000E+03 0.  0.
         25    1    1    2    0    0  0.66774016902E+01 -0.52620611170E+02 -0.31260088879E+02  0.13934026543E+03  0.12500000000E+03 0.  0.
</event>
<event>
 5    0  0.5684733E-005  0.2933543E+03  0.7546771E-02  0.1088611E+00
         21   -1    0    0  502  501  0.00000000000E+00  0.00000000000E+00  0.31914804543E+03  0.31914804543E+03  0.00000000000E+00 0. -1.
         21   -1    0    0  501  502 -0.00000000000E+00 -0.00000000000E+00 -0.26964520270E+03  0.26964520270E+03  0.00000000000E+00 0. -1.
         25    1    1    2    0    0  0.53554273813E+02 -0.10535586443E+03  0.89909566635E+02  0.19410473612E+03  0.12500000000E+03 0.  0.
         25    1    1    2    0    0 -0.12182915018E+03  0.13575843321E+03 -0.92938194493E+02  0.23986496622E+03  0.12500000000E+03 0.  0.
         25    1    1    2    0    0  0.68274876369E+02 -0.30402568784E+02  0.52531470587E+02  0.15482354580E+03  0.12500000000E+03 0.  0.
</event>
<event>
 5    0  0.5684733E-005  0.2560689E+03  0.7546771E-02  0.1109528E+00
         21   -1    0    0  502  501  0.00000000000E+00  0.00000000000E+00  0.13233973040E+04  0.13233973040E+04  0.00000000000E+00 0.  1.
         21   -1    0    0  501  502 -0.00000000000E+00 -0.00000000000E+00 -0.49547674517E+02  0.49547674517E+02  0.00000000000E+00 0.  1.
         25    1    1    2    0    0  0.69364388618E+02 -0.44002636110E+02  0.60306323475E+03  0.62133559008E+03  0.12500000000E+03 0.  0.
         25    1    1    2    0    0 -0.56704130332E+02  0.12809794058E+03  0.36135252682E+03  0.40721626861E+03  0.12500000000E+03 0.  0.
         25    1    1    2    0    0 -0.12660258286E+02 -0.84095304472E+02  0.30943386790E+03  0.34439311982E+03  0.12500000000E+03 0.  0.
</event>
<event>
 5    0  0.5684733E-005  0.4156412E+03  0.7546771E-02  0.1038494E+00
         21   -1    0    0  502  501  0.00000000000E+00  0.00000000000E+00  0.19568708262E+03  0.19568708262E+03  0.00000000000E+00 0. -1.
         21   -1    0    0  501  502 -0.00000000000E+00 -0.00000000000E+00 -0.88282573787E+03  0.88282573787E+03  0.00000000000E+00 0. -1.
         25    1    1    2    0    0  0.13252496954E+03 -0.27745545275E+02 -0.11186893903E+03  0.21557444736E+03  0.12500000000E+03 0.  0.
         25    1    1    2    0    0 -0.26223311741E+03 -0.19469519871E+03 -0.38008697593E+03  0.51649156580E+03  0.12500000000E+03 0.  0.
         25    1    1    2    0    0  0.12970814787E+03  0.22244074398E+03 -0.19518274029E+03  0.34644680734E+03  0.12500000000E+03 0.  0.
</event>
<event>
 5    0  0.6532913E-005  0.3750100E+03  0.7546771E-02  0.1052794E+00
         21   -1    0    0  502  501  0.00000000000E+00  0.00000000000E+00  0.37594740666E+03  0.37594740666E+03  0.00000000000E+00 0. -1.
         21   -1    0    0  501  502 -0.00000000000E+00 -0.00000000000E+00 -0.37407492040E+03  0.37407492040E+03  0.00000000000E+00 0. -1.
         25    1    1    2    0    0  0.17160349510E+03 -0.53476295918E+02  0.29085004708E+02  0.22085835111E+03  0.12500000000E+03 0.  0.
         25    1    1    2    0    0  0.39818202093E+02  0.96114660576E+02 -0.17537367735E+03  0.23917450512E+03  0.12500000000E+03 0.  0.
         25    1    1    2    0    0 -0.21142169719E+03 -0.42638364658E+02  0.14816115889E+03  0.28998947082E+03  0.12500000000E+03 0.  0.
</event>
<event>
 5    0  0.5684733E-005  0.3159126E+03  0.7546771E-02  0.1077546E+00
         21   -1    0    0  502  501  0.00000000000E+00  0.00000000000E+00  0.13879837470E+03  0.13879837470E+03  0.00000000000E+00 0.  1.
         21   -1    0    0  501  502 -0.00000000000E+00 -0.00000000000E+00 -0.71903397624E+03  0.71903397624E+03  0.00000000000E+00 0.  1.
         25    1    1    2    0    0 -0.42390172364E+01  0.11269500060E+03 -0.32584648440E+03  0.36676840625E+03  0.12500000000E+03 0.  0.
         25    1    1    2    0    0  0.13348191150E+03 -0.14545327949E+03 -0.17435937145E+03  0.29154805372E+03  0.12500000000E+03 0.  0.
         25    1    1    2    0    0 -0.12924289427E+03  0.32758278895E+02 -0.80029745693E+02  0.19951589097E+03  0.12500000000E+03 0.  0.
</event>
<event>
 5    0  0.5684733E-005  0.2849595E+03  0.7546771E-02  0.1093011E+00
         21   -1    0    0  502  501  0.00000000000E+00  0.00000000000E+00  0.14032605043E+03  0.14032605043E+03  0.00000000000E+00 0.  1.
         21   -1    0    0  501  502 -0.00000000000E+00 -0.00000000000E+00 -0.57866594298E+03  0.57866594298E+03  0.00000000000E+00 0.  1.
         25    1    1    2    0    0  0.12463885449E+03 -0.95705565999E+02 -0.15579847622E+03  0.25415067304E+03  0.12500000000E+03 0.  0.
         25    1    1    2    0    0  0.22697176294E+02 -0.33945430075E+02 -0.66646169223E+02  0.14742511966E+03  0.12500000000E+03 0.  0.
         25    1    1    2    0    0 -0.14733603078E+03  0.12965099607E+03 -0.21589524711E+03  0.31741620071E+03  0.12500000000E+03 0.  0.
</event>
<event>
 5    0  0.5684733E-005  0.3095642E+03  0.7546771E-02  0.1080555E+00
         21   -1    0    0  502  501  0.00000000000E+00  0.00000000000E+00  0.56864698177E+02  0.56864698177E+02  0.00000000000E+00 0. -1.
         21   -1    0    0  501  502 -0.00000000000E+00 -0.00000000000E+00 -0.16852284765E+04  0.16852284765E+04  0.00000000000E+00 0. -1.
         25    1    1    2    0    0 -0.12430957001E+03 -0.10750860064E+03 -0.49825193812E+03  0.53934308399E+03  0.12500000000E+03 0.  0.
         25    1    1    2    0    0  0.13534781097E+03 -0.33727417803E+02 -0.80705197932E+03  0.82850133734E+03  0.12500000000E+03 0.  0.
         25    1    1    2    0    0 -0.11038240955E+02  0.14123601845E+03 -0.32305986089E+03  0.37424875335E+03  0.12500000000E+03 0.  0.
</event>
<event>
 5    0  0.5684733E-005  0.3907803E+03  0.7546771E-02  0.1047020E+00
         21   -1    0    0  502  501  0.00000000000E+00  0.00000000000E+00  0.86821148116E+03  0.86821148116E+03  0.00000000000E+00 0. -1.
         21   -1    0    0  501  502 -0.00000000000E+00 -0.00000000000E+00 -0.17588944468E+03  0.17588944468E+03  0.00000000000E+00 0. -1.
         25    1    1    2    0    0  0.99769562574E+02  0.16775195174E+03  0.43718210450E+03  0.49482105394E+03  0.12500000000E+03 0.  0.
         25    1    1    2    0    0 -0.11380649279E+03  0.22327751985E+02 -0.41200008310E+02  0.17542202540E+03  0.12500000000E+03 0.  0.
         25    1    1    2    0    0  0.14036930213E+02 -0.19007970373E+03  0.29633994029E+03  0.37385784650E+03  0.12500000000E+03 0.  0.
</event>
<event>
 5    0  0.5684733E-005  0.4278776E+03  0.7546771E-02  0.1034533E+00
         21   -1    0    0  502  501  0.00000000000E+00  0.00000000000E+00  0.52777587801E+03  0.52777587801E+03  0.00000000000E+00 0.  1.
         21   -1    0    0  501  502 -0.00000000000E+00 -0.00000000000E+00 -0.34688825821E+03  0.34688825821E+03  0.00000000000E+00 0.  1.
         25    1    1    2    0    0  0.95520743811E+02 -0.56613955775E+02 -0.10842482302E+03  0.19927442067E+03  0.12500000000E+03 0.  0.
         25    1    1    2    0    0  0.18739393272E+03 -0.11163243484E+03  0.17058642144E+03  0.30381411045E+03  0.12500000000E+03 0.  0.
         25    1    1    2    0    0 -0.28291467653E+03  0.16824639061E+03  0.11872602138E+03  0.37157560510E+03  0.12500000000E+03 0.  0.
</event>
<event>
 5    0  0.5684733E-005  0.3759277E+03  0.7546771E-02  0.1052449E+00
         21   -1    0    0  502  501  0.00000000000E+00  0.00000000000E+00  0.56899472281E+03  0.56899472281E+03  0.00000000000E+00 0. -1.
         21   -1    0    0  501  502 -0.00000000000E+00 -0.00000000000E+00 -0.24837069894E+03  0.24837069894E+03  0.00000000000E+00 0. -1.
         25    1    1    2    0    0  0.19283420002E+03  0.14099358204E+03 -0.22382608407E+02  0.27053687371E+03  0.12500000000E+03 0.  0.
         25    1    1    2    0    0 -0.60335894351E+01  0.43325563776E+02  0.79321066660E+02  0.15437078834E+03  0.12500000000E+03 0.  0.
         25    1    1    2    0    0 -0.18680061059E+03 -0.18431914581E+03  0.26368556562E+03  0.39245775970E+03  0.12500000000E+03 0.  0.
</event>
<event>
 5    0  0.5684733E-005  0.4882836E+03  0.7546771E-02  0.1016883E+00
         21   -1    0    0  502  501  0.00000000000E+00  0.00000000000E+00  0.93727821224E+03  0.93727821224E+03  0.00000000000E+00 0.  1.
         21   -1    0    0  501  502 -0.00000000000E+00 -0.00000000000E+00 -0.25437577031E+03  0.25437577031E+03  0.00000000000E+00 0.  1.
         25    1    1    2    0    0  0.22535958945E+03 -0.59463394682E+02 -0.12984402046E+03  0.29463080205E+03  0.12500000000E+03 0.  0.
         25    1    1    2    0    0 -0.20633922554E+03  0.12549664839E+02  0.57508892830E+03  0.62376730079E+03  0.12500000000E+03 0.  0.
         25    1    1    2    0    0 -0.19020363917E+02  0.46913729843E+02  0.23765753408E+03  0.27325587971E+03  0.12500000000E+03 0.  0.
</event>
<event>
 5    0  0.5684733E-005  0.2538746E+03  0.7546771E-02  0.1110880E+00
         21   -1    0    0  502  501  0.00000000000E+00  0.00000000000E+00  0.12049377862E+04  0.12049377862E+04  0.00000000000E+00 0. -1.
         21   -1    0    0  501  502 -0.00000000000E+00 -0.00000000000E+00 -0.53490165157E+02  0.53490165157E+02  0.00000000000E+00 0. -1.
         25    1    1    2    0    0 -0.14655810226E+03  0.69406385910E+02  0.42406206007E+03  0.47090355120E+03  0.12500000000E+03 0.  0.
         25    1    1    2    0    0  0.72472405559E+02 -0.55140246363E+02  0.33932924120E+03  0.37291021744E+03  0.12500000000E+03 0.  0.
         25    1    1    2    0    0  0.74085696698E+02 -0.14266139547E+02  0.38805631972E+03  0.41461418267E+03  0.12500000000E+03 0.  0.
</event>
<event>
 5    0  0.5684733E-005  0.2896740E+03  0.7546771E-02  0.1090519E+00
         21   -1    0    0  502  501  0.00000000000E+00  0.00000000000E+00  0.66749169554E+03  0.66749169554E+03  0.00000000000E+00 0. -1.
         21   -1    0    0  501  502 -0.00000000000E+00 -0.00000000000E+00 -0.12571092506E+03  0.12571092506E+03  0.00000000000E+00 0. -1.
         25    1    1    2    0    0 -0.14647817660E+03 -0.58856057570E+01  0.29613361301E+03  0.35328545587E+03  0.12500000000E+03 0.  0.
         25    1    1    2    0    0  0.14755301070E+03  0.74497963431E+02  0.82027082287E+02  0.22287951847E+03  0.12500000000E+03 0.  0.
         25    1    1    2    0    0 -0.10748341030E+01 -0.68612357674E+02  0.16362007519E+03  0.21703764627E+03  0.12500000000E+03 0.  0.
</event>
<event>
 5    0  0.5684733E-005  0.2528887E+03  0.7546771E-02  0.1111493E+00
         21   -1    0    0  502  501  0.00000000000E+00  0.00000000000E+00  0.21647557940E+03  0.21647557940E+03  0.00000000000E+00 0. -1.
         21   -1    0    0  501  502 -0.00000000000E+00 -0.00000000000E+00 -0.29542686986E+03  0.29542686986E+03  0.00000000000E+00 0. -1.
         25    1    1    2    0    0 -0.72326654879E+02  0.33331632674E+02  0.81583763098E+02  0.16918348957E+03  0.12500000000E+03 0.  0.
         25    1    1    2    0    0  0.10602223619E+03  0.14157728909E+02 -0.95862625081E+02  0.19040955528E+03  0.12500000000E+03 0.  0.
         25    1    1    2    0    0 -0.33695581314E+02 -0.47489361583E+02 -0.64672428477E+02  0.15230940440E+03  0.12500000000E+03 0.  0.
</event>
<event>
 5    0  0.5684733E-005  0.4610020E+03  0.7546771E-02  0.1024491E+00
         21   -1    0    0  502  501  0.00000000000E+00  0.00000000000E+00  0.12621894474E+03  0.12621894474E+03  0.00000000000E+00 0. -1.
         21   -1    0    0  501  502 -0.00000000000E+00 -0.00000000000E+00 -0.16837633163E+04  0.16837633163E+04  0.00000000000E+00 0. -1.
         25    1    1    2    0    0 -0.55829923202E+02  0.12922791474E+03 -0.54374864074E+03  0.57541673471E+03  0.12500000000E+03 0.  0.
         25    1    1    2    0    0 -0.22156218880E+03 -0.21453752318E+03 -0.27739096652E+03  0.43322846244E+03  0.12500000000E+03 0.  0.
         25    1    1    2    0    0  0.27739211201E+03  0.85309608439E+02 -0.73640476426E+03  0.80133706386E+03  0.12500000000E+03 0.  0.
</event>
<event>
 5    0  0.5684733E-005  0.3344760E+03  0.7546771E-02  0.1069173E+00
         21   -1    0    0  502  501  0.00000000000E+00  0.00000000000E+00  0.11088108362E+04  0.11088108362E+04  0.00000000000E+00 0.  1.
         21   -1    0    0  501  502 -0.00000000000E+00 -0.00000000000E+00 -0.10089566802E+03  0.10089566802E+03  0.00000000000E+00 0.  1.
         25    1    1    2    0    0 -0.15620297034E+03 -0.11837866458E+02  0.54573672150E+03  0.58137171605E+03  0.12500000000E+03 0.  0.
         25    1    1    2    0    0 -0.86182137221E+01  0.13069406796E+03  0.14803840435E+03  0.23387086644E+03  0.12500000000E+03 0.  0.
         25    1    1    2    0    0  0.16482118406E+03 -0.11885620150E+03  0.31414004228E+03  0.39446392169E+03  0.12500000000E+03 0.  0.
</event>
<event>
 5    0  0.5684733E-005  0.2947956E+03  0.7546771E-02  0.1087872E+00
         21   -1    0    0  502  501  0.00000000000E+00  0.00000000000E+00  0.18256586092E+03  0.18256586092E+03  0.00000000000E+00 0.  1.
         21   -1    0    0  501  502 -0.00000000000E+00 -0.00000000000E+00 -0.47601686267E+03  0.47601686267E+03  0.00000000000E+00 0.  1.
         25    1    1    2    0    0 -0.21479285970E+01 -0.11812778788E+02  0.71337755994E+02  0.14442378880E+03  0.12500000000E+03 0.  0.
         25    1    1    2    0    0 -0.88199801949E+02 -0.34473628765E+02 -0.57122275155E+02  0.16689994147E+03  0.12500000000E+03 0.  0.
         25    1    1    2    0    0  0.90347730546E+02  0.46286407553E+02 -0.30766648259E+03  0.34725899333E+03  0.12500000000E+03 0.  0.
</event>
<event>
 5    0  0.5684733E-005  0.2473551E+03  0.7546771E-02  0.1114988E+00
         21   -1    0    0  502  501  0.00000000000E+00  0.00000000000E+00  0.96486012536E+02  0.96486012536E+02  0.00000000000E+00 0.  1.
         21   -1    0    0  501  502 -0.00000000000E+00 -0.00000000000E+00 -0.63412879717E+03  0.63412879717E+03  0.00000000000E+00 0.  1.
         25    1    1    2    0    0 -0.58209771803E+02 -0.91331750942E+02 -0.13926885852E+03  0.21621905841E+03  0.12500000000E+03 0.  0.
         25    1    1    2    0    0 -0.26699069961E+02 -0.55209850304E-01 -0.26114760286E+03  0.29075060423E+03  0.12500000000E+03 0.  0.
         25    1    1    2    0    0  0.84908841763E+02  0.91386960792E+02 -0.13722632325E+03  0.22364514706E+03  0.12500000000E+03 0.  0.
</event>
<event>
 5    0  0.5684733E-005  0.3646796E+03  0.7546771E-02  0.1056746E+00
         21   -1    0    0  502  501  0.00000000000E+00  0.00000000000E+00  0.16390257140E+04  0.16390257140E+04  0.00000000000E+00 0.  1.
         21   -1    0    0  501  502 -0.00000000000E+00 -0.00000000000E+00 -0.81140396876E+02  0.81140396876E+02  0.00000000000E+00 0.  1.
         25    1    1    2    0    0  0.34015173115E+02  0.78051556263E+02  0.17045559583E+03  0.22787976564E+03  0.12500000000E+03 0.  0.
         25    1    1    2    0    0  0.22037353274E+03 -0.70942469060E+02  0.74423642787E+03  0.78937328838E+03  0.12500000000E+03 0.  0.
         25    1    1    2    0    0 -0.25438870585E+03 -0.71090872028E+01  0.64319329340E+03  0.70291305683E+03  0.12500000000E+03 0.  0.
</event>
<event>
 5    0  0.5684733E-005  0.5693155E+03  0.7546771E-02  0.9971194E-01
         21   -1    0    0  502  501  0.00000000000E+00  0.00000000000E+00  0.84686069175E+03  0.84686069175E+03  0.00000000000E+00 0.  1.
         21   -1    0    0  501  502 -0.00000000000E+00 -0.00000000000E+00 -0.38273139579E+03  0.38273139579E+03  0.00000000000E+00 0.  1.
         25    1    1    2    0    0 -0.50790462974E+02  0.21109889532E+03  0.48347798805E+03  0.54453501234E+03  0.12500000000E+03 0.  0.
         25    1    1    2    0    0 -0.17955444109E+03  0.98048449105E+02  0.10412388465E+03  0.26138109924E+03  0.12500000000E+03 0.  0.
         25    1    1    2    0    0  0.23034490406E+03 -0.30914734443E+03 -0.12347257674E+03  0.42367597596E+03  0.12500000000E+03 0.  0.
</event>
<event>
 5    0  0.5684733E-005  0.2877722E+03  0.7546771E-02  0.1091518E+00
         21   -1    0    0  502  501  0.00000000000E+00  0.00000000000E+00  0.41378408361E+03  0.41378408361E+03  0.00000000000E+00 0. -1.
         21   -1    0    0  501  502 -0.00000000000E+00 -0.00000000000E+00 -0.20013544993E+03  0.20013544993E+03  0.00000000000E+00 0. -1.
         25    1    1    2    0    0 -0.11470232153E+03 -0.68069684813E+02  0.16622753568E+03  0.24707630031E+03  0.12500000000E+03 0.  0.
         25    1    1    2    0    0 -0.18558361125E+01  0.10729759694E+03  0.88111478041E+02  0.18682839987E+03  0.12500000000E+03 0.  0.
         25    1    1    2    0    0  0.11655815765E+03 -0.39227912127E+02 -0.40690380035E+02  0.18001483336E+03  0.12500000000E+03 0.  0.
</event>
<event>
 5    0  0.5684733E-005  0.2668217E+03  0.7546771E-02  0.1103113E+00
         21   -1    0    0  502  501  0.00000000000E+00  0.00000000000E+00  0.87214283773E+03  0.87214283773E+03  0.00000000000E+00 0. -1.
         21   -1    0    0  501  502 -0.00000000000E+00 -0.00000000000E+00 -0.81630905402E+02  0.81630905402E+02  0.00000000000E+00 0. -1.
         25    1    1    2    0    0 -0.12578828230E+03 -0.48529994098E+02  0.12960179178E+03  0.22494327446E+03  0.12500000000E+03 0.  0.
         25    1    1    2    0    0  0.85613413062E+02 -0.23772792147E+02  0.39261608888E+03  0.42150586637E+03  0.12500000000E+03 0.  0.
         25    1    1    2    0    0  0.40174869239E+02  0.72302786245E+02  0.26829405167E+03  0.30732460230E+03  0.12500000000E+03 0.  0.
</event>
<event>
 5    0  0.5684733E-005  0.3359813E+03  0.7546771E-02  0.1068521E+00
         21   -1    0    0  502  501  0.00000000000E+00  0.00000000000E+00  0.29914269540E+03  0.29914269540E+03  0.00000000000E+00 0. -1.
         21   -1    0    0  501  502 -0.00000000000E+00 -0.00000000000E+00 -0.37735647886E+03  0.37735647886E+03  0.00000000000E+00 0. -1.
         25    1    1    2    0    0  0.19415746450E+03 -0.61874400834E+02  0.18106015509E+01  0.23906869468E+03  0.12500000000E+03 0.  0.
         25    1    1    2    0    0 -0.36146320227E+02 -0.92923662686E+02  0.26227856603E+02  0.16203167596E+03  0.12500000000E+03 0.  0.
         25    1    1    2    0    0 -0.15801114427E+03  0.15479806352E+03 -0.10625224161E+03  0.27539880361E+03  0.12500000000E+03 0.  0.
</event>
<event>
 5    0  0.5684733E-005  0.3142683E+03  0.7546771E-02  0.1078318E+00
         21   -1    0    0  502  501  0.00000000000E+00  0.00000000000E+00  0.81431493938E+02  0.81431493938E+02  0.00000000000E+00 0. -1.
         21   -1    0    0  501  502 -0.00000000000E+00 -0.00000000000E+00 -0.12128546977E+04  0.12128546977E+04  0.00000000000E+00 0. -1.
         25    1    1    2    0    0  0.14395206999E+03  0.46117732994E+01 -0.32525487577E+03  0.37704005240E+03  0.12500000000E+03 0.  0.
         25    1    1    2    0    0 -0.22112036488E+02  0.12864869696E+03 -0.18601589749E+03  0.25935755919E+03  0.12500000000E+03 0.  0.
         25    1    1    2    0    0 -0.12184003350E+03 -0.13326047026E+03 -0.62015243054E+03  0.65788858008E+03  0.12500000000E+03 0.  0.
</event>
<event>
 5    0  0.5684733E-005  0.2882669E+03  0.7546771E-02  0.1091257E+00
         21   -1    0    0  502  501  0.00000000000E+00  0.00000000000E+00  0.17197406456E+03  0.17197406456E+03  0.00000000000E+00 0.  1.
         21   -1    0    0  501  502 -0.00000000000E+00 -0.00000000000E+00 -0.48319974240E+03  0.48319974240E+03  0.00000000000E+00 0.  1.
         25    1    1    2    0    0  0.13609327226E+03 -0.30000943696E+02 -0.16253458187E+03  0.24791919184E+03  0.12500000000E+03 0.  0.
         25    1    1    2    0    0 -0.12283551338E+03 -0.43138797274E+02 -0.18384983461E+03  0.25763400564E+03  0.12500000000E+03 0.  0.
         25    1    1    2    0    0 -0.13257758875E+02  0.73139740970E+02  0.35158738642E+02  0.14962060948E+03  0.12500000000E+03 0.  0.
</event>
<event>
 5    0  0.5684733E-005  0.2840448E+03  0.7546771E-02  0.1093500E+00
         21   -1    0    0  502  501  0.00000000000E+00  0.00000000000E+00  0.18373531349E+03  0.18373531349E+03  0.00000000000E+00 0. -1.
         21   -1    0    0  501  502 -0.00000000000E+00 -0.00000000000E+00 -0.43911794444E+03  0.43911794444E+03  0.00000000000E+00 0. -1.
         25    1    1    2    0    0 -0.53091505548E+02 -0.39948094337E+01 -0.92962244798E+02  0.16462577387E+03  0.12500000000E+03 0.  0.
         25    1    1    2    0    0 -0.12570720547E+03  0.61061392172E+02 -0.13486111933E+02  0.18798316503E+03  0.12500000000E+03 0.  0.
         25    1    1    2    0    0  0.17879871102E+03 -0.57066582739E+02 -0.14893427422E+03  0.27024431902E+03  0.12500000000E+03 0.  0.
</event>
<event>
 5    0  0.5684733E-005  0.2463049E+03  0.7546771E-02  0.1115663E+00
         21   -1    0    0  502  501  0.00000000000E+00  0.00000000000E+00  0.97132269943E+02  0.97132269943E+02  0.00000000000E+00 0.  1.
         21   -1    0    0  501  502 -0.00000000000E+00 -0.00000000000E+00 -0.62457218899E+03  0.62457218899E+03  0.00000000000E+00 0.  1.
         25    1    1    2    0    0  0.90233378899E+00 -0.94821949660E+02 -0.63878554963E+02  0.16940332384E+03  0.12500000000E+03 0.  0.
         25    1    1    2    0    0 -0.26135652421E+01  0.86300787237E+02 -0.14511810230E+03  0.21009264674E+03  0.12500000000E+03 0.  0.
         25    1    1    2    0    0  0.17112314531E+01  0.85211624232E+01 -0.31844326178E+03  0.34220848835E+03  0.12500000000E+03 0.  0.
</event>
<event>
 5    0  0.5684733E-005  0.3295225E+03  0.7546771E-02  0.1071348E+00
         21   -1    0    0  502  501  0.00000000000E+00  0.00000000000E+00  0.10835918614E+03  0.10835918614E+03  0.00000000000E+00 0.  1.
         21   -1    0    0  501  502 -0.00000000000E+00 -0.00000000000E+00 -0.10020847280E+04  0.10020847280E+04  0.00000000000E+00 0.  1.
         25    1    1    2    0    0  0.22590952225E+02  0.16746973738E+02 -0.34169001576E+01  0.12816976031E+03  0.12500000000E+03 0.  0.
         25    1    1    2    0    0 -0.48891447029E+02 -0.70965048498E+02 -0.10451676562E+03  0.18432353620E+03  0.12500000000E+03 0.  0.
         25    1    1    2    0    0  0.26300494804E+02  0.54218074760E+02 -0.78579187612E+03  0.79795061767E+03  0.12500000000E+03 0.  0.
</event>
<event>
 5    0  0.5684733E-005  0.2420489E+03  0.7546771E-02  0.1118435E+00
         21   -1    0    0  502  501  0.00000000000E+00  0.00000000000E+00  0.97528930135E+02  0.97528930135E+02  0.00000000000E+00 0.  1.
         21   -1    0    0  501  502 -0.00000000000E+00 -0.00000000000E+00 -0.60072102746E+03  0.60072102746E+03  0.00000000000E+00 0.  1.
         25    1    1    2    0    0  0.35755390370E+02  0.38785731554E+02 -0.25717916158E+03  0.29077293902E+03  0.12500000000E+03 0.  0.
         25    1    1    2    0    0  0.32498823408E+00  0.17981608780E+02 -0.33327057174E+01  0.12633111572E+03  0.12500000000E+03 0.  0.
         25    1    1    2    0    0 -0.36080378604E+02 -0.56767340334E+02 -0.24268023003E+03  0.28114590286E+03  0.12500000000E+03 0.  0.
</event>
<event>
 5    0  0.5684733E-005  0.3661347E+03  0.7546771E-02  0.1056181E+00
         21   -1    0    0  502  501  0.00000000000E+00  0.00000000000E+00  0.15509331004E+03  0.15509331004E+03  0.00000000000E+00 0.  1.
         21   -1    0    0  501  502 -0.00000000000E+00 -0.00000000000E+00 -0.86434814930E+03  0.86434814930E+03  0.00000000000E+00 0.  1.
         25    1    1    2    0    0  0.20366623321E+03 -0.10764876032E+03 -0.27191843966E+03  0.37766761574E+03  0.12500000000E+03 0.  0.
         25    1    1    2    0    0 -0.58788291861E+02 -0.10197981351E+03 -0.24398488752E+03  0.29834471834E+03  0.12500000000E+03 0.  0.
         25    1    1    2    0    0 -0.14487794135E+03  0.20962857383E+03 -0.19335151207E+03  0.34342912526E+03  0.12500000000E+03 0.  0.
</event>
<event>
 5    0  0.5684733E-005  0.4414515E+03  0.7546771E-02  0.1030302E+00
         21   -1    0    0  502  501  0.00000000000E+00  0.00000000000E+00  0.22348461670E+04  0.22348461670E+04  0.00000000000E+00 0. -1.
         21   -1    0    0  501  502 -0.00000000000E+00 -0.00000000000E+00 -0.87200395136E+02  0.87200395136E+02  0.00000000000E+00 0. -1.
         25    1    1    2    0    0 -0.26986107057E+03  0.15017877975E+03  0.67684097783E+03  0.75439868277E+03  0.12500000000E+03 0.  0.
         25    1    1    2    0    0  0.24665429257E+03 -0.24401593938E+03  0.84071183368E+03  0.91804330291E+03  0.12500000000E+03 0.  0.
         25    1    1    2    0    0  0.23206778004E+02  0.93837159628E+02  0.63009296031E+03  0.64960457642E+03  0.12500000000E+03 0.  0.
</event>
<event>
 5    0  0.5684733E-005  0.2529310E+03  0.7546771E-02  0.1111466E+00
         21   -1    0    0  502  501  0.00000000000E+00  0.00000000000E+00  0.72513513984E+03  0.72513513984E+03  0.00000000000E+00 0. -1.
         21   -1    0    0  501  502 -0.00000000000E+00 -0.00000000000E+00 -0.88223693735E+02  0.88223693735E+02  0.00000000000E+00 0. -1.
         25    1    1    2    0    0 -0.23583532925E+02  0.12202005620E+03  0.30791525378E+03  0.35479836619E+03  0.12500000000E+03 0.  0.
         25    1    1    2    0    0 -0.51736124134E+01  0.10846348941E+02  0.18857625141E+03  0.22656215957E+03  0.12500000000E+03 0.  0.
         25    1    1    2    0    0  0.28757145339E+02 -0.13286640514E+03  0.14041994091E+03  0.23199830781E+03  0.12500000000E+03 0.  0.
</event>
<event>
 5    0  0.5684733E-005  0.2287252E+03  0.7546771E-02  0.1127540E+00
         21   -1    0    0  502  501  0.00000000000E+00  0.00000000000E+00  0.20453814632E+04  0.20453814632E+04  0.00000000000E+00 0. -1.
         21   -1    0    0  501  502 -0.00000000000E+00 -0.00000000000E+00 -0.25577252992E+02  0.25577252992E+02  0.00000000000E+00 0. -1.
         25    1    1    2    0    0  0.78770927512E+02  0.64735369994E+01  0.11761201434E+04  0.11853819458E+04  0.12500000000E+03 0.  0.
         25    1    1    2    0    0 -0.84297264807E+01 -0.21472811684E+01  0.41598283849E+03  0.43444492519E+03  0.12500000000E+03 0.  0.
         25    1    1    2    0    0 -0.70341201031E+02 -0.43262558309E+01  0.42770122823E+03  0.45113184512E+03  0.12500000000E+03 0.  0.
</event>
<event>
 5    0  0.5684733E-005  0.2218300E+03  0.7546771E-02  0.1132526E+00
         21   -1    0    0  502  501  0.00000000000E+00  0.00000000000E+00  0.41732225779E+02  0.41732225779E+02  0.00000000000E+00 0.  1.
         21   -1    0    0  501  502 -0.00000000000E+00 -0.00000000000E+00 -0.11791503882E+04  0.11791503882E+04  0.00000000000E+00 0.  1.
         25    1    1    2    0    0  0.82468118362E+02 -0.36041206988E+02 -0.29699495722E+03  0.33456085210E+03  0.12500000000E+03 0.  0.
         25    1    1    2    0    0  0.24402540286E+01  0.33345134743E+01 -0.32603462682E+03  0.34920001676E+03  0.12500000000E+03 0.  0.
         25    1    1    2    0    0 -0.84908372390E+02  0.32706693513E+02 -0.51438857834E+03  0.53712174508E+03  0.12500000000E+03 0.  0.
</event>
<event>
 5    0  0.5684733E-005  0.2196883E+03  0.7546771E-02  0.1134116E+00
         21   -1    0    0  502  501  0.00000000000E+00  0.00000000000E+00  0.20768395054E+03  0.20768395054E+03  0.00000000000E+00 0.  1.
         21   -1    0    0  501  502 -0.00000000000E+00 -0.00000000000E+00 -0.23238657296E+03  0.23238657296E+03  0.00000000000E+00 0.  1.
         25    1    1    2    0    0  0.73138009542E+01 -0.41487081780E+02 -0.16938575750E+02  0.13299092070E+03  0.12500000000E+03 0.  0.
         25    1    1    2    0    0  0.94201600743E+01  0.85222046322E+02 -0.60970840019E+02  0.16338292422E+03  0.12500000000E+03 0.  0.
         25    1    1    2    0    0 -0.16733961029E+02 -0.43734964542E+02  0.53206793356E+02  0.14369667858E+03  0.12500000000E+03 0.  0.
</event>
<event>
 5    0  0.5684733E-005  0.2596007E+03  0.7546771E-02  0.1107383E+00
         21   -1    0    0  502  501  0.00000000000E+00  0.00000000000E+00  0.82661487851E+02  0.82661487851E+02  0.00000000000E+00 0. -1.
         21   -1    0    0  501  502 -0.00000000000E+00 -0.00000000000E+00 -0.81528339816E+03  0.81528339816E+03  0.00000000000E+00 0. -1.
         25    1    1    2    0    0 -0.16093341074E+01  0.98797921948E+02 -0.16444985391E+03  0.22898116470E+03  0.12500000000E+03 0.  0.
         25    1    1    2    0    0  0.19643795204E+01  0.25560838564E+01 -0.45591415888E+03  0.47275058183E+03  0.12500000000E+03 0.  0.
         25    1    1    2    0    0 -0.35504541305E+00 -0.10135400580E+03 -0.11225789752E+03  0.19621313948E+03  0.12500000000E+03 0.  0.
</event>
<event>
 5    0  0.5684733E-005  0.2340021E+03  0.7546771E-02  0.1123854E+00
         21   -1    0    0  502  501  0.00000000000E+00  0.00000000000E+00  0.32885030829E+03  0.32885030829E+03  0.00000000000E+00 0.  1.
         21   -1    0    0  501  502 -0.00000000000E+00 -0.00000000000E+00 -0.16651031310E+03  0.16651031310E+03  0.00000000000E+00 0.  1.
         25    1    1    2    0    0 -0.54077896041E+02 -0.43952222941E+02 -0.20537678785E+02  0.14457874322E+03  0.12500000000E+03 0.  0.
         25    1    1    2    0    0  0.22498689829E+02  0.21179894145E+02  0.36319034459E+01  0.12881370146E+03  0.12500000000E+03 0.  0.
         25    1    1    2    0    0  0.31579206212E+02  0.22772328795E+02  0.17924577052E+03  0.22196817671E+03  0.12500000000E+03 0.  0.
</event>
<event>
 5    0  0.5684733E-005  0.3932838E+03  0.7546771E-02  0.1046130E+00
         21   -1    0    0  502  501  0.00000000000E+00  0.00000000000E+00  0.17792199448E+03  0.17792199448E+03  0.00000000000E+00 0. -1.
         21   -1    0    0  501  502 -0.00000000000E+00 -0.00000000000E+00 -0.86932566044E+03  0.86932566044E+03  0.00000000000E+00 0. -1.
         25    1    1    2    0    0  0.58416791623E+02 -0.18721952879E+02 -0.20081814361E+03  0.24436849196E+03  0.12500000000E+03 0.  0.
         25    1    1    2    0    0 -0.65636748869E+02  0.26249784184E+03 -0.78906461275E+02  0.30832536289E+03  0.12500000000E+03 0.  0.
         25    1    1    2    0    0  0.72199572464E+01 -0.24377588896E+03 -0.41167906108E+03  0.49455380006E+03  0.12500000000E+03 0.  0.
</event>
<event>
 5    0  0.5684733E-005  0.3011152E+03  0.7546771E-02  0.1084684E+00
         21   -1    0    0  502  501  0.00000000000E+00  0.00000000000E+00  0.46940256787E+03  0.46940256787E+03  0.00000000000E+00 0.  1.
         21   -1    0    0  501  502 -0.00000000000E+00 -0.00000000000E+00 -0.19316125302E+03  0.19316125302E+03  0.00000000000E+00 0.  1.
         25    1    1    2    0    0 -0.13042794360E+03  0.11068890041E+03 -0.32202532933E+02  0.21430231980E+03  0.12500000000E+03 0.  0.
         25    1    1    2    0    0  0.39750194119E+02 -0.47333256726E+02  0.66924696785E+02  0.15467524096E+03  0.12500000000E+03 0.  0.
         25    1    1    2    0    0  0.90677749480E+02 -0.63355643681E+02  0.24151915100E+03  0.29358626013E+03  0.12500000000E+03 0.  0.
</event>
<event>
 5    0  0.5684733E-005  0.2496340E+03  0.7546771E-02  0.1113536E+00
         21   -1    0    0  502  501  0.00000000000E+00  0.00000000000E+00  0.10166177580E+03  0.10166177580E+03  0.00000000000E+00 0.  1.
         21   -1    0    0  501  502 -0.00000000000E+00 -0.00000000000E+00 -0.61298501783E+03  0.61298501783E+03  0.00000000000E+00 0.  1.
         25    1    1    2    0    0  0.27498897394E+02  0.13707976845E+03 -0.18629625341E+03  0.26434512727E+03  0.12500000000E+03 0.  0.
         25    1    1    2    0    0  0.45316153851E+01 -0.13292980180E+03 -0.19310322392E+03  0.26571549227E+03  0.12500000000E+03 0.  0.
         25    1    1    2    0    0 -0.32030512779E+02 -0.41499666453E+01 -0.13192376470E+03  0.18458617409E+03  0.12500000000E+03 0.  0.
</event>
<event>
 5    0  0.5684733E-005  0.2601373E+03  0.7546771E-02  0.1107061E+00
         21   -1    0    0  502  501  0.00000000000E+00  0.00000000000E+00  0.77458361298E+03  0.77458361298E+03  0.00000000000E+00 0.  1.
         21   -1    0    0  501  502 -0.00000000000E+00 -0.00000000000E+00 -0.87364867097E+02  0.87364867097E+02  0.00000000000E+00 0.  1.
         25    1    1    2    0    0  0.75881460504E+02  0.71656820849E+02  0.12787114926E+03  0.20704764388E+03  0.12500000000E+03 0.  0.
         25    1    1    2    0    0  0.37161147301E+02  0.33462477246E+02  0.29477681225E+03  0.32406643963E+03  0.12500000000E+03 0.  0.
         25    1    1    2    0    0 -0.11304260780E+03 -0.10511929809E+03  0.26457078438E+03  0.33083439657E+03  0.12500000000E+03 0.  0.
</event>
<event>
 5    0  0.5684733E-005  0.2447832E+03  0.7546771E-02  0.1116647E+00
         21   -1    0    0  502  501  0.00000000000E+00  0.00000000000E+00  0.59452107665E+03  0.59452107665E+03  0.00000000000E+00 0. -1.
         21   -1    0    0  501  502 -0.00000000000E+00 -0.00000000000E+00 -0.10078504090E+03  0.10078504090E+03  0.00000000000E+00 0. -1.
         25    1    1    2    0    0 -0.10512820861E+03  0.28529901504E+02  0.19899072859E+03  0.25901391003E+03  0.12500000000E+03 0.  0.
         25    1    1    2    0    0  0.43254822287E+01  0.50389317669E+02  0.17529163882E+03  0.22115594446E+03  0.12500000000E+03 0.  0.
         25    1    1    2    0    0  0.10080272638E+03 -0.78919219173E+02  0.11945366833E+03  0.21513626305E+03  0.12500000000E+03 0.  0.
</event>
<event>
 5    0  0.5684733E-005  0.3373742E+03  0.7546771E-02  0.1067920E+00
         21   -1    0    0  502  501  0.00000000000E+00  0.00000000000E+00  0.69172556569E+02  0.69172556569E+02  0.00000000000E+00 0. -1.
         21   -1    0    0  501  502 -0.00000000000E+00 -0.00000000000E+00 -0.16454697860E+04  0.16454697860E+04  0.00000000000E+00 0. -1.
         25    1    1    2    0    0  0.13486820148E+02  0.51332023631E+02 -0.79599418204E+03  0.80749526860E+03  0.12500000000E+03 0.  0.
         25    1    1    2    0    0 -0.15087239960E+03 -0.77600968977E+02 -0.63738201846E+03  0.67131604242E+03  0.12500000000E+03 0.  0.
         25    1    1    2    0    0  0.13738557945E+03  0.26268945346E+02 -0.14292102892E+03  0.23583103154E+03  0.12500000000E+03 0.  0.
</event>
<event>
 5    0  0.5684733E-005  0.3112154E+03  0.7546771E-02  0.1079765E+00
         21   -1    0    0  502  501  0.00000000000E+00  0.00000000000E+00  0.14204437268E+04  0.14204437268E+04  0.00000000000E+00 0. -1.
         21   -1    0    0  501  502 -0.00000000000E+00 -0.00000000000E+00 -0.68186441829E+02  0.68186441829E+02  0.00000000000E+00 0. -1.
         25    1    1    2    0    0 -0.92516872795E+02  0.83170714331E+02  0.30480230310E+03  0.35214511704E+03  0.12500000000E+03 0.  0.
         25    1    1    2    0    0  0.11170162926E+03  0.83514144433E+02  0.74857112892E+03  0.77164473779E+03  0.12500000000E+03 0.  0.
         25    1    1    2    0    0 -0.19184756460E+02 -0.16668485876E+03  0.29888385291E+03  0.36484031377E+03  0.12500000000E+03 0.  0.
</event>
<event>
 5    0  0.5684733E-005  0.1977500E+03  0.7546771E-02  0.1151651E+00
         21   -1    0    0  502  501  0.00000000000E+00  0.00000000000E+00  0.62060772862E+02  0.62060772862E+02  0.00000000000E+00 0.  1.
         21   -1    0    0  501  502 -0.00000000000E+00 -0.00000000000E+00 -0.63010902517E+03  0.63010902517E+03  0.00000000000E+00 0.  1.
         25    1    1    2    0    0 -0.22799007767E+02  0.20433561553E+02 -0.21494963311E+03  0.25053077649E+03  0.12500000000E+03 0.  0.
         25    1    1    2    0    0 -0.20927603770E+02 -0.34048151264E+02 -0.19354599114E+03  0.23384245101E+03  0.12500000000E+03 0.  0.
         25    1    1    2    0    0  0.43726611536E+02  0.13614589711E+02 -0.15955262805E+03  0.20779657054E+03  0.12500000000E+03 0.  0.
</event>
<event>
 5    0  0.5684733E-005  0.2711211E+03  0.7546771E-02  0.1100640E+00
         21   -1    0    0  502  501  0.00000000000E+00  0.00000000000E+00  0.51730007069E+03  0.51730007069E+03  0.00000000000E+00 0. -1.
         21   -1    0    0  501  502 -0.00000000000E+00 -0.00000000000E+00 -0.14209669644E+03  0.14209669644E+03  0.00000000000E+00 0. -1.
         25    1    1    2    0    0 -0.26540172904E+02 -0.12365326267E+01 -0.30240004172E+02  0.13132161910E+03  0.12500000000E+03 0.  0.
         25    1    1    2    0    0  0.94624376255E+02 -0.66596545189E+02  0.14535353370E+03  0.22392302733E+03  0.12500000000E+03 0.  0.
         25    1    1    2    0    0 -0.68084203351E+02  0.67833077816E+02  0.26008984473E+03  0.30415212070E+03  0.12500000000E+03 0.  0.
</event>
<event>
 5    0  0.5684733E-005  0.2735493E+03  0.7546771E-02  0.1099265E+00
         21   -1    0    0  502  501  0.00000000000E+00  0.00000000000E+00  0.23994527331E+03  0.23994527331E+03  0.00000000000E+00 0.  1.
         21   -1    0    0  501  502 -0.00000000000E+00 -0.00000000000E+00 -0.31185960640E+03  0.31185960640E+03  0.00000000000E+00 0.  1.
         25    1    1    2    0    0 -0.40641630609E+02  0.11214919748E+03  0.11845061887E+03  0.20948683430E+03  0.12500000000E+03 0.  0.
         25    1    1    2    0    0  0.34676892224E+02 -0.65537806104E+02 -0.65206867407E+02  0.15929415068E+03  0.12500000000E+03 0.  0.
         25    1    1    2    0    0  0.59647383848E+01 -0.46611391379E+02 -0.12515808456E+03  0.18302389473E+03  0.12500000000E+03 0.  0.
</event>
<event>
 5    0  0.5684733E-005  0.2313756E+03  0.7546771E-02  0.1125675E+00
         21   -1    0    0  502  501  0.00000000000E+00  0.00000000000E+00  0.20633017287E+03  0.20633017287E+03  0.00000000000E+00 0. -1.
         21   -1    0    0  501  502 -0.00000000000E+00 -0.00000000000E+00 -0.25946123519E+03  0.25946123519E+03  0.00000000000E+00 0. -1.
         25    1    1    2    0    0 -0.24388876506E+02  0.42836167889E+02 -0.12322979802E+03  0.18231932892E+03  0.12500000000E+03 0.  0.
         25    1    1    2    0    0  0.29477653284E+02 -0.69741526591E+02  0.28330179274E+02  0.14886373511E+03  0.12500000000E+03 0.  0.
         25    1    1    2    0    0 -0.50887767777E+01  0.26905358702E+02  0.41768556433E+02  0.13460834403E+03  0.12500000000E+03 0.  0.
</event>
<event>
 5    0  0.5684733E-005  0.4539597E+03  0.7546771E-02  0.1026548E+00
         21   -1    0    0  502  501  0.00000000000E+00  0.00000000000E+00  0.21988741048E+03  0.21988741048E+03  0.00000000000E+00 0.  1.
         21   -1    0    0  501  502 -0.00000000000E+00 -0.00000000000E+00 -0.93720408742E+03  0.93720408742E+03  0.00000000000E+00 0.  1.
         25    1    1    2    0    0 -0.18232640404E+03  0.90863446772E+02 -0.15170805683E+03  0.28308906386E+03  0.12500000000E+03 0.  0.
         25    1    1    2    0    0 -0.64617884290E+02  0.14218018518E+03  0.29693772354E+01  0.20006122370E+03  0.12500000000E+03 0.  0.
         25    1    1    2    0    0  0.24694428833E+03 -0.23304363195E+03 -0.56857799734E+03  0.67394121034E+03  0.12500000000E+03 0.  0.
</event>
<event>
 5    0  0.5684733E-005  0.3568180E+03  0.7546771E-02  0.1059851E+00
         21   -1    0    0  502  501  0.00000000000E+00  0.00000000000E+00  0.30144657560E+03  0.30144657560E+03  0.00000000000E+00 0. -1.
         21   -1    0    0  501  502 -0.00000000000E+00 -0.00000000000E+00 -0.42236035120E+03  0.42236035120E+03  0.00000000000E+00 0. -1.
         25    1    1    2    0    0 -0.83932482780E+02  0.46784182850E+02  0.63243918079E+02  0.16987705732E+03  0.12500000000E+03 0.  0.
         25    1    1    2    0    0  0.18202107309E+03 -0.31749133964E+02 -0.28742205031E+03  0.36383528356E+03  0.12500000000E+03 0.  0.
         25    1    1    2    0    0 -0.98088590314E+02 -0.15035048887E+02  0.10326435662E+03  0.19009458591E+03  0.12500000000E+03 0.  0.
</event>
<event>
 5    0  0.5684733E-005  0.4178080E+03  0.7546771E-02  0.1037782E+00
         21   -1    0    0  502  501  0.00000000000E+00  0.00000000000E+00  0.72781450802E+02  0.72781450802E+02  0.00000000000E+00 0. -1.
         21   -1    0    0  501  502 -0.00000000000E+00 -0.00000000000E+00 -0.23984615642E+04  0.23984615642E+04  0.00000000000E+00 0. -1.
         25    1    1    2    0    0  0.45858134764E+02  0.42843861157E+02 -0.61426672862E+03  0.62998982440E+03  0.12500000000E+03 0.  0.
         25    1    1    2    0    0  0.26332421245E+03 -0.15093275321E+03 -0.85731903298E+03  0.91800940146E+03  0.12500000000E+03 0.  0.
         25    1    1    2    0    0 -0.30918234721E+03  0.10808889206E+03 -0.85409435179E+03  0.92324378913E+03  0.12500000000E+03 0.  0.
</event>
<event>
 5    0  0.5684733E-005  0.3547526E+03  0.7546771E-02  0.1060681E+00
         21   -1    0    0  502  501  0.00000000000E+00  0.00000000000E+00  0.16210530897E+03  0.16210530897E+03  0.00000000000E+00 0. -1.
         21   -1    0    0  501  502 -0.00000000000E+00 -0.00000000000E+00 -0.77634338113E+03  0.77634338113E+03  0.00000000000E+00 0. -1.
         25    1    1    2    0    0 -0.51838330093E+02  0.35512784430E+02 -0.46028606196E+03  0.48107861016E+03  0.12500000000E+03 0.  0.
         25    1    1    2    0    0 -0.12018208676E+03  0.61888559481E+02 -0.12305083916E+03  0.22145075478E+03  0.12500000000E+03 0.  0.
         25    1    1    2    0    0  0.17202041685E+03 -0.97401343911E+02 -0.30901171040E+02  0.23591932515E+03  0.12500000000E+03 0.  0.
</event>
<event>
 5    0  0.5684733E-005  0.2167635E+03  0.7546771E-02  0.1136319E+00
         21   -1    0    0  502  501  0.00000000000E+00  0.00000000000E+00  0.68467356729E+03  0.68467356729E+03  0.00000000000E+00 0. -1.
         21   -1    0    0  501  502 -0.00000000000E+00 -0.00000000000E+00 -0.68625991815E+02  0.68625991815E+02  0.00000000000E+00 0. -1.
         25    1    1    2    0    0  0.14390105115E+02 -0.49211125471E+02  0.23847714220E+03  0.27408968851E+03  0.12500000000E+03 0.  0.
         25    1    1    2    0    0  0.25470620925E+02  0.74416443476E+02  0.12501821856E+03  0.19349706603E+03  0.12500000000E+03 0.  0.
         25    1    1    2    0    0 -0.39860726039E+02 -0.25205318005E+02  0.25255221470E+03  0.28571280456E+03  0.12500000000E+03 0.  0.
</event>
<event>
 5    0  0.5684733E-005  0.2323572E+03  0.7546771E-02  0.1124992E+00
         21   -1    0    0  502  501  0.00000000000E+00  0.00000000000E+00  0.89960550338E+03  0.89960550338E+03  0.00000000000E+00 0.  1.
         21   -1    0    0  501  502 -0.00000000000E+00 -0.00000000000E+00 -0.60015036313E+02  0.60015036313E+02  0.00000000000E+00 0.  1.
         25    1    1    2    0    0  0.68509583782E+02  0.68070176284E+02  0.33989946482E+03  0.37481163023E+03  0.12500000000E+03 0.  0.
         25    1    1    2    0    0 -0.32800003213E+02  0.36901459903E+02  0.18716695755E+03  0.23042141383E+03  0.12500000000E+03 0.  0.
         25    1    1    2    0    0 -0.35709580569E+02 -0.10497163619E+03  0.31252404470E+03  0.35438749564E+03  0.12500000000E+03 0.  0.
</event>
<event>
 5    0  0.5684733E-005  0.2814587E+03  0.7546771E-02  0.1094895E+00
         21   -1    0    0  502  501  0.00000000000E+00  0.00000000000E+00  0.44265709696E+02  0.44265709696E+02  0.00000000000E+00 0.  1.
         21   -1    0    0  501  502 -0.00000000000E+00 -0.00000000000E+00 -0.17896247767E+04  0.17896247767E+04  0.00000000000E+00 0.  1.
         25    1    1    2    0    0 -0.12474171959E+03  0.52850814417E+02 -0.40369059701E+03  0.44378463618E+03  0.12500000000E+03 0.  0.
         25    1    1    2    0    0  0.18090742726E+03 -0.23794959612E+02 -0.89861249107E+03  0.92543130834E+03  0.12500000000E+03 0.  0.
         25    1    1    2    0    0 -0.56165707669E+02 -0.29055854805E+02 -0.44305597891E+03  0.46467454188E+03  0.12500000000E+03 0.  0.
</event>
<event>
 5    0  0.5684733E-005  0.6867384E+03  0.7546771E-02  0.9740184E-01
         21   -1    0    0  502  501  0.00000000000E+00  0.00000000000E+00  0.62873394865E+03  0.62873394865E+03  0.00000000000E+00 0.  1.
         21   -1    0    0  501  502 -0.00000000000E+00 -0.00000000000E+00 -0.75009416591E+03  0.75009416591E+03  0.00000000000E+00 0.  1.
         25    1    1    2    0    0 -0.36970577770E+03 -0.17670898135E+03 -0.35442272304E+02  0.42987158643E+03  0.12500000000E+03 0.  0.
         25    1    1    2    0    0  0.79025508350E+02 -0.28299769074E+03 -0.20347944010E+03  0.37863122755E+03  0.12500000000E+03 0.  0.
         25    1    1    2    0    0  0.29068026935E+03  0.45970667209E+03  0.11756149513E+03  0.57032530059E+03  0.12500000000E+03 0.  0.
</event>
<event>
 5    0  0.6883956E-005  0.4472560E+03  0.7546771E-02  0.1028544E+00
         21   -1    0    0  502  501  0.00000000000E+00  0.00000000000E+00  0.90353979313E+03  0.90353979313E+03  0.00000000000E+00 0.  1.
         21   -1    0    0  501  502 -0.00000000000E+00 -0.00000000000E+00 -0.22139356391E+03  0.22139356391E+03  0.00000000000E+00 0.  1.
         25    1    1    2    0    0  0.11360093599E+01  0.23884784343E+03  0.58287072865E+02  0.27581146766E+03  0.12500000000E+03 0.  0.
         25    1    1    2    0    0 -0.17906958540E+03 -0.20753601860E+02  0.43679013008E+03  0.48878138891E+03  0.12500000000E+03 0.  0.
         25    1    1    2    0    0  0.17793357604E+03 -0.21809424157E+03  0.18706902627E+03  0.36034050047E+03  0.12500000000E+03 0.  0.
</event>
<event>
 5    0  0.5684733E-005  0.3341643E+03  0.7546771E-02  0.1069309E+00
         21   -1    0    0  502  501  0.00000000000E+00  0.00000000000E+00  0.90411986276E+03  0.90411986276E+03  0.00000000000E+00 0.  1.
         21   -1    0    0  501  502 -0.00000000000E+00 -0.00000000000E+00 -0.12350774108E+03  0.12350774108E+03  0.00000000000E+00 0.  1.
         25    1    1    2    0    0  0.10610888901E+03  0.82590670298E+02  0.15337573663E+03  0.23922673708E+03  0.12500000000E+03 0.  0.
         25    1    1    2    0    0 -0.30696475100E+02 -0.96248337749E+02  0.62119817543E+03  0.64165270143E+03  0.12500000000E+03 0.  0.
         25    1    1    2    0    0 -0.75412413911E+02  0.13657667451E+02  0.60382096252E+01  0.14674816533E+03  0.12500000000E+03 0.  0.
</event>
<event>
 5    0  0.5761597E-005  0.3068626E+03  0.7546771E-02  0.1081860E+00
         21   -1    0    0  502  501  0.00000000000E+00  0.00000000000E+00  0.60965816539E+03  0.60965816539E+03  0.00000000000E+00 0.  1.
         21   -1    0    0  501  502 -0.00000000000E+00 -0.00000000000E+00 -0.15445480181E+03  0.15445480181E+03  0.00000000000E+00 0.  1.
         25    1    1    2    0    0  0.15417953250E+03 -0.43542097053E+02  0.33214417768E+03  0.38937385277E+03  0.12500000000E+03 0.  0.
         25    1    1    2    0    0 -0.16915089954E+03  0.12509434093E+01  0.11945247880E+03  0.24188320811E+03  0.12500000000E+03 0.  0.
         25    1    1    2    0    0  0.14971367039E+02  0.42291153644E+02  0.36067071060E+01  0.13285590632E+03  0.12500000000E+03 0.  0.
</event>
<event>
 5    0  0.5684733E-005  0.4314669E+03  0.7546771E-02  0.1033398E+00
         21   -1    0    0  502  501  0.00000000000E+00  0.00000000000E+00  0.24545690937E+04  0.24545690937E+04  0.00000000000E+00 0.  1.
         21   -1    0    0  501  502 -0.00000000000E+00 -0.00000000000E+00 -0.75843725348E+02  0.75843725348E+02  0.00000000000E+00 0.  1.
         25    1    1    2    0    0  0.21829420420E+03  0.16275362925E+03  0.37667978048E+03  0.48130422857E+03  0.12500000000E+03 0.  0.
         25    1    1    2    0    0 -0.23655162226E+02 -0.15665222871E+03  0.10617845871E+04  0.10807918379E+04  0.12500000000E+03 0.  0.
         25    1    1    2    0    0 -0.19463904198E+03 -0.61014005361E+01  0.94026100084E+03  0.96831675265E+03  0.12500000000E+03 0.  0.
</event>
<event>
 5    0  0.5684733E-005  0.4416821E+03  0.7546771E-02  0.1030232E+00
         21   -1    0    0  502  501  0.00000000000E+00  0.00000000000E+00  0.58523595474E+03  0.58523595474E+03  0.00000000000E+00 0.  1.
         21   -1    0    0  501  502 -0.00000000000E+00 -0.00000000000E+00 -0.33334084486E+03  0.33334084486E+03  0.00000000000E+00 0.  1.
         25    1    1    2    0    0 -0.31775846660E+03  0.67970873693E+02  0.31667484787E+03  0.47063620987E+03  0.12500000000E+03 0.  0.
         25    1    1    2    0    0  0.26198967210E+03 -0.72373302801E+02 -0.81254196804E+02  0.31000601243E+03  0.12500000000E+03 0.  0.
         25    1    1    2    0    0  0.55768794504E+02  0.44024291078E+01  0.16474458806E+02  0.13793457730E+03  0.12500000000E+03 0.  0.
</event>
<event>
 5    0  0.5728045E-005  0.2999991E+03  0.7546771E-02  0.1085241E+00
         21   -1    0    0  502  501  0.00000000000E+00  0.00000000000E+00  0.21765850774E+03  0.21765850774E+03  0.00000000000E+00 0.  1.
         21   -1    0    0  501  502 -0.00000000000E+00 -0.00000000000E+00 -0.41348917659E+03  0.41348917659E+03  0.00000000000E+00 0.  1.
         25    1    1    2    0    0 -0.13235322464E+02  0.12257204274E+03  0.20736963263E+02  0.17678829449E+03  0.12500000000E+03 0.  0.
         25    1    1    2    0    0  0.13453288081E+03 -0.12939216476E+03 -0.13280358883E+03  0.26096593940E+03  0.12500000000E+03 0.  0.
         25    1    1    2    0    0 -0.12129755835E+03  0.68201220194E+01 -0.83764043288E+02  0.19339345044E+03  0.12500000000E+03 0.  0.
</event>
<event>
 5    0  0.5684733E-005  0.4321756E+03  0.7546771E-02  0.1033175E+00
         21   -1    0    0  502  501  0.00000000000E+00  0.00000000000E+00  0.17033033129E+03  0.17033033129E+03  0.00000000000E+00 0.  1.
         21   -1    0    0  501  502 -0.00000000000E+00 -0.00000000000E+00 -0.10965501889E+04  0.10965501889E+04  0.00000000000E+00 0.  1.
         25    1    1    2    0    0  0.42214006537E+02  0.92896194687E+02  0.29166305915E+02  0.16397377454E+03  0.12500000000E+03 0.  0.
         25    1    1    2    0    0 -0.26144651268E+03 -0.37002269748E+02 -0.48559673861E+03  0.56670330819E+03  0.12500000000E+03 0.  0.
         25    1    1    2    0    0  0.21923250614E+03 -0.55893924938E+02 -0.46978942493E+03  0.53620343749E+03  0.12500000000E+03 0.  0.
</event>
<event>
 5    0  0.5684733E-005  0.3618781E+03  0.7546771E-02  0.1057843E+00
         21   -1    0    0  502  501  0.00000000000E+00  0.00000000000E+00  0.38800818850E+03  0.38800818850E+03  0.00000000000E+00 0. -1.
         21   -1    0    0  501  502 -0.00000000000E+00 -0.00000000000E+00 -0.33750774252E+03  0.33750774252E+03  0.00000000000E+00 0. -1.
         25    1    1    2    0    0 -0.47170592449E+01  0.26718393760E+02  0.59832226022E+02  0.14121267112E+03  0.12500000000E+03 0.  0.
         25    1    1    2    0    0 -0.66553990139E+02  0.19528640732E+03  0.14160246362E+03  0.27971855889E+03  0.12500000000E+03 0.  0.
         25    1    1    2    0    0  0.71271049384E+02 -0.22200480108E+03 -0.15093424366E+03  0.30458470101E+03  0.12500000000E+03 0.  0.
</event>
<event>
 5    0  0.5684733E-005  0.3254822E+03  0.7546771E-02  0.1073154E+00
         21   -1    0    0  502  501  0.00000000000E+00  0.00000000000E+00  0.13173899664E+04  0.13173899664E+04  0.00000000000E+00 0.  1.
         21   -1    0    0  501  502 -0.00000000000E+00 -0.00000000000E+00 -0.80415552245E+02  0.80415552245E+02  0.00000000000E+00 0.  1.
         25    1    1    2    0    0 -0.28593134579E+02  0.64942443041E+02  0.32533807290E+02  0.14737210343E+03  0.12500000000E+03 0.  0.
         25    1    1    2    0    0  0.23646317271E+02  0.35950631605E+02  0.86292095415E+03  0.87298864217E+03  0.12500000000E+03 0.  0.
         25    1    1    2    0    0  0.49468173078E+01 -0.10089307465E+03  0.34151965271E+03  0.37744477305E+03  0.12500000000E+03 0.  0.
</event>
<event>
 5    0  0.5684733E-005  0.2924865E+03  0.7546771E-02  0.1089058E+00
         21   -1    0    0  502  501  0.00000000000E+00  0.00000000000E+00  0.14952863992E+04  0.14952863992E+04  0.00000000000E+00 0.  1.
         21   -1    0    0  501  502 -0.00000000000E+00 -0.00000000000E+00 -0.57212033581E+02  0.57212033581E+02  0.00000000000E+00 0.  1.
         25    1    1    2    0    0 -0.36639944135E+02 -0.74082471133E+02  0.98558194353E+03  0.99690895545E+03  0.12500000000E+03 0.  0.
         25    1    1    2    0    0  0.79514564710E+02 -0.23561308544E+02  0.27814437240E+03  0.31601739376E+03  0.12500000000E+03 0.  0.
         25    1    1    2    0    0 -0.42874620575E+02  0.97643779677E+02  0.17434804970E+03  0.23957208358E+03  0.12500000000E+03 0.  0.
</event>
<event>
 5    0  0.5684733E-005  0.2881511E+03  0.7546771E-02  0.1091318E+00
         21   -1    0    0  502  501  0.00000000000E+00  0.00000000000E+00  0.16038301012E+04  0.16038301012E+04  0.00000000000E+00 0.  1.
         21   -1    0    0  501  502 -0.00000000000E+00 -0.00000000000E+00 -0.51770481489E+02  0.51770481489E+02  0.00000000000E+00 0.  1.
         25    1    1    2    0    0 -0.36411649847E+02  0.16256809642E+03  0.47153964044E+03  0.51548892008E+03  0.12500000000E+03 0.  0.
         25    1    1    2    0    0  0.50448139804E+02 -0.18771211537E+02  0.71329587575E+03  0.72616346614E+03  0.12500000000E+03 0.  0.
         25    1    1    2    0    0 -0.14036489957E+02 -0.14379688489E+03  0.36722410350E+03  0.41394819645E+03  0.12500000000E+03 0.  0.
</event>
<event>
 5    0  0.5684733E-005  0.4225433E+03  0.7546771E-02  0.1036242E+00
         21   -1    0    0  502  501  0.00000000000E+00  0.00000000000E+00  0.83224732970E+02  0.83224732970E+02  0.00000000000E+00 0. -1.
         21   -1    0    0  501  502 -0.00000000000E+00 -0.00000000000E+00 -0.21453100220E+04  0.21453100220E+04  0.00000000000E+00 0. -1.
         25    1    1    2    0    0 -0.45242752746E+02 -0.90043006655E+02 -0.98181816206E+03  0.99486006708E+03  0.12500000000E+03 0.  0.
         25    1    1    2    0    0  0.23330839131E+03  0.12196482014E+03 -0.28991850819E+03  0.41107902427E+03  0.12500000000E+03 0.  0.
         25    1    1    2    0    0 -0.18806563856E+03 -0.31921813483E+02 -0.79034861877E+03  0.82259566360E+03  0.12500000000E+03 0.  0.
</event>
<event>
 5    0  0.5684733E-005  0.2972406E+03  0.7546771E-02  0.1086628E+00
         21   -1    0    0  502  501  0.00000000000E+00  0.00000000000E+00  0.15322366774E+03  0.15322366774E+03  0.00000000000E+00 0. -1.
         21   -1    0    0  501  502 -0.00000000000E+00 -0.00000000000E+00 -0.57662096445E+03  0.57662096445E+03  0.00000000000E+00 0. -1.
         25    1    1    2    0    0 -0.50512522234E+02  0.15407983000E+03 -0.11653040979E+03  0.23557683529E+03  0.12500000000E+03 0.  0.
         25    1    1    2    0    0 -0.72078434221E+02  0.73902052715E+01 -0.79101535111E+02  0.16471784564E+03  0.12500000000E+03 0.  0.
         25    1    1    2    0    0  0.12259095645E+03 -0.16147003527E+03 -0.22776535181E+03  0.32954995127E+03  0.12500000000E+03 0.  0.
</event>
<event>
 5    0  0.5684733E-005  0.2686144E+03  0.7546771E-02  0.1102075E+00
         21   -1    0    0  502  501  0.00000000000E+00  0.00000000000E+00  0.42096789122E+03  0.42096789122E+03  0.00000000000E+00 0.  1.
         21   -1    0    0  501  502 -0.00000000000E+00 -0.00000000000E+00 -0.17139949252E+03  0.17139949252E+03  0.00000000000E+00 0.  1.
         25    1    1    2    0    0 -0.88450802204E+02 -0.23676461931E+02  0.72623309460E+02  0.17112353531E+03  0.12500000000E+03 0.  0.
         25    1    1    2    0    0 -0.81545400557E-01  0.55566485523E+02  0.21991584711E+03  0.25898961518E+03  0.12500000000E+03 0.  0.
         25    1    1    2    0    0  0.88532347604E+02 -0.31890023592E+02 -0.42970757869E+02  0.16225423325E+03  0.12500000000E+03 0.  0.
</event>
<event>
 5    0  0.6678169E-005  0.4530851E+03  0.7546771E-02  0.1026806E+00
         21   -1    0    0  502  501  0.00000000000E+00  0.00000000000E+00  0.27602703995E+03  0.27602703995E+03  0.00000000000E+00 0. -1.
         21   -1    0    0  501  502 -0.00000000000E+00 -0.00000000000E+00 -0.74371734209E+03  0.74371734209E+03  0.00000000000E+00 0. -1.
         25    1    1    2    0    0 -0.11677494623E+03 -0.23731401044E+03 -0.29244264257E+03  0.41364480754E+03  0.12500000000E+03 0.  0.
         25    1    1    2    0    0  0.19757373678E+03  0.18971546094E+03 -0.28544447357E+03  0.41488659303E+03  0.12500000000E+03 0.  0.
         25    1    1    2    0    0 -0.80798790550E+02  0.47598549493E+02  0.11019681399E+03  0.19121298147E+03  0.12500000000E+03 0.  0.
</event>
<event>
 5    0  0.5684733E-005  0.5893546E+03  0.7546771E-02  0.9927741E-01
         21   -1    0    0  502  501  0.00000000000E+00  0.00000000000E+00  0.25066051960E+03  0.25066051960E+03  0.00000000000E+00 0.  1.
         21   -1    0    0  501  502 -0.00000000000E+00 -0.00000000000E+00 -0.13856940532E+04  0.13856940532E+04  0.00000000000E+00 0.  1.
         25    1    1    2    0    0  0.11021131265E+03  0.28206291529E+03 -0.45350056221E+03  0.55945847169E+03  0.12500000000E+03 0.  0.
         25    1    1    2    0    0 -0.29903043048E+03 -0.67801766599E+02 -0.40690611210E+01  0.33114624437E+03  0.12500000000E+03 0.  0.
         25    1    1    2    0    0  0.18881911783E+03 -0.21426114870E+03 -0.67746391027E+03  0.74574985673E+03  0.12500000000E+03 0.  0.
</event>
<event>
 5    0  0.5684733E-005  0.3178702E+03  0.7546771E-02  0.1076634E+00
         21   -1    0    0  502  501  0.00000000000E+00  0.00000000000E+00  0.30283417909E+03  0.30283417909E+03  0.00000000000E+00 0.  1.
         21   -1    0    0  501  502 -0.00000000000E+00 -0.00000000000E+00 -0.33365278929E+03  0.33365278929E+03  0.00000000000E+00 0.  1.
         25    1    1    2    0    0  0.30810153911E+02  0.10376668797E+03  0.13507347237E+03  0.21351026686E+03  0.12500000000E+03 0.  0.
         25    1    1    2    0    0  0.16128032240E+02  0.77884505637E+02 -0.12501664643E+03  0.19385631671E+03  0.12500000000E+03 0.  0.
         25    1    1    2    0    0 -0.46938186151E+02 -0.18165119360E+03 -0.40875436135E+02  0.22912038481E+03  0.12500000000E+03 0.  0.
</event>
<event>
 5    0  0.5684733E-005  0.2997608E+03  0.7546771E-02  0.1085360E+00
         21   -1    0    0  502  501  0.00000000000E+00  0.00000000000E+00  0.43013464506E+03  0.43013464506E+03  0.00000000000E+00 0.  1.
         21   -1    0    0  501  502 -0.00000000000E+00 -0.00000000000E+00 -0.20890325095E+03  0.20890325095E+03  0.00000000000E+00 0.  1.
         25    1    1    2    0    0  0.14605989049E+03 -0.11346139836E+03  0.10905780511E+03  0.24844634307E+03  0.12500000000E+03 0.  0.
         25    1    1    2    0    0 -0.13320143741E+03  0.10162822504E+03  0.15175763610E+03  0.25831434178E+03  0.12500000000E+03 0.  0.
         25    1    1    2    0    0 -0.12858453080E+02  0.11833173318E+02 -0.39584047111E+02  0.13227721116E+03  0.12500000000E+03 0.  0.
</event>
<event>
 5    0  0.5684733E-005  0.2613889E+03  0.7546771E-02  0.1106312E+00
         21   -1    0    0  502  501  0.00000000000E+00  0.00000000000E+00  0.11640033508E+03  0.11640033508E+03  0.00000000000E+00 0.  1.
         21   -1    0    0  501  502 -0.00000000000E+00 -0.00000000000E+00 -0.58697560212E+03  0.58697560212E+03  0.00000000000E+00 0.  1.
         25    1    1    2    0    0 -0.57081378856E+02  0.11050654624E+03 -0.19235929755E+03  0.26095417208E+03  0.12500000000E+03 0.  0.
         25    1    1    2    0    0 -0.12114014601E+02  0.38669313350E+02 -0.14949964881E+03  0.19904072483E+03  0.12500000000E+03 0.  0.
         25    1    1    2    0    0  0.69195393457E+02 -0.14917585959E+03 -0.12871632069E+03  0.24338104029E+03  0.12500000000E+03 0.  0.
</event>
<event>
 5    0  0.5684733E-005  0.3471810E+03  0.7546771E-02  0.1063778E+00
         21   -1    0    0  502  501  0.00000000000E+00  0.00000000000E+00  0.30466492407E+03  0.30466492407E+03  0.00000000000E+00 0. -1.
         21   -1    0    0  501  502 -0.00000000000E+00 -0.00000000000E+00 -0.39563025693E+03  0.39563025693E+03  0.00000000000E+00 0. -1.
         25    1    1    2    0    0 -0.20966141918E+03  0.13657745923E+03  0.21619348753E+02  0.28054181382E+03  0.12500000000E+03 0.  0.
         25    1    1    2    0    0  0.18557194591E+03 -0.11196123874E+03 -0.14075513078E+03  0.28707015333E+03  0.12500000000E+03 0.  0.
         25    1    1    2    0    0  0.24089473273E+02 -0.24616220483E+02  0.28170449164E+02  0.13268321386E+03  0.12500000000E+03 0.  0.
</event>
<event>
 5    0  0.5684733E-005  0.2424337E+03  0.7546771E-02  0.1118182E+00
         21   -1    0    0  502  501  0.00000000000E+00  0.00000000000E+00  0.60902722366E+03  0.60902722366E+03  0.00000000000E+00 0.  1.
         21   -1    0    0  501  502 -0.00000000000E+00 -0.00000000000E+00 -0.96504915571E+02  0.96504915571E+02  0.00000000000E+00 0.  1.
         25    1    1    2    0    0  0.72949531877E+01 -0.55542974130E+02  0.25539051887E+03  0.28980606524E+03  0.12500000000E+03 0.  0.
         25    1    1    2    0    0 -0.72494978972E+00  0.10166454681E+03  0.22799380211E+03  0.27918162445E+03  0.12500000000E+03 0.  0.
         25    1    1    2    0    0 -0.65700033979E+01 -0.46121572676E+02  0.29137987114E+02  0.13654444955E+03  0.12500000000E+03 0.  0.
</event>
<event>
 5    0  0.5684733E-005  0.2272679E+03  0.7546771E-02  0.1128578E+00
         21   -1    0    0  502  501  0.00000000000E+00  0.00000000000E+00  0.66448697945E+02  0.66448697945E+02  0.00000000000E+00 0.  1.
         21   -1    0    0  501  502 -0.00000000000E+00 -0.00000000000E+00 -0.77730156944E+03  0.77730156944E+03  0.00000000000E+00 0.  1.
         25    1    1    2    0    0  0.96933856987E+02  0.13677134146E+02 -0.27611503831E+03  0.31850863569E+03  0.12500000000E+03 0.  0.
         25    1    1    2    0    0 -0.68639996157E+02 -0.64533962261E+02 -0.21842319151E+03  0.26871875995E+03  0.12500000000E+03 0.  0.
         25    1    1    2    0    0 -0.28293860831E+02  0.50856828114E+02 -0.21631464168E+03  0.25652287175E+03  0.12500000000E+03 0.  0.
</event>
<event>
 5    0  0.5684733E-005  0.3440727E+03  0.7546771E-02  0.1065074E+00
         21   -1    0    0  502  501  0.00000000000E+00  0.00000000000E+00  0.24553733594E+04  0.24553733594E+04  0.00000000000E+00 0. -1.
         21   -1    0    0  501  502 -0.00000000000E+00 -0.00000000000E+00 -0.48215068844E+02  0.48215068844E+02  0.00000000000E+00 0. -1.
         25    1    1    2    0    0 -0.17319084058E+02 -0.11396021150E+03  0.12353681569E+04  0.12470149813E+04  0.12500000000E+03 0.  0.
         25    1    1    2    0    0 -0.17030933185E+03  0.67037093758E+02  0.51856602073E+03  0.56394588243E+03  0.12500000000E+03 0.  0.
         25    1    1    2    0    0  0.18762841591E+03  0.46923117747E+02  0.65322411298E+03  0.69262756458E+03  0.12500000000E+03 0.  0.
</event>
<event>
 5    0  0.5684733E-005  0.2344569E+03  0.7546771E-02  0.1123542E+00
         21   -1    0    0  502  501  0.00000000000E+00  0.00000000000E+00  0.26046685977E+03  0.26046685977E+03  0.00000000000E+00 0. -1.
         21   -1    0    0  501  502 -0.00000000000E+00 -0.00000000000E+00 -0.21104431981E+03  0.21104431981E+03  0.00000000000E+00 0. -1.
         25    1    1    2    0    0  0.35984630559E+02 -0.38089449075E+02  0.13665383513E+03  0.19247070017E+03  0.12500000000E+03 0.  0.
         25    1    1    2    0    0 -0.14376635315E+02  0.50614390425E+02 -0.28011091201E+02  0.13848510892E+03  0.12500000000E+03 0.  0.
         25    1    1    2    0    0 -0.21607995244E+02 -0.12524941350E+02 -0.59220203975E+02  0.14055537049E+03  0.12500000000E+03 0.  0.
</event>
<event>
 5    0  0.5684733E-005  0.3270328E+03  0.7546771E-02  0.1072457E+00
         21   -1    0    0  502  501  0.00000000000E+00  0.00000000000E+00  0.38200737513E+03  0.38200737513E+03  0.00000000000E+00 0.  1.
         21   -1    0    0  501  502 -0.00000000000E+00 -0.00000000000E+00 -0.27996959843E+03  0.27996959843E+03  0.00000000000E+00 0.  1.
         25    1    1    2    0    0 -0.76378034496E+02 -0.37353198840E+02  0.11193683423E+03  0.18810560990E+03  0.12500000000E+03 0.  0.
         25    1    1    2    0    0  0.16632178860E+03  0.15438701816E+03  0.63906608604E+02  0.26684704113E+03  0.12500000000E+03 0.  0.
         25    1    1    2    0    0 -0.89943754104E+02 -0.11703381932E+03 -0.73805666139E+02  0.20702432253E+03  0.12500000000E+03 0.  0.
</event>
<event>
 5    0  0.5684733E-005  0.3965544E+03  0.7546771E-02  0.1044979E+00
         21   -1    0    0  502  501  0.00000000000E+00  0.00000000000E+00  0.10757021592E+04  0.10757021592E+04  0.00000000000E+00 0. -1.
         21   -1    0    0  501  502 -0.00000000000E+00 -0.00000000000E+00 -0.14618860827E+03  0.14618860827E+03  0.00000000000E+00 0. -1.
         25    1    1    2    0    0 -0.63583213213E+01  0.21357319339E+03  0.59460787513E+03  0.64407877030E+03  0.12500000000E+03 0.  0.
         25    1    1    2    0    0  0.16879320298E+02 -0.29336806973E+03  0.25736128249E+03  0.41013359472E+03  0.12500000000E+03 0.  0.
         25    1    1    2    0    0 -0.10520998977E+02  0.79794876341E+02  0.77544393284E+02  0.16767840242E+03  0.12500000000E+03 0.  0.
</event>
<event>
 5    0  0.5684733E-005  0.2995433E+03  0.7546771E-02  0.1085469E+00
         21   -1    0    0  502  501  0.00000000000E+00  0.00000000000E+00  0.62937866390E+03  0.62937866390E+03  0.00000000000E+00 0. -1.
         21   -1    0    0  501  502 -0.00000000000E+00 -0.00000000000E+00 -0.14256311813E+03  0.14256311813E+03  0.00000000000E+00 0. -1.
         25    1    1    2    0    0 -0.61001747865E+02 -0.50545675328E+02 -0.18447744589E+02  0.14913550153E+03  0.12500000000E+03 0.  0.
         25    1    1    2    0    0 -0.39046823446E+02  0.59312733783E+02  0.71921694377E+02  0.16074944769E+03  0.12500000000E+03 0.  0.
         25    1    1    2    0    0  0.10004857131E+03 -0.87670584544E+01  0.43334159598E+03  0.46205683281E+03  0.12500000000E+03 0.  0.
</event>
<event>
 5    0  0.5684733E-005  0.4747174E+03  0.7546771E-02  0.1020597E+00
         21   -1    0    0  502  501  0.00000000000E+00  0.00000000000E+00  0.11848279335E+04  0.11848279335E+04  0.00000000000E+00 0. -1.
         21   -1    0    0  501  502 -0.00000000000E+00 -0.00000000000E+00 -0.19020199364E+03  0.19020199364E+03  0.00000000000E+00 0. -1.
         25    1    1    2    0    0  0.17709379497E+03  0.11759887109E+03  0.78446556417E+02  0.25878672476E+03  0.12500000000E+03 0.  0.
         25    1    1    2    0    0  0.81081487280E+02 -0.14995937649E+03  0.70792901421E+02  0.22293195614E+03  0.12500000000E+03 0.  0.
         25    1    1    2    0    0 -0.25817528225E+03  0.32360505407E+02  0.84538648203E+03  0.89331124625E+03  0.12500000000E+03 0.  0.
</event>
<event>
 5    0  0.5877901E-005  0.2883576E+03  0.7546771E-02  0.1091210E+00
         21   -1    0    0  502  501  0.00000000000E+00  0.00000000000E+00  0.26194880559E+03  0.26194880559E+03  0.00000000000E+00 0.  1.
         21   -1    0    0  501  502 -0.00000000000E+00 -0.00000000000E+00 -0.31742878541E+03  0.31742878541E+03  0.00000000000E+00 0.  1.
         25    1    1    2    0    0 -0.81603325560E+02 -0.14561725821E+03  0.72400928815E+02  0.22074959371E+03  0.12500000000E+03 0.  0.
         25    1    1    2    0    0 -0.18598073125E+02  0.30619344189E+02 -0.89142494772E+02  0.15765410536E+03  0.12500000000E+03 0.  0.
         25    1    1    2    0    0  0.10020139869E+03  0.11499791402E+03 -0.38738413859E+02  0.20097389193E+03  0.12500000000E+03 0.  0.
</event>
<event>
 5    0  0.5684733E-005  0.3165228E+03  0.7546771E-02  0.1077261E+00
         21   -1    0    0  502  501  0.00000000000E+00  0.00000000000E+00  0.11237282613E+04  0.11237282613E+04  0.00000000000E+00 0.  1.
         21   -1    0    0  501  502 -0.00000000000E+00 -0.00000000000E+00 -0.89155627103E+02  0.89155627103E+02  0.00000000000E+00 0.  1.
         25    1    1    2    0    0  0.10361705618E+02  0.14158830062E+03  0.27164136566E+03  0.33101154565E+03  0.12500000000E+03 0.  0.
         25    1    1    2    0    0  0.79364879067E+02 -0.21658800011E+03  0.37306378784E+03  0.45608193959E+03  0.12500000000E+03 0.  0.
         25    1    1    2    0    0 -0.89726584685E+02  0.74999699489E+02  0.38986748070E+03  0.42579040317E+03  0.12500000000E+03 0.  0.
</event>
<event>
 5    0  0.5684733E-005  0.4753845E+03  0.7546771E-02  0.1020411E+00
         21   -1    0    0  502  501  0.00000000000E+00  0.00000000000E+00  0.83135118609E+03  0.83135118609E+03  0.00000000000E+00 0. -1.
         21   -1    0    0  501  502 -0.00000000000E+00 -0.00000000000E+00 -0.27183512627E+03  0.27183512627E+03  0.00000000000E+00 0. -1.
         25    1    1    2    0    0  0.91911821694E+02 -0.30940337121E+01  0.65982073738E+02  0.16862974253E+03  0.12500000000E+03 0.  0.
         25    1    1    2    0    0 -0.11102868521E+03  0.24981004774E+03  0.57222182555E+03  0.64637082741E+03  0.12500000000E+03 0.  0.
         25    1    1    2    0    0  0.19116863517E+02 -0.24671601403E+03 -0.78687839475E+02  0.28818574241E+03  0.12500000000E+03 0.  0.
</event>
<event>
 5    0  0.5684733E-005  0.2551265E+03  0.7546771E-02  0.1110107E+00
         21   -1    0    0  502  501  0.00000000000E+00  0.00000000000E+00  0.16014475785E+03  0.16014475785E+03  0.00000000000E+00 0. -1.
         21   -1    0    0  501  502 -0.00000000000E+00 -0.00000000000E+00 -0.40644173215E+03  0.40644173215E+03  0.00000000000E+00 0. -1.
         25    1    1    2    0    0 -0.83119464140E+02 -0.84808940312E+02 -0.82676962522E+02  0.19121161525E+03  0.12500000000E+03 0.  0.
         25    1    1    2    0    0 -0.21500138663E+02 -0.43312314830E+01 -0.13857815542E+03  0.18790934168E+03  0.12500000000E+03 0.  0.
         25    1    1    2    0    0  0.10461960280E+03  0.89140171795E+02 -0.25041856356E+02  0.18746553307E+03  0.12500000000E+03 0.  0.
</event>
<event>
 5    0  0.5684733E-005  0.3508396E+03  0.7546771E-02  0.1062271E+00
         21   -1    0    0  502  501  0.00000000000E+00  0.00000000000E+00  0.10848838362E+04  0.10848838362E+04  0.00000000000E+00 0. -1.
         21   -1    0    0  501  502 -0.00000000000E+00 -0.00000000000E+00 -0.11345768642E+03  0.11345768642E+03  0.00000000000E+00 0. -1.
         25    1    1    2    0    0  0.13733243303E+03 -0.53660290974E+02  0.18452282647E+03  0.26723266544E+03  0.12500000000E+03 0.  0.
         25    1    1    2    0    0  0.50691965455E+02  0.73114007123E+02  0.51910565052E+02  0.16197234382E+03  0.12500000000E+03 0.  0.
         25    1    1    2    0    0 -0.18802439848E+03 -0.19453716149E+02  0.73499275826E+03  0.76913651336E+03  0.12500000000E+03 0.  0.
</event>
<event>
 5    0  0.5684733E-005  0.3717141E+03  0.7546771E-02  0.1054039E+00
         21   -1    0    0  502  501  0.00000000000E+00  0.00000000000E+00  0.12066089156E+03  0.12066089156E+03  0.00000000000E+00 0. -1.
         21   -1    0    0  501  502 -0.00000000000E+00 -0.00000000000E+00 -0.11451212239E+04  0.11451212239E+04  0.00000000000E+00 0. -1.
         25    1    1    2    0    0  0.37357644762E+02  0.26337990434E+03 -0.21694634125E+03  0.36531531943E+03  0.12500000000E+03 0.  0.
         25    1    1    2    0    0  0.47178418905E+02 -0.14887078397E+03 -0.31921438473E+03  0.37671094615E+03  0.12500000000E+03 0.  0.
         25    1    1    2    0    0 -0.84536063667E+02 -0.11450912037E+03 -0.48829960637E+03  0.52375584988E+03  0.12500000000E+03 0.  0.
</event>
<event>
 5    0  0.5684733E-005  0.3620704E+03  0.7546771E-02  0.1057767E+00
         21   -1    0    0  502  501  0.00000000000E+00  0.00000000000E+00  0.16710337859E+04  0.16710337859E+04  0.00000000000E+00 0. -1.
         21   -1    0    0  501  502 -0.00000000000E+00 -0.00000000000E+00 -0.78451421481E+02  0.78451421481E+02  0.00000000000E+00 0. -1.
         25    1    1    2    0    0 -0.10076490952E+03 -0.28218799394E+03  0.86305283597E+03  0.92210022698E+03  0.12500000000E+03 0.  0.
         25    1    1    2    0    0  0.50772043209E+02  0.13533868243E+03  0.35859151480E+03  0.40633389450E+03  0.12500000000E+03 0.  0.
         25    1    1    2    0    0  0.49992866308E+02  0.14684931151E+03  0.37093801366E+03  0.42105108591E+03  0.12500000000E+03 0.  0.
</event>
<event>
 5    0  0.5741865E-005  0.2980496E+03  0.7546771E-02  0.1086220E+00
         21   -1    0    0  502  501  0.00000000000E+00  0.00000000000E+00  0.27657094396E+03  0.27657094396E+03  0.00000000000E+00 0.  1.
         21   -1    0    0  501  502 -0.00000000000E+00 -0.00000000000E+00 -0.32119629267E+03  0.32119629267E+03  0.00000000000E+00 0.  1.
         25    1    1    2    0    0  0.88855163136E+02 -0.95410708509E+02 -0.18839132999E+03  0.26098800074E+03  0.12500000000E+03 0.  0.
         25    1    1    2    0    0 -0.32588933366E+02 -0.14759349560E+01  0.99823058995E+02  0.16326009944E+03  0.12500000000E+03 0.  0.
         25    1    1    2    0    0 -0.56266229770E+02  0.96886643465E+02  0.43942922287E+02  0.17351913645E+03  0.12500000000E+03 0.  0.
</event>
<event>
 5    0  0.5684733E-005  0.3862563E+03  0.7546771E-02  0.1048645E+00
         21   -1    0    0  502  501  0.00000000000E+00  0.00000000000E+00  0.99100086416E+03  0.99100086416E+03  0.00000000000E+00 0.  1.
         21   -1    0    0  501  502 -0.00000000000E+00 -0.00000000000E+00 -0.15054872660E+03  0.15054872660E+03  0.00000000000E+00 0.  1.
         25    1    1    2    0    0  0.56131738931E+02 -0.33510079572E+01 -0.38727178805E+02  0.14243172311E+03  0.12500000000E+03 0.  0.
         25    1    1    2    0    0 -0.18787725053E+03  0.11264889711E+03  0.57996992970E+03  0.63243794529E+03  0.12500000000E+03 0.  0.
         25    1    1    2    0    0  0.13174551160E+03 -0.10929788916E+03  0.29920938667E+03  0.36667992237E+03  0.12500000000E+03 0.  0.
</event>
<event>
 5    0  0.5684733E-005  0.3826769E+03  0.7546771E-02  0.1049949E+00
         21   -1    0    0  502  501  0.00000000000E+00  0.00000000000E+00  0.74582074006E+03  0.74582074006E+03  0.00000000000E+00 0.  1.
         21   -1    0    0  501  502 -0.00000000000E+00 -0.00000000000E+00 -0.19634955719E+03  0.19634955719E+03  0.00000000000E+00 0.  1.
         25    1    1    2    0    0 -0.13180088254E+03 -0.13568118924E+03  0.17943300797E+03  0.28914021184E+03  0.12500000000E+03 0.  0.
         25    1    1    2    0    0 -0.34155288156E+02 -0.11433552239E+03  0.17824735644E+02  0.17372943501E+03  0.12500000000E+03 0.  0.
         25    1    1    2    0    0  0.16595617070E+03  0.25001671162E+03  0.35221343926E+03  0.47930065040E+03  0.12500000000E+03 0.  0.
</event>
<event>
 5    0  0.5684733E-005  0.2770909E+03  0.7546771E-02  0.1097289E+00
         21   -1    0    0  502  501  0.00000000000E+00  0.00000000000E+00  0.22642679043E+03  0.22642679043E+03  0.00000000000E+00 0. -1.
         21   -1    0    0  501  502 -0.00000000000E+00 -0.00000000000E+00 -0.33909135680E+03  0.33909135680E+03  0.00000000000E+00 0. -1.
         25    1    1    2    0    0  0.98611616543E+02 -0.46038576511E+02 -0.56397192329E+02  0.17506982820E+03  0.12500000000E+03 0.  0.
         25    1    1    2    0    0 -0.99045757023E+02  0.14059145539E+03  0.24701986211E+02  0.21403552844E+03  0.12500000000E+03 0.  0.
         25    1    1    2    0    0  0.43414048077E+00 -0.94552878879E+02 -0.80969360251E+02  0.17641279058E+03  0.12500000000E+03 0.  0.
</event>
<event>
 5    0  0.5684733E-005  0.2792819E+03  0.7546771E-02  0.1096082E+00
         21   -1    0    0  502  501  0.00000000000E+00  0.00000000000E+00  0.20884628167E+03  0.20884628167E+03  0.00000000000E+00 0.  1.
         21   -1    0    0  501  502 -0.00000000000E+00 -0.00000000000E+00 -0.37347265656E+03  0.37347265656E+03  0.00000000000E+00 0.  1.
         25    1    1    2    0    0 -0.11721269357E+03 -0.89980504911E+02  0.38682963662E+02  0.19737446257E+03  0.12500000000E+03 0.  0.
         25    1    1    2    0    0 -0.20970248173E+02  0.23408422157E+02 -0.85268835677E+02  0.15454280920E+03  0.12500000000E+03 0.  0.
         25    1    1    2    0    0  0.13818294174E+03  0.66572082754E+02 -0.11804050287E+03  0.23040166647E+03  0.12500000000E+03 0.  0.
</event>
<event>
 5    0  0.5684733E-005  0.3225963E+03  0.7546771E-02  0.1074461E+00
         21   -1    0    0  502  501  0.00000000000E+00  0.00000000000E+00  0.14467077059E+03  0.14467077059E+03  0.00000000000E+00 0. -1.
         21   -1    0    0  501  502 -0.00000000000E+00 -0.00000000000E+00 -0.71934643619E+03  0.71934643619E+03  0.00000000000E+00 0. -1.
         25    1    1    2    0    0  0.14170187716E+03  0.23778700613E+02 -0.47892571503E+01  0.19050665494E+03  0.12500000000E+03 0.  0.
         25    1    1    2    0    0 -0.52579412480E+02 -0.61988375159E+02 -0.10479064375E+03  0.18224497878E+03  0.12500000000E+03 0.  0.
         25    1    1    2    0    0 -0.89122464682E+02  0.38209674546E+02 -0.46509576469E+03  0.49126557306E+03  0.12500000000E+03 0.  0.
</event>
<event>
 5    0  0.5684733E-005  0.2370558E+03  0.7546771E-02  0.1121770E+00
         21   -1    0    0  502  501  0.00000000000E+00  0.00000000000E+00  0.14220914741E+04  0.14220914741E+04  0.00000000000E+00 0. -1.
         21   -1    0    0  501  502 -0.00000000000E+00 -0.00000000000E+00 -0.39516051500E+02  0.39516051500E+02  0.00000000000E+00 0. -1.
         25    1    1    2    0    0  0.19902922175E+02  0.10742425049E+03  0.40932897655E+03  0.44171405564E+03  0.12500000000E+03 0.  0.
         25    1    1    2    0    0  0.19551076788E+02  0.12325724981E+02  0.42675191650E+03  0.44528234452E+03  0.12500000000E+03 0.  0.
         25    1    1    2    0    0 -0.39453998963E+02 -0.11974997547E+03  0.54649452955E+03  0.57461112545E+03  0.12500000000E+03 0.  0.
</event>
<event>
 5    0  0.5684733E-005  0.3405746E+03  0.7546771E-02  0.1066551E+00
         21   -1    0    0  502  501  0.00000000000E+00  0.00000000000E+00  0.12515642182E+03  0.12515642182E+03  0.00000000000E+00 0. -1.
         21   -1    0    0  501  502 -0.00000000000E+00 -0.00000000000E+00 -0.92676862227E+03  0.92676862227E+03  0.00000000000E+00 0. -1.
         25    1    1    2    0    0  0.21627488928E+03 -0.95693221675E+02 -0.15754651669E+03  0.31044794302E+03  0.12500000000E+03 0.  0.
         25    1    1    2    0    0 -0.33792522046E+02  0.60764067487E+02 -0.26835253825E+03  0.30409257017E+03  0.12500000000E+03 0.  0.
         25    1    1    2    0    0 -0.18248236723E+03  0.34929154187E+02 -0.37571314550E+03  0.43738453090E+03  0.12500000000E+03 0.  0.
</event>
<event>
 5    0  0.5684733E-005  0.4565820E+03  0.7546771E-02  0.1025777E+00
         21   -1    0    0  502  501  0.00000000000E+00  0.00000000000E+00  0.19960304855E+03  0.19960304855E+03  0.00000000000E+00 0.  1.
         21   -1    0    0  501  502 -0.00000000000E+00 -0.00000000000E+00 -0.10444087290E+04  0.10444087290E+04  0.00000000000E+00 0.  1.
         25    1    1    2    0    0  0.12590512227E+03 -0.16598052976E+03 -0.12875072304E+03  0.27496069675E+03  0.12500000000E+03 0.  0.
         25    1    1    2    0    0 -0.96278835266E+02  0.36880826760E+03 -0.35623432596E+03  0.53648583146E+03  0.12500000000E+03 0.  0.
         25    1    1    2    0    0 -0.29626287002E+02 -0.20282773784E+03 -0.35982063147E+03  0.43256524935E+03  0.12500000000E+03 0.  0.
</event>
<event>
 5    0  0.5684733E-005  0.2666139E+03  0.7546771E-02  0.1103233E+00
         21   -1    0    0  502  501  0.00000000000E+00  0.00000000000E+00  0.11569596939E+04  0.11569596939E+04  0.00000000000E+00 0. -1.
         21   -1    0    0  501  502 -0.00000000000E+00 -0.00000000000E+00 -0.61439461042E+02  0.61439461042E+02  0.00000000000E+00 0. -1.
         25    1    1    2    0    0 -0.41302380721E+02 -0.94999670366E+02  0.68145030761E+03  0.70052148130E+03  0.12500000000E+03 0.  0.
         25    1    1    2    0    0  0.23133824900E+02  0.87476693924E+02  0.11289520316E+03  0.19120060861E+03  0.12500000000E+03 0.  0.
         25    1    1    2    0    0  0.18168555821E+02  0.75229764426E+01  0.30117472207E+03  0.32667706502E+03  0.12500000000E+03 0.  0.
</event>
<event>
 5    0  0.5684733E-005  0.3404064E+03  0.7546771E-02  0.1066623E+00
         21   -1    0    0  502  501  0.00000000000E+00  0.00000000000E+00  0.19817794060E+03  0.19817794060E+03  0.00000000000E+00 0.  1.
         21   -1    0    0  501  502 -0.00000000000E+00 -0.00000000000E+00 -0.58470932656E+03  0.58470932656E+03  0.00000000000E+00 0.  1.
         25    1    1    2    0    0  0.15403320509E+02  0.14305149186E+02  0.18421685690E+02  0.12808691611E+03  0.12500000000E+03 0.  0.
         25    1    1    2    0    0  0.11418131833E+03 -0.82644658831E+02  0.18808785984E+02  0.18933114778E+03  0.12500000000E+03 0.  0.
         25    1    1    2    0    0 -0.12958463884E+03  0.68339509646E+02 -0.42376185764E+03  0.46546920326E+03  0.12500000000E+03 0.  0.
</event>
<event>
 5    0  0.5684733E-005  0.4273919E+03  0.7546771E-02  0.1034687E+00
         21   -1    0    0  502  501  0.00000000000E+00  0.00000000000E+00  0.14676357864E+04  0.14676357864E+04  0.00000000000E+00 0.  1.
         21   -1    0    0  501  502 -0.00000000000E+00 -0.00000000000E+00 -0.12446127619E+03  0.12446127619E+03  0.00000000000E+00 0.  1.
         25    1    1    2    0    0  0.16717294014E+02 -0.13352381520E+03  0.14900196810E+03  0.23650510279E+03  0.12500000000E+03 0.  0.
         25    1    1    2    0    0  0.19564230691E+03  0.13826715720E+03  0.21339127885E+03  0.34431752337E+03  0.12500000000E+03 0.  0.
         25    1    1    2    0    0 -0.21235960092E+03 -0.47433419997E+01  0.98078126327E+03  0.10112744364E+04  0.12500000000E+03 0.  0.
</event>
<event>
 5    0  0.5684733E-005  0.2166861E+03  0.7546771E-02  0.1136378E+00
         21   -1    0    0  502  501  0.00000000000E+00  0.00000000000E+00  0.30370594441E+03  0.30370594441E+03  0.00000000000E+00 0. -1.
         21   -1    0    0  501  502 -0.00000000000E+00 -0.00000000000E+00 -0.15459973411E+03  0.15459973411E+03  0.00000000000E+00 0. -1.
         25    1    1    2    0    0 -0.13591870052E+02  0.67256671735E+01  0.28717436268E+02  0.12914977614E+03  0.12500000000E+03 0.  0.
         25    1    1    2    0    0  0.15202571789E+02  0.77120469685E+02  0.21906888744E+02  0.14927691318E+03  0.12500000000E+03 0.  0.
         25    1    1    2    0    0 -0.16107017377E+01 -0.83846136859E+02  0.98481885285E+02  0.17987898920E+03  0.12500000000E+03 0.  0.
</event>
<event>
 5    0  0.5684733E-005  0.2864514E+03  0.7546771E-02  0.1092217E+00
         21   -1    0    0  502  501  0.00000000000E+00  0.00000000000E+00  0.15933775598E+04  0.15933775598E+04  0.00000000000E+00 0.  1.
         21   -1    0    0  501  502 -0.00000000000E+00 -0.00000000000E+00 -0.51497138011E+02  0.51497138011E+02  0.00000000000E+00 0.  1.
         25    1    1    2    0    0  0.12702525002E+03 -0.10561921249E+02  0.60369205551E+03  0.62953638990E+03  0.12500000000E+03 0.  0.
         25    1    1    2    0    0 -0.70720165310E+02  0.85341699862E+02  0.19897126227E+03  0.25980590973E+03  0.12500000000E+03 0.  0.
         25    1    1    2    0    0 -0.56305084709E+02 -0.74779778613E+02  0.73921710398E+03  0.75553239816E+03  0.12500000000E+03 0.  0.
</event>
<event>
 5    0  0.5684733E-005  0.3865849E+03  0.7546771E-02  0.1048526E+00
         21   -1    0    0  502  501  0.00000000000E+00  0.00000000000E+00  0.39626034983E+03  0.39626034983E+03  0.00000000000E+00 0.  1.
         21   -1    0    0  501  502 -0.00000000000E+00 -0.00000000000E+00 -0.37714572031E+03  0.37714572031E+03  0.00000000000E+00 0.  1.
         25    1    1    2    0    0  0.59637015635E+02 -0.46694426704E+02 -0.26889197726E+02  0.14861013449E+03  0.12500000000E+03 0.  0.
         25    1    1    2    0    0  0.50898712185E+02  0.25682944683E+03  0.16219491787E+03  0.33239168919E+03  0.12500000000E+03 0.  0.
         25    1    1    2    0    0 -0.11053572782E+03 -0.21013502012E+03 -0.11619109062E+03  0.29240424646E+03  0.12500000000E+03 0.  0.
</event>
<event>
 5    0  0.5684733E-005  0.3273956E+03  0.7546771E-02  0.1072295E+00
         21   -1    0    0  502  501  0.00000000000E+00  0.00000000000E+00  0.20302746963E+04  0.20302746963E+04  0.00000000000E+00 0. -1.
         21   -1    0    0  501  502 -0.00000000000E+00 -0.00000000000E+00 -0.52794770794E+02  0.52794770794E+02  0.00000000000E+00 0. -1.
         25    1    1    2    0    0 -0.11751070436E+03 -0.79799034160E+02  0.11031793013E+04  0.11192882660E+04  0.12500000000E+03 0.  0.
         25    1    1    2    0    0  0.13394104872E+03 -0.27038610007E+02  0.69795283499E+03  0.72210418281E+03  0.12500000000E+03 0.  0.
         25    1    1    2    0    0 -0.16430344361E+02  0.10683764417E+03  0.17634778923E+03  0.24167701834E+03  0.12500000000E+03 0.  0.
</event>
<event>
 5    0  0.5684733E-005  0.4158700E+03  0.7546771E-02  0.1038419E+00
         21   -1    0    0  502  501  0.00000000000E+00  0.00000000000E+00  0.35656210461E+03  0.35656210461E+03  0.00000000000E+00 0.  1.
         21   -1    0    0  501  502 -0.00000000000E+00 -0.00000000000E+00 -0.48504282127E+03  0.48504282127E+03  0.00000000000E+00 0.  1.
         25    1    1    2    0    0 -0.11709633641E+03 -0.21973201038E+03  0.37745568995E+02  0.28114664566E+03  0.12500000000E+03 0.  0.
         25    1    1    2    0    0 -0.87930103993E+02  0.16366031926E+03  0.53448306987E+02  0.23021321597E+03  0.12500000000E+03 0.  0.
         25    1    1    2    0    0  0.20502644040E+03  0.56071691118E+02 -0.21967459264E+03  0.33024506425E+03  0.12500000000E+03 0.  0.
</event>
<event>
 5    0  0.5684733E-005  0.2756003E+03  0.7546771E-02  0.1098116E+00
         21   -1    0    0  502  501  0.00000000000E+00  0.00000000000E+00  0.41776397992E+03  0.41776397992E+03  0.00000000000E+00 0.  1.
         21   -1    0    0  501  502 -0.00000000000E+00 -0.00000000000E+00 -0.18181450608E+03  0.18181450608E+03  0.00000000000E+00 0.  1.
         25    1    1    2    0    0 -0.20229295225E+02 -0.91377620837E+01  0.42210543496E+02  0.13378883759E+03  0.12500000000E+03 0.  0.
         25    1    1    2    0    0  0.99926248047E+02  0.98478412037E+02  0.22152893887E+03  0.29048807797E+03  0.12500000000E+03 0.  0.
         25    1    1    2    0    0 -0.79696952822E+02 -0.89340649953E+02 -0.27790008525E+02  0.17530157043E+03  0.12500000000E+03 0.  0.
</event>
<event>
 5    0  0.5684733E-005  0.2755161E+03  0.7546771E-02  0.1098163E+00
         21   -1    0    0  502  501  0.00000000000E+00  0.00000000000E+00  0.11969087114E+04  0.11969087114E+04  0.00000000000E+00 0.  1.
         21   -1    0    0  501  502 -0.00000000000E+00 -0.00000000000E+00 -0.63420977438E+02  0.63420977438E+02  0.00000000000E+00 0.  1.
         25    1    1    2    0    0  0.14645234187E+03 -0.71043573356E+01  0.61420660983E+03  0.64371850983E+03  0.12500000000E+03 0.  0.
         25    1    1    2    0    0 -0.99015700872E+02  0.60531152168E+02  0.37890504852E+03  0.41552637124E+03  0.12500000000E+03 0.  0.
         25    1    1    2    0    0 -0.47436640997E+02 -0.53426794832E+02  0.14037607563E+03  0.20108480779E+03  0.12500000000E+03 0.  0.
</event>
<event>
 5    0  0.5684733E-005  0.2896472E+03  0.7546771E-02  0.1090534E+00
         21   -1    0    0  502  501  0.00000000000E+00  0.00000000000E+00  0.22500816468E+03  0.22500816468E+03  0.00000000000E+00 0. -1.
         21   -1    0    0  501  502 -0.00000000000E+00 -0.00000000000E+00 -0.37285527878E+03  0.37285527878E+03  0.00000000000E+00 0. -1.
         25    1    1    2    0    0 -0.34726687688E+01 -0.15610495988E+03  0.22584614002E+02  0.20128557504E+03  0.12500000000E+03 0.  0.
         25    1    1    2    0    0 -0.44002919445E+02 -0.29576611898E+01 -0.12845571225E+03  0.18458297508E+03  0.12500000000E+03 0.  0.
         25    1    1    2    0    0  0.47475588213E+02  0.15906262107E+03 -0.41976015866E+02  0.21199489335E+03  0.12500000000E+03 0.  0.
</event>
<event>
 5    0  0.5684733E-005  0.2605634E+03  0.7546771E-02  0.1106805E+00
         21   -1    0    0  502  501  0.00000000000E+00  0.00000000000E+00  0.19167419127E+03  0.19167419127E+03  0.00000000000E+00 0. -1.
         21   -1    0    0  501  502 -0.00000000000E+00 -0.00000000000E+00 -0.35421185060E+03  0.35421185060E+03  0.00000000000E+00 0. -1.
         25    1    1    2    0    0 -0.61880806828E+01 -0.15557223750E+03 -0.43261223754E+02  0.20429769187E+03  0.12500000000E+03 0.  0.
         25    1    1    2    0    0  0.60837268389E+02  0.10613035389E+03 -0.69004302623E+02  0.18801973041E+03  0.12500000000E+03 0.  0.
         25    1    1    2    0    0 -0.54649187706E+02  0.49441883609E+02 -0.50272132946E+02  0.15356861959E+03  0.12500000000E+03 0.  0.
</event>
<event>
 5    0  0.5684733E-005  0.3100193E+03  0.7546771E-02  0.1080337E+00
         21   -1    0    0  502  501  0.00000000000E+00  0.00000000000E+00  0.16976481453E+03  0.16976481453E+03  0.00000000000E+00 0. -1.
         21   -1    0    0  501  502 -0.00000000000E+00 -0.00000000000E+00 -0.56614764285E+03  0.56614764285E+03  0.00000000000E+00 0. -1.
         25    1    1    2    0    0 -0.47404703731E+02 -0.13997200676E+03 -0.13582043311E+03  0.23645625105E+03  0.12500000000E+03 0.  0.
         25    1    1    2    0    0  0.32662113937E+02  0.13406594367E+03 -0.31202076467E+03  0.36334893494E+03  0.12500000000E+03 0.  0.
         25    1    1    2    0    0  0.14742589794E+02  0.59060630955E+01  0.51458369466E+02  0.13610727138E+03  0.12500000000E+03 0.  0.
</event>
<event>
 5    0  0.5684733E-005  0.2466477E+03  0.7546771E-02  0.1115442E+00
         21   -1    0    0  502  501  0.00000000000E+00  0.00000000000E+00  0.14253302598E+04  0.14253302598E+04  0.00000000000E+00 0. -1.
         21   -1    0    0  501  502 -0.00000000000E+00 -0.00000000000E+00 -0.42681405345E+02  0.42681405345E+02  0.00000000000E+00 0. -1.
         25    1    1    2    0    0  0.19001527903E+02  0.21743587761E+02  0.52451759032E+03  0.53997920722E+03  0.12500000000E+03 0.  0.
         25    1    1    2    0    0  0.11215467367E+02 -0.11142337568E+03  0.62460031019E+03  0.64675459244E+03  0.12500000000E+03 0.  0.
         25    1    1    2    0    0 -0.30216995271E+02  0.89679787921E+02  0.23353095398E+03  0.28127786552E+03  0.12500000000E+03 0.  0.
</event>
<event>
 5    0  0.5684733E-005  0.3238488E+03  0.7546771E-02  0.1073891E+00
         21   -1    0    0  502  501  0.00000000000E+00  0.00000000000E+00  0.28848447987E+03  0.28848447987E+03  0.00000000000E+00 0. -1.
         21   -1    0    0  501  502 -0.00000000000E+00 -0.00000000000E+00 -0.36354836035E+03  0.36354836035E+03  0.00000000000E+00 0. -1.
         25    1    1    2    0    0 -0.13721054425E+03  0.43314106277E+02 -0.10299472976E+03  0.21664662382E+03  0.12500000000E+03 0.  0.
         25    1    1    2    0    0  0.20222929027E+02 -0.33888493328E+02  0.16862947088E+03  0.21358439851E+03  0.12500000000E+03 0.  0.
         25    1    1    2    0    0  0.11698761522E+03 -0.94256129494E+01 -0.14069862160E+03  0.22180181788E+03  0.12500000000E+03 0.  0.
</event>
<event>
 5    0  0.5684733E-005  0.2856601E+03  0.7546771E-02  0.1092637E+00
         21   -1    0    0  502  501  0.00000000000E+00  0.00000000000E+00  0.14034187525E+04  0.14034187525E+04  0.00000000000E+00 0. -1.
         21   -1    0    0  501  502 -0.00000000000E+00 -0.00000000000E+00 -0.58144946154E+02  0.58144946154E+02  0.00000000000E+00 0. -1.
         25    1    1    2    0    0 -0.49144757464E+02  0.14786950987E+02  0.89451321886E+03  0.90466168253E+03  0.12500000000E+03 0.  0.
         25    1    1    2    0    0  0.39892791971E+02  0.78630369879E+01  0.39780639001E+03  0.41896084081E+03  0.12500000000E+03 0.  0.
         25    1    1    2    0    0  0.92519654925E+01 -0.22649987975E+02  0.52954197488E+02  0.13794117533E+03  0.12500000000E+03 0.  0.
</event>
<event>
 5    0  0.5684733E-005  0.2687959E+03  0.7546771E-02  0.1101971E+00
         21   -1    0    0  502  501  0.00000000000E+00  0.00000000000E+00  0.18993639282E+03  0.18993639282E+03  0.00000000000E+00 0.  1.
         21   -1    0    0  501  502 -0.00000000000E+00 -0.00000000000E+00 -0.38039700867E+03  0.38039700867E+03  0.00000000000E+00 0.  1.
         25    1    1    2    0    0  0.43386711247E+02 -0.11680512091E+03 -0.89079017840E+02  0.19770157916E+03  0.12500000000E+03 0.  0.
         25    1    1    2    0    0 -0.10738810743E+03  0.25001589774E+02  0.16630310761E+02  0.16750776802E+03  0.12500000000E+03 0.  0.
         25    1    1    2    0    0  0.64001396188E+02  0.91803531136E+02 -0.11801190877E+03  0.20512405431E+03  0.12500000000E+03 0.  0.
</event>
<event>
 5    0  0.5684733E-005  0.2229063E+03  0.7546771E-02  0.1131735E+00
         21   -1    0    0  502  501  0.00000000000E+00  0.00000000000E+00  0.49695533972E+03  0.49695533972E+03  0.00000000000E+00 0. -1.
         21   -1    0    0  501  502 -0.00000000000E+00 -0.00000000000E+00 -0.99983254273E+02  0.99983254273E+02  0.00000000000E+00 0. -1.
         25    1    1    2    0    0 -0.58519202374E+02 -0.85073866429E+02  0.84982404624E+02  0.18305482482E+03  0.12500000000E+03 0.  0.
         25    1    1    2    0    0  0.31087832190E+02  0.44373637631E+02  0.17831641981E+03  0.22440414123E+03  0.12500000000E+03 0.  0.
         25    1    1    2    0    0  0.27431370184E+02  0.40700228798E+02  0.13367326102E+03  0.18947962794E+03  0.12500000000E+03 0.  0.
</event>
<event>
 5    0  0.5684733E-005  0.3768229E+03  0.7546771E-02  0.1052114E+00
         21   -1    0    0  502  501  0.00000000000E+00  0.00000000000E+00  0.63264802789E+03  0.63264802789E+03  0.00000000000E+00 0.  1.
         21   -1    0    0  501  502 -0.00000000000E+00 -0.00000000000E+00 -0.22444625245E+03  0.22444625245E+03  0.00000000000E+00 0.  1.
         25    1    1    2    0    0 -0.44096342230E+02 -0.45396760941E+02  0.71986885967E+02  0.15751972909E+03  0.12500000000E+03 0.  0.
         25    1    1    2    0    0 -0.22151127660E+03  0.77520239290E+02  0.19598190874E+02  0.26661905830E+03  0.12500000000E+03 0.  0.
         25    1    1    2    0    0  0.26560761883E+03 -0.32123478349E+02  0.31661669861E+03  0.43295549295E+03  0.12500000000E+03 0.  0.
</event>
<event>
 5    0  0.5684733E-005  0.7467036E+03  0.7546771E-02  0.9640536E-01
         21   -1    0    0  502  501  0.00000000000E+00  0.00000000000E+00  0.12446705347E+04  0.12446705347E+04  0.00000000000E+00 0.  1.
         21   -1    0    0  501  502 -0.00000000000E+00 -0.00000000000E+00 -0.44796296897E+03  0.44796296897E+03  0.00000000000E+00 0.  1.
         25    1    1    2    0    0  0.11556300899E+03  0.13085223138E+02  0.42920186432E+03  0.46191478916E+03  0.12500000000E+03 0.  0.
         25    1    1    2    0    0 -0.31042525641E+03  0.20560670960E+03  0.67952836440E+03  0.78487053510E+03  0.12500000000E+03 0.  0.
         25    1    1    2    0    0  0.19486224742E+03 -0.21869193274E+03 -0.31202266296E+03  0.44584817944E+03  0.12500000000E+03 0.  0.
</event>
<event>
 5    0  0.5684733E-005  0.2470450E+03  0.7546771E-02  0.1115187E+00
         21   -1    0    0  502  501  0.00000000000E+00  0.00000000000E+00  0.53893983194E+03  0.53893983194E+03  0.00000000000E+00 0. -1.
         21   -1    0    0  501  502 -0.00000000000E+00 -0.00000000000E+00 -0.11324310342E+03  0.11324310342E+03  0.00000000000E+00 0. -1.
         25    1    1    2    0    0  0.49211251454E+02 -0.25973002903E+02  0.21638275978E+01  0.13684307180E+03  0.12500000000E+03 0.  0.
         25    1    1    2    0    0  0.19725787850E+02 -0.50082663716E+01  0.10354213097E+03  0.16358533652E+03  0.12500000000E+03 0.  0.
         25    1    1    2    0    0 -0.68937039304E+02  0.30981269274E+02  0.31999076995E+03  0.35175452703E+03  0.12500000000E+03 0.  0.
</event>
<event>
 5    0  0.5684733E-005  0.2853051E+03  0.7546771E-02  0.1092826E+00
         21   -1    0    0  502  501  0.00000000000E+00  0.00000000000E+00  0.53158886678E+02  0.53158886678E+02  0.00000000000E+00 0. -1.
         21   -1    0    0  501  502 -0.00000000000E+00 -0.00000000000E+00 -0.15312400304E+04  0.15312400304E+04  0.00000000000E+00 0. -1.
         25    1    1    2    0    0  0.52095012645E+02 -0.72994809815E+01 -0.16175934878E+03  0.21108827462E+03  0.12500000000E+03 0.  0.
         25    1    1    2    0    0  0.62843882161E+02  0.98159035203E+02 -0.87897545571E+03  0.89543698910E+03  0.12500000000E+03 0.  0.
         25    1    1    2    0    0 -0.11493889481E+03 -0.90859554222E+02 -0.43734633928E+03  0.47787365340E+03  0.12500000000E+03 0.  0.
</event>
<event>
 5    0  0.7386515E-005  0.2931156E+03  0.7546771E-02  0.1088734E+00
         21   -1    0    0  502  501  0.00000000000E+00  0.00000000000E+00  0.22962196303E+03  0.22962196303E+03  0.00000000000E+00 0.  1.
         21   -1    0    0  501  502 -0.00000000000E+00 -0.00000000000E+00 -0.37416619077E+03  0.37416619077E+03  0.00000000000E+00 0.  1.
         25    1    1    2    0    0 -0.27943158136E+02 -0.16006877229E+03 -0.13779820425E+03  0.24701452800E+03  0.12500000000E+03 0.  0.
         25    1    1    2    0    0 -0.56438604168E+02  0.36531080249E+02  0.55089280226E+02  0.15224869346E+03  0.12500000000E+03 0.  0.
         25    1    1    2    0    0  0.84381762304E+02  0.12353769204E+03 -0.61835303705E+02  0.20452493234E+03  0.12500000000E+03 0.  0.
</event>
<event>
 5    0  0.5684733E-005  0.3235028E+03  0.7546771E-02  0.1074048E+00
         21   -1    0    0  502  501  0.00000000000E+00  0.00000000000E+00  0.25747620137E+03  0.25747620137E+03  0.00000000000E+00 0.  1.
         21   -1    0    0  501  502 -0.00000000000E+00 -0.00000000000E+00 -0.40646116139E+03  0.40646116139E+03  0.00000000000E+00 0.  1.
         25    1    1    2    0    0 -0.10402471015E+03 -0.14692587814E+03 -0.12916156868E+02  0.21954539643E+03  0.12500000000E+03 0.  0.
         25    1    1    2    0    0 -0.42163637403E+02  0.25886955188E+02  0.57167354455E+02  0.14608563647E+03  0.12500000000E+03 0.  0.
         25    1    1    2    0    0  0.14618834755E+03  0.12103892295E+03 -0.19323615760E+03  0.29830632985E+03  0.12500000000E+03 0.  0.
</event>
<event>
 5    0  0.5684733E-005  0.3422514E+03  0.7546771E-02  0.1065841E+00
         21   -1    0    0  502  501  0.00000000000E+00  0.00000000000E+00  0.52644107067E+02  0.52644107067E+02  0.00000000000E+00 0. -1.
         21   -1    0    0  501  502 -0.00000000000E+00 -0.00000000000E+00 -0.22250552735E+04  0.22250552735E+04  0.00000000000E+00 0. -1.
         25    1    1    2    0    0 -0.44824358678E+02 -0.17471836522E+03 -0.72691906694E+03  0.75932342263E+03  0.12500000000E+03 0.  0.
         25    1    1    2    0    0  0.29066673639E+02  0.24204756242E+03 -0.58335632574E+03  0.64448545117E+03  0.12500000000E+03 0.  0.
         25    1    1    2    0    0  0.15757685038E+02 -0.67329197200E+02 -0.86213577380E+03  0.87389050681E+03  0.12500000000E+03 0.  0.
</event>
<event>
 5    0  0.5684733E-005  0.3106297E+03  0.7546771E-02  0.1080044E+00
         21   -1    0    0  502  501  0.00000000000E+00  0.00000000000E+00  0.11768720114E+04  0.11768720114E+04  0.00000000000E+00 0. -1.
         21   -1    0    0  501  502 -0.00000000000E+00 -0.00000000000E+00 -0.81989223102E+02  0.81989223102E+02  0.00000000000E+00 0. -1.
         25    1    1    2    0    0  0.19016625303E+01  0.45349138079E+02  0.31996608741E+03  0.34650174276E+03  0.12500000000E+03 0.  0.
         25    1    1    2    0    0  0.13103384355E+03  0.60099848624E+02  0.62565961538E+03  0.65410764732E+03  0.12500000000E+03 0.  0.
         25    1    1    2    0    0 -0.13293550608E+03 -0.10544898670E+03  0.14925708551E+03  0.25825184442E+03  0.12500000000E+03 0.  0.
</event>
<event>
 5    0  0.5684733E-005  0.3906479E+03  0.7546771E-02  0.1047067E+00
         21   -1    0    0  502  501  0.00000000000E+00  0.00000000000E+00  0.16461213716E+03  0.16461213716E+03  0.00000000000E+00 0. -1.
         21   -1    0    0  501  502 -0.00000000000E+00 -0.00000000000E+00 -0.92706271179E+03  0.92706271179E+03  0.00000000000E+00 0. -1.
         25    1    1    2    0    0 -0.69033782459E+02 -0.25507359349E+02 -0.14430104319E+03  0.20460713469E+03  0.12500000000E+03 0.  0.
         25    1    1    2    0    0 -0.36297150718E+02  0.90251881580E+02  0.72640892031E+02  0.17425436716E+03  0.12500000000E+03 0.  0.
         25    1    1    2    0    0  0.10533093318E+03 -0.64744522231E+02 -0.69079042347E+03  0.71281334710E+03  0.12500000000E+03 0.  0.
</event>
<event>
 5    0  0.5684733E-005  0.3826232E+03  0.7546771E-02  0.1049968E+00
         21   -1    0    0  502  501  0.00000000000E+00  0.00000000000E+00  0.55466261111E+03  0.55466261111E+03  0.00000000000E+00 0.  1.
         21   -1    0    0  501  502 -0.00000000000E+00 -0.00000000000E+00 -0.26394521487E+03  0.26394521487E+03  0.00000000000E+00 0.  1.
         25    1    1    2    0    0 -0.15021513014E+01 -0.26261550645E+03  0.50700917552E+02  0.29523675877E+03  0.12500000000E+03 0.  0.
         25    1    1    2    0    0  0.90786916729E+02  0.26708817945E+02  0.17401468804E+03  0.23422582449E+03  0.12500000000E+03 0.  0.
         25    1    1    2    0    0 -0.89284765428E+02  0.23590668851E+03  0.66001790643E+02  0.28914524272E+03  0.12500000000E+03 0.  0.
</event>
<event>
 5    0  0.5684733E-005  0.2787174E+03  0.7546771E-02  0.1096392E+00
         21   -1    0    0  502  501  0.00000000000E+00  0.00000000000E+00  0.10883385631E+03  0.10883385631E+03  0.00000000000E+00 0. -1.
         21   -1    0    0  501  502 -0.00000000000E+00 -0.00000000000E+00 -0.71377977015E+03  0.71377977015E+03  0.00000000000E+00 0. -1.
         25    1    1    2    0    0  0.72366927101E+02  0.98474044788E+01 -0.13194369618E+03  0.19587772327E+03  0.12500000000E+03 0.  0.
         25    1    1    2    0    0 -0.15171631184E+03  0.10479441508E+03 -0.23346283038E+03  0.32269118655E+03  0.12500000000E+03 0.  0.
         25    1    1    2    0    0  0.79349384740E+02 -0.11464181956E+03 -0.23953938729E+03  0.30404471663E+03  0.12500000000E+03 0.  0.
</event>
<event>
 5    0  0.5684733E-005  0.3670945E+03  0.7546771E-02  0.1055810E+00
         21   -1    0    0  502  501  0.00000000000E+00  0.00000000000E+00  0.23619835932E+03  0.23619835932E+03  0.00000000000E+00 0.  1.
         21   -1    0    0  501  502 -0.00000000000E+00 -0.00000000000E+00 -0.57053039897E+03  0.57053039897E+03  0.00000000000E+00 0.  1.
         25    1    1    2    0    0 -0.15368116686E+03 -0.66108096495E+02 -0.30716360950E+03  0.37143325709E+03  0.12500000000E+03 0.  0.
         25    1    1    2    0    0 -0.22196558654E+02  0.54539351445E+02 -0.13554456549E+03  0.19355763303E+03  0.12500000000E+03 0.  0.
         25    1    1    2    0    0  0.17587772552E+03  0.11568745050E+02  0.10837613534E+03  0.24173786817E+03  0.12500000000E+03 0.  0.
</event>
<event>
 5    0  0.5684733E-005  0.5424325E+03  0.7546771E-02  0.1003261E+00
         21   -1    0    0  502  501  0.00000000000E+00  0.00000000000E+00  0.26732119660E+03  0.26732119660E+03  0.00000000000E+00 0. -1.
         21   -1    0    0  501  502 -0.00000000000E+00 -0.00000000000E+00 -0.11006722378E+04  0.11006722378E+04  0.00000000000E+00 0. -1.
         25    1    1    2    0    0 -0.11429573745E+03 -0.15318297134E+03 -0.68244115030E+03  0.71963842444E+03  0.12500000000E+03 0.  0.
         25    1    1    2    0    0  0.16471779390E+03  0.91634161137E+02 -0.33985768955E+03  0.40823647591E+03  0.12500000000E+03 0.  0.
         25    1    1    2    0    0 -0.50422056453E+02  0.61548810204E+02  0.18894779861E+03  0.24011853409E+03  0.12500000000E+03 0.  0.
</event>
<event>
 5    0  0.5684733E-005  0.2522924E+03  0.7546771E-02  0.1111865E+00
         21   -1    0    0  502  501  0.00000000000E+00  0.00000000000E+00  0.76000720512E+03  0.76000720512E+03  0.00000000000E+00 0.  1.
         21   -1    0    0  501  502 -0.00000000000E+00 -0.00000000000E+00 -0.83751121254E+02  0.83751121254E+02  0.00000000000E+00 0.  1.
         25    1    1    2    0    0  0.19464889017E+02  0.26588850182E+02  0.92146853257E+02  0.15875103598E+03  0.12500000000E+03 0.  0.
         25    1    1    2    0    0 -0.40881159143E+02  0.15539969503E+01  0.59149126316E+02  0.14421270132E+03  0.12500000000E+03 0.  0.
         25    1    1    2    0    0  0.21416270126E+02 -0.28142847133E+02  0.52496010429E+03  0.54079458907E+03  0.12500000000E+03 0.  0.
</event>
<event>
 5    0  0.5684733E-005  0.4034115E+03  0.7546771E-02  0.1042605E+00
         21   -1    0    0  502  501  0.00000000000E+00  0.00000000000E+00  0.13168596876E+04  0.13168596876E+04  0.00000000000E+00 0. -1.
         21   -1    0    0  501  502 -0.00000000000E+00 -0.00000000000E+00 -0.12358252079E+03  0.12358252079E+03  0.00000000000E+00 0. -1.
         25    1    1    2    0    0 -0.23158670302E+02 -0.11679078955E+03  0.56176611667E+03  0.58769259173E+03  0.12500000000E+03 0.  0.
         25    1    1    2    0    0 -0.20712201562E+03  0.24634381537E+02  0.12109166969E+03  0.27165156833E+03  0.12500000000E+03 0.  0.
         25    1    1    2    0    0  0.23028068592E+03  0.92156408012E+02  0.51041938050E+03  0.58109804838E+03  0.12500000000E+03 0.  0.
</event>
<event>
 5    0  0.5684733E-005  0.3300535E+03  0.7546771E-02  0.1071113E+00
         21   -1    0    0  502  501  0.00000000000E+00  0.00000000000E+00  0.10597774190E+04  0.10597774190E+04  0.00000000000E+00 0.  1.
         21   -1    0    0  501  502 -0.00000000000E+00 -0.00000000000E+00 -0.10279077055E+03  0.10279077055E+03  0.00000000000E+00 0.  1.
         25    1    1    2    0    0  0.43855238997E+02  0.50776315451E+02  0.51090335844E+03  0.53023462530E+03  0.12500000000E+03 0.  0.
         25    1    1    2    0    0 -0.10411955109E+03 -0.26532188068E+02  0.46204024978E+03  0.49056195362E+03  0.12500000000E+03 0.  0.
         25    1    1    2    0    0  0.60264312097E+02 -0.24244127383E+02 -0.15956959749E+02  0.14177161066E+03  0.12500000000E+03 0.  0.
</event>
<event>
 5    0  0.5684733E-005  0.3852821E+03  0.7546771E-02  0.1048999E+00
         21   -1    0    0  502  501  0.00000000000E+00  0.00000000000E+00  0.65116825405E+03  0.65116825405E+03  0.00000000000E+00 0. -1.
         21   -1    0    0  501  502 -0.00000000000E+00 -0.00000000000E+00 -0.22796304589E+03  0.22796304589E+03  0.00000000000E+00 0. -1.
         25    1    1    2    0    0 -0.18877064802E+03 -0.14731560038E+03  0.44805253217E+03  0.52317522424E+03  0.12500000000E+03 0.  0.
         25    1    1    2    0    0  0.12861652217E+03  0.66928981433E+02 -0.37707721924E+02  0.19511168756E+03  0.12500000000E+03 0.  0.
         25    1    1    2    0    0  0.60154125848E+02  0.80386618947E+02  0.12860397915E+02  0.16084438814E+03  0.12500000000E+03 0.  0.
</event>
<event>
 5    0  0.5684733E-005  0.3470195E+03  0.7546771E-02  0.1063845E+00
         21   -1    0    0  502  501  0.00000000000E+00  0.00000000000E+00  0.33417911590E+03  0.33417911590E+03  0.00000000000E+00 0. -1.
         21   -1    0    0  501  502 -0.00000000000E+00 -0.00000000000E+00 -0.36035320014E+03  0.36035320014E+03  0.00000000000E+00 0. -1.
         25    1    1    2    0    0  0.24494193633E+03 -0.13780714972E+03 -0.25275624220E+01  0.30760161128E+03  0.12500000000E+03 0.  0.
         25    1    1    2    0    0 -0.16316928294E+03  0.45197773025E+02 -0.13042393746E+02  0.21086051697E+03  0.12500000000E+03 0.  0.
         25    1    1    2    0    0 -0.81772653392E+02  0.92609376695E+02 -0.10604128073E+02  0.17607018779E+03  0.12500000000E+03 0.  0.
</event>
<event>
 5    0  0.5684733E-005  0.3725704E+03  0.7546771E-02  0.1053714E+00
         21   -1    0    0  502  501  0.00000000000E+00  0.00000000000E+00  0.15425042352E+03  0.15425042352E+03  0.00000000000E+00 0.  1.
         21   -1    0    0  501  502 -0.00000000000E+00 -0.00000000000E+00 -0.89989201225E+03  0.89989201225E+03  0.00000000000E+00 0.  1.
         25    1    1    2    0    0  0.12803955556E+03 -0.19501968219E+03 -0.19644318069E+03  0.32960844569E+03  0.12500000000E+03 0.  0.
         25    1    1    2    0    0  0.62029330038E+02  0.15552590269E+03 -0.13039409194E+03  0.24629974301E+03  0.12500000000E+03 0.  0.
         25    1    1    2    0    0 -0.19006888560E+03  0.39493779501E+02 -0.41880431610E+03  0.47823424708E+03  0.12500000000E+03 0.  0.
</event>
<event>
 5    0  0.5684733E-005  0.2723212E+03  0.7546771E-02  0.1099958E+00
         21   -1    0    0  502  501  0.00000000000E+00  0.00000000000E+00  0.98754960337E+02  0.98754960337E+02  0.00000000000E+00 0. -1.
         21   -1    0    0  501  502 -0.00000000000E+00 -0.00000000000E+00 -0.75093780670E+03  0.75093780670E+03  0.00000000000E+00 0. -1.
         25    1    1    2    0    0 -0.14156200256E+03 -0.70534414984E+01 -0.41116101572E+03  0.45251290860E+03  0.12500000000E+03 0.  0.
         25    1    1    2    0    0  0.13352078206E+03 -0.28544064449E+02 -0.13214830085E+03  0.22744391896E+03  0.12500000000E+03 0.  0.
         25    1    1    2    0    0  0.80412205029E+01  0.35597505947E+02 -0.10887352979E+03  0.16973593946E+03  0.12500000000E+03 0.  0.
</event>
<event>
 5    0  0.5684733E-005  0.4356374E+03  0.7546771E-02  0.1032094E+00
         21   -1    0    0  502  501  0.00000000000E+00  0.00000000000E+00  0.21311775856E+03  0.21311775856E+03  0.00000000000E+00 0. -1.
         21   -1    0    0  501  502 -0.00000000000E+00 -0.00000000000E+00 -0.89049320978E+03  0.89049320978E+03  0.00000000000E+00 0. -1.
         25    1    1    2    0    0  0.16717512843E+03  0.27164439711E+03 -0.58348158809E+03  0.67661951323E+03  0.12500000000E+03 0.  0.
         25    1    1    2    0    0 -0.50466474365E+02 -0.12784837828E+03 -0.30997601087E+01  0.18581356618E+03  0.12500000000E+03 0.  0.
         25    1    1    2    0    0 -0.11670865406E+03 -0.14379601883E+03 -0.90794103022E+02  0.24117788893E+03  0.12500000000E+03 0.  0.
</event>
<event>
 5    0  0.5684733E-005  0.2620052E+03  0.7546771E-02  0.1105944E+00
         21   -1    0    0  502  501  0.00000000000E+00  0.00000000000E+00  0.28671110633E+03  0.28671110633E+03  0.00000000000E+00 0. -1.
         21   -1    0    0  501  502 -0.00000000000E+00 -0.00000000000E+00 -0.23942817894E+03  0.23942817894E+03  0.00000000000E+00 0. -1.
         25    1    1    2    0    0 -0.81432465026E+02  0.46330051661E+02 -0.27156474454E+02  0.15855659605E+03  0.12500000000E+03 0.  0.
         25    1    1    2    0    0  0.13846935237E+03 -0.36479474901E+02 -0.32957162975E+02  0.19291368076E+03  0.12500000000E+03 0.  0.
         25    1    1    2    0    0 -0.57036887339E+02 -0.98505767605E+01  0.10739656482E+03  0.17466900846E+03  0.12500000000E+03 0.  0.
</event>
<event>
 5    0  0.5684733E-005  0.3710862E+03  0.7546771E-02  0.1054278E+00
         21   -1    0    0  502  501  0.00000000000E+00  0.00000000000E+00  0.36724394826E+03  0.36724394826E+03  0.00000000000E+00 0. -1.
         21   -1    0    0  501  502 -0.00000000000E+00 -0.00000000000E+00 -0.37496866974E+03  0.37496866974E+03  0.00000000000E+00 0. -1.
         25    1    1    2    0    0  0.37795388606E+02 -0.20980160896E+03  0.20203489100E+03  0.31919947322E+03  0.12500000000E+03 0.  0.
         25    1    1    2    0    0 -0.10072453104E+03  0.12737481051E+03 -0.11708722879E+03  0.23601735667E+03  0.12500000000E+03 0.  0.
         25    1    1    2    0    0  0.62929142437E+02  0.82426798450E+02 -0.92672383696E+02  0.18699578811E+03  0.12500000000E+03 0.  0.
</event>
<event>
 5    0  0.5684733E-005  0.4152142E+03  0.7546771E-02  0.1038635E+00
         21   -1    0    0  502  501  0.00000000000E+00  0.00000000000E+00  0.24884200379E+03  0.24884200379E+03  0.00000000000E+00 0.  1.
         21   -1    0    0  501  502 -0.00000000000E+00 -0.00000000000E+00 -0.69282045697E+03  0.69282045697E+03  0.00000000000E+00 0.  1.
         25    1    1    2    0    0 -0.31787568659E+02  0.25859842747E+03 -0.36923066375E+03  0.46887085563E+03  0.12500000000E+03 0.  0.
         25    1    1    2    0    0  0.95706093845E+02 -0.27782839963E+03 -0.85793254193E+02  0.33065655673E+03  0.12500000000E+03 0.  0.
         25    1    1    2    0    0 -0.63918525186E+02  0.19229972165E+02  0.11045464757E+02  0.14213504840E+03  0.12500000000E+03 0.  0.
</event>
<event>
 5    0  0.5684733E-005  0.2777203E+03  0.7546771E-02  0.1096941E+00
         21   -1    0    0  502  501  0.00000000000E+00  0.00000000000E+00  0.94391485598E+02  0.94391485598E+02  0.00000000000E+00 0. -1.
         21   -1    0    0  501  502 -0.00000000000E+00 -0.00000000000E+00 -0.81711349991E+03  0.81711349991E+03  0.00000000000E+00 0. -1.
         25    1    1    2    0    0  0.13481193934E+03 -0.74145751382E+01 -0.22984624716E+03  0.29442067225E+03  0.12500000000E+03 0.  0.
         25    1    1    2    0    0 -0.29176532685E+02 -0.26920221227E+01 -0.38512787727E+02  0.13404011288E+03  0.12500000000E+03 0.  0.
         25    1    1    2    0    0 -0.10563540666E+03  0.10106597261E+02 -0.45436297942E+03  0.48304420037E+03  0.12500000000E+03 0.  0.
</event>
<event>
 5    0  0.5684733E-005  0.3598535E+03  0.7546771E-02  0.1058642E+00
         21   -1    0    0  502  501  0.00000000000E+00  0.00000000000E+00  0.24741746617E+03  0.24741746617E+03  0.00000000000E+00 0.  1.
         21   -1    0    0  501  502 -0.00000000000E+00 -0.00000000000E+00 -0.52338489096E+03  0.52338489096E+03  0.00000000000E+00 0.  1.
         25    1    1    2    0    0  0.58851088642E+02  0.70506372328E+02  0.11406016919E+03  0.19253394861E+03  0.12500000000E+03 0.  0.
         25    1    1    2    0    0 -0.90824492369E+02 -0.15731811949E+03 -0.35650064995E+03  0.41918467595E+03  0.12500000000E+03 0.  0.
         25    1    1    2    0    0  0.31973403727E+02  0.86811747167E+02 -0.33526944025E+02  0.15908373257E+03  0.12500000000E+03 0.  0.
</event>
<event>
 5    0  0.5684733E-005  0.3382837E+03  0.7546771E-02  0.1067529E+00
         21   -1    0    0  502  501  0.00000000000E+00  0.00000000000E+00  0.10070649051E+04  0.10070649051E+04  0.00000000000E+00 0. -1.
         21   -1    0    0  501  502 -0.00000000000E+00 -0.00000000000E+00 -0.11363305785E+03  0.11363305785E+03  0.00000000000E+00 0. -1.
         25    1    1    2    0    0  0.92313386611E+02  0.63647495940E+02  0.39344521435E+03  0.42778137147E+03  0.12500000000E+03 0.  0.
         25    1    1    2    0    0 -0.14292449632E+03 -0.38604636595E+02  0.51942144768E+03  0.55438377495E+03  0.12500000000E+03 0.  0.
         25    1    1    2    0    0  0.50611109714E+02 -0.25042859344E+02 -0.19434814770E+02  0.13853281653E+03  0.12500000000E+03 0.  0.
</event>
<event>
 5    0  0.5684733E-005  0.7199685E+03  0.7546771E-02  0.9683680E-01
         21   -1    0    0  502  501  0.00000000000E+00  0.00000000000E+00  0.65028829311E+03  0.65028829311E+03  0.00000000000E+00 0. -1.
         21   -1    0    0  501  502 -0.00000000000E+00 -0.00000000000E+00 -0.79711523998E+03  0.79711523998E+03  0.00000000000E+00 0. -1.
         25    1    1    2    0    0 -0.94262222317E+01 -0.52009061161E+03 -0.25820706189E+03  0.59403618135E+03  0.12500000000E+03 0.  0.
         25    1    1    2    0    0  0.52730611558E+01  0.47936984858E+03  0.33209289614E+03  0.59643436233E+03  0.12500000000E+03 0.  0.
         25    1    1    2    0    0  0.41531610759E+01  0.40720763023E+02 -0.22071278113E+03  0.25693298940E+03  0.12500000000E+03 0.  0.
</event>
<event>
 5    0  0.5684733E-005  0.2721723E+03  0.7546771E-02  0.1100043E+00
         21   -1    0    0  502  501  0.00000000000E+00  0.00000000000E+00  0.10919215228E+03  0.10919215228E+03  0.00000000000E+00 0.  1.
         21   -1    0    0  501  502 -0.00000000000E+00 -0.00000000000E+00 -0.67841667010E+03  0.67841667010E+03  0.00000000000E+00 0.  1.
         25    1    1    2    0    0  0.78436828624E+02  0.53891412235E+02 -0.30142263559E+03  0.33990767224E+03  0.12500000000E+03 0.  0.
         25    1    1    2    0    0 -0.44178599889E+02 -0.74366953071E+02 -0.27720434310E+03  0.31614781390E+03  0.12500000000E+03 0.  0.
         25    1    1    2    0    0 -0.34258228735E+02  0.20475540836E+02  0.94024608771E+01  0.13155333625E+03  0.12500000000E+03 0.  0.
</event>
<event>
 5    0  0.6215073E-005  0.2822227E+03  0.7546771E-02  0.1094481E+00
         21   -1    0    0  502  501  0.00000000000E+00  0.00000000000E+00  0.38095896402E+03  0.38095896402E+03  0.00000000000E+00 0.  1.
         21   -1    0    0  501  502 -0.00000000000E+00 -0.00000000000E+00 -0.20907665059E+03  0.20907665059E+03  0.00000000000E+00 0.  1.
         25    1    1    2    0    0 -0.56817890630E+02 -0.52432796271E+02  0.24086332163E+03  0.28216592730E+03  0.12500000000E+03 0.  0.
         25    1    1    2    0    0  0.92932807909E+02  0.54255446951E+02 -0.10693272677E+02  0.16528613490E+03  0.12500000000E+03 0.  0.
         25    1    1    2    0    0 -0.36114917279E+02 -0.18226506795E+01 -0.58287735521E+02  0.14258355241E+03  0.12500000000E+03 0.  0.
</event>
<event>
 5    0  0.5684733E-005  0.3047767E+03  0.7546771E-02  0.1082877E+00
         21   -1    0    0  502  501  0.00000000000E+00  0.00000000000E+00  0.30409734703E+03  0.30409734703E+03  0.00000000000E+00 0. -1.
         21   -1    0    0  501  502 -0.00000000000E+00 -0.00000000000E+00 -0.30545765175E+03  0.30545765175E+03  0.00000000000E+00 0. -1.
         25    1    1    2    0    0  0.26390937503E+02 -0.78196740957E+02 -0.96061443376E+02  0.17794384727E+03  0.12500000000E+03 0.  0.
         25    1    1    2    0    0  0.16339791413E+02 -0.12448040511E+03  0.19337735441E+02  0.17821702515E+03  0.12500000000E+03 0.  0.
         25    1    1    2    0    0 -0.42730728916E+02  0.20267714607E+03  0.75363403215E+02  0.25339412636E+03  0.12500000000E+03 0.  0.
</event>
<event>
 5    0  0.5684733E-005  0.2512635E+03  0.7546771E-02  0.1112509E+00
         21   -1    0    0  502  501  0.00000000000E+00  0.00000000000E+00  0.52868496380E+03  0.52868496380E+03  0.00000000000E+00 0.  1.
         21   -1    0    0  501  502 -0.00000000000E+00 -0.00000000000E+00 -0.11941581584E+03  0.11941581584E+03  0.00000000000E+00 0.  1.
         25    1    1    2    0    0  0.30209231431E+02 -0.90759571787E+02  0.26823552192E+03  0.31100674069E+03  0.12500000000E+03 0.  0.
         25    1    1    2    0    0 -0.45323218101E+02  0.11436937616E+03  0.10331245001E+03  0.20355100252E+03  0.12500000000E+03 0.  0.
         25    1    1    2    0    0  0.15113986670E+02 -0.23609804369E+02  0.37721176030E+02  0.13354303642E+03  0.12500000000E+03 0.  0.
</event>
<event>
 5    0  0.5684733E-005  0.3656452E+03  0.7546771E-02  0.1056371E+00
         21   -1    0    0  502  501  0.00000000000E+00  0.00000000000E+00  0.24115225566E+03  0.24115225566E+03  0.00000000000E+00 0.  1.
         21   -1    0    0  501  502 -0.00000000000E+00 -0.00000000000E+00 -0.55440650729E+03  0.55440650729E+03  0.00000000000E+00 0.  1.
         25    1    1    2    0    0  0.63570460091E+02 -0.99267911496E+02  0.64539586384E+02  0.18353658998E+03  0.12500000000E+03 0.  0.
         25    1    1    2    0    0 -0.13218581735E+03  0.20563979589E+03 -0.12200353044E+03  0.30045079032E+03  0.12500000000E+03 0.  0.
         25    1    1    2    0    0  0.68615357262E+02 -0.10637188440E+03 -0.25579030757E+03  0.31157138265E+03  0.12500000000E+03 0.  0.
</event>
<event>
 5    0  0.5684733E-005  0.2669215E+03  0.7546771E-02  0.1103055E+00
         21   -1    0    0  502  501  0.00000000000E+00  0.00000000000E+00  0.49121694291E+03  0.49121694291E+03  0.00000000000E+00 0.  1.
         21   -1    0    0  501  502 -0.00000000000E+00 -0.00000000000E+00 -0.14504203591E+03  0.14504203591E+03  0.00000000000E+00 0.  1.
         25    1    1    2    0    0  0.95890345807E+02  0.13741718880E+02  0.10004912277E+02  0.15845785410E+03  0.12500000000E+03 0.  0.
         25    1    1    2    0    0 -0.14203755382E+03 -0.18280691181E+02  0.26656954798E+03  0.32740368703E+03  0.12500000000E+03 0.  0.
         25    1    1    2    0    0  0.46147208016E+02  0.45389723007E+01  0.69600446745E+02  0.15039743769E+03  0.12500000000E+03 0.  0.
</event>
<event>
 5    0  0.5684733E-005  0.2627726E+03  0.7546771E-02  0.1105489E+00
         21   -1    0    0  502  501  0.00000000000E+00  0.00000000000E+00  0.68118414688E+02  0.68118414688E+02  0.00000000000E+00 0.  1.
         21   -1    0    0  501  502 -0.00000000000E+00 -0.00000000000E+00 -0.10136675878E+04  0.10136675878E+04  0.00000000000E+00 0.  1.
         25    1    1    2    0    0  0.72951304061E+02  0.46745190769E+02 -0.15013557481E+03  0.21371171341E+03  0.12500000000E+03 0.  0.
         25    1    1    2    0    0 -0.91276784419E+02 -0.90892304635E+02 -0.25831792142E+03  0.31455684851E+03  0.12500000000E+03 0.  0.
         25    1    1    2    0    0  0.18325480358E+02  0.44147113866E+02 -0.53709567684E+03  0.55351744054E+03  0.12500000000E+03 0.  0.
</event>
<event>
 5    0  0.5684733E-005  0.3024958E+03  0.7546771E-02  0.1084000E+00
         21   -1    0    0  502  501  0.00000000000E+00  0.00000000000E+00  0.28443588875E+03  0.28443588875E+03  0.00000000000E+00 0. -1.
         21   -1    0    0  501  502 -0.00000000000E+00 -0.00000000000E+00 -0.32170249645E+03  0.32170249645E+03  0.00000000000E+00 0. -1.
         25    1    1    2    0    0  0.12694832167E+02  0.42117278076E+02  0.14864182626E+02  0.13334529539E+03  0.12500000000E+03 0.  0.
         25    1    1    2    0    0  0.16214105310E+03 -0.21969682300E+02  0.78632045956E+02  0.22040958848E+03  0.12500000000E+03 0.  0.
         25    1    1    2    0    0 -0.17483588527E+03 -0.20147595777E+02 -0.13076283628E+03  0.25238350134E+03  0.12500000000E+03 0.  0.
</event>
<event>
 5    0  0.5684733E-005  0.2262918E+03  0.7546771E-02  0.1129277E+00
         21   -1    0    0  502  501  0.00000000000E+00  0.00000000000E+00  0.31249869543E+03  0.31249869543E+03  0.00000000000E+00 0.  1.
         21   -1    0    0  501  502 -0.00000000000E+00 -0.00000000000E+00 -0.16386625457E+03  0.16386625457E+03  0.00000000000E+00 0.  1.
         25    1    1    2    0    0 -0.59663534372E+02 -0.46585962917E+02 -0.11774571881E-01  0.14613346439E+03  0.12500000000E+03 0.  0.
         25    1    1    2    0    0  0.80978980289E+02  0.69663676708E+02  0.10014184504E+03  0.19252016058E+03  0.12500000000E+03 0.  0.
         25    1    1    2    0    0 -0.21315445917E+02 -0.23077713791E+02  0.48502370393E+02  0.13771132503E+03  0.12500000000E+03 0.  0.
</event>
<event>
 5    0  0.5684733E-005  0.2763104E+03  0.7546771E-02  0.1097721E+00
         21   -1    0    0  502  501  0.00000000000E+00  0.00000000000E+00  0.11487304811E+04  0.11487304811E+04  0.00000000000E+00 0. -1.
         21   -1    0    0  501  502 -0.00000000000E+00 -0.00000000000E+00 -0.66462427267E+02  0.66462427267E+02  0.00000000000E+00 0. -1.
         25    1    1    2    0    0 -0.18261580889E+02 -0.53156809323E+02  0.22213432011E+03  0.26101300329E+03  0.12500000000E+03 0.  0.
         25    1    1    2    0    0  0.10051340879E+03 -0.75177747810E+02  0.20957816693E+03  0.27441327805E+03  0.12500000000E+03 0.  0.
         25    1    1    2    0    0 -0.82251827900E+02  0.12833455713E+03  0.65055556675E+03  0.67976662699E+03  0.12500000000E+03 0.  0.
</event>
<event>
 5    0  0.5684733E-005  0.3085541E+03  0.7546771E-02  0.1081041E+00
         21   -1    0    0  502  501  0.00000000000E+00  0.00000000000E+00  0.21503855884E+03  0.21503855884E+03  0.00000000000E+00 0.  1.
         21   -1    0    0  501  502 -0.00000000000E+00 -0.00000000000E+00 -0.44273756931E+03  0.44273756931E+03  0.00000000000E+00 0.  1.
         25    1    1    2    0    0  0.50738327078E+02 -0.81759108128E+02 -0.61076764727E+02  0.16915762113E+03  0.12500000000E+03 0.  0.
         25    1    1    2    0    0 -0.12266292300E+03 -0.42207237232E+02  0.62659804030E+02  0.19073252107E+03  0.12500000000E+03 0.  0.
         25    1    1    2    0    0  0.71924595924E+02  0.12396634536E+03 -0.22928204977E+03  0.29788598595E+03  0.12500000000E+03 0.  0.
</event>
<event>
 5    0  0.5684733E-005  0.3639861E+03  0.7546771E-02  0.1057017E+00
         21   -1    0    0  502  501  0.00000000000E+00  0.00000000000E+00  0.15539363093E+04  0.15539363093E+04  0.00000000000E+00 0.  1.
         21   -1    0    0  501  502 -0.00000000000E+00 -0.00000000000E+00 -0.85258237497E+02  0.85258237497E+02  0.00000000000E+00 0.  1.
         25    1    1    2    0    0 -0.80136759274E+02  0.42082628329E+02  0.50887639061E+03  0.53176407242E+03  0.12500000000E+03 0.  0.
         25    1    1    2    0    0 -0.36104431914E+02 -0.82408564725E+02  0.24649360042E+02  0.15597208883E+03  0.12500000000E+03 0.  0.
         25    1    1    2    0    0  0.11624119119E+03  0.40325936397E+02  0.93515232112E+03  0.95145838552E+03  0.12500000000E+03 0.  0.
</event>
<event>
 5    0  0.5684733E-005  0.2671784E+03  0.7546771E-02  0.1102905E+00
         21   -1    0    0  502  501  0.00000000000E+00  0.00000000000E+00  0.16335171707E+03  0.16335171707E+03  0.00000000000E+00 0. -1.
         21   -1    0    0  501  502 -0.00000000000E+00 -0.00000000000E+00 -0.43699749148E+03  0.43699749148E+03  0.00000000000E+00 0. -1.
         25    1    1    2    0    0 -0.95957565768E+02  0.12137003893E+03 -0.36268516960E+02  0.20218542504E+03  0.12500000000E+03 0.  0.
         25    1    1    2    0    0  0.99409827643E+02 -0.38859565733E+02 -0.16066690914E+03  0.22985046307E+03  0.12500000000E+03 0.  0.
         25    1    1    2    0    0 -0.34522618751E+01 -0.82510473194E+02 -0.76710348310E+02  0.16831332044E+03  0.12500000000E+03 0.  0.
</event>
<event>
 5    0  0.5684733E-005  0.2263623E+03  0.7546771E-02  0.1129227E+00
         21   -1    0    0  502  501  0.00000000000E+00  0.00000000000E+00  0.18387293877E+04  0.18387293877E+04  0.00000000000E+00 0. -1.
         21   -1    0    0  501  502 -0.00000000000E+00 -0.00000000000E+00 -0.27867011238E+02  0.27867011238E+02  0.00000000000E+00 0. -1.
         25    1    1    2    0    0 -0.10611644372E+03  0.28496363770E+02  0.68563517062E+03  0.70554470416E+03  0.12500000000E+03 0.  0.
         25    1    1    2    0    0  0.39486633794E+02  0.27373190203E+02  0.52990241851E+03  0.54656203576E+03  0.12500000000E+03 0.  0.
         25    1    1    2    0    0  0.66629809922E+02 -0.55869553972E+02  0.59532478731E+03  0.61448965900E+03  0.12500000000E+03 0.  0.
</event>
<event>
 5    0  0.5684733E-005  0.4507322E+03  0.7546771E-02  0.1027504E+00
         21   -1    0    0  502  501  0.00000000000E+00  0.00000000000E+00  0.12280131632E+04  0.12280131632E+04  0.00000000000E+00 0.  1.
         21   -1    0    0  501  502 -0.00000000000E+00 -0.00000000000E+00 -0.16543753531E+03  0.16543753531E+03  0.00000000000E+00 0.  1.
         25    1    1    2    0    0  0.74408924800E+02  0.37079175318E+02 -0.36081689942E+01  0.15016514980E+03  0.12500000000E+03 0.  0.
         25    1    1    2    0    0 -0.30758476662E+03 -0.87413157008E+02  0.76938377702E+03  0.84251162901E+03  0.12500000000E+03 0.  0.
         25    1    1    2    0    0  0.23317584182E+03  0.50333981690E+02  0.29680001991E+03  0.40077391974E+03  0.12500000000E+03 0.  0.
</event>
<event>
 5    0  0.5684733E-005  0.2435339E+03  0.7546771E-02  0.1117461E+00
         21   -1    0    0  502  501  0.00000000000E+00  0.00000000000E+00  0.17630178246E+03  0.17630178246E+03  0.00000000000E+00 0. -1.
         21   -1    0    0  501  502 -0.00000000000E+00 -0.00000000000E+00 -0.33640479666E+03  0.33640479666E+03  0.00000000000E+00 0. -1.
         25    1    1    2    0    0 -0.20913782541E+02  0.19994932703E+02 -0.69245487512E+02  0.14579822075E+03  0.12500000000E+03 0.  0.
         25    1    1    2    0    0 -0.74409673687E+02  0.40507360065E+02 -0.12381256311E+03  0.19527466948E+03  0.12500000000E+03 0.  0.
         25    1    1    2    0    0  0.95323456228E+02 -0.60502292768E+02  0.32955036418E+02  0.17163368889E+03  0.12500000000E+03 0.  0.
</event>
<event>
 5    0  0.5684733E-005  0.2277126E+03  0.7546771E-02  0.1128260E+00
         21   -1    0    0  502  501  0.00000000000E+00  0.00000000000E+00  0.12842867721E+04  0.12842867721E+04  0.00000000000E+00 0.  1.
         21   -1    0    0  501  502 -0.00000000000E+00 -0.00000000000E+00 -0.40374946203E+02  0.40374946203E+02  0.00000000000E+00 0.  1.
         25    1    1    2    0    0  0.72255550068E+02 -0.45283783418E+00  0.27569563881E+03  0.31121400167E+03  0.12500000000E+03 0.  0.
         25    1    1    2    0    0  0.21167078401E+02 -0.48639370369E+02  0.44226265858E+03  0.46263926847E+03  0.12500000000E+03 0.  0.
         25    1    1    2    0    0 -0.93422628470E+02  0.49092208204E+02  0.52595352853E+03  0.55080844818E+03  0.12500000000E+03 0.  0.
</event>
<event>
 5    0  0.5684733E-005  0.9719296E+03  0.7546771E-02  0.9339879E-01
         21   -1    0    0  502  501  0.00000000000E+00  0.00000000000E+00  0.87575691247E+03  0.87575691247E+03  0.00000000000E+00 0.  1.
         21   -1    0    0  501  502 -0.00000000000E+00 -0.00000000000E+00 -0.10786636617E+04  0.10786636617E+04  0.00000000000E+00 0.  1.
         25    1    1    2    0    0 -0.59265521180E+03  0.58213477819E+03  0.26720287393E+03  0.88155741497E+03  0.12500000000E+03 0.  0.
         25    1    1    2    0    0  0.39962968847E+03 -0.44840621807E+03 -0.51753801566E+03  0.80264725874E+03  0.12500000000E+03 0.  0.
         25    1    1    2    0    0  0.19302552333E+03 -0.13372856012E+03  0.47428392479E+02  0.27021590046E+03  0.12500000000E+03 0.  0.
</event>
<event>
 5    0  0.5684733E-005  0.5948512E+03  0.7546771E-02  0.9916146E-01
         21   -1    0    0  502  501  0.00000000000E+00  0.00000000000E+00  0.43653540365E+03  0.43653540365E+03  0.00000000000E+00 0. -1.
         21   -1    0    0  501  502 -0.00000000000E+00 -0.00000000000E+00 -0.81058250879E+03  0.81058250879E+03  0.00000000000E+00 0. -1.
         25    1    1    2    0    0  0.30031334947E+03  0.22278804138E+03  0.16314622697E+03  0.42668994671E+03  0.12500000000E+03 0.  0.
         25    1    1    2    0    0 -0.37865958648E+03 -0.24839945667E+03 -0.39200729097E+03  0.61186607087E+03  0.12500000000E+03 0.  0.
         25    1    1    2    0    0  0.78346237012E+02  0.25611415294E+02 -0.14518604113E+03  0.20856189486E+03  0.12500000000E+03 0.  0.
</event>
<event>
 5    0  0.5684733E-005  0.2987773E+03  0.7546771E-02  0.1085853E+00
         21   -1    0    0  502  501  0.00000000000E+00  0.00000000000E+00  0.18649531038E+03  0.18649531038E+03  0.00000000000E+00 0. -1.
         21   -1    0    0  501  502 -0.00000000000E+00 -0.00000000000E+00 -0.47866002333E+03  0.47866002333E+03  0.00000000000E+00 0. -1.
         25    1    1    2    0    0  0.22630227955E+02  0.83868803027E+02 -0.23437874339E+02  0.15401440612E+03  0.12500000000E+03 0.  0.
         25    1    1    2    0    0 -0.79999038553E+02 -0.46912408155E+02  0.48818508559E+02  0.16312224553E+03  0.12500000000E+03 0.  0.
         25    1    1    2    0    0  0.57368810598E+02 -0.36956394872E+02 -0.31754534717E+03  0.34801868206E+03  0.12500000000E+03 0.  0.
</event>
<event>
 5    0  0.5684733E-005  0.2686119E+03  0.7546771E-02  0.1102077E+00
         21   -1    0    0  502  501  0.00000000000E+00  0.00000000000E+00  0.60408333170E+03  0.60408333170E+03  0.00000000000E+00 0.  1.
         21   -1    0    0  501  502 -0.00000000000E+00 -0.00000000000E+00 -0.11944110066E+03  0.11944110066E+03  0.00000000000E+00 0.  1.
         25    1    1    2    0    0  0.13190801718E+03 -0.75403320500E+02  0.24598947366E+03  0.31499397913E+03  0.12500000000E+03 0.  0.
         25    1    1    2    0    0 -0.74643610829E+02  0.67981144983E+02  0.37891134071E+02  0.16508737914E+03  0.12500000000E+03 0.  0.
         25    1    1    2    0    0 -0.57264406349E+02  0.74221755179E+01  0.20076162332E+03  0.24344307409E+03  0.12500000000E+03 0.  0.
</event>
<event>
 5    0  0.5684733E-005  0.2068298E+03  0.7546771E-02  0.1144101E+00
         21   -1    0    0  502  501  0.00000000000E+00  0.00000000000E+00  0.60329467517E+02  0.60329467517E+02  0.00000000000E+00 0.  1.
         21   -1    0    0  501  502 -0.00000000000E+00 -0.00000000000E+00 -0.70908273788E+03  0.70908273788E+03  0.00000000000E+00 0.  1.
         25    1    1    2    0    0 -0.34123801167E+02  0.26624955911E+02 -0.11807076154E+03  0.17731053780E+03  0.12500000000E+03 0.  0.
         25    1    1    2    0    0  0.40368408842E+02 -0.36388864044E+02 -0.29872456455E+03  0.32835213312E+03  0.12500000000E+03 0.  0.
         25    1    1    2    0    0 -0.62446076747E+01  0.97639081332E+01 -0.23195794426E+03  0.26374953447E+03  0.12500000000E+03 0.  0.
</event>
<event>
 5    0  0.5684733E-005  0.3301938E+03  0.7546771E-02  0.1071051E+00
         21   -1    0    0  502  501  0.00000000000E+00  0.00000000000E+00  0.41803470616E+03  0.41803470616E+03  0.00000000000E+00 0.  1.
         21   -1    0    0  501  502 -0.00000000000E+00 -0.00000000000E+00 -0.26081069909E+03  0.26081069909E+03  0.00000000000E+00 0.  1.
         25    1    1    2    0    0 -0.68400922188E+02  0.84024903084E+02  0.66792181665E+01  0.16555507377E+03  0.12500000000E+03 0.  0.
         25    1    1    2    0    0  0.12531761603E+03 -0.22623895460E+03  0.12737877653E+03  0.31422750067E+03  0.12500000000E+03 0.  0.
         25    1    1    2    0    0 -0.56916693845E+02  0.14221405151E+03  0.23166012376E+02  0.19906283082E+03  0.12500000000E+03 0.  0.
</event>
<event>
 5    0  0.5684733E-005  0.2221202E+03  0.7546771E-02  0.1132312E+00
         21   -1    0    0  502  501  0.00000000000E+00  0.00000000000E+00  0.36902439953E+03  0.36902439953E+03  0.00000000000E+00 0. -1.
         21   -1    0    0  501  502 -0.00000000000E+00 -0.00000000000E+00 -0.13369676431E+03  0.13369676431E+03  0.00000000000E+00 0. -1.
         25    1    1    2    0    0  0.34202556564E+02  0.57305258957E+02  0.19932427598E+02  0.14309440677E+03  0.12500000000E+03 0.  0.
         25    1    1    2    0    0 -0.77881411658E+02 -0.40519068420E+02  0.13470127503E+03  0.20365839704E+03  0.12500000000E+03 0.  0.
         25    1    1    2    0    0  0.43678855094E+02 -0.16786190537E+02  0.80693932591E+02  0.15596836004E+03  0.12500000000E+03 0.  0.
</event>
<event>
 5    0  0.5684733E-005  0.3148199E+03  0.7546771E-02  0.1078058E+00
         21   -1    0    0  502  501  0.00000000000E+00  0.00000000000E+00  0.28608319453E+03  0.28608319453E+03  0.00000000000E+00 0.  1.
         21   -1    0    0  501  502 -0.00000000000E+00 -0.00000000000E+00 -0.34644326293E+03  0.34644326293E+03  0.00000000000E+00 0.  1.
         25    1    1    2    0    0  0.10485357784E+02  0.44452177894E+02 -0.11434750356E+02  0.13357279799E+03  0.12500000000E+03 0.  0.
         25    1    1    2    0    0  0.81165418185E+02  0.76498527065E+02 -0.19273491129E+03  0.25536561198E+03  0.12500000000E+03 0.  0.
         25    1    1    2    0    0 -0.91650775970E+02 -0.12095070496E+03  0.14380959325E+03  0.24358804748E+03  0.12500000000E+03 0.  0.
</event>
<event>
 5    0  0.5684733E-005  0.2881151E+03  0.7546771E-02  0.1091337E+00
         21   -1    0    0  502  501  0.00000000000E+00  0.00000000000E+00  0.52634976004E+03  0.52634976004E+03  0.00000000000E+00 0.  1.
         21   -1    0    0  501  502 -0.00000000000E+00 -0.00000000000E+00 -0.15770939366E+03  0.15770939366E+03  0.00000000000E+00 0.  1.
         25    1    1    2    0    0 -0.17622824372E+03 -0.20281825271E+02  0.11860929534E+03  0.24730732149E+03  0.12500000000E+03 0.  0.
         25    1    1    2    0    0  0.49970354036E+02  0.19273540179E+02  0.76228557053E+01  0.13620430816E+03  0.12500000000E+03 0.  0.
         25    1    1    2    0    0  0.12625788968E+03  0.10082850917E+01  0.24240821534E+03  0.30054752405E+03  0.12500000000E+03 0.  0.
</event>
<event>
 5    0  0.5684733E-005  0.3928004E+03  0.7546771E-02  0.1046302E+00
         21   -1    0    0  502  501  0.00000000000E+00  0.00000000000E+00  0.12452428415E+03  0.12452428415E+03  0.00000000000E+00 0. -1.
         21   -1    0    0  501  502 -0.00000000000E+00 -0.00000000000E+00 -0.12390524298E+04  0.12390524298E+04  0.00000000000E+00 0. -1.
         25    1    1    2    0    0  0.29521177030E+03  0.88258361324E+02 -0.34551715142E+03  0.47952750661E+03  0.12500000000E+03 0.  0.
         25    1    1    2    0    0 -0.11982181971E+03 -0.98939923043E+02 -0.23543946274E+03  0.30855002425E+03  0.12500000000E+03 0.  0.
         25    1    1    2    0    0 -0.17538995059E+03  0.10681561720E+02 -0.53357153153E+03  0.57549918314E+03  0.12500000000E+03 0.  0.
</event>
<event>
 5    0  0.5684733E-005  0.4073532E+03  0.7546771E-02  0.1041263E+00
         21   -1    0    0  502  501  0.00000000000E+00  0.00000000000E+00  0.94175411025E+02  0.94175411025E+02  0.00000000000E+00 0.  1.
         21   -1    0    0  501  502 -0.00000000000E+00 -0.00000000000E+00 -0.17619955291E+04  0.17619955291E+04  0.00000000000E+00 0.  1.
         25    1    1    2    0    0 -0.36617032308E+02 -0.17318310695E+03 -0.25763198632E+03  0.33664883182E+03  0.12500000000E+03 0.  0.
         25    1    1    2    0    0  0.14676349308E+03  0.29968801430E+03 -0.85948798803E+03  0.93042841229E+03  0.12500000000E+03 0.  0.
         25    1    1    2    0    0 -0.11014646077E+03 -0.12650490736E+03 -0.55070014376E+03  0.58909369606E+03  0.12500000000E+03 0.  0.
</event>
<event>
 5    0  0.5684733E-005  0.2439905E+03  0.7546771E-02  0.1117163E+00
         21   -1    0    0  502  501  0.00000000000E+00  0.00000000000E+00  0.17323268867E+03  0.17323268867E+03  0.00000000000E+00 0. -1.
         21   -1    0    0  501  502 -0.00000000000E+00 -0.00000000000E+00 -0.34364975625E+03  0.34364975625E+03  0.00000000000E+00 0. -1.
         25    1    1    2    0    0 -0.13163689469E+03  0.11706573664E+02 -0.88539391235E+01  0.18212278317E+03  0.12500000000E+03 0.  0.
         25    1    1    2    0    0  0.83003325661E+02 -0.34685659508E+02 -0.61419638033E+02  0.16580114289E+03  0.12500000000E+03 0.  0.
         25    1    1    2    0    0  0.48633569029E+02  0.22979085844E+02 -0.10014349043E+03  0.16895851887E+03  0.12500000000E+03 0.  0.
</event>
<event>
 5    0  0.5684733E-005  0.4162301E+03  0.7546771E-02  0.1038300E+00
         21   -1    0    0  502  501  0.00000000000E+00  0.00000000000E+00  0.48309445246E+03  0.48309445246E+03  0.00000000000E+00 0. -1.
         21   -1    0    0  501  502 -0.00000000000E+00 -0.00000000000E+00 -0.35862034223E+03  0.35862034223E+03  0.00000000000E+00 0. -1.
         25    1    1    2    0    0  0.11715613691E+03  0.21008055910E+02  0.29160259865E+03  0.33885686413E+03  0.12500000000E+03 0.  0.
         25    1    1    2    0    0 -0.20235289473E+03 -0.13067461151E+02 -0.23701420261E+03  0.33603301145E+03  0.12500000000E+03 0.  0.
         25    1    1    2    0    0  0.85196757814E+02 -0.79405947597E+01  0.69885714200E+02  0.16682491911E+03  0.12500000000E+03 0.  0.
</event>
<event>
 5    0  0.5684733E-005  0.2526453E+03  0.7546771E-02  0.1111644E+00
         21   -1    0    0  502  501  0.00000000000E+00  0.00000000000E+00  0.16658299254E+03  0.16658299254E+03  0.00000000000E+00 0.  1.
         21   -1    0    0  501  502 -0.00000000000E+00 -0.00000000000E+00 -0.38317027075E+03  0.38317027075E+03  0.00000000000E+00 0.  1.
         25    1    1    2    0    0 -0.99132914687E+02  0.91237419083E+02 -0.86250025911E+02  0.20301642393E+03  0.12500000000E+03 0.  0.
         25    1    1    2    0    0 -0.29714475668E+02 -0.39267732615E+02 -0.58053061341E+02  0.14635594563E+03  0.12500000000E+03 0.  0.
         25    1    1    2    0    0  0.12884739035E+03 -0.51969686468E+02 -0.72284190955E+02  0.20038089374E+03  0.12500000000E+03 0.  0.
</event>
<event>
 5    0  0.5684733E-005  0.4157505E+03  0.7546771E-02  0.1038458E+00
         21   -1    0    0  502  501  0.00000000000E+00  0.00000000000E+00  0.46362144297E+03  0.46362144297E+03  0.00000000000E+00 0.  1.
         21   -1    0    0  501  502 -0.00000000000E+00 -0.00000000000E+00 -0.37282238826E+03  0.37282238826E+03  0.00000000000E+00 0.  1.
         25    1    1    2    0    0 -0.84415969972E+02  0.27695055741E+03  0.20681032707E+03  0.37712488464E+03  0.12500000000E+03 0.  0.
         25    1    1    2    0    0  0.61558827689E+02 -0.13581562048E+01 -0.54792830604E+02  0.14972838121E+03  0.12500000000E+03 0.  0.
         25    1    1    2    0    0  0.22857142284E+02 -0.27559240120E+03 -0.61218441761E+02  0.30959056537E+03  0.12500000000E+03 0.  0.
</event>
<event>
 5    0  0.5684733E-005  0.3872191E+03  0.7546771E-02  0.1048297E+00
         21   -1    0    0  502  501  0.00000000000E+00  0.00000000000E+00  0.31144932770E+03  0.31144932770E+03  0.00000000000E+00 0. -1.
         21   -1    0    0  501  502 -0.00000000000E+00 -0.00000000000E+00 -0.48142214995E+03  0.48142214995E+03  0.00000000000E+00 0. -1.
         25    1    1    2    0    0 -0.12526538537E+03  0.10168869425E+03 -0.30028486932E+03  0.36308127197E+03  0.12500000000E+03 0.  0.
         25    1    1    2    0    0 -0.29068095897E+02 -0.14686743709E+03  0.11292494477E+03  0.22537089747E+03  0.12500000000E+03 0.  0.
         25    1    1    2    0    0  0.15433348126E+03  0.45178742838E+02  0.17387102312E+02  0.20441930821E+03  0.12500000000E+03 0.  0.
</event>
<event>
 5    0  0.5684733E-005  0.4662409E+03  0.7546771E-02  0.1022987E+00
         21   -1    0    0  502  501  0.00000000000E+00  0.00000000000E+00  0.14490624760E+04  0.14490624760E+04  0.00000000000E+00 0. -1.
         21   -1    0    0  501  502 -0.00000000000E+00 -0.00000000000E+00 -0.15001460951E+03  0.15001460951E+03  0.00000000000E+00 0. -1.
         25    1    1    2    0    0 -0.14700915463E+03  0.35894287327E+03  0.42504280812E+03  0.58884468797E+03  0.12500000000E+03 0.  0.
         25    1    1    2    0    0  0.10698031601E+03 -0.23203539867E+03  0.32618272583E+03  0.43278792136E+03  0.12500000000E+03 0.  0.
         25    1    1    2    0    0  0.40028838621E+02 -0.12690747460E+03  0.54782233254E+03  0.57744447617E+03  0.12500000000E+03 0.  0.
</event>
<event>
 5    0  0.5684733E-005  0.2795359E+03  0.7546771E-02  0.1095943E+00
         21   -1    0    0  502  501  0.00000000000E+00  0.00000000000E+00  0.25137617776E+03  0.25137617776E+03  0.00000000000E+00 0.  1.
         21   -1    0    0  501  502 -0.00000000000E+00 -0.00000000000E+00 -0.31085017983E+03  0.31085017983E+03  0.00000000000E+00 0.  1.
         25    1    1    2    0    0 -0.15808652445E+03  0.46398933596E+02  0.53153995856E+02  0.21352882130E+03  0.12500000000E+03 0.  0.
         25    1    1    2    0    0  0.34135941272E+02  0.27164242331E+02 -0.81273353622E+02  0.15534965902E+03  0.12500000000E+03 0.  0.
         25    1    1    2    0    0  0.12395058318E+03 -0.73563175927E+02 -0.31354644309E+02  0.19334787726E+03  0.12500000000E+03 0.  0.
</event>
<event>
 5    0  0.5684733E-005  0.3458480E+03  0.7546771E-02  0.1064332E+00
         21   -1    0    0  502  501  0.00000000000E+00  0.00000000000E+00  0.24488695985E+03  0.24488695985E+03  0.00000000000E+00 0. -1.
         21   -1    0    0  501  502 -0.00000000000E+00 -0.00000000000E+00 -0.48843276694E+03  0.48843276694E+03  0.00000000000E+00 0. -1.
         25    1    1    2    0    0  0.11875507500E+03 -0.90863790344E+02 -0.34538656137E+02  0.19793159172E+03  0.12500000000E+03 0.  0.
         25    1    1    2    0    0 -0.11930209645E+03 -0.13333001193E+03 -0.16804732759E+03  0.27545378308E+03  0.12500000000E+03 0.  0.
         25    1    1    2    0    0  0.54702144627E+00  0.22419380228E+03 -0.40959823365E+02  0.25993435199E+03  0.12500000000E+03 0.  0.
</event>
<event>
 5    0  0.5684733E-005  0.2502126E+03  0.7546771E-02  0.1113171E+00
         21   -1    0    0  502  501  0.00000000000E+00  0.00000000000E+00  0.56108941038E+02  0.56108941038E+02  0.00000000000E+00 0.  1.
         21   -1    0    0  501  502 -0.00000000000E+00 -0.00000000000E+00 -0.11157998738E+04  0.11157998738E+04  0.00000000000E+00 0.  1.
         25    1    1    2    0    0 -0.18914186263E+01 -0.28992507530E+02 -0.18482836291E+03  0.22501259230E+03  0.12500000000E+03 0.  0.
         25    1    1    2    0    0  0.88188880400E+02 -0.82449480142E+02 -0.40985940608E+03  0.44517965828E+03  0.12500000000E+03 0.  0.
         25    1    1    2    0    0 -0.86297461774E+02  0.11144198767E+03 -0.46500316380E+03  0.50171656428E+03  0.12500000000E+03 0.  0.
</event>
<event>
 5    0  0.5684733E-005  0.2564483E+03  0.7546771E-02  0.1109296E+00
         21   -1    0    0  502  501  0.00000000000E+00  0.00000000000E+00  0.21411228953E+03  0.21411228953E+03  0.00000000000E+00 0.  1.
         21   -1    0    0  501  502 -0.00000000000E+00 -0.00000000000E+00 -0.30715524705E+03  0.30715524705E+03  0.00000000000E+00 0.  1.
         25    1    1    2    0    0 -0.99954939982E+02 -0.12505641035E+01 -0.52588420143E+02  0.16847283422E+03  0.12500000000E+03 0.  0.
         25    1    1    2    0    0  0.40201293147E+02  0.84302070416E+02  0.54664050085E+02  0.16533644915E+03  0.12500000000E+03 0.  0.
         25    1    1    2    0    0  0.59753646836E+02 -0.83051506312E+02 -0.95118587466E+02  0.18745825320E+03  0.12500000000E+03 0.  0.
</event>
<event>
 5    0  0.5684733E-005  0.3305605E+03  0.7546771E-02  0.1070889E+00
         21   -1    0    0  502  501  0.00000000000E+00  0.00000000000E+00  0.11795737842E+03  0.11795737842E+03  0.00000000000E+00 0. -1.
         21   -1    0    0  501  502 -0.00000000000E+00 -0.00000000000E+00 -0.92635388709E+03  0.92635388709E+03  0.00000000000E+00 0. -1.
         25    1    1    2    0    0 -0.32864532968E+02  0.20130664790E+03 -0.20916243186E+03  0.31777093467E+03  0.12500000000E+03 0.  0.
         25    1    1    2    0    0  0.10704327589E+03 -0.19494560451E+03 -0.45516298563E+03  0.52178577513E+03  0.12500000000E+03 0.  0.
         25    1    1    2    0    0 -0.74178742922E+02 -0.63610433933E+01 -0.14407109117E+03  0.20475455572E+03  0.12500000000E+03 0.  0.
</event>
<event>
 5    0  0.5684733E-005  0.4013972E+03  0.7546771E-02  0.1043297E+00
         21   -1    0    0  502  501  0.00000000000E+00  0.00000000000E+00  0.58216077213E+03  0.58216077213E+03  0.00000000000E+00 0. -1.
         21   -1    0    0  501  502 -0.00000000000E+00 -0.00000000000E+00 -0.27676159463E+03  0.27676159463E+03  0.00000000000E+00 0. -1.
         25    1    1    2    0    0 -0.99924589681E+02 -0.63492848460E+02  0.27544762173E+03  0.32482711978E+03  0.12500000000E+03 0.  0.
         25    1    1    2    0    0  0.16712835902E+03  0.10084730776E+03  0.20235281923E+03  0.30769096724E+03  0.12500000000E+03 0.  0.
         25    1    1    2    0    0 -0.67203769342E+02 -0.37354459296E+02 -0.17240126345E+03  0.22640427974E+03  0.12500000000E+03 0.  0.
</event>
<event>
 5    0  0.5684733E-005  0.2425511E+03  0.7546771E-02  0.1118105E+00
         21   -1    0    0  502  501  0.00000000000E+00  0.00000000000E+00  0.68089863789E+03  0.68089863789E+03  0.00000000000E+00 0. -1.
         21   -1    0    0  501  502 -0.00000000000E+00 -0.00000000000E+00 -0.86402031090E+02  0.86402031090E+02  0.00000000000E+00 0. -1.
         25    1    1    2    0    0 -0.33288139850E+02 -0.13709790408E+03  0.21537446254E+03  0.28620813174E+03  0.12500000000E+03 0.  0.
         25    1    1    2    0    0  0.51947504858E+02  0.79244506423E+02  0.21210763005E+03  0.26380462806E+03  0.12500000000E+03 0.  0.
         25    1    1    2    0    0 -0.18659365009E+02  0.57853397653E+02  0.16701451420E+03  0.21728790918E+03  0.12500000000E+03 0.  0.
</event>
<event>
 5    0  0.5684733E-005  0.3244561E+03  0.7546771E-02  0.1073617E+00
         21   -1    0    0  502  501  0.00000000000E+00  0.00000000000E+00  0.83708661745E+02  0.83708661745E+02  0.00000000000E+00 0.  1.
         21   -1    0    0  501  502 -0.00000000000E+00 -0.00000000000E+00 -0.12575967306E+04  0.12575967306E+04  0.00000000000E+00 0.  1.
         25    1    1    2    0    0  0.74726968890E+02  0.14595339807E+03 -0.71604643798E+03  0.74514026574E+03  0.12500000000E+03 0.  0.
         25    1    1    2    0    0 -0.10216212449E+03  0.28314032366E+02 -0.16972434429E+03  0.23594519947E+03  0.12500000000E+03 0.  0.
         25    1    1    2    0    0  0.27435155604E+02 -0.17426743043E+03 -0.28811728660E+03  0.36021992714E+03  0.12500000000E+03 0.  0.
</event>
<event>
 5    0  0.5684733E-005  0.2658243E+03  0.7546771E-02  0.1103693E+00
         21   -1    0    0  502  501  0.00000000000E+00  0.00000000000E+00  0.46756361908E+03  0.46756361908E+03  0.00000000000E+00 0. -1.
         21   -1    0    0  501  502 -0.00000000000E+00 -0.00000000000E+00 -0.15112933914E+03  0.15112933914E+03  0.00000000000E+00 0. -1.
         25    1    1    2    0    0 -0.10095495261E+03  0.39474258435E+02  0.58895786640E+02  0.17562412482E+03  0.12500000000E+03 0.  0.
         25    1    1    2    0    0  0.42517005854E+02 -0.43410471926E+02 -0.12750520084E+02  0.13956984138E+03  0.12500000000E+03 0.  0.
         25    1    1    2    0    0  0.58437946758E+02  0.39362134908E+01  0.27028901339E+03  0.30349899202E+03  0.12500000000E+03 0.  0.
</event>
<event>
 5    0  0.5684733E-005  0.4419431E+03  0.7546771E-02  0.1030152E+00
         21   -1    0    0  502  501  0.00000000000E+00  0.00000000000E+00  0.54701120283E+03  0.54701120283E+03  0.00000000000E+00 0. -1.
         21   -1    0    0  501  502 -0.00000000000E+00 -0.00000000000E+00 -0.35705619325E+03  0.35705619325E+03  0.00000000000E+00 0. -1.
         25    1    1    2    0    0 -0.54722033880E+01 -0.26813222509E+03 -0.40677869559E+02  0.29867126446E+03  0.12500000000E+03 0.  0.
         25    1    1    2    0    0 -0.28303146305E+01  0.36249939891E+03  0.88059123138E+02  0.39343771306E+03  0.12500000000E+03 0.  0.
         25    1    1    2    0    0  0.83025180184E+01 -0.94367173817E+02  0.14257375600E+03  0.21195841857E+03  0.12500000000E+03 0.  0.
</event>
<event>
 5    0  0.5684733E-005  0.3154299E+03  0.7546771E-02  0.1077772E+00
         21   -1    0    0  502  501  0.00000000000E+00  0.00000000000E+00  0.41155854252E+03  0.41155854252E+03  0.00000000000E+00 0. -1.
         21   -1    0    0  501  502 -0.00000000000E+00 -0.00000000000E+00 -0.24175428168E+03  0.24175428168E+03  0.00000000000E+00 0. -1.
         25    1    1    2    0    0  0.11807705190E+03  0.76570591526E+02 -0.62463713429E+02  0.19832287101E+03  0.12500000000E+03 0.  0.
         25    1    1    2    0    0 -0.17415630895E+03  0.27269612522E+02  0.10015846772E+03  0.23818222093E+03  0.12500000000E+03 0.  0.
         25    1    1    2    0    0  0.56079257049E+02 -0.10384020405E+03  0.13210950655E+03  0.21680773226E+03  0.12500000000E+03 0.  0.
</event>
<event>
 5    0  0.6778158E-005  0.2813996E+03  0.7546771E-02  0.1094927E+00
         21   -1    0    0  502  501  0.00000000000E+00  0.00000000000E+00  0.22424860318E+03  0.22424860318E+03  0.00000000000E+00 0.  1.
         21   -1    0    0  501  502 -0.00000000000E+00 -0.00000000000E+00 -0.35311595040E+03  0.35311595040E+03  0.00000000000E+00 0.  1.
         25    1    1    2    0    0  0.24291418066E+02  0.96401946209E+02 -0.20321094446E+03  0.25846294932E+03  0.12500000000E+03 0.  0.
         25    1    1    2    0    0  0.11418903864E+02 -0.11593974004E+03  0.65697164834E+01  0.17099875982E+03  0.12500000000E+03 0.  0.
         25    1    1    2    0    0 -0.35710321931E+02  0.19537793834E+02  0.67773880752E+02  0.14790284444E+03  0.12500000000E+03 0.  0.
</event>
<event>
 5    0  0.5684733E-005  0.3281196E+03  0.7546771E-02  0.1071972E+00
         21   -1    0    0  502  501  0.00000000000E+00  0.00000000000E+00  0.74067331969E+02  0.74067331969E+02  0.00000000000E+00 0.  1.
         21   -1    0    0  501  502 -0.00000000000E+00 -0.00000000000E+00 -0.14535754021E+04  0.14535754021E+04  0.00000000000E+00 0.  1.
         25    1    1    2    0    0 -0.11238567615E+03 -0.14554423561E+03 -0.22094648870E+03  0.31345815604E+03  0.12500000000E+03 0.  0.
         25    1    1    2    0    0 -0.30695466905E+02  0.84397397490E+01 -0.40904767899E+03  0.42890377077E+03  0.12500000000E+03 0.  0.
         25    1    1    2    0    0  0.14308114305E+03  0.13710449586E+03 -0.74951390245E+03  0.78528080726E+03  0.12500000000E+03 0.  0.
</event>
<event>
 5    0  0.5684733E-005  0.3045333E+03  0.7546771E-02  0.1082996E+00
         21   -1    0    0  502  501  0.00000000000E+00  0.00000000000E+00  0.17931807509E+03  0.17931807509E+03  0.00000000000E+00 0.  1.
         21   -1    0    0  501  502 -0.00000000000E+00 -0.00000000000E+00 -0.51718460707E+03  0.51718460707E+03  0.00000000000E+00 0.  1.
         25    1    1    2    0    0  0.54227504202E+02 -0.13709792834E+03 -0.92980588354E+02  0.21449208372E+03  0.12500000000E+03 0.  0.
         25    1    1    2    0    0 -0.11304574173E+03  0.25131830690E+02  0.10604230100E+02  0.17072902019E+03  0.12500000000E+03 0.  0.
         25    1    1    2    0    0  0.58818237532E+02  0.11196609764E+03 -0.25549017373E+03  0.31128157826E+03  0.12500000000E+03 0.  0.
</event>
<event>
 5    0  0.5684733E-005  0.3396486E+03  0.7546771E-02  0.1066946E+00
         21   -1    0    0  502  501  0.00000000000E+00  0.00000000000E+00  0.68475643027E+03  0.68475643027E+03  0.00000000000E+00 0. -1.
         21   -1    0    0  501  502 -0.00000000000E+00 -0.00000000000E+00 -0.16847041219E+03  0.16847041219E+03  0.00000000000E+00 0. -1.
         25    1    1    2    0    0  0.99748596055E+02 -0.24259299948E+02 -0.72278070615E+02  0.17716493880E+03  0.12500000000E+03 0.  0.
         25    1    1    2    0    0 -0.16380454048E+02 -0.79994123708E+02  0.24693275029E+03  0.28856223292E+03  0.12500000000E+03 0.  0.
         25    1    1    2    0    0 -0.83368142007E+02  0.10425342366E+03  0.34163133840E+03  0.38749967074E+03  0.12500000000E+03 0.  0.
</event>
<event>
 5    0  0.8744177E-005  0.3559127E+03  0.7546771E-02  0.1060214E+00
         21   -1    0    0  502  501  0.00000000000E+00  0.00000000000E+00  0.46594883750E+03  0.46594883750E+03  0.00000000000E+00 0. -1.
         21   -1    0    0  501  502 -0.00000000000E+00 -0.00000000000E+00 -0.27186212560E+03  0.27186212560E+03  0.00000000000E+00 0. -1.
         25    1    1    2    0    0  0.12226780620E+02  0.85085345561E+02  0.25909925048E+03  0.30024395380E+03  0.12500000000E+03 0.  0.
         25    1    1    2    0    0 -0.34870510538E+02 -0.18315236635E+03  0.62034853243E+02  0.23288208351E+03  0.12500000000E+03 0.  0.
         25    1    1    2    0    0  0.22643729919E+02  0.98067020786E+02 -0.12704739183E+03  0.20468492578E+03  0.12500000000E+03 0.  0.
</event>
<event>
 5    0  0.5684733E-005  0.2213266E+03  0.7546771E-02  0.1132898E+00
         21   -1    0    0  502  501  0.00000000000E+00  0.00000000000E+00  0.62868435712E+03  0.62868435712E+03  0.00000000000E+00 0. -1.
         21   -1    0    0  501  502 -0.00000000000E+00 -0.00000000000E+00 -0.77917425958E+02  0.77917425958E+02  0.00000000000E+00 0. -1.
         25    1    1    2    0    0 -0.45543533573E+02  0.21161478943E+01  0.21083118242E+03  0.24930599474E+03  0.12500000000E+03 0.  0.
         25    1    1    2    0    0 -0.49445781140E+02  0.42785187158E+02  0.13497163720E+03  0.19523780464E+03  0.12500000000E+03 0.  0.
         25    1    1    2    0    0  0.94989314712E+02 -0.44901335052E+02  0.20496411154E+03  0.26205798369E+03  0.12500000000E+03 0.  0.
</event>
<event>
 5    0  0.5684733E-005  0.3468218E+03  0.7546771E-02  0.1063927E+00
         21   -1    0    0  502  501  0.00000000000E+00  0.00000000000E+00  0.25680959955E+03  0.25680959955E+03  0.00000000000E+00 0.  1.
         21   -1    0    0  501  502 -0.00000000000E+00 -0.00000000000E+00 -0.46838353821E+03  0.46838353821E+03  0.00000000000E+00 0.  1.
         25    1    1    2    0    0  0.67171358733E+02  0.19945183749E+03 -0.14629563147E+03  0.28516738716E+03  0.12500000000E+03 0.  0.
         25    1    1    2    0    0 -0.15227593243E+03 -0.88306133336E+02  0.47519502806E+02  0.22106342061E+03  0.12500000000E+03 0.  0.
         25    1    1    2    0    0  0.85104573700E+02 -0.11114570415E+03 -0.11279781000E+03  0.21896232999E+03  0.12500000000E+03 0.  0.
</event>
<event>
 5    0  0.5684733E-005  0.4799735E+03  0.7546771E-02  0.1019142E+00
         21   -1    0    0  502  501  0.00000000000E+00  0.00000000000E+00  0.25042150779E+04  0.25042150779E+04  0.00000000000E+00 0.  1.
         21   -1    0    0  501  502 -0.00000000000E+00 -0.00000000000E+00 -0.91994717992E+02  0.91994717992E+02  0.00000000000E+00 0.  1.
         25    1    1    2    0    0 -0.26758274892E+03  0.63356225704E+02  0.38658959523E+03  0.49060274560E+03  0.12500000000E+03 0.  0.
         25    1    1    2    0    0  0.24225829157E+03 -0.18381094380E+03  0.76268395222E+03  0.83053437850E+03  0.12500000000E+03 0.  0.
         25    1    1    2    0    0  0.25324457350E+02  0.12045471809E+03  0.12629468125E+04  0.12750726718E+04  0.12500000000E+03 0.  0.
</event>
<event>
 5    0  0.5684733E-005  0.3502233E+03  0.7546771E-02  0.1062523E+00
         21   -1    0    0  502  501  0.00000000000E+00  0.00000000000E+00  0.17195034170E+03  0.17195034170E+03  0.00000000000E+00 0. -1.
         21   -1    0    0  501  502 -0.00000000000E+00 -0.00000000000E+00 -0.71332422894E+03  0.71332422894E+03  0.00000000000E+00 0. -1.
         25    1    1    2    0    0 -0.15304913818E+03  0.17949628147E+03 -0.51752897171E+02  0.27193071934E+03  0.12500000000E+03 0.  0.
         25    1    1    2    0    0  0.71584541893E+02 -0.49497286227E+02 -0.11933303099E+03  0.19349341143E+03  0.12500000000E+03 0.  0.
         25    1    1    2    0    0  0.81464596283E+02 -0.12999899524E+03 -0.37028795909E+03  0.41985043987E+03  0.12500000000E+03 0.  0.
</event>
<event>
 5    0  0.5684733E-005  0.3703492E+03  0.7546771E-02  0.1054560E+00
         21   -1    0    0  502  501  0.00000000000E+00  0.00000000000E+00  0.13169005678E+04  0.13169005678E+04  0.00000000000E+00 0. -1.
         21   -1    0    0  501  502 -0.00000000000E+00 -0.00000000000E+00 -0.10415252224E+03  0.10415252224E+03  0.00000000000E+00 0. -1.
         25    1    1    2    0    0 -0.13148561120E+03 -0.13584646232E+02  0.40886064237E+02  0.18646629404E+03  0.12500000000E+03 0.  0.
         25    1    1    2    0    0  0.49473336178E+02 -0.88389099006E+01  0.15007090347E+03  0.20167303585E+03  0.12500000000E+03 0.  0.
         25    1    1    2    0    0  0.82012275018E+02  0.22423556132E+02  0.10217910779E+04  0.10329137602E+04  0.12500000000E+03 0.  0.
</event>
<event>
 5    0  0.5684733E-005  0.4848271E+03  0.7546771E-02  0.1017817E+00
         21   -1    0    0  502  501  0.00000000000E+00  0.00000000000E+00  0.39209103734E+03  0.39209103734E+03  0.00000000000E+00 0.  1.
         21   -1    0    0  501  502 -0.00000000000E+00 -0.00000000000E+00 -0.59949688241E+03  0.59949688241E+03  0.00000000000E+00 0.  1.
         25    1    1    2    0    0 -0.22473191914E+03  0.16326514318E+03  0.20239492424E+02  0.30527787262E+03  0.12500000000E+03 0.  0.
         25    1    1    2    0    0 -0.22815023044E+02 -0.10223208282E+03  0.14471468810E+03  0.21803500862E+03  0.12500000000E+03 0.  0.
         25    1    1    2    0    0  0.24754694218E+03 -0.61033060357E+02 -0.37236002559E+03  0.46827503852E+03  0.12500000000E+03 0.  0.
</event>
<event>
 5    0  0.5684733E-005  0.2232002E+03  0.7546771E-02  0.1131519E+00
         21   -1    0    0  502  501  0.00000000000E+00  0.00000000000E+00  0.51898693694E+02  0.51898693694E+02  0.00000000000E+00 0.  1.
         21   -1    0    0  501  502 -0.00000000000E+00 -0.00000000000E+00 -0.95991522224E+03  0.95991522224E+03  0.00000000000E+00 0.  1.
         25    1    1    2    0    0  0.14774585834E+02 -0.18292595483E+02 -0.34320157745E+03  0.36601260934E+03  0.12500000000E+03 0.  0.
         25    1    1    2    0    0  0.25268672759E+02  0.96771314597E+02 -0.28064545886E+03  0.32309451672E+03  0.12500000000E+03 0.  0.
         25    1    1    2    0    0 -0.40043258593E+02 -0.78478719115E+02 -0.28416949224E+03  0.32270678987E+03  0.12500000000E+03 0.  0.
</event>
<event>
 5    0  0.5684733E-005  0.2342342E+03  0.7546771E-02  0.1123695E+00
         21   -1    0    0  502  501  0.00000000000E+00  0.00000000000E+00  0.46952510757E+03  0.46952510757E+03  0.00000000000E+00 0. -1.
         21   -1    0    0  501  502 -0.00000000000E+00 -0.00000000000E+00 -0.11685356353E+03  0.11685356353E+03  0.00000000000E+00 0. -1.
         25    1    1    2    0    0 -0.62866981123E+02  0.77324158838E+01  0.70588670843E+02  0.15690700438E+03  0.12500000000E+03 0.  0.
         25    1    1    2    0    0  0.59474895862E+02  0.87961376960E+02  0.11792902665E+03  0.20200673851E+03  0.12500000000E+03 0.  0.
         25    1    1    2    0    0  0.33920852613E+01 -0.95693792844E+02  0.16415384655E+03  0.22746492822E+03  0.12500000000E+03 0.  0.
</event>
<event>
 5    0  0.5684733E-005  0.2706480E+03  0.7546771E-02  0.1100909E+00
         21   -1    0    0  502  501  0.00000000000E+00  0.00000000000E+00  0.77747186369E+02  0.77747186369E+02  0.00000000000E+00 0.  1.
         21   -1    0    0  501  502 -0.00000000000E+00 -0.00000000000E+00 -0.94216035894E+03  0.94216035894E+03  0.00000000000E+00 0.  1.
         25    1    1    2    0    0  0.54201624515E+02  0.75375522488E+02 -0.91667731426E+02  0.18068552370E+03  0.12500000000E+03 0.  0.
         25    1    1    2    0    0 -0.52522824110E+02 -0.95949904116E+02 -0.61425677195E+03  0.63631864112E+03  0.12500000000E+03 0.  0.
         25    1    1    2    0    0 -0.16788004050E+01  0.20574381628E+02 -0.15848866920E+03  0.20290338049E+03  0.12500000000E+03 0.  0.
</event>
<event>
 5    0  0.5684733E-005  0.2524526E+03  0.7546771E-02  0.1111765E+00
         21   -1    0    0  502  501  0.00000000000E+00  0.00000000000E+00  0.26851349498E+03  0.26851349498E+03  0.00000000000E+00 0.  1.
         21   -1    0    0  501  502 -0.00000000000E+00 -0.00000000000E+00 -0.23735239378E+03  0.23735239378E+03  0.00000000000E+00 0.  1.
         25    1    1    2    0    0  0.43106262075E+02  0.76814266939E+02  0.10359556445E+03  0.18470414833E+03  0.12500000000E+03 0.  0.
         25    1    1    2    0    0 -0.41468959576E+02 -0.15520287435E+02 -0.11504468983E+03  0.17555863576E+03  0.12500000000E+03 0.  0.
         25    1    1    2    0    0 -0.16373024992E+01 -0.61293979504E+02  0.42610226577E+02  0.14560310468E+03  0.12500000000E+03 0.  0.
</event>
<event>
 5    0  0.5684733E-005  0.2498991E+03  0.7546771E-02  0.1113369E+00
         21   -1    0    0  502  501  0.00000000000E+00  0.00000000000E+00  0.17954723558E+03  0.17954723558E+03  0.00000000000E+00 0.  1.
         21   -1    0    0  501  502 -0.00000000000E+00 -0.00000000000E+00 -0.34781679194E+03  0.34781679194E+03  0.00000000000E+00 0.  1.
         25    1    1    2    0    0 -0.29646755614E+02  0.13934230108E+03 -0.49899816221E+02  0.19598520008E+03  0.12500000000E+03 0.  0.
         25    1    1    2    0    0  0.39801896521E+01 -0.11424640446E+03 -0.24873858158E+02  0.17120686803E+03  0.12500000000E+03 0.  0.
         25    1    1    2    0    0  0.25666565962E+02 -0.25095896627E+02 -0.93495881976E+02  0.16017195941E+03  0.12500000000E+03 0.  0.
</event>
<event>
 5    0  0.5684733E-005  0.2530092E+03  0.7546771E-02  0.1111418E+00
         21   -1    0    0  502  501  0.00000000000E+00  0.00000000000E+00  0.67605576445E+03  0.67605576445E+03  0.00000000000E+00 0.  1.
         21   -1    0    0  501  502 -0.00000000000E+00 -0.00000000000E+00 -0.94686970358E+02  0.94686970358E+02  0.00000000000E+00 0.  1.
         25    1    1    2    0    0  0.85021878616E+02 -0.25941946156E+02  0.10006640676E+03  0.18313926443E+03  0.12500000000E+03 0.  0.
         25    1    1    2    0    0 -0.10928216263E+03 -0.37553119078E+02  0.36888090993E+03  0.40626463485E+03  0.12500000000E+03 0.  0.
         25    1    1    2    0    0  0.24260284013E+02  0.63495065234E+02  0.11242147740E+03  0.18133883553E+03  0.12500000000E+03 0.  0.
</event>
<event>
 5    0  0.5684733E-005  0.5137292E+03  0.7546771E-02  0.1010256E+00
         21   -1    0    0  502  501  0.00000000000E+00  0.00000000000E+00  0.62919489845E+03  0.62919489845E+03  0.00000000000E+00 0.  1.
         21   -1    0    0  501  502 -0.00000000000E+00 -0.00000000000E+00 -0.41945294674E+03  0.41945294674E+03  0.00000000000E+00 0.  1.
         25    1    1    2    0    0  0.58071454714E+02 -0.13376814080E+03  0.20108127669E+03  0.27807353197E+03  0.12500000000E+03 0.  0.
         25    1    1    2    0    0 -0.26862911335E+02  0.23587120688E+02 -0.35027172460E+03  0.37362179985E+03  0.12500000000E+03 0.  0.
         25    1    1    2    0    0 -0.31208543379E+02  0.11018102011E+03  0.35893239962E+03  0.39695251337E+03  0.12500000000E+03 0.  0.
</event>
<event>
 5    0  0.5684733E-005  0.4327543E+03  0.7546771E-02  0.1032993E+00
         21   -1    0    0  502  501  0.00000000000E+00  0.00000000000E+00  0.29936912099E+03  0.29936912099E+03  0.00000000000E+00 0.  1.
         21   -1    0    0  501  502 -0.00000000000E+00 -0.00000000000E+00 -0.62556968318E+03  0.62556968318E+03  0.00000000000E+00 0.  1.
         25    1    1    2    0    0  0.29207598535E+03 -0.18236992716E+03 -0.14431582854E+03  0.39372481496E+03  0.12500000000E+03 0.  0.
         25    1    1    2    0    0 -0.22964401628E+03  0.11894524743E+03 -0.23259385907E+03  0.36960688491E+03  0.12500000000E+03 0.  0.
         25    1    1    2    0    0 -0.62431969070E+02  0.63424679735E+02  0.50709125419E+02  0.16160710431E+03  0.12500000000E+03 0.  0.
</event>
<event>
 5    0  0.5807813E-005  0.2869110E+03  0.7546771E-02  0.1091973E+00
         21   -1    0    0  502  501  0.00000000000E+00  0.00000000000E+00  0.66675626540E+02  0.66675626540E+02  0.00000000000E+00 0. -1.
         21   -1    0    0  501  502 -0.00000000000E+00 -0.00000000000E+00 -0.12346026850E+04  0.12346026850E+04  0.00000000000E+00 0. -1.
         25    1    1    2    0    0  0.12921638945E+03 -0.56446544906E+02 -0.22068392747E+03  0.29018870339E+03  0.12500000000E+03 0.  0.
         25    1    1    2    0    0 -0.12745320792E+03 -0.15167895541E+01 -0.29799576070E+03  0.34738033085E+03  0.12500000000E+03 0.  0.
         25    1    1    2    0    0 -0.17631815213E+01  0.57963334460E+02 -0.64924737025E+03  0.66370927726E+03  0.12500000000E+03 0.  0.
</event>
<event>
 5    0  0.5684733E-005  0.2715000E+03  0.7546771E-02  0.1100424E+00
         21   -1    0    0  502  501  0.00000000000E+00  0.00000000000E+00  0.33341470934E+03  0.33341470934E+03  0.00000000000E+00 0. -1.
         21   -1    0    0  501  502 -0.00000000000E+00 -0.00000000000E+00 -0.22108269828E+03  0.22108269828E+03  0.00000000000E+00 0. -1.
         25    1    1    2    0    0 -0.16081545238E+03  0.72616138600E+02  0.21658674121E+01  0.21625079026E+03  0.12500000000E+03 0.  0.
         25    1    1    2    0    0  0.73687593741E+02 -0.68267947680E+02  0.21207600051E+02  0.16175641085E+03  0.12500000000E+03 0.  0.
         25    1    1    2    0    0  0.87127858634E+02 -0.43481909198E+01  0.88958543590E+02  0.17649020650E+03  0.12500000000E+03 0.  0.
</event>
<event>
 5    0  0.5684733E-005  0.3076825E+03  0.7546771E-02  0.1081462E+00
         21   -1    0    0  502  501  0.00000000000E+00  0.00000000000E+00  0.59229314682E+02  0.59229314682E+02  0.00000000000E+00 0. -1.
         21   -1    0    0  501  502 -0.00000000000E+00 -0.00000000000E+00 -0.15983388178E+04  0.15983388178E+04  0.00000000000E+00 0. -1.
         25    1    1    2    0    0 -0.10412824072E+03  0.16266914297E+02 -0.15058290507E+03  0.22227801131E+03  0.12500000000E+03 0.  0.
         25    1    1    2    0    0 -0.59518747840E+02 -0.50432494616E+02 -0.72041176525E+03  0.73532579811E+03  0.12500000000E+03 0.  0.
         25    1    1    2    0    0  0.16364698856E+03  0.34165580319E+02 -0.66811483280E+03  0.69996432306E+03  0.12500000000E+03 0.  0.
</event>
<event>
 5    0  0.5684733E-005  0.2629308E+03  0.7546771E-02  0.1105395E+00
         21   -1    0    0  502  501  0.00000000000E+00  0.00000000000E+00  0.24403880464E+03  0.24403880464E+03  0.00000000000E+00 0. -1.
         21   -1    0    0  501  502 -0.00000000000E+00 -0.00000000000E+00 -0.28328531687E+03  0.28328531687E+03  0.00000000000E+00 0. -1.
         25    1    1    2    0    0  0.19455926216E+02  0.11138873474E+02  0.10226586708E+03  0.16305187867E+03  0.12500000000E+03 0.  0.
         25    1    1    2    0    0  0.16633596850E+01 -0.28660355144E+01  0.49820614553E+02  0.13460339728E+03  0.12500000000E+03 0.  0.
         25    1    1    2    0    0 -0.21119285901E+02 -0.82728379592E+01 -0.19133299385E+03  0.22966884556E+03  0.12500000000E+03 0.  0.
</event>
<event>
 5    0  0.5684733E-005  0.4076925E+03  0.7546771E-02  0.1041148E+00
         21   -1    0    0  502  501  0.00000000000E+00  0.00000000000E+00  0.28057068232E+03  0.28057068232E+03  0.00000000000E+00 0. -1.
         21   -1    0    0  501  502 -0.00000000000E+00 -0.00000000000E+00 -0.59241116875E+03  0.59241116875E+03  0.00000000000E+00 0. -1.
         25    1    1    2    0    0  0.10159182279E+03 -0.18014402349E+02  0.44443301380E+02  0.16806434538E+03  0.12500000000E+03 0.  0.
         25    1    1    2    0    0 -0.10195083873E+03  0.93067958272E+02  0.11005580692E+03  0.21631666374E+03  0.12500000000E+03 0.  0.
         25    1    1    2    0    0  0.35901593845E+00 -0.75053555923E+02 -0.46633959473E+03  0.48860084195E+03  0.12500000000E+03 0.  0.
</event>
<event>
 5    0  0.5684733E-005  0.5669026E+03  0.7546771E-02  0.9976556E-01
         21   -1    0    0  502  501  0.00000000000E+00  0.00000000000E+00  0.65033503469E+03  0.65033503469E+03  0.00000000000E+00 0. -1.
         21   -1    0    0  501  502 -0.00000000000E+00 -0.00000000000E+00 -0.49417386041E+03  0.49417386041E+03  0.00000000000E+00 0.  1.
         25    1    1    2    0    0 -0.39203551600E+03  0.64994945448E+02 -0.77793972399E+02  0.42378425040E+03  0.12500000000E+03 0.  0.
         25    1    1    2    0    0  0.11791314493E+03  0.19191970885E+03  0.19455950551E+03  0.32282361372E+03  0.12500000000E+03 0.  0.
         25    1    1    2    0    0  0.27412237107E+03 -0.25691465430E+03  0.39395641177E+02  0.39790103098E+03  0.12500000000E+03 0.  0.
</event>
<event>
 5    0  0.5909042E-005  0.4815978E+03  0.7546771E-02  0.1018697E+00
         21   -1    0    0  502  501  0.00000000000E+00  0.00000000000E+00  0.23403940431E+03  0.23403940431E+03  0.00000000000E+00 0.  1.
         21   -1    0    0  501  502 -0.00000000000E+00 -0.00000000000E+00 -0.99101454154E+03  0.99101454154E+03  0.00000000000E+00 0.  1.
         25    1    1    2    0    0  0.80980449466E+02 -0.94739260905E+02  0.21267412095E+02  0.17779387945E+03  0.12500000000E+03 0.  0.
         25    1    1    2    0    0  0.20620264668E+03  0.80552659840E+02 -0.66828402667E+03  0.71500825367E+03  0.12500000000E+03 0.  0.
         25    1    1    2    0    0 -0.28718309615E+03  0.14186601065E+02 -0.10995852265E+03  0.33225181274E+03  0.12500000000E+03 0.  0.
</event>
<event>
 5    0  0.5684733E-005  0.2838784E+03  0.7546771E-02  0.1093589E+00
         21   -1    0    0  502  501  0.00000000000E+00  0.00000000000E+00  0.40885240835E+03  0.40885240835E+03  0.00000000000E+00 0.  1.
         21   -1    0    0  501  502 -0.00000000000E+00 -0.00000000000E+00 -0.19710522470E+03  0.19710522470E+03  0.00000000000E+00 0.  1.
         25    1    1    2    0    0  0.58047218750E+02  0.33541118012E+02  0.10943089702E+03  0.17914967883E+03  0.12500000000E+03 0.  0.
         25    1    1    2    0    0 -0.18563181277E+03 -0.91003253254E+01  0.10300173587E+03  0.24652858541E+03  0.12500000000E+03 0.  0.
         25    1    1    2    0    0  0.12758459402E+03 -0.24440792687E+02 -0.68544924846E+00  0.18027936881E+03  0.12500000000E+03 0.  0.
</event>
<event>
 5    0  0.5684733E-005  0.3304796E+03  0.7546771E-02  0.1070925E+00
         21   -1    0    0  502  501  0.00000000000E+00  0.00000000000E+00  0.18499568286E+03  0.18499568286E+03  0.00000000000E+00 0.  1.
         21   -1    0    0  501  502 -0.00000000000E+00 -0.00000000000E+00 -0.59037476113E+03  0.59037476113E+03  0.00000000000E+00 0.  1.
         25    1    1    2    0    0  0.77851192910E+02  0.86431092971E+02 -0.38734837049E+02  0.17509006160E+03  0.12500000000E+03 0.  0.
         25    1    1    2    0    0  0.15375715263E+03 -0.17202159118E+02 -0.19492532683E+03  0.27849247621E+03  0.12500000000E+03 0.  0.
         25    1    1    2    0    0 -0.23160834554E+03 -0.69228933853E+02 -0.17171891438E+03  0.32178790618E+03  0.12500000000E+03 0.  0.
</event>
<event>
 5    0  0.5684733E-005  0.5263978E+03  0.7546771E-02  0.1007109E+00
         21   -1    0    0  502  501  0.00000000000E+00  0.00000000000E+00  0.16801102269E+03  0.16801102269E+03  0.00000000000E+00 0. -1.
         21   -1    0    0  501  502 -0.00000000000E+00 -0.00000000000E+00 -0.16492643929E+04  0.16492643929E+04  0.00000000000E+00 0. -1.
         25    1    1    2    0    0 -0.10077318520E+03 -0.32093107852E+02 -0.19938439320E+03  0.25800065635E+03  0.12500000000E+03 0.  0.
         25    1    1    2    0    0 -0.33450876101E+03  0.13834523242E+03 -0.35484767906E+03  0.52208944623E+03  0.12500000000E+03 0.  0.
         25    1    1    2    0    0  0.43528194621E+03 -0.10625212457E+03 -0.92702129794E+03  0.10371853130E+04  0.12500000000E+03 0.  0.
</event>
<event>
 5    0  0.5684733E-005  0.3631276E+03  0.7546771E-02  0.1057352E+00
         21   -1    0    0  502  501  0.00000000000E+00  0.00000000000E+00  0.85339698253E+02  0.85339698253E+02  0.00000000000E+00 0.  1.
         21   -1    0    0  501  502 -0.00000000000E+00 -0.00000000000E+00 -0.15451389281E+04  0.15451389281E+04  0.00000000000E+00 0.  1.
         25    1    1    2    0    0 -0.35521273958E+02  0.14433161616E+03 -0.15556085102E+03  0.24883238273E+03  0.12500000000E+03 0.  0.
         25    1    1    2    0    0 -0.70673221344E+02 -0.19039802922E+03 -0.43702862508E+03  0.49786055566E+03  0.12500000000E+03 0.  0.
         25    1    1    2    0    0  0.10619449530E+03  0.46066413060E+02 -0.86720975370E+03  0.88378568791E+03  0.12500000000E+03 0.  0.
</event>
<event>
 5    0  0.5684733E-005  0.2909926E+03  0.7546771E-02  0.1089832E+00
         21   -1    0    0  502  501  0.00000000000E+00  0.00000000000E+00  0.82406417076E+03  0.82406417076E+03  0.00000000000E+00 0.  1.
         21   -1    0    0  501  502 -0.00000000000E+00 -0.00000000000E+00 -0.10275500898E+03  0.10275500898E+03  0.00000000000E+00 0.  1.
         25    1    1    2    0    0  0.59010141131E+02  0.61234243473E+02  0.75561601225E+02  0.16901593093E+03  0.12500000000E+03 0.  0.
         25    1    1    2    0    0 -0.16306337636E+03 -0.89290829380E+02  0.29740565028E+03  0.37234075487E+03  0.12500000000E+03 0.  0.
         25    1    1    2    0    0  0.10405323523E+03  0.28056585907E+02  0.34834191027E+03  0.38546249393E+03  0.12500000000E+03 0.  0.
</event>
<event>
 5    0  0.5684733E-005  0.3527511E+03  0.7546771E-02  0.1061491E+00
         21   -1    0    0  502  501  0.00000000000E+00  0.00000000000E+00  0.23402468543E+03  0.23402468543E+03  0.00000000000E+00 0. -1.
         21   -1    0    0  501  502 -0.00000000000E+00 -0.00000000000E+00 -0.53171041160E+03  0.53171041160E+03  0.00000000000E+00 0. -1.
         25    1    1    2    0    0 -0.80166057427E+02 -0.71461057269E+02 -0.58200135456E+02  0.17477281035E+03  0.12500000000E+03 0.  0.
         25    1    1    2    0    0  0.49508055761E+02 -0.16058708185E+03  0.31384615684E+02  0.21177642112E+03  0.12500000000E+03 0.  0.
         25    1    1    2    0    0  0.30658001666E+02  0.23204813912E+03 -0.27087020639E+03  0.37918586557E+03  0.12500000000E+03 0.  0.
</event>
<event>
 5    0  0.5684733E-005  0.2265937E+03  0.7546771E-02  0.1129061E+00
         21   -1    0    0  502  501  0.00000000000E+00  0.00000000000E+00  0.10439233175E+04  0.10439233175E+04  0.00000000000E+00 0.  1.
         21   -1    0    0  501  502 -0.00000000000E+00 -0.00000000000E+00 -0.49184345895E+02  0.49184345895E+02  0.00000000000E+00 0.  1.
         25    1    1    2    0    0 -0.10147949813E+02 -0.51591973348E+02  0.34040593303E+03  0.36642313224E+03  0.12500000000E+03 0.  0.
         25    1    1    2    0    0  0.36183977951E+02  0.11485746616E+03  0.36448785102E+03  0.40370522827E+03  0.12500000000E+03 0.  0.
         25    1    1    2    0    0 -0.26036028139E+02 -0.63265492809E+02  0.28984518755E+03  0.32297930288E+03  0.12500000000E+03 0.  0.
</event>
<event>
 5    0  0.5684733E-005  0.3462730E+03  0.7546771E-02  0.1064155E+00
         21   -1    0    0  502  501  0.00000000000E+00  0.00000000000E+00  0.13852317104E+03  0.13852317104E+03  0.00000000000E+00 0.  1.
         21   -1    0    0  501  502 -0.00000000000E+00 -0.00000000000E+00 -0.86559520272E+03  0.86559520272E+03  0.00000000000E+00 0.  1.
         25    1    1    2    0    0 -0.52651231381E+01 -0.99895469151E+02 -0.95362058849E+02  0.18634846001E+03  0.12500000000E+03 0.  0.
         25    1    1    2    0    0 -0.16739841733E+03  0.11293745095E+03 -0.53092812793E+03  0.58162425583E+03  0.12500000000E+03 0.  0.
         25    1    1    2    0    0  0.17266354046E+03 -0.13041981794E+02 -0.10078184490E+03  0.23614565792E+03  0.12500000000E+03 0.  0.
</event>
<event>
 5    0  0.5684733E-005  0.6377529E+03  0.7546771E-02  0.9830035E-01
         21   -1    0    0  502  501  0.00000000000E+00  0.00000000000E+00  0.10433042581E+04  0.10433042581E+04  0.00000000000E+00 0.  1.
         21   -1    0    0  501  502 -0.00000000000E+00 -0.00000000000E+00 -0.38984678987E+03  0.38984678987E+03  0.00000000000E+00 0.  1.
         25    1    1    2    0    0 -0.40189808770E+03 -0.28886890463E+03 -0.56301926126E+02  0.51357786542E+03  0.12500000000E+03 0.  0.
         25    1    1    2    0    0  0.52840123548E+02  0.65469528715E+02  0.20908957655E+03  0.25772424967E+03  0.12500000000E+03 0.  0.
         25    1    1    2    0    0  0.34905796415E+03  0.22339937592E+03  0.50066981785E+03  0.66184893292E+03  0.12500000000E+03 0.  0.
</event>
<event>
 5    0  0.5684733E-005  0.2535172E+03  0.7546771E-02  0.1111102E+00
         21   -1    0    0  502  501  0.00000000000E+00  0.00000000000E+00  0.69407557936E+03  0.69407557936E+03  0.00000000000E+00 0. -1.
         21   -1    0    0  501  502 -0.00000000000E+00 -0.00000000000E+00 -0.92599374758E+02  0.92599374758E+02  0.00000000000E+00 0. -1.
         25    1    1    2    0    0 -0.12213177815E+03  0.74303815338E+02  0.17132130467E+03  0.25576007828E+03  0.12500000000E+03 0.  0.
         25    1    1    2    0    0  0.75306750419E+02  0.41339479559E+01  0.27711970292E+03  0.31322280557E+03  0.12500000000E+03 0.  0.
         25    1    1    2    0    0  0.46825027728E+02 -0.78437763294E+02  0.15303519701E+03  0.21769207027E+03  0.12500000000E+03 0.  0.
</event>
<event>
 5    0  0.5684733E-005  0.3679907E+03  0.7546771E-02  0.1055464E+00
         21   -1    0    0  502  501  0.00000000000E+00  0.00000000000E+00  0.22235982448E+03  0.22235982448E+03  0.00000000000E+00 0. -1.
         21   -1    0    0  501  502 -0.00000000000E+00 -0.00000000000E+00 -0.60900013910E+03  0.60900013910E+03  0.00000000000E+00 0. -1.
         25    1    1    2    0    0 -0.92519182746E+01  0.35269670748E+02 -0.38620476754E+01  0.13026689172E+03  0.12500000000E+03 0.  0.
         25    1    1    2    0    0  0.19241835230E+02  0.12160301364E+03  0.82829469911E+02  0.19401871620E+03  0.12500000000E+03 0.  0.
         25    1    1    2    0    0 -0.99899169552E+01 -0.15687268439E+03 -0.46560773685E+03  0.50707435566E+03  0.12500000000E+03 0.  0.
</event>
<event>
 5    0  0.5684733E-005  0.3207961E+03  0.7546771E-02  0.1075284E+00
         21   -1    0    0  502  501  0.00000000000E+00  0.00000000000E+00  0.10708318126E+04  0.10708318126E+04  0.00000000000E+00 0. -1.
         21   -1    0    0  501  502 -0.00000000000E+00 -0.00000000000E+00 -0.96102961854E+02  0.96102961854E+02  0.00000000000E+00 0. -1.
         25    1    1    2    0    0 -0.16112613439E+03 -0.85856056588E+01  0.18698903712E+03  0.27681265110E+03  0.12500000000E+03 0.  0.
         25    1    1    2    0    0  0.22982947840E+03 -0.52349194106E+01  0.59452269419E+03  0.64956233529E+03  0.12500000000E+03 0.  0.
         25    1    1    2    0    0 -0.68703344011E+02  0.13820525069E+02  0.19321711945E+03  0.24055978808E+03  0.12500000000E+03 0.  0.
</event>
<event>
 5    0  0.5684733E-005  0.2933068E+03  0.7546771E-02  0.1088635E+00
         21   -1    0    0  502  501  0.00000000000E+00  0.00000000000E+00  0.56780260766E+03  0.56780260766E+03  0.00000000000E+00 0. -1.
         21   -1    0    0  501  502 -0.00000000000E+00 -0.00000000000E+00 -0.15151189792E+03  0.15151189792E+03  0.00000000000E+00 0. -1.
         25    1    1    2    0    0  0.39955194800E+02  0.22045678297E+02 -0.40300973963E+01  0.13313027908E+03  0.12500000000E+03 0.  0.
         25    1    1    2    0    0 -0.17142834414E+03 -0.13825970347E+01  0.14943609777E+03  0.25951057024E+03  0.12500000000E+03 0.  0.
         25    1    1    2    0    0  0.13147314934E+03 -0.20663081263E+02  0.27088470937E+03  0.32667365626E+03  0.12500000000E+03 0.  0.
</event>
<event>
 5    0  0.5684733E-005  0.2666486E+03  0.7546771E-02  0.1103213E+00
         21   -1    0    0  502  501  0.00000000000E+00  0.00000000000E+00  0.12752870838E+04  0.12752870838E+04  0.00000000000E+00 0. -1.
         21   -1    0    0  501  502 -0.00000000000E+00 -0.00000000000E+00 -0.55753311200E+02  0.55753311200E+02  0.00000000000E+00 0. -1.
         25    1    1    2    0    0  0.24473943170E+02 -0.13288722734E+03  0.44849109631E+03  0.48479609379E+03  0.12500000000E+03 0.  0.
         25    1    1    2    0    0  0.87047395666E+02  0.72585802059E+02  0.42019570562E+03  0.45280832454E+03  0.12500000000E+03 0.  0.
         25    1    1    2    0    0 -0.11152133884E+03  0.60301425281E+02  0.35084697065E+03  0.39343597665E+03  0.12500000000E+03 0.  0.
</event>
<event>
 5    0  0.5684733E-005  0.5176088E+03  0.7546771E-02  0.1009282E+00
         21   -1    0    0  502  501  0.00000000000E+00  0.00000000000E+00  0.83292539709E+03  0.83292539709E+03  0.00000000000E+00 0. -1.
         21   -1    0    0  501  502 -0.00000000000E+00 -0.00000000000E+00 -0.32166010189E+03  0.32166010189E+03  0.00000000000E+00 0. -1.
         25    1    1    2    0    0 -0.92953775780E+02 -0.28866026128E+03  0.43453297264E+03  0.54443461975E+03  0.12500000000E+03 0.  0.
         25    1    1    2    0    0  0.16884206370E+03  0.36686344095E+03  0.11867986913E+03  0.43909718527E+03  0.12500000000E+03 0.  0.
         25    1    1    2    0    0 -0.75888287915E+02 -0.78203179671E+02 -0.41947546569E+02  0.17105369396E+03  0.12500000000E+03 0.  0.
</event>
<event>
 5    0  0.5684733E-005  0.3143328E+03  0.7546771E-02  0.1078287E+00
         21   -1    0    0  502  501  0.00000000000E+00  0.00000000000E+00  0.23485983805E+03  0.23485983805E+03  0.00000000000E+00 0. -1.
         21   -1    0    0  501  502 -0.00000000000E+00 -0.00000000000E+00 -0.42069829543E+03  0.42069829543E+03  0.00000000000E+00 0. -1.
         25    1    1    2    0    0  0.35213791969E+02  0.35060042051E+00 -0.69734140107E+01  0.13005292218E+03  0.12500000000E+03 0.  0.
         25    1    1    2    0    0 -0.95097545033E+02 -0.18939226510E+03 -0.15284922893E+03  0.28965645157E+03  0.12500000000E+03 0.  0.
         25    1    1    2    0    0  0.59883753064E+02  0.18904166468E+03 -0.26015814436E+02  0.23584875973E+03  0.12500000000E+03 0.  0.
</event>
<event>
 5    0  0.5684733E-005  0.2016401E+03  0.7546771E-02  0.1148363E+00
         21   -1    0    0  502  501  0.00000000000E+00  0.00000000000E+00  0.70855560529E+02  0.70855560529E+02  0.00000000000E+00 0. -1.
         21   -1    0    0  501  502 -0.00000000000E+00 -0.00000000000E+00 -0.57382541616E+03  0.57382541616E+03  0.00000000000E+00 0. -1.
         25    1    1    2    0    0 -0.38487773936E+02  0.13285396916E+02 -0.11069663981E+03  0.17186202774E+03  0.12500000000E+03 0.  0.
         25    1    1    2    0    0  0.29418387033E+02 -0.21882315537E+02 -0.25751441639E+03  0.28858785816E+03  0.12500000000E+03 0.  0.
         25    1    1    2    0    0  0.90693869032E+01  0.85969186218E+01 -0.13475879943E+03  0.18423109079E+03  0.12500000000E+03 0.  0.
</event>
<event>
 5    0  0.5684733E-005  0.2762209E+03  0.7546771E-02  0.1097771E+00
         21   -1    0    0  502  501  0.00000000000E+00  0.00000000000E+00  0.21675628860E+03  0.21675628860E+03  0.00000000000E+00 0. -1.
         21   -1    0    0  501  502 -0.00000000000E+00 -0.00000000000E+00 -0.35199886535E+03  0.35199886535E+03  0.00000000000E+00 0. -1.
         25    1    1    2    0    0  0.62080017531E+02 -0.36800985143E+02 -0.64918082966E+02  0.15826433136E+03  0.12500000000E+03 0.  0.
         25    1    1    2    0    0 -0.74002454779E+01  0.15986975724E+03  0.23066585852E+02  0.20437751906E+03  0.12500000000E+03 0.  0.
         25    1    1    2    0    0 -0.54679772054E+02 -0.12306877210E+03 -0.93391079635E+02  0.20611330353E+03  0.12500000000E+03 0.  0.
</event>
<event>
 5    0  0.5684733E-005  0.3505433E+03  0.7546771E-02  0.1062392E+00
         21   -1    0    0  502  501  0.00000000000E+00  0.00000000000E+00  0.92223943204E+02  0.92223943204E+02  0.00000000000E+00 0.  1.
         21   -1    0    0  501  502 -0.00000000000E+00 -0.00000000000E+00 -0.13324156485E+04  0.13324156485E+04  0.00000000000E+00 0.  1.
         25    1    1    2    0    0 -0.13887660820E+02 -0.41557204860E+02 -0.85985869447E+03  0.87000105911E+03  0.12500000000E+03 0.  0.
         25    1    1    2    0    0 -0.15151029988E+02 -0.88917417114E+02 -0.26676922618E+02  0.15643694888E+03  0.12500000000E+03 0.  0.
         25    1    1    2    0    0  0.29038690808E+02  0.13047462197E+03 -0.35365608822E+03  0.39820158373E+03  0.12500000000E+03 0.  0.
</event>
<event>
 5    0  0.5684733E-005  0.4251356E+03  0.7546771E-02  0.1035408E+00
         21   -1    0    0  502  501  0.00000000000E+00  0.00000000000E+00  0.15051555485E+04  0.15051555485E+04  0.00000000000E+00 0. -1.
         21   -1    0    0  501  502 -0.00000000000E+00 -0.00000000000E+00 -0.12008081651E+03  0.12008081651E+03  0.00000000000E+00 0. -1.
         25    1    1    2    0    0  0.90195136457E+02 -0.10422491964E+02  0.56223274689E+03  0.58307328241E+03  0.12500000000E+03 0.  0.
         25    1    1    2    0    0  0.86577390888E+02 -0.43325928523E+02  0.80276482273E+03  0.81818649544E+03  0.12500000000E+03 0.  0.
         25    1    1    2    0    0 -0.17677252734E+03  0.53748420486E+02  0.20077162319E+02  0.22397658711E+03  0.12500000000E+03 0.  0.
</event>
<event>
 5    0  0.5684733E-005  0.2419689E+03  0.7546771E-02  0.1118488E+00
         21   -1    0    0  502  501  0.00000000000E+00  0.00000000000E+00  0.55510641329E+02  0.55510641329E+02  0.00000000000E+00 0. -1.
         21   -1    0    0  501  502 -0.00000000000E+00 -0.00000000000E+00 -0.10547339203E+04  0.10547339203E+04  0.00000000000E+00 0. -1.
         25    1    1    2    0    0 -0.48657746614E+02  0.96726549979E+02 -0.40000564043E+03  0.43284305950E+03  0.12500000000E+03 0.  0.
         25    1    1    2    0    0 -0.11219977088E+02 -0.57861537102E+01 -0.39426958352E+03  0.41380293855E+03  0.12500000000E+03 0.  0.
         25    1    1    2    0    0  0.59877723702E+02 -0.90940396269E+02 -0.20494805503E+03  0.26359856359E+03  0.12500000000E+03 0.  0.
</event>
<event>
 5    0  0.5684733E-005  0.3766826E+03  0.7546771E-02  0.1052167E+00
         21   -1    0    0  502  501  0.00000000000E+00  0.00000000000E+00  0.39139775205E+03  0.39139775205E+03  0.00000000000E+00 0.  1.
         21   -1    0    0  501  502 -0.00000000000E+00 -0.00000000000E+00 -0.36252075164E+03  0.36252075164E+03  0.00000000000E+00 0.  1.
         25    1    1    2    0    0 -0.53266149926E+02  0.11023726204E+03  0.91400884440E+02  0.19740480832E+03  0.12500000000E+03 0.  0.
         25    1    1    2    0    0  0.19045684488E+03  0.78479289394E+02  0.82518272760E+02  0.25469015286E+03  0.12500000000E+03 0.  0.
         25    1    1    2    0    0 -0.13719069495E+03 -0.18871655144E+03 -0.14504215679E+03  0.30182354251E+03  0.12500000000E+03 0.  0.
</event>
<event>
 5    0  0.5684733E-005  0.2562706E+03  0.7546771E-02  0.1109405E+00
         21   -1    0    0  502  501  0.00000000000E+00  0.00000000000E+00  0.57656580067E+03  0.57656580067E+03  0.00000000000E+00 0.  1.
         21   -1    0    0  501  502 -0.00000000000E+00 -0.00000000000E+00 -0.11390659264E+03  0.11390659264E+03  0.00000000000E+00 0.  1.
         25    1    1    2    0    0 -0.10216900670E+03 -0.10161780762E+02  0.25291540574E+03  0.30022153517E+03  0.12500000000E+03 0.  0.
         25    1    1    2    0    0  0.11252427379E+03 -0.66839396182E+02  0.10099124227E+03  0.20725213651E+03  0.12500000000E+03 0.  0.
         25    1    1    2    0    0 -0.10355267092E+02  0.77001176944E+02  0.10875256002E+03  0.18299872163E+03  0.12500000000E+03 0.  0.
</event>
<event>
 5    0  0.5684733E-005  0.5006732E+03  0.7546771E-02  0.1013603E+00
         21   -1    0    0  502  501  0.00000000000E+00  0.00000000000E+00  0.15675664289E+04  0.15675664289E+04  0.00000000000E+00 0.  1.
         21   -1    0    0  501  502 -0.00000000000E+00 -0.00000000000E+00 -0.15991261489E+03  0.15991261489E+03  0.00000000000E+00 0.  1.
         25    1    1    2    0    0 -0.32284325399E+02 -0.18746799642E+03  0.17827524960E+03  0.28912556436E+03  0.12500000000E+03 0.  0.
         25    1    1    2    0    0 -0.24371052833E+03  0.29395230455E+03  0.50017267563E+03  0.64156097482E+03  0.12500000000E+03 0.  0.
         25    1    1    2    0    0  0.27599485373E+03 -0.10648430812E+03  0.72920588878E+03  0.79679250461E+03  0.12500000000E+03 0.  0.
</event>
<event>
 5    0  0.5684733E-005  0.2999501E+03  0.7546771E-02  0.1085266E+00
         21   -1    0    0  502  501  0.00000000000E+00  0.00000000000E+00  0.63995255294E+03  0.63995255294E+03  0.00000000000E+00 0.  1.
         21   -1    0    0  501  502 -0.00000000000E+00 -0.00000000000E+00 -0.14058860863E+03  0.14058860863E+03  0.00000000000E+00 0.  1.
         25    1    1    2    0    0 -0.24226953657E+02  0.93018118826E+02  0.12239927104E+03  0.19961437139E+03  0.12500000000E+03 0.  0.
         25    1    1    2    0    0 -0.13610000957E+03 -0.95095756403E+02  0.83622235194E+02  0.22401806559E+03  0.12500000000E+03 0.  0.
         25    1    1    2    0    0  0.16032696322E+03  0.20776375766E+01  0.29334243807E+03  0.35690872459E+03  0.12500000000E+03 0.  0.
</event>
<event>
 5    0  0.5684733E-005  0.2993286E+03  0.7546771E-02  0.1085577E+00
         21   -1    0    0  502  501  0.00000000000E+00  0.00000000000E+00  0.12021600124E+03  0.12021600124E+03  0.00000000000E+00 0.  1.
         21   -1    0    0  501  502 -0.00000000000E+00 -0.00000000000E+00 -0.74530538621E+03  0.74530538621E+03  0.00000000000E+00 0.  1.
         25    1    1    2    0    0  0.98278223198E+01  0.16317764384E+03 -0.38722709716E+03  0.43851266152E+03  0.12500000000E+03 0.  0.
         25    1    1    2    0    0 -0.56585177233E+02 -0.39448610770E+01 -0.47593502759E+02  0.14528449923E+03  0.12500000000E+03 0.  0.
         25    1    1    2    0    0  0.46757354913E+02 -0.15923278277E+03 -0.19026878505E+03  0.28172422670E+03  0.12500000000E+03 0.  0.
</event>
<event>
 5    0  0.5684733E-005  0.4308130E+03  0.7546771E-02  0.1033603E+00
         21   -1    0    0  502  501  0.00000000000E+00  0.00000000000E+00  0.20688676459E+03  0.20688676459E+03  0.00000000000E+00 0. -1.
         21   -1    0    0  501  502 -0.00000000000E+00 -0.00000000000E+00 -0.89710832561E+03  0.89710832561E+03  0.00000000000E+00 0. -1.
         25    1    1    2    0    0  0.10895980636E+03  0.12111545576E+03 -0.30519147978E+03  0.36784240152E+03  0.12500000000E+03 0.  0.
         25    1    1    2    0    0  0.10182857422E+03 -0.25070882855E+03 -0.51560935465E+02  0.30250207488E+03  0.12500000000E+03 0.  0.
         25    1    1    2    0    0 -0.21078838058E+03  0.12959337280E+03 -0.33346914577E+03  0.43365061379E+03  0.12500000000E+03 0.  0.
</event>
<event>
 5    0  0.5684733E-005  0.3543753E+03  0.7546771E-02  0.1060833E+00
         21   -1    0    0  502  501  0.00000000000E+00  0.00000000000E+00  0.18496286344E+03  0.18496286344E+03  0.00000000000E+00 0. -1.
         21   -1    0    0  501  502 -0.00000000000E+00 -0.00000000000E+00 -0.67895701540E+03  0.67895701540E+03  0.00000000000E+00 0. -1.
         25    1    1    2    0    0 -0.86820671735E+02 -0.10958035512E+03 -0.98175424370E+02  0.21168159395E+03  0.12500000000E+03 0.  0.
         25    1    1    2    0    0  0.14006742533E+03  0.55315597541E+02  0.33603572065E+02  0.19857718656E+03  0.12500000000E+03 0.  0.
         25    1    1    2    0    0 -0.53246753590E+02  0.54264757575E+02 -0.42942229965E+03  0.45366109831E+03  0.12500000000E+03 0.  0.
</event>
<event>
 5    0  0.5684733E-005  0.3082305E+03  0.7546771E-02  0.1081197E+00
         21   -1    0    0  502  501  0.00000000000E+00  0.00000000000E+00  0.38730519088E+03  0.38730519088E+03  0.00000000000E+00 0. -1.
         21   -1    0    0  501  502 -0.00000000000E+00 -0.00000000000E+00 -0.24530020385E+03  0.24530020385E+03  0.00000000000E+00 0. -1.
         25    1    1    2    0    0 -0.34615599018E+02  0.10747835630E+03 -0.28820998761E+02  0.17089612851E+03  0.12500000000E+03 0.  0.
         25    1    1    2    0    0 -0.20331683960E+02  0.99007572755E+02 -0.33195970455E+00  0.16075132047E+03  0.12500000000E+03 0.  0.
         25    1    1    2    0    0  0.54947282978E+02 -0.20648592906E+03  0.17115794550E+03  0.30095794575E+03  0.12500000000E+03 0.  0.
</event>
<event>
 5    0  0.5684733E-005  0.4184494E+03  0.7546771E-02  0.1037572E+00
         21   -1    0    0  502  501  0.00000000000E+00  0.00000000000E+00  0.14749018287E+04  0.14749018287E+04  0.00000000000E+00 0. -1.
         21   -1    0    0  501  502 -0.00000000000E+00 -0.00000000000E+00 -0.11871967779E+03  0.11871967779E+03  0.00000000000E+00 0. -1.
         25    1    1    2    0    0  0.10213608164E+03 -0.13130232438E+03  0.43431640418E+03  0.48158884798E+03  0.12500000000E+03 0.  0.
         25    1    1    2    0    0  0.36727430180E+02 -0.15941851288E+02 -0.26827596586E+02  0.13396927517E+03  0.12500000000E+03 0.  0.
         25    1    1    2    0    0 -0.13886351182E+03  0.14724417567E+03  0.94869334335E+03  0.97806338337E+03  0.12500000000E+03 0.  0.
</event>
<event>
 5    0  0.5684733E-005  0.2194855E+03  0.7546771E-02  0.1134267E+00
         21   -1    0    0  502  501  0.00000000000E+00  0.00000000000E+00  0.45515171443E+03  0.45515171443E+03  0.00000000000E+00 0. -1.
         21   -1    0    0  501  502 -0.00000000000E+00 -0.00000000000E+00 -0.10584137167E+03  0.10584137167E+03  0.00000000000E+00 0. -1.
         25    1    1    2    0    0 -0.36521618723E+01 -0.17569310970E+02  0.19056777040E+03  0.22861122914E+03  0.12500000000E+03 0.  0.
         25    1    1    2    0    0  0.66641388784E+02 -0.28526398002E+02  0.73128702172E+02  0.16194948954E+03  0.12500000000E+03 0.  0.
         25    1    1    2    0    0 -0.62989226912E+02  0.46095708971E+02  0.85613870191E+02  0.17043236741E+03  0.12500000000E+03 0.  0.
</event>
<event>
 5    0  0.5684733E-005  0.2720201E+03  0.7546771E-02  0.1100129E+00
         21   -1    0    0  502  501  0.00000000000E+00  0.00000000000E+00  0.27312111084E+03  0.27312111084E+03  0.00000000000E+00 0.  1.
         21   -1    0    0  501  502 -0.00000000000E+00 -0.00000000000E+00 -0.27092349849E+03  0.27092349849E+03  0.00000000000E+00 0.  1.
         25    1    1    2    0    0  0.17615478860E+02 -0.89605417790E+02 -0.41970427732E+02  0.16039311954E+03  0.12500000000E+03 0.  0.
         25    1    1    2    0    0  0.83580653051E+01 -0.38759768192E+02  0.12879168067E+03  0.18380553282E+03  0.12500000000E+03 0.  0.
         25    1    1    2    0    0 -0.25973544166E+02  0.12836518598E+03 -0.84623640590E+02  0.19984595697E+03  0.12500000000E+03 0.  0.
</event>
<event>
 5    0  0.5684733E-005  0.2353968E+03  0.7546771E-02  0.1122898E+00
         21   -1    0    0  502  501  0.00000000000E+00  0.00000000000E+00  0.20387609176E+03  0.20387609176E+03  0.00000000000E+00 0. -1.
         21   -1    0    0  501  502 -0.00000000000E+00 -0.00000000000E+00 -0.27179077106E+03  0.27179077106E+03  0.00000000000E+00 0. -1.
         25    1    1    2    0    0  0.65886049524E+02  0.62716846115E+02 -0.74828836680E+02  0.17175194062E+03  0.12500000000E+03 0.  0.
         25    1    1    2    0    0 -0.34723855963E+02  0.24049022997E+02 -0.46147719681E+02  0.13978094903E+03  0.12500000000E+03 0.  0.
         25    1    1    2    0    0 -0.31162193562E+02 -0.86765869112E+02  0.53061877066E+02  0.16413397317E+03  0.12500000000E+03 0.  0.
</event>
<event>
 5    0  0.5684733E-005  0.2483489E+03  0.7546771E-02  0.1114353E+00
         21   -1    0    0  502  501  0.00000000000E+00  0.00000000000E+00  0.88327066350E+02  0.88327066350E+02  0.00000000000E+00 0. -1.
         21   -1    0    0  501  502 -0.00000000000E+00 -0.00000000000E+00 -0.69828183739E+03  0.69828183739E+03  0.00000000000E+00 0. -1.
         25    1    1    2    0    0  0.69036412349E+02 -0.78161867124E+02 -0.14453132676E+03  0.21769154351E+03  0.12500000000E+03 0.  0.
         25    1    1    2    0    0 -0.80334533531E+02 -0.75351148988E+01 -0.11863031489E+03  0.19028548774E+03  0.12500000000E+03 0.  0.
         25    1    1    2    0    0  0.11298121182E+02  0.85696982023E+02 -0.34679312939E+03  0.37863187249E+03  0.12500000000E+03 0.  0.
</event>
<event>
 5    0  0.5684733E-005  0.2583755E+03  0.7546771E-02  0.1108123E+00
         21   -1    0    0  502  501  0.00000000000E+00  0.00000000000E+00  0.83314449408E+02  0.83314449408E+02  0.00000000000E+00 0.  1.
         21   -1    0    0  501  502 -0.00000000000E+00 -0.00000000000E+00 -0.80127611090E+03  0.80127611090E+03  0.00000000000E+00 0.  1.
         25    1    1    2    0    0 -0.18252927874E+02  0.12175586804E+03 -0.39424191470E+03  0.43151981193E+03  0.12500000000E+03 0.  0.
         25    1    1    2    0    0  0.62893020013E+02 -0.23896990612E+02 -0.20715321952E+03  0.25112557513E+03  0.12500000000E+03 0.  0.
         25    1    1    2    0    0 -0.44640092139E+02 -0.97858877433E+02 -0.11656652727E+03  0.20194517325E+03  0.12500000000E+03 0.  0.
</event>
<event>
 5    0  0.5684733E-005  0.3136623E+03  0.7546771E-02  0.1078604E+00
         21   -1    0    0  502  501  0.00000000000E+00  0.00000000000E+00  0.64201940748E+03  0.64201940748E+03  0.00000000000E+00 0.  1.
         21   -1    0    0  501  502 -0.00000000000E+00 -0.00000000000E+00 -0.15324153327E+03  0.15324153327E+03  0.00000000000E+00 0.  1.
         25    1    1    2    0    0 -0.16954518577E+03  0.31314227704E+02  0.83627036980E+02  0.22878949318E+03  0.12500000000E+03 0.  0.
         25    1    1    2    0    0  0.12052758263E+03 -0.10366544233E+03  0.35011506610E+03  0.40432534130E+03  0.12500000000E+03 0.  0.
         25    1    1    2    0    0  0.49017603135E+02  0.72351214622E+02  0.55035771134E+02  0.16214610627E+03  0.12500000000E+03 0.  0.
</event>
<event>
 5    0  0.5684733E-005  0.3958071E+03  0.7546771E-02  0.1045241E+00
         21   -1    0    0  502  501  0.00000000000E+00  0.00000000000E+00  0.19273203988E+03  0.19273203988E+03  0.00000000000E+00 0.  1.
         21   -1    0    0  501  502 -0.00000000000E+00 -0.00000000000E+00 -0.81285525388E+03  0.81285525388E+03  0.00000000000E+00 0.  1.
         25    1    1    2    0    0 -0.66424307171E+02  0.11201953869E+03 -0.27083319479E+03  0.32547839411E+03  0.12500000000E+03 0.  0.
         25    1    1    2    0    0 -0.31795910992E+02  0.31674998339E+02  0.11054168086E+03  0.17279684222E+03  0.12500000000E+03 0.  0.
         25    1    1    2    0    0  0.98220218163E+02 -0.14369453703E+03 -0.45983170007E+03  0.50731205743E+03  0.12500000000E+03 0.  0.
</event>
<event>
 5    0  0.5684733E-005  0.2617963E+03  0.7546771E-02  0.1106069E+00
         21   -1    0    0  502  501  0.00000000000E+00  0.00000000000E+00  0.18417230874E+03  0.18417230874E+03  0.00000000000E+00 0.  1.
         21   -1    0    0  501  502 -0.00000000000E+00 -0.00000000000E+00 -0.37213690735E+03  0.37213690735E+03  0.00000000000E+00 0.  1.
         25    1    1    2    0    0  0.55032876141E+02 -0.12672306613E+03 -0.83443849713E+02  0.20414511750E+03  0.12500000000E+03 0.  0.
         25    1    1    2    0    0 -0.83016431108E+02  0.20932539612E+02 -0.10789099891E+03  0.18599829756E+03  0.12500000000E+03 0.  0.
         25    1    1    2    0    0  0.27983554967E+02  0.10579052651E+03  0.33702500080E+01  0.16616580104E+03  0.12500000000E+03 0.  0.
</event>
<event>
 5    0  0.5684733E-005  0.3187714E+03  0.7546771E-02  0.1076216E+00
         21   -1    0    0  502  501  0.00000000000E+00  0.00000000000E+00  0.18216283483E+03  0.18216283483E+03  0.00000000000E+00 0.  1.
         21   -1    0    0  501  502 -0.00000000000E+00 -0.00000000000E+00 -0.55782638179E+03  0.55782638179E+03  0.00000000000E+00 0.  1.
         25    1    1    2    0    0 -0.83917669730E+02 -0.14185849917E+03 -0.40366655543E+02  0.21076165676E+03  0.12500000000E+03 0.  0.
         25    1    1    2    0    0  0.75884505561E+02  0.10403591657E+03 -0.35415693485E+03  0.39703156628E+03  0.12500000000E+03 0.  0.
         25    1    1    2    0    0  0.80331641691E+01  0.37822582596E+02  0.18860043427E+02  0.13219599358E+03  0.12500000000E+03 0.  0.
</event>
<event>
 5    0  0.5684733E-005  0.3856023E+03  0.7546771E-02  0.1048882E+00
         21   -1    0    0  502  501  0.00000000000E+00  0.00000000000E+00  0.42484314319E+03  0.42484314319E+03  0.00000000000E+00 0.  1.
         21   -1    0    0  501  502 -0.00000000000E+00 -0.00000000000E+00 -0.34998591935E+03  0.34998591935E+03  0.00000000000E+00 0.  1.
         25    1    1    2    0    0 -0.21522279572E+03  0.12806824528E+03  0.10003930016E+03  0.29724600725E+03  0.12500000000E+03 0.  0.
         25    1    1    2    0    0  0.31525337325E+02 -0.19826066694E+03 -0.54624450235E+02  0.24271376045E+03  0.12500000000E+03 0.  0.
         25    1    1    2    0    0  0.18369745840E+03  0.70192421660E+02  0.29442373916E+02  0.23486929485E+03  0.12500000000E+03 0.  0.
</event>
<event>
 5    0  0.5684733E-005  0.2661751E+03  0.7546771E-02  0.1103489E+00
         21   -1    0    0  502  501  0.00000000000E+00  0.00000000000E+00  0.79306689102E+02  0.79306689102E+02  0.00000000000E+00 0.  1.
         21   -1    0    0  501  502 -0.00000000000E+00 -0.00000000000E+00 -0.89335708779E+03  0.89335708779E+03  0.00000000000E+00 0.  1.
         25    1    1    2    0    0  0.52757518809E+02  0.11397760671E+03 -0.12827588365E+03  0.21875546382E+03  0.12500000000E+03 0.  0.
         25    1    1    2    0    0 -0.33157543732E+02  0.33358965097E+01 -0.39663486111E+03  0.41719871040E+03  0.12500000000E+03 0.  0.
         25    1    1    2    0    0 -0.19599975077E+02 -0.11731350322E+03 -0.28913965392E+03  0.33670960267E+03  0.12500000000E+03 0.  0.
</event>
<event>
 5    0  0.5684733E-005  0.3726495E+03  0.7546771E-02  0.1053684E+00
         21   -1    0    0  502  501  0.00000000000E+00  0.00000000000E+00  0.16266818608E+04  0.16266818608E+04  0.00000000000E+00 0.  1.
         21   -1    0    0  501  502 -0.00000000000E+00 -0.00000000000E+00 -0.85368646702E+02  0.85368646702E+02  0.00000000000E+00 0.  1.
         25    1    1    2    0    0  0.74803338178E+02  0.18173166247E+03  0.70497490712E+03  0.74245306667E+03  0.12500000000E+03 0.  0.
         25    1    1    2    0    0  0.50918517359E+02 -0.16256780148E+03  0.73440919905E+03  0.76420079634E+03  0.12500000000E+03 0.  0.
         25    1    1    2    0    0 -0.12572185554E+03 -0.19163860988E+02  0.10192910796E+03  0.20539664451E+03  0.12500000000E+03 0.  0.
</event>
<event>
 5    0  0.5684733E-005  0.2303156E+03  0.7546771E-02  0.1126418E+00
         21   -1    0    0  502  501  0.00000000000E+00  0.00000000000E+00  0.40542372645E+03  0.40542372645E+03  0.00000000000E+00 0.  1.
         21   -1    0    0  501  502 -0.00000000000E+00 -0.00000000000E+00 -0.13083907249E+03  0.13083907249E+03  0.00000000000E+00 0.  1.
         25    1    1    2    0    0  0.78169361960E+02  0.62282064460E+02  0.49045333296E+02  0.16739160499E+03  0.12500000000E+03 0.  0.
         25    1    1    2    0    0 -0.91653608954E+02 -0.53399304181E+02  0.14818594739E+03  0.22098856243E+03  0.12500000000E+03 0.  0.
         25    1    1    2    0    0  0.13484246994E+02 -0.88827602795E+01  0.77353373275E+02  0.14788263152E+03  0.12500000000E+03 0.  0.
</event>
<event>
 5    0  0.5684733E-005  0.3004361E+03  0.7546771E-02  0.1085023E+00
         21   -1    0    0  502  501  0.00000000000E+00  0.00000000000E+00  0.80519092187E+02  0.80519092187E+02  0.00000000000E+00 0. -1.
         21   -1    0    0  501  502 -0.00000000000E+00 -0.00000000000E+00 -0.11209990727E+04  0.11209990727E+04  0.00000000000E+00 0. -1.
         25    1    1    2    0    0 -0.10808363260E+03 -0.10038061124E+03 -0.28372447889E+03  0.34334081999E+03  0.12500000000E+03 0.  0.
         25    1    1    2    0    0  0.83123281182E+02  0.92759691758E+01 -0.65338388657E+03  0.67047075007E+03  0.12500000000E+03 0.  0.
         25    1    1    2    0    0  0.24960351416E+02  0.91104642066E+02 -0.10337161510E+03  0.18770659487E+03  0.12500000000E+03 0.  0.
</event>
<event>
 5    0  0.5684733E-005  0.2215988E+03  0.7546771E-02  0.1132697E+00
         21   -1    0    0  502  501  0.00000000000E+00  0.00000000000E+00  0.11335039803E+04  0.11335039803E+04  0.00000000000E+00 0. -1.
         21   -1    0    0  501  502 -0.00000000000E+00 -0.00000000000E+00 -0.43322329594E+02  0.43322329594E+02  0.00000000000E+00 0. -1.
         25    1    1    2    0    0  0.13392358671E+02 -0.10987565906E+01  0.67471696594E+03  0.68632976525E+03  0.12500000000E+03 0.  0.
         25    1    1    2    0    0 -0.38036578617E+02 -0.45437729000E+01  0.24382295757E+03  0.27666236069E+03  0.12500000000E+03 0.  0.
         25    1    1    2    0    0  0.24644219946E+02  0.56425294905E+01  0.17164172722E+03  0.21383418398E+03  0.12500000000E+03 0.  0.
</event>
<event>
 5    0  0.5684733E-005  0.2531932E+03  0.7546771E-02  0.1111303E+00
         21   -1    0    0  502  501  0.00000000000E+00  0.00000000000E+00  0.11292349281E+03  0.11292349281E+03  0.00000000000E+00 0. -1.
         21   -1    0    0  501  502 -0.00000000000E+00 -0.00000000000E+00 -0.56770117659E+03  0.56770117659E+03  0.00000000000E+00 0. -1.
         25    1    1    2    0    0 -0.11328764002E+03  0.41255819064E+02 -0.12278980683E+03  0.21269336767E+03  0.12500000000E+03 0.  0.
         25    1    1    2    0    0 -0.25891842807E+02 -0.11953857514E+02 -0.74401959523E+02  0.14823607461E+03  0.12500000000E+03 0.  0.
         25    1    1    2    0    0  0.13917948282E+03 -0.29301961550E+02 -0.25758591742E+03  0.31969522712E+03  0.12500000000E+03 0.  0.
</event>
<event>
 5    0  0.5684733E-005  0.2351115E+03  0.7546771E-02  0.1123093E+00
         21   -1    0    0  502  501  0.00000000000E+00  0.00000000000E+00  0.11832931926E+03  0.11832931926E+03  0.00000000000E+00 0.  1.
         21   -1    0    0  501  502 -0.00000000000E+00 -0.00000000000E+00 -0.46714889737E+03  0.46714889737E+03  0.00000000000E+00 0.  1.
         25    1    1    2    0    0  0.31321655465E+01 -0.37319729309E+02 -0.10346768188E+03  0.16653268103E+03  0.12500000000E+03 0.  0.
         25    1    1    2    0    0  0.73168404769E+02  0.27220014834E+02 -0.18208528117E+02  0.14849611160E+03  0.12500000000E+03 0.  0.
         25    1    1    2    0    0 -0.76300570315E+02  0.10099714475E+02 -0.22714336812E+03  0.27044942400E+03  0.12500000000E+03 0.  0.
</event>
<event>
 5    0  0.5684733E-005  0.3425622E+03  0.7546771E-02  0.1065710E+00
         21   -1    0    0  502  501  0.00000000000E+00  0.00000000000E+00  0.61465561176E+02  0.61465561176E+02  0.00000000000E+00 0.  1.
         21   -1    0    0  501  502 -0.00000000000E+00 -0.00000000000E+00 -0.19091801431E+04  0.19091801431E+04  0.00000000000E+00 0.  1.
         25    1    1    2    0    0  0.11308302349E+03 -0.24372595835E+03 -0.94914895110E+03  0.99433336681E+03  0.12500000000E+03 0.  0.
         25    1    1    2    0    0 -0.33104570006E+02  0.17669993126E+03 -0.51618451228E+03  0.56070511767E+03  0.12500000000E+03 0.  0.
         25    1    1    2    0    0 -0.79978453488E+02  0.67026027087E+02 -0.38238111857E+03  0.41560721983E+03  0.12500000000E+03 0.  0.
</event>
<event>
 5    0  0.5684733E-005  0.3651003E+03  0.7546771E-02  0.1056582E+00
         21   -1    0    0  502  501  0.00000000000E+00  0.00000000000E+00  0.13533831987E+04  0.13533831987E+04  0.00000000000E+00 0. -1.
         21   -1    0    0  501  502 -0.00000000000E+00 -0.00000000000E+00 -0.98492611596E+02  0.98492611596E+02  0.00000000000E+00 0. -1.
         25    1    1    2    0    0 -0.13331070751E+03  0.37989148053E+02  0.87446064078E+03  0.89415956763E+03  0.12500000000E+03 0.  0.
         25    1    1    2    0    0  0.92667856049E+02  0.10930052474E+03  0.10021659548E+03  0.21494720808E+03  0.12500000000E+03 0.  0.
         25    1    1    2    0    0  0.40642851456E+02 -0.14728967279E+03  0.28021335089E+03  0.34276903463E+03  0.12500000000E+03 0.  0.
</event>
<event>
 5    0  0.5684733E-005  0.3495196E+03  0.7546771E-02  0.1062812E+00
         21   -1    0    0  502  501  0.00000000000E+00  0.00000000000E+00  0.15890766667E+03  0.15890766667E+03  0.00000000000E+00 0.  1.
         21   -1    0    0  501  502 -0.00000000000E+00 -0.00000000000E+00 -0.76877329629E+03  0.76877329629E+03  0.00000000000E+00 0.  1.
         25    1    1    2    0    0 -0.31810524338E+02  0.71930350514E+02 -0.12066577453E+02  0.14817721510E+03  0.12500000000E+03 0.  0.
         25    1    1    2    0    0  0.16376453069E+03 -0.16261492057E+03 -0.19033118558E+03  0.32421195861E+03  0.12500000000E+03 0.  0.
         25    1    1    2    0    0 -0.13195400636E+03  0.90684570058E+02 -0.40746786659E+03  0.45529178924E+03  0.12500000000E+03 0.  0.
</event>
<event>
 5    0  0.5684733E-005  0.3030479E+03  0.7546771E-02  0.1083727E+00
         21   -1    0    0  502  501  0.00000000000E+00  0.00000000000E+00  0.13093277346E+03  0.13093277346E+03  0.00000000000E+00 0.  1.
         21   -1    0    0  501  502 -0.00000000000E+00 -0.00000000000E+00 -0.70141360137E+03  0.70141360137E+03  0.00000000000E+00 0.  1.
         25    1    1    2    0    0 -0.21792002399E+02 -0.58061524644E+02 -0.27313635173E+03  0.30671566418E+03  0.12500000000E+03 0.  0.
         25    1    1    2    0    0 -0.97572481357E+02 -0.10332052577E+03 -0.18183577798E+03  0.26245908313E+03  0.12500000000E+03 0.  0.
         25    1    1    2    0    0  0.11936448376E+03  0.16138205041E+03 -0.11550869820E+03  0.26317162753E+03  0.12500000000E+03 0.  0.
</event>
<event>
 5    0  0.5684733E-005  0.2547078E+03  0.7546771E-02  0.1110365E+00
         21   -1    0    0  502  501  0.00000000000E+00  0.00000000000E+00  0.42389138838E+03  0.42389138838E+03  0.00000000000E+00 0. -1.
         21   -1    0    0  501  502 -0.00000000000E+00 -0.00000000000E+00 -0.15304877346E+03  0.15304877346E+03  0.00000000000E+00 0. -1.
         25    1    1    2    0    0  0.11088927985E+03 -0.69743176056E+02  0.16086003745E+03  0.24220135145E+03  0.12500000000E+03 0.  0.
         25    1    1    2    0    0 -0.14141744552E+02  0.91591259655E+02  0.41157254842E+02  0.16095921039E+03  0.12500000000E+03 0.  0.
         25    1    1    2    0    0 -0.96747535300E+02 -0.21848083600E+02  0.68825322623E+02  0.17377960000E+03  0.12500000000E+03 0.  0.
</event>
<event>
 5    0  0.5684733E-005  0.2315840E+03  0.7546771E-02  0.1125530E+00
         21   -1    0    0  502  501  0.00000000000E+00  0.00000000000E+00  0.28063225667E+02  0.28063225667E+02  0.00000000000E+00 0.  1.
         21   -1    0    0  501  502 -0.00000000000E+00 -0.00000000000E+00 -0.19110836255E+04  0.19110836255E+04  0.00000000000E+00 0.  1.
         25    1    1    2    0    0 -0.21935149104E+02  0.85968755197E+02 -0.76105962395E+03  0.77634304843E+03  0.12500000000E+03 0.  0.
         25    1    1    2    0    0  0.12747867842E+02 -0.86757779985E+02 -0.36679802410E+03  0.39730996842E+03  0.12500000000E+03 0.  0.
         25    1    1    2    0    0  0.91872812624E+01  0.78902478814E+00 -0.75516275175E+03  0.76549383429E+03  0.12500000000E+03 0.  0.
</event>
<event>
 5    0  0.5684733E-005  0.3938287E+03  0.7546771E-02  0.1045938E+00
         21   -1    0    0  502  501  0.00000000000E+00  0.00000000000E+00  0.14348563797E+03  0.14348563797E+03  0.00000000000E+00 0.  1.
         21   -1    0    0  501  502 -0.00000000000E+00 -0.00000000000E+00 -0.10809518440E+04  0.10809518440E+04  0.00000000000E+00 0.  1.
         25    1    1    2    0    0 -0.10929222376E+03 -0.28340740206E+03 -0.58257702699E+03  0.66879409245E+03  0.12500000000E+03 0.  0.
         25    1    1    2    0    0 -0.21029596212E+02  0.17774234474E+03 -0.17927644597E+03  0.28248828137E+03  0.12500000000E+03 0.  0.
         25    1    1    2    0    0  0.13032181998E+03  0.10566505732E+03 -0.17561273310E+03  0.27315510818E+03  0.12500000000E+03 0.  0.
</event>
<event>
 5    0  0.5684733E-005  0.3172803E+03  0.7546771E-02  0.1076908E+00
         21   -1    0    0  502  501  0.00000000000E+00  0.00000000000E+00  0.21227255937E+03  0.21227255937E+03  0.00000000000E+00 0. -1.
         21   -1    0    0  501  502 -0.00000000000E+00 -0.00000000000E+00 -0.47423355218E+03  0.47423355218E+03  0.00000000000E+00 0. -1.
         25    1    1    2    0    0  0.18999378482E+03 -0.19253764440E+02 -0.67229630924E+02  0.23793522015E+03  0.12500000000E+03 0.  0.
         25    1    1    2    0    0 -0.15525496277E+03  0.12607893695E+03 -0.12049226821E+03  0.26484597129E+03  0.12500000000E+03 0.  0.
         25    1    1    2    0    0 -0.34738822042E+02 -0.10682517251E+03 -0.74239093688E+02  0.18372492011E+03  0.12500000000E+03 0.  0.
</event>
<event>
 5    0  0.5684733E-005  0.2452567E+03  0.7546771E-02  0.1116340E+00
         21   -1    0    0  502  501  0.00000000000E+00  0.00000000000E+00  0.70138197846E+02  0.70138197846E+02  0.00000000000E+00 0.  1.
         21   -1    0    0  501  502 -0.00000000000E+00 -0.00000000000E+00 -0.85760503775E+03  0.85760503775E+03  0.00000000000E+00 0.  1.
         25    1    1    2    0    0  0.78052105521E+02 -0.30769075860E+02 -0.36674359729E+03  0.39644007537E+03  0.12500000000E+03 0.  0.
         25    1    1    2    0    0 -0.31034230899E+02  0.10927226558E+03 -0.20271507822E+03  0.26385972495E+03  0.12500000000E+03 0.  0.
         25    1    1    2    0    0 -0.47017874622E+02 -0.78503189722E+02 -0.21800816440E+03  0.26744343528E+03  0.12500000000E+03 0.  0.
</event>
<event>
 5    0  0.5909599E-005  0.2625302E+03  0.7546771E-02  0.1105633E+00
         21   -1    0    0  502  501  0.00000000000E+00  0.00000000000E+00  0.56282021774E+03  0.56282021774E+03  0.00000000000E+00 0. -1.
         21   -1    0    0  501  502 -0.00000000000E+00 -0.00000000000E+00 -0.12245845177E+03  0.12245845177E+03  0.00000000000E+00 0. -1.
         25    1    1    2    0    0  0.61144757482E+02 -0.34871074721E+02 -0.27694005386E+02  0.14610486355E+03  0.12500000000E+03 0.  0.
         25    1    1    2    0    0 -0.51433223737E+01  0.23393968706E+02  0.26488567432E+03  0.29387608272E+03  0.12500000000E+03 0.  0.
         25    1    1    2    0    0 -0.56001435109E+02  0.11477106014E+02  0.20317009703E+03  0.24529772324E+03  0.12500000000E+03 0.  0.
</event>
<event>
 5    0  0.5684733E-005  0.3098919E+03  0.7546771E-02  0.1080398E+00
         21   -1    0    0  502  501  0.00000000000E+00  0.00000000000E+00  0.10895508518E+03  0.10895508518E+03  0.00000000000E+00 0. -1.
         21   -1    0    0  501  502 -0.00000000000E+00 -0.00000000000E+00 -0.88139986268E+03  0.88139986268E+03  0.00000000000E+00 0. -1.
         25    1    1    2    0    0 -0.28313172368E+02 -0.82671828896E+02 -0.52867511680E+03  0.55023508262E+03  0.12500000000E+03 0.  0.
         25    1    1    2    0    0  0.92888678689E+02  0.96104151691E+02 -0.23590873410E+03  0.29856698650E+03  0.12500000000E+03 0.  0.
         25    1    1    2    0    0 -0.64575506320E+02 -0.13432322794E+02 -0.78609265914E+01  0.14155287874E+03  0.12500000000E+03 0.  0.
</event>
<event>
 5    0  0.5767179E-005  0.3528454E+03  0.7546771E-02  0.1061453E+00
         21   -1    0    0  502  501  0.00000000000E+00  0.00000000000E+00  0.45463938151E+03  0.45463938151E+03  0.00000000000E+00 0. -1.
         21   -1    0    0  501  502 -0.00000000000E+00 -0.00000000000E+00 -0.27384320027E+03  0.27384320027E+03  0.00000000000E+00 0. -1.
         25    1    1    2    0    0 -0.11252781953E+03  0.73142764831E+02  0.11562253937E+03  0.21680854648E+03  0.12500000000E+03 0.  0.
         25    1    1    2    0    0  0.21602580579E+03  0.67726556958E+02  0.12692785048E+03  0.28807935454E+03  0.12500000000E+03 0.  0.
         25    1    1    2    0    0 -0.10349798627E+03 -0.14086932179E+03 -0.61754208608E+02  0.22359468076E+03  0.12500000000E+03 0.  0.
</event>
<event>
 5    0  0.5684733E-005  0.2229348E+03  0.7546771E-02  0.1131714E+00
         21   -1    0    0  502  501  0.00000000000E+00  0.00000000000E+00  0.27476815042E+04  0.27476815042E+04  0.00000000000E+00 0.  1.
         21   -1    0    0  501  502 -0.00000000000E+00 -0.00000000000E+00 -0.18087949399E+02  0.18087949399E+02  0.00000000000E+00 0.  1.
         25    1    1    2    0    0 -0.57605994524E+02 -0.16445316807E+02  0.58654891119E+03  0.60270517193E+03  0.12500000000E+03 0.  0.
         25    1    1    2    0    0  0.75604096718E+02 -0.44728541982E+02  0.10535503912E+04  0.10645703587E+04  0.12500000000E+03 0.  0.
         25    1    1    2    0    0 -0.17998102194E+02  0.61173858789E+02  0.10894942524E+04  0.10984939229E+04  0.12500000000E+03 0.  0.
</event>
<event>
 5    0  0.5684733E-005  0.3376642E+03  0.7546771E-02  0.1067795E+00
         21   -1    0    0  502  501  0.00000000000E+00  0.00000000000E+00  0.38667600240E+03  0.38667600240E+03  0.00000000000E+00 0.  1.
         21   -1    0    0  501  502 -0.00000000000E+00 -0.00000000000E+00 -0.29486465695E+03  0.29486465695E+03  0.00000000000E+00 0.  1.
         25    1    1    2    0    0 -0.14407192464E+03  0.17308789018E+02 -0.80179846325E+02  0.20762977003E+03  0.12500000000E+03 0.  0.
         25    1    1    2    0    0 -0.18731518128E+02 -0.14617853820E+03  0.11523535315E+03  0.22499604756E+03  0.12500000000E+03 0.  0.
         25    1    1    2    0    0  0.16280344277E+03  0.12886974919E+03  0.56755838621E+02  0.24891484176E+03  0.12500000000E+03 0.  0.
</event>
<event>
 5    0  0.5684733E-005  0.2626524E+03  0.7546771E-02  0.1105560E+00
         21   -1    0    0  502  501  0.00000000000E+00  0.00000000000E+00  0.17784932822E+04  0.17784932822E+04  0.00000000000E+00 0. -1.
         21   -1    0    0  501  502 -0.00000000000E+00 -0.00000000000E+00 -0.38789172968E+02  0.38789172968E+02  0.00000000000E+00 0. -1.
         25    1    1    2    0    0  0.22708719069E+02 -0.13004875643E+03  0.36709002464E+03  0.40964429834E+03  0.12500000000E+03 0.  0.
         25    1    1    2    0    0 -0.25038862739E+02 -0.34047951054E+01  0.63649887005E+03  0.64914894196E+03  0.12500000000E+03 0.  0.
         25    1    1    2    0    0  0.23301436697E+01  0.13345355154E+03  0.73611521454E+03  0.75848921486E+03  0.12500000000E+03 0.  0.
</event>
<event>
 5    0  0.5684733E-005  0.3871796E+03  0.7546771E-02  0.1048312E+00
         21   -1    0    0  502  501  0.00000000000E+00  0.00000000000E+00  0.10192908746E+04  0.10192908746E+04  0.00000000000E+00 0. -1.
         21   -1    0    0  501  502 -0.00000000000E+00 -0.00000000000E+00 -0.14707094789E+03  0.14707094789E+03  0.00000000000E+00 0. -1.
         25    1    1    2    0    0 -0.92134524398E+01 -0.31801976222E+03  0.43623468516E+03  0.55420858655E+03  0.12500000000E+03 0.  0.
         25    1    1    2    0    0  0.42672188089E+02  0.10244314033E+03  0.10850266522E+03  0.19928206391E+03  0.12500000000E+03 0.  0.
         25    1    1    2    0    0 -0.33458735649E+02  0.21557662189E+03  0.32748257631E+03  0.41287117202E+03  0.12500000000E+03 0.  0.
</event>
<event>
 5    0  0.5684733E-005  0.4199759E+03  0.7546771E-02  0.1037074E+00
         21   -1    0    0  502  501  0.00000000000E+00  0.00000000000E+00  0.32753676825E+03  0.32753676825E+03  0.00000000000E+00 0.  1.
         21   -1    0    0  501  502 -0.00000000000E+00 -0.00000000000E+00 -0.53850367696E+03  0.53850367696E+03  0.00000000000E+00 0.  1.
         25    1    1    2    0    0 -0.32686855619E+01 -0.17081955193E+02 -0.27408873161E+02  0.12914613361E+03  0.12500000000E+03 0.  0.
         25    1    1    2    0    0  0.25920902875E+03  0.16514230535E+03 -0.24190853309E+03  0.41061665818E+03  0.12500000000E+03 0.  0.
         25    1    1    2    0    0 -0.25594034318E+03 -0.14806035015E+03  0.58350497540E+02  0.32627765342E+03  0.12500000000E+03 0.  0.
</event>
<event>
 5    0  0.5684733E-005  0.2859798E+03  0.7546771E-02  0.1092467E+00
         21   -1    0    0  502  501  0.00000000000E+00  0.00000000000E+00  0.78350005791E+03  0.78350005791E+03  0.00000000000E+00 0. -1.
         21   -1    0    0  501  502 -0.00000000000E+00 -0.00000000000E+00 -0.10438347932E+03  0.10438347932E+03  0.00000000000E+00 0. -1.
         25    1    1    2    0    0 -0.16655843246E+03  0.45254826096E+02  0.27972660578E+03  0.35165563367E+03  0.12500000000E+03 0.  0.
         25    1    1    2    0    0  0.13421432088E+03 -0.37054155031E+02  0.10476078947E+03  0.21444420567E+03  0.12500000000E+03 0.  0.
         25    1    1    2    0    0  0.32344111585E+02 -0.82006710652E+01  0.29462918334E+03  0.32178369790E+03  0.12500000000E+03 0.  0.
</event>
<event>
 5    0  0.5684733E-005  0.3779502E+03  0.7546771E-02  0.1051694E+00
         21   -1    0    0  502  501  0.00000000000E+00  0.00000000000E+00  0.97525051584E+03  0.97525051584E+03  0.00000000000E+00 0. -1.
         21   -1    0    0  501  502 -0.00000000000E+00 -0.00000000000E+00 -0.14647143772E+03  0.14647143772E+03  0.00000000000E+00 0. -1.
         25    1    1    2    0    0 -0.98127276944E+02 -0.22603075533E+03  0.24723507974E+03  0.37076818834E+03  0.12500000000E+03 0.  0.
         25    1    1    2    0    0  0.17144422547E+03  0.18712640549E+03  0.51334027595E+03  0.58613364772E+03  0.12500000000E+03 0.  0.
         25    1    1    2    0    0 -0.73316948524E+02  0.38904349841E+02  0.68203722436E+02  0.16482011750E+03  0.12500000000E+03 0.  0.
</event>
<event>
 5    0  0.5684733E-005  0.3318526E+03  0.7546771E-02  0.1070320E+00
         21   -1    0    0  502  501  0.00000000000E+00  0.00000000000E+00  0.29174860984E+03  0.29174860984E+03  0.00000000000E+00 0.  1.
         21   -1    0    0  501  502 -0.00000000000E+00 -0.00000000000E+00 -0.37746925357E+03  0.37746925357E+03  0.00000000000E+00 0.  1.
         25    1    1    2    0    0  0.72747641987E+02 -0.11288974215E+03 -0.25200775716E+02  0.18519285190E+03  0.12500000000E+03 0.  0.
         25    1    1    2    0    0  0.13652429234E+03  0.13974602050E+03 -0.56680788028E+02  0.23875833886E+03  0.12500000000E+03 0.  0.
         25    1    1    2    0    0 -0.20927193432E+03 -0.26856278346E+02 -0.38390799871E+01  0.24526667266E+03  0.12500000000E+03 0.  0.
</event>
<event>
 5    0  0.5684733E-005  0.2354509E+03  0.7546771E-02  0.1122861E+00
         21   -1    0    0  502  501  0.00000000000E+00  0.00000000000E+00  0.83923415298E+02  0.83923415298E+02  0.00000000000E+00 0.  1.
         21   -1    0    0  501  502 -0.00000000000E+00 -0.00000000000E+00 -0.66056811045E+03  0.66056811045E+03  0.00000000000E+00 0.  1.
         25    1    1    2    0    0  0.30675725790E+02 -0.22264762753E+02 -0.15864099243E+03  0.20549619045E+03  0.12500000000E+03 0.  0.
         25    1    1    2    0    0 -0.83073249477E+02  0.99443762263E+02 -0.26602419433E+03  0.32122281769E+03  0.12500000000E+03 0.  0.
         25    1    1    2    0    0  0.52397523688E+02 -0.77178999510E+02 -0.15197950839E+03  0.21777251761E+03  0.12500000000E+03 0.  0.
</event>
<event>
 5    0  0.6681108E-005  0.3667576E+03  0.7546771E-02  0.1055940E+00
         21   -1    0    0  502  501  0.00000000000E+00  0.00000000000E+00  0.41871732295E+03  0.41871732295E+03  0.00000000000E+00 0.  1.
         21   -1    0    0  501  502 -0.00000000000E+00 -0.00000000000E+00 -0.32124569916E+03  0.32124569916E+03  0.00000000000E+00 0.  1.
         25    1    1    2    0    0  0.80248605450E+02  0.33903490532E+02  0.25930659216E+03  0.30075603748E+03  0.12500000000E+03 0.  0.
         25    1    1    2    0    0 -0.18803793638E+03  0.24105799938E+02 -0.53056012557E+02  0.23319368683E+03  0.12500000000E+03 0.  0.
         25    1    1    2    0    0  0.10778933093E+03 -0.58009290470E+02 -0.10877895580E+03  0.20601329780E+03  0.12500000000E+03 0.  0.
</event>
<event>
 5    0  0.5684733E-005  0.3540261E+03  0.7546771E-02  0.1060975E+00
         21   -1    0    0  502  501  0.00000000000E+00  0.00000000000E+00  0.18573434984E+03  0.18573434984E+03  0.00000000000E+00 0. -1.
         21   -1    0    0  501  502 -0.00000000000E+00 -0.00000000000E+00 -0.67480488320E+03  0.67480488320E+03  0.00000000000E+00 0. -1.
         25    1    1    2    0    0 -0.42871774971E+02 -0.48721452797E+02 -0.86051797813E+02  0.16505054062E+03  0.12500000000E+03 0.  0.
         25    1    1    2    0    0 -0.22179529853E+03  0.32445053385E+02 -0.27329927895E+03  0.37491776674E+03  0.12500000000E+03 0.  0.
         25    1    1    2    0    0  0.26466707350E+03  0.16276399412E+02 -0.12971945660E+03  0.32057092568E+03  0.12500000000E+03 0.  0.
</event>
<event>
 5    0  0.5684733E-005  0.5178956E+03  0.7546771E-02  0.1009211E+00
         21   -1    0    0  502  501  0.00000000000E+00  0.00000000000E+00  0.41626073053E+03  0.41626073053E+03  0.00000000000E+00 0. -1.
         21   -1    0    0  501  502 -0.00000000000E+00 -0.00000000000E+00 -0.64434579895E+03  0.64434579895E+03  0.00000000000E+00 0. -1.
         25    1    1    2    0    0 -0.18452256361E+03  0.22671166523E+03 -0.81729273754E+02  0.32825512916E+03  0.12500000000E+03 0.  0.
         25    1    1    2    0    0 -0.17227346245E+03  0.60394319067E+02  0.35332613424E+02  0.22405136288E+03  0.12500000000E+03 0.  0.
         25    1    1    2    0    0  0.35679602606E+03 -0.28710598429E+03 -0.18168840809E+03  0.50830003744E+03  0.12500000000E+03 0.  0.
</event>
<event>
 5    0  0.5684733E-005  0.3711071E+03  0.7546771E-02  0.1054270E+00
         21   -1    0    0  502  501  0.00000000000E+00  0.00000000000E+00  0.80334639813E+02  0.80334639813E+02  0.00000000000E+00 0. -1.
         21   -1    0    0  501  502 -0.00000000000E+00 -0.00000000000E+00 -0.17143347560E+04  0.17143347560E+04  0.00000000000E+00 0. -1.
         25    1    1    2    0    0 -0.22806516702E+02 -0.19225197923E+03 -0.89257754444E+03  0.92184631776E+03  0.12500000000E+03 0.  0.
         25    1    1    2    0    0  0.79234865882E+02  0.14056388782E+03 -0.12528757163E+03  0.23949602530E+03  0.12500000000E+03 0.  0.
         25    1    1    2    0    0 -0.56428349180E+02  0.51688091407E+02 -0.61613500013E+03  0.63332705277E+03  0.12500000000E+03 0.  0.
</event>
<event>
 5    0  0.5684733E-005  0.4509788E+03  0.7546771E-02  0.1027431E+00
         21   -1    0    0  502  501  0.00000000000E+00  0.00000000000E+00  0.19964800066E+04  0.19964800066E+04  0.00000000000E+00 0. -1.
         21   -1    0    0  501  502 -0.00000000000E+00 -0.00000000000E+00 -0.10187021454E+03  0.10187021454E+03  0.00000000000E+00 0. -1.
         25    1    1    2    0    0 -0.21458364535E+02  0.20264261413E+03  0.14615984638E+04  0.14810197703E+04  0.12500000000E+03 0.  0.
         25    1    1    2    0    0 -0.30184152694E+02 -0.13115722396E+03  0.42632100146E+03  0.46420673924E+03  0.12500000000E+03 0.  0.
         25    1    1    2    0    0  0.51642517229E+02 -0.71485390174E+02  0.66903267923E+01  0.15312371164E+03  0.12500000000E+03 0.  0.
</event>
<event>
 5    0  0.5684733E-005  0.3634485E+03  0.7546771E-02  0.1057227E+00
         21   -1    0    0  502  501  0.00000000000E+00  0.00000000000E+00  0.35921633672E+03  0.35921633672E+03  0.00000000000E+00 0.  1.
         21   -1    0    0  501  502 -0.00000000000E+00 -0.00000000000E+00 -0.36773055586E+03  0.36773055586E+03  0.00000000000E+00 0.  1.
         25    1    1    2    0    0  0.10977221275E+03  0.18399584302E+03  0.62483177759E+02  0.25579983668E+03  0.12500000000E+03 0.  0.
         25    1    1    2    0    0 -0.41482232043E+02  0.32014644925E+02 -0.14848955599E+03  0.20104691319E+03  0.12500000000E+03 0.  0.
         25    1    1    2    0    0 -0.68289980710E+02 -0.21601048795E+03  0.77492159087E+02  0.27010014271E+03  0.12500000000E+03 0.  0.
</event>
<event>
 5    0  0.5684733E-005  0.4247239E+03  0.7546771E-02  0.1035540E+00
         21   -1    0    0  502  501  0.00000000000E+00  0.00000000000E+00  0.22562280015E+03  0.22562280015E+03  0.00000000000E+00 0. -1.
         21   -1    0    0  501  502 -0.00000000000E+00 -0.00000000000E+00 -0.79952214440E+03  0.79952214440E+03  0.00000000000E+00 0. -1.
         25    1    1    2    0    0 -0.94967141882E+02 -0.14825619634E+03 -0.18098240309E+03  0.28174152696E+03  0.12500000000E+03 0.  0.
         25    1    1    2    0    0  0.49397019969E+02 -0.19136349848E+03 -0.42650163839E+02  0.23770589098E+03  0.12500000000E+03 0.  0.
         25    1    1    2    0    0  0.45570121913E+02  0.33961969482E+03 -0.35026677732E+03  0.50569752661E+03  0.12500000000E+03 0.  0.
</event>
<event>
 5    0  0.5684733E-005  0.2740058E+03  0.7546771E-02  0.1099009E+00
         21   -1    0    0  502  501  0.00000000000E+00  0.00000000000E+00  0.54581152563E+03  0.54581152563E+03  0.00000000000E+00 0.  1.
         21   -1    0    0  501  502 -0.00000000000E+00 -0.00000000000E+00 -0.13755513688E+03  0.13755513688E+03  0.00000000000E+00 0.  1.
         25    1    1    2    0    0 -0.70125241071E+02  0.70656622517E+02  0.58258482086E+02  0.17008515066E+03  0.12500000000E+03 0.  0.
         25    1    1    2    0    0  0.11959550824E+03 -0.97984019063E+02  0.87754377559E+02  0.21732414584E+03  0.12500000000E+03 0.  0.
         25    1    1    2    0    0 -0.49470267172E+02  0.27327396546E+02  0.26224352911E+03  0.29595736601E+03  0.12500000000E+03 0.  0.
</event>
<event>
 5    0  0.5684733E-005  0.4682909E+03  0.7546771E-02  0.1022404E+00
         21   -1    0    0  502  501  0.00000000000E+00  0.00000000000E+00  0.57222151229E+03  0.57222151229E+03  0.00000000000E+00 0.  1.
         21   -1    0    0  501  502 -0.00000000000E+00 -0.00000000000E+00 -0.38323689570E+03  0.38323689570E+03  0.00000000000E+00 0.  1.
         25    1    1    2    0    0 -0.57411382103E+02  0.10166908604E+02  0.27268978039E+03  0.30558820192E+03  0.12500000000E+03 0.  0.
         25    1    1    2    0    0  0.20108386727E+03 -0.14108222794E+03 -0.24442134511E+03  0.36838256021E+03  0.12500000000E+03 0.  0.
         25    1    1    2    0    0 -0.14367248517E+03  0.13091531934E+03  0.16071618132E+03  0.28148764586E+03  0.12500000000E+03 0.  0.
</event>
<event>
 5    0  0.5684733E-005  0.3287348E+03  0.7546771E-02  0.1071698E+00
         21   -1    0    0  502  501  0.00000000000E+00  0.00000000000E+00  0.81106969199E+03  0.81106969199E+03  0.00000000000E+00 0. -1.
         21   -1    0    0  501  502 -0.00000000000E+00 -0.00000000000E+00 -0.13323956780E+03  0.13323956780E+03  0.00000000000E+00 0. -1.
         25    1    1    2    0    0  0.40073491939E+02 -0.66410954042E+02  0.31979455766E+03  0.35200832189E+03  0.12500000000E+03 0.  0.
         25    1    1    2    0    0  0.97782188208E+02  0.19204586688E+02  0.36679566457E+03  0.40011777270E+03  0.12500000000E+03 0.  0.
         25    1    1    2    0    0 -0.13785568015E+03  0.47206367354E+02 -0.87600980377E+01  0.19218316520E+03  0.12500000000E+03 0.  0.
</event>
<event>
 5    0  0.5684733E-005  0.3897172E+03  0.7546771E-02  0.1047400E+00
         21   -1    0    0  502  501  0.00000000000E+00  0.00000000000E+00  0.37839217230E+03  0.37839217230E+03  0.00000000000E+00 0.  1.
         21   -1    0    0  501  502 -0.00000000000E+00 -0.00000000000E+00 -0.40138118022E+03  0.40138118022E+03  0.00000000000E+00 0.  1.
         25    1    1    2    0    0  0.39539574897E+02 -0.37940434103E+02 -0.14578950762E+03  0.19970587136E+03  0.12500000000E+03 0.  0.
         25    1    1    2    0    0  0.18028960662E+03 -0.96249028719E+02  0.16472072545E+03  0.29073378747E+03  0.12500000000E+03 0.  0.
         25    1    1    2    0    0 -0.21982918152E+03  0.13418946282E+03 -0.41920225746E+02  0.28933369369E+03  0.12500000000E+03 0.  0.
</event>
<event>
 5    0  0.5684733E-005  0.2669533E+03  0.7546771E-02  0.1103036E+00
         21   -1    0    0  502  501  0.00000000000E+00  0.00000000000E+00  0.37532324348E+03  0.37532324348E+03  0.00000000000E+00 0.  1.
         21   -1    0    0  501  502 -0.00000000000E+00 -0.00000000000E+00 -0.18987386658E+03  0.18987386658E+03  0.00000000000E+00 0.  1.
         25    1    1    2    0    0  0.50638287989E+02  0.18741021832E+02  0.90257725634E+02  0.16336131472E+03  0.12500000000E+03 0.  0.
         25    1    1    2    0    0  0.10269861472E+03 -0.25560805775E+02  0.11901343967E+03  0.20245878366E+03  0.12500000000E+03 0.  0.
         25    1    1    2    0    0 -0.15333690271E+03  0.68197839433E+01 -0.23821788403E+02  0.19937701169E+03  0.12500000000E+03 0.  0.
</event>
<event>
 5    0  0.5684733E-005  0.2643786E+03  0.7546771E-02  0.1104541E+00
         21   -1    0    0  502  501  0.00000000000E+00  0.00000000000E+00  0.45249031018E+02  0.45249031018E+02  0.00000000000E+00 0. -1.
         21   -1    0    0  501  502 -0.00000000000E+00 -0.00000000000E+00 -0.15446967982E+04  0.15446967982E+04  0.00000000000E+00 0. -1.
         25    1    1    2    0    0  0.41856615719E+02  0.12148107638E+03 -0.49410618503E+03  0.52561920654E+03  0.12500000000E+03 0.  0.
         25    1    1    2    0    0 -0.11696850116E+03 -0.65262710804E+02 -0.41491305715E+03  0.45356223022E+03  0.12500000000E+03 0.  0.
         25    1    1    2    0    0  0.75111885446E+02 -0.56218365572E+02 -0.59042852501E+03  0.61076439247E+03  0.12500000000E+03 0.  0.
</event>
<event>
 5    0  0.5684733E-005  0.5757234E+03  0.7546771E-02  0.9957093E-01
         21   -1    0    0  502  501  0.00000000000E+00  0.00000000000E+00  0.22816258756E+03  0.22816258756E+03  0.00000000000E+00 0.  1.
         21   -1    0    0  501  502 -0.00000000000E+00 -0.00000000000E+00 -0.14527245155E+04  0.14527245155E+04  0.00000000000E+00 0. -1.
         25    1    1    2    0    0  0.54525161468E+01 -0.26552106244E+03 -0.10688537153E+04  0.11084243002E+04  0.12500000000E+03 0.  0.
         25    1    1    2    0    0 -0.61307686760E+02  0.35032879855E+03 -0.51115775779E+02  0.38042965457E+03  0.12500000000E+03 0.  0.
         25    1    1    2    0    0  0.55855170613E+02 -0.84807736111E+02 -0.10459243681E+03  0.19203314825E+03  0.12500000000E+03 0.  0.
</event>
<event>
 5    0  0.5684733E-005  0.3275374E+03  0.7546771E-02  0.1072232E+00
         21   -1    0    0  502  501  0.00000000000E+00  0.00000000000E+00  0.38405433738E+03  0.38405433738E+03  0.00000000000E+00 0. -1.
         21   -1    0    0  501  502 -0.00000000000E+00 -0.00000000000E+00 -0.27933738915E+03  0.27933738915E+03  0.00000000000E+00 0. -1.
         25    1    1    2    0    0 -0.76346452433E+02 -0.79816912559E+02  0.72679606539E+02  0.18195286625E+03  0.12500000000E+03 0.  0.
         25    1    1    2    0    0 -0.81982382631E+02  0.18862778086E+03 -0.33628470784E+02  0.24301733441E+03  0.12500000000E+03 0.  0.
         25    1    1    2    0    0  0.15832883506E+03 -0.10881086830E+03  0.65665812480E+02  0.23842152588E+03  0.12500000000E+03 0.  0.
</event>
<event>
 5    0  0.5684733E-005  0.3040051E+03  0.7546771E-02  0.1083255E+00
         21   -1    0    0  502  501  0.00000000000E+00  0.00000000000E+00  0.58556334252E+02  0.58556334252E+02  0.00000000000E+00 0. -1.
         21   -1    0    0  501  502 -0.00000000000E+00 -0.00000000000E+00 -0.15782938962E+04  0.15782938962E+04  0.00000000000E+00 0. -1.
         25    1    1    2    0    0  0.10008375986E+02 -0.18550978797E+02 -0.10808688827E+03  0.16658956096E+03  0.12500000000E+03 0.  0.
         25    1    1    2    0    0  0.29086146640E+02  0.97994211172E+02 -0.24391479603E+03  0.29252059256E+03  0.12500000000E+03 0.  0.
         25    1    1    2    0    0 -0.39094522626E+02 -0.79443232375E+02 -0.11677358776E+04  0.11777400769E+04  0.12500000000E+03 0.  0.
</event>
<event>
 5    0  0.5684733E-005  0.3763987E+03  0.7546771E-02  0.1052273E+00
         21   -1    0    0  502  501  0.00000000000E+00  0.00000000000E+00  0.63787356265E+02  0.63787356265E+02  0.00000000000E+00 0. -1.
         21   -1    0    0  501  502 -0.00000000000E+00 -0.00000000000E+00 -0.22210668220E+04  0.22210668220E+04  0.00000000000E+00 0. -1.
         25    1    1    2    0    0  0.20942304951E+03 -0.13739050224E+03 -0.64272510220E+03  0.70103831620E+03  0.12500000000E+03 0.  0.
         25    1    1    2    0    0 -0.45966466474E+02  0.20657929808E+03 -0.77291804307E+03  0.81105808900E+03  0.12500000000E+03 0.  0.
         25    1    1    2    0    0 -0.16345658304E+03 -0.69188795835E+02 -0.74163632050E+03  0.77275777310E+03  0.12500000000E+03 0.  0.
</event>
<event>
 5    0  0.5684733E-005  0.3916837E+03  0.7546771E-02  0.1046698E+00
         21   -1    0    0  502  501  0.00000000000E+00  0.00000000000E+00  0.41700406937E+03  0.41700406937E+03  0.00000000000E+00 0. -1.
         21   -1    0    0  501  502 -0.00000000000E+00 -0.00000000000E+00 -0.36790083074E+03  0.36790083074E+03  0.00000000000E+00 0. -1.
         25    1    1    2    0    0  0.27369077411E+03  0.10349325755E+03  0.10321838346E+03  0.33450938533E+03  0.12500000000E+03 0.  0.
         25    1    1    2    0    0 -0.68225033215E+02 -0.48825938106E+02 -0.12290732817E+03  0.19434463900E+03  0.12500000000E+03 0.  0.
         25    1    1    2    0    0 -0.20546574090E+03 -0.54667319446E+02  0.68792183340E+02  0.25605087578E+03  0.12500000000E+03 0.  0.
</event>
<event>
 5    0  0.5684733E-005  0.4494953E+03  0.7546771E-02  0.1027873E+00
         21   -1    0    0  502  501  0.00000000000E+00  0.00000000000E+00  0.85990773828E+02  0.85990773828E+02  0.00000000000E+00 0. -1.
         21   -1    0    0  501  502 -0.00000000000E+00 -0.00000000000E+00 -0.23496247009E+04  0.23496247009E+04  0.00000000000E+00 0. -1.
         25    1    1    2    0    0  0.11771336138E+03  0.15547209638E+03 -0.52819514891E+03  0.57675222022E+03  0.12500000000E+03 0.  0.
         25    1    1    2    0    0 -0.87975390374E+02  0.15080471361E+03 -0.21986642699E+03  0.30732389539E+03  0.12500000000E+03 0.  0.
         25    1    1    2    0    0 -0.29737971004E+02 -0.30627680999E+03 -0.15155723512E+04  0.15515393591E+04  0.12500000000E+03 0.  0.
</event>
<event>
 5    0  0.5684733E-005  0.2918148E+03  0.7546771E-02  0.1089405E+00
         21   -1    0    0  502  501  0.00000000000E+00  0.00000000000E+00  0.41754533162E+03  0.41754533162E+03  0.00000000000E+00 0. -1.
         21   -1    0    0  501  502 -0.00000000000E+00 -0.00000000000E+00 -0.20394396310E+03  0.20394396310E+03  0.00000000000E+00 0. -1.
         25    1    1    2    0    0 -0.54493944738E+01  0.39978066835E+02 -0.14593868826E+02  0.13215870284E+03  0.12500000000E+03 0.  0.
         25    1    1    2    0    0 -0.32432377134E+02  0.14827243860E+03  0.14972112847E+03  0.24713961934E+03  0.12500000000E+03 0.  0.
         25    1    1    2    0    0  0.37881771608E+02 -0.18825050544E+03  0.78474108878E+02  0.24219097254E+03  0.12500000000E+03 0.  0.
</event>
<event>
 5    0  0.5684733E-005  0.2569901E+03  0.7546771E-02  0.1108965E+00
         21   -1    0    0  502  501  0.00000000000E+00  0.00000000000E+00  0.15202940829E+03  0.15202940829E+03  0.00000000000E+00 0. -1.
         21   -1    0    0  501  502 -0.00000000000E+00 -0.00000000000E+00 -0.43441531404E+03  0.43441531404E+03  0.00000000000E+00 0. -1.
         25    1    1    2    0    0  0.42268406800E+02  0.50093553120E+02 -0.27539530728E+03  0.30945687510E+03  0.12500000000E+03 0.  0.
         25    1    1    2    0    0 -0.40010059893E+02  0.84033731411E+01 -0.35114368340E+02  0.13612288726E+03  0.12500000000E+03 0.  0.
         25    1    1    2    0    0 -0.22583469066E+01 -0.58496926262E+02  0.28123769877E+02  0.14086495996E+03  0.12500000000E+03 0.  0.
</event>
<event>
 5    0  0.5684733E-005  0.6183937E+03  0.7546771E-02  0.9867963E-01
         21   -1    0    0  502  501  0.00000000000E+00  0.00000000000E+00  0.94674947775E+03  0.94674947775E+03  0.00000000000E+00 0. -1.
         21   -1    0    0  501  502 -0.00000000000E+00 -0.00000000000E+00 -0.40391976796E+03  0.40391976796E+03  0.00000000000E+00 0. -1.
         25    1    1    2    0    0 -0.19588457901E+03 -0.54323359535E+02 -0.13638634852E+03  0.27486002210E+03  0.12500000000E+03 0.  0.
         25    1    1    2    0    0  0.29280205534E+03  0.16676791194E+03  0.77876682096E+03  0.85769886411E+03  0.12500000000E+03 0.  0.
         25    1    1    2    0    0 -0.96917476334E+02 -0.11244455240E+03 -0.99550762647E+02  0.21811035951E+03  0.12500000000E+03 0.  0.
</event>
<event>
 5    0  0.5684733E-005  0.3670111E+03  0.7546771E-02  0.1055842E+00
         21   -1    0    0  502  501  0.00000000000E+00  0.00000000000E+00  0.49197963194E+03  0.49197963194E+03  0.00000000000E+00 0.  1.
         21   -1    0    0  501  502 -0.00000000000E+00 -0.00000000000E+00 -0.27378606920E+03  0.27378606920E+03  0.00000000000E+00 0.  1.
         25    1    1    2    0    0 -0.10609100443E+03  0.16312818373E+01  0.18462736919E+03  0.24692150120E+03  0.12500000000E+03 0.  0.
         25    1    1    2    0    0  0.16172609700E+03  0.14953186625E+03 -0.10304491702E+03  0.27341975862E+03  0.12500000000E+03 0.  0.
         25    1    1    2    0    0 -0.55635092574E+02 -0.15116314809E+03  0.13661111057E+03  0.24542444132E+03  0.12500000000E+03 0.  0.
</event>
<event>
 5    0  0.5684733E-005  0.8066032E+03  0.7546771E-02  0.9550508E-01
         21   -1    0    0  502  501  0.00000000000E+00  0.00000000000E+00  0.10995978292E+04  0.10995978292E+04  0.00000000000E+00 0.  1.
         21   -1    0    0  501  502 -0.00000000000E+00 -0.00000000000E+00 -0.59167878924E+03  0.59167878924E+03  0.00000000000E+00 0.  1.
         25    1    1    2    0    0  0.27162904950E+03  0.25414631573E+03  0.26927968632E+03  0.47592986857E+03  0.12500000000E+03 0.  0.
         25    1    1    2    0    0 -0.50908787036E+03 -0.45854760573E+03 -0.13770790977E+03  0.70994706484E+03  0.12500000000E+03 0.  0.
         25    1    1    2    0    0  0.23745882086E+03  0.20440128999E+03  0.37634726345E+03  0.50539968506E+03  0.12500000000E+03 0.  0.
</event>
<event>
 5    0  0.5684733E-005  0.2041624E+03  0.7546771E-02  0.1146274E+00
         21   -1    0    0  502  501  0.00000000000E+00  0.00000000000E+00  0.29756566559E+03  0.29756566559E+03  0.00000000000E+00 0.  1.
         21   -1    0    0  501  502 -0.00000000000E+00 -0.00000000000E+00 -0.14007765649E+03  0.14007765649E+03  0.00000000000E+00 0.  1.
         25    1    1    2    0    0  0.27150337357E+02  0.64179490261E+01  0.72230944386E+02  0.14703958724E+03  0.12500000000E+03 0.  0.
         25    1    1    2    0    0 -0.31030865725E+02  0.20951267423E+02 -0.10241026584E+02  0.13088830681E+03  0.12500000000E+03 0.  0.
         25    1    1    2    0    0  0.38805283677E+01 -0.27369216449E+02  0.95498091301E+02  0.15971542803E+03  0.12500000000E+03 0.  0.
</event>
<event>
 5    0  0.5684733E-005  0.5491197E+03  0.7546771E-02  0.1001698E+00
         21   -1    0    0  502  501  0.00000000000E+00  0.00000000000E+00  0.94270467635E+03  0.94270467635E+03  0.00000000000E+00 0. -1.
         21   -1    0    0  501  502 -0.00000000000E+00 -0.00000000000E+00 -0.31985880556E+03  0.31985880556E+03  0.00000000000E+00 0. -1.
         25    1    1    2    0    0  0.13937252565E+03  0.23554741002E+02  0.26431289277E+03  0.32475503385E+03  0.12500000000E+03 0.  0.
         25    1    1    2    0    0 -0.25426341833E+03  0.25032864937E+03 -0.87002841842E+02  0.38795465339E+03  0.12500000000E+03 0.  0.
         25    1    1    2    0    0  0.11489089268E+03 -0.27388339037E+03  0.44553581986E+03  0.54985379468E+03  0.12500000000E+03 0.  0.
</event>
<event>
 5    0  0.5684733E-005  0.3996717E+03  0.7546771E-02  0.1043893E+00
         21   -1    0    0  502  501  0.00000000000E+00  0.00000000000E+00  0.99512320157E+02  0.99512320157E+02  0.00000000000E+00 0.  1.
         21   -1    0    0  501  502 -0.00000000000E+00 -0.00000000000E+00 -0.16052031254E+04  0.16052031254E+04  0.00000000000E+00 0.  1.
         25    1    1    2    0    0  0.47325874155E+02 -0.16579558133E+03 -0.12978100640E+03  0.24939130453E+03  0.12500000000E+03 0.  0.
         25    1    1    2    0    0 -0.89904713677E+02 -0.85095802274E+02 -0.71195237323E+03  0.73336575789E+03  0.12500000000E+03 0.  0.
         25    1    1    2    0    0  0.42578839522E+02  0.25089138360E+03 -0.66395742558E+03  0.72195838310E+03  0.12500000000E+03 0.  0.
</event>
<event>
 5    0  0.5684733E-005  0.3435820E+03  0.7546771E-02  0.1065280E+00
         21   -1    0    0  502  501  0.00000000000E+00  0.00000000000E+00  0.47224500128E+03  0.47224500128E+03  0.00000000000E+00 0. -1.
         21   -1    0    0  501  502 -0.00000000000E+00 -0.00000000000E+00 -0.24997324058E+03  0.24997324058E+03  0.00000000000E+00 0. -1.
         25    1    1    2    0    0 -0.13488961342E+03 -0.12353146399E+02  0.33034003179E+03  0.37828209663E+03  0.12500000000E+03 0.  0.
         25    1    1    2    0    0  0.36462681267E+02 -0.69474314796E+02 -0.50878684529E+02  0.15610844974E+03  0.12500000000E+03 0.  0.
         25    1    1    2    0    0  0.98426932149E+02  0.81827461195E+02 -0.57189586556E+02  0.18782769548E+03  0.12500000000E+03 0.  0.
</event>
<event>
 5    0  0.5684733E-005  0.3535990E+03  0.7546771E-02  0.1061147E+00
         21   -1    0    0  502  501  0.00000000000E+00  0.00000000000E+00  0.13007673362E+03  0.13007673362E+03  0.00000000000E+00 0.  1.
         21   -1    0    0  501  502 -0.00000000000E+00 -0.00000000000E+00 -0.96121933683E+03  0.96121933683E+03  0.00000000000E+00 0.  1.
         25    1    1    2    0    0 -0.35734363165E+02  0.11446695391E+03 -0.10062302958E+03  0.20032379372E+03  0.12500000000E+03 0.  0.
         25    1    1    2    0    0 -0.84051164043E+02  0.23038624990E+02 -0.62988519088E+03  0.64805534494E+03  0.12500000000E+03 0.  0.
         25    1    1    2    0    0  0.11978552721E+03 -0.13750557890E+03 -0.10063438275E+03  0.24291693179E+03  0.12500000000E+03 0.  0.
</event>
<event>
 5    0  0.5684733E-005  0.3144738E+03  0.7546771E-02  0.1078221E+00
         21   -1    0    0  502  501  0.00000000000E+00  0.00000000000E+00  0.17331838529E+03  0.17331838529E+03  0.00000000000E+00 0.  1.
         21   -1    0    0  501  502 -0.00000000000E+00 -0.00000000000E+00 -0.57059021790E+03  0.57059021790E+03  0.00000000000E+00 0.  1.
         25    1    1    2    0    0  0.30401150576E+02  0.14155471501E+03 -0.12706470967E+03  0.22963537999E+03  0.12500000000E+03 0.  0.
         25    1    1    2    0    0  0.60114928530E+02 -0.22165355236E+03 -0.13670659481E+03  0.29505557946E+03  0.12500000000E+03 0.  0.
         25    1    1    2    0    0 -0.90516079106E+02  0.80098837346E+02 -0.13350052814E+03  0.21921764376E+03  0.12500000000E+03 0.  0.
</event>
<event>
 5    0  0.5684733E-005  0.5570838E+03  0.7546771E-02  0.9998675E-01
         21   -1    0    0  502  501  0.00000000000E+00  0.00000000000E+00  0.57789563687E+03  0.57789563687E+03  0.00000000000E+00 0. -1.
         21   -1    0    0  501  502 -0.00000000000E+00 -0.00000000000E+00 -0.53702152731E+03  0.53702152731E+03  0.00000000000E+00 0. -1.
         25    1    1    2    0    0  0.59545379466E+02 -0.39050224086E+02 -0.25876031031E+03  0.29606159901E+03  0.12500000000E+03 0.  0.
         25    1    1    2    0    0 -0.21101780738E+02  0.24412433961E+03  0.45396298906E+03  0.53080069120E+03  0.12500000000E+03 0.  0.
         25    1    1    2    0    0 -0.38443598729E+02 -0.20507411553E+03 -0.15432856919E+03  0.28805487396E+03  0.12500000000E+03 0.  0.
</event>
<event>
 5    0  0.5684733E-005  0.2882445E+03  0.7546771E-02  0.1091269E+00
         21   -1    0    0  502  501  0.00000000000E+00  0.00000000000E+00  0.15255786532E+03  0.15255786532E+03  0.00000000000E+00 0. -1.
         21   -1    0    0  501  502 -0.00000000000E+00 -0.00000000000E+00 -0.54461233850E+03  0.54461233850E+03  0.00000000000E+00 0. -1.
         25    1    1    2    0    0 -0.92755042931E+02  0.16793821247E+03 -0.15129998072E+03  0.27445113475E+03  0.12500000000E+03 0.  0.
         25    1    1    2    0    0  0.62184428839E+01 -0.14142007193E+03 -0.99257212781E+02  0.21334315097E+03  0.12500000000E+03 0.  0.
         25    1    1    2    0    0  0.86536600047E+02 -0.26518140536E+02 -0.14149727968E+03  0.20937591811E+03  0.12500000000E+03 0.  0.
</event>
<event>
 5    0  0.5684733E-005  0.2671062E+03  0.7546771E-02  0.1102947E+00
         21   -1    0    0  502  501  0.00000000000E+00  0.00000000000E+00  0.91821662456E+03  0.91821662456E+03  0.00000000000E+00 0. -1.
         21   -1    0    0  501  502 -0.00000000000E+00 -0.00000000000E+00 -0.77700287282E+02  0.77700287282E+02  0.00000000000E+00 0. -1.
         25    1    1    2    0    0  0.20517833819E+02 -0.71318335281E+02  0.68431450211E+02  0.16067093648E+03  0.12500000000E+03 0.  0.
         25    1    1    2    0    0 -0.58079629607E+02 -0.43350882347E+02  0.37133880655E+03  0.39845959849E+03  0.12500000000E+03 0.  0.
         25    1    1    2    0    0  0.37561795788E+02  0.11466921763E+03  0.40074608052E+03  0.43678637688E+03  0.12500000000E+03 0.  0.
</event>
<event>
 5    0  0.5684733E-005  0.3839894E+03  0.7546771E-02  0.1049469E+00
         21   -1    0    0  502  501  0.00000000000E+00  0.00000000000E+00  0.20320765641E+03  0.20320765641E+03  0.00000000000E+00 0.  1.
         21   -1    0    0  501  502 -0.00000000000E+00 -0.00000000000E+00 -0.72560204693E+03  0.72560204693E+03  0.00000000000E+00 0.  1.
         25    1    1    2    0    0 -0.13547528055E+03  0.38268278615E+02 -0.77098897354E+02  0.20343857245E+03  0.12500000000E+03 0.  0.
         25    1    1    2    0    0 -0.10678229047E+03  0.16281213184E+03 -0.21422636474E+03  0.31532234805E+03  0.12500000000E+03 0.  0.
         25    1    1    2    0    0  0.24225757102E+03 -0.20108041046E+03 -0.23106912843E+03  0.41004878283E+03  0.12500000000E+03 0.  0.
</event>
<event>
 5    0  0.5684733E-005  0.5374271E+03  0.7546771E-02  0.1004447E+00
         21   -1    0    0  502  501  0.00000000000E+00  0.00000000000E+00  0.15649771054E+04  0.15649771054E+04  0.00000000000E+00 0. -1.
         21   -1    0    0  501  502 -0.00000000000E+00 -0.00000000000E+00 -0.18455728651E+03  0.18455728651E+03  0.00000000000E+00 0. -1.
         25    1    1    2    0    0  0.19829291321E+02  0.40817418491E+02  0.12863900390E+02  0.13360292804E+03  0.12500000000E+03 0.  0.
         25    1    1    2    0    0 -0.24808592165E+03  0.78142896013E+02  0.12865867159E+04  0.13185534931E+04  0.12500000000E+03 0.  0.
         25    1    1    2    0    0  0.22825663033E+03 -0.11896031450E+03  0.80969202611E+02  0.29737797075E+03  0.12500000000E+03 0.  0.
</event>
<event>
 5    0  0.5684733E-005  0.5415874E+03  0.7546771E-02  0.1003460E+00
         21   -1    0    0  502  501  0.00000000000E+00  0.00000000000E+00  0.95290173499E+02  0.95290173499E+02  0.00000000000E+00 0. -1.
         21   -1    0    0  501  502 -0.00000000000E+00 -0.00000000000E+00 -0.30781446428E+04  0.30781446428E+04  0.00000000000E+00 0. -1.
         25    1    1    2    0    0  0.34755064304E+03  0.21511014534E+03 -0.12360772734E+04  0.13078898462E+04  0.12500000000E+03 0.  0.
         25    1    1    2    0    0 -0.81953042157E+02 -0.20927201790E+03 -0.13366146892E+04  0.13611300107E+04  0.12500000000E+03 0.  0.
         25    1    1    2    0    0 -0.26559760088E+03 -0.58381274357E+01 -0.41016250668E+03  0.50441495935E+03  0.12500000000E+03 0.  0.
</event>
<event>
 5    0  0.5684733E-005  0.2558227E+03  0.7546771E-02  0.1109679E+00
         21   -1    0    0  502  501  0.00000000000E+00  0.00000000000E+00  0.18006827893E+03  0.18006827893E+03  0.00000000000E+00 0.  1.
         21   -1    0    0  501  502 -0.00000000000E+00 -0.00000000000E+00 -0.36344688379E+03  0.36344688379E+03  0.00000000000E+00 0.  1.
         25    1    1    2    0    0 -0.38129708595E+02  0.88884649125E+02 -0.31647699628E+02  0.16118601806E+03  0.12500000000E+03 0.  0.
         25    1    1    2    0    0  0.24840382033E+00 -0.26015326258E+02  0.47254513160E+02  0.13614274831E+03  0.12500000000E+03 0.  0.
         25    1    1    2    0    0  0.37881304775E+02 -0.62869322867E+02 -0.19898541840E+03  0.24618639634E+03  0.12500000000E+03 0.  0.
</event>
<event>
 5    0  0.5684733E-005  0.4112843E+03  0.7546771E-02  0.1039941E+00
         21   -1    0    0  502  501  0.00000000000E+00  0.00000000000E+00  0.52920975728E+03  0.52920975728E+03  0.00000000000E+00 0.  1.
         21   -1    0    0  501  502 -0.00000000000E+00 -0.00000000000E+00 -0.31963656802E+03  0.31963656802E+03  0.00000000000E+00 0.  1.
         25    1    1    2    0    0 -0.80881670870E+01 -0.11822187851E+03 -0.67665851791E+02  0.18505539307E+03  0.12500000000E+03 0.  0.
         25    1    1    2    0    0 -0.90590487363E+02 -0.19033107857E+03  0.17726392437E+03  0.30245669897E+03  0.12500000000E+03 0.  0.
         25    1    1    2    0    0  0.98678654450E+02  0.30855295708E+03  0.99975116687E+02  0.36133423326E+03  0.12500000000E+03 0.  0.
</event>
<event>
 5    0  0.5684733E-005  0.3840068E+03  0.7546771E-02  0.1049463E+00
         21   -1    0    0  502  501  0.00000000000E+00  0.00000000000E+00  0.46552419862E+03  0.46552419862E+03  0.00000000000E+00 0.  1.
         21   -1    0    0  501  502 -0.00000000000E+00 -0.00000000000E+00 -0.31676383280E+03  0.31676383280E+03  0.00000000000E+00 0.  1.
         25    1    1    2    0    0  0.10856405724E+03  0.83437574847E+02  0.13790480996E+03  0.23106432011E+03  0.12500000000E+03 0.  0.
         25    1    1    2    0    0 -0.13731038188E+03  0.60187283479E+02 -0.19040497010E+03  0.27268242097E+03  0.12500000000E+03 0.  0.
         25    1    1    2    0    0  0.28746324645E+02 -0.14362485833E+03  0.20126052597E+03  0.27854129034E+03  0.12500000000E+03 0.  0.
</event>
<event>
 5    0  0.5684733E-005  0.2972488E+03  0.7546771E-02  0.1086624E+00
         21   -1    0    0  502  501  0.00000000000E+00  0.00000000000E+00  0.33788844620E+02  0.33788844620E+02  0.00000000000E+00 0.  1.
         21   -1    0    0  501  502 -0.00000000000E+00 -0.00000000000E+00 -0.26149708702E+04  0.26149708702E+04  0.00000000000E+00 0.  1.
         25    1    1    2    0    0 -0.40346012356E+02 -0.26545057287E+02 -0.25449561441E+03  0.28762033748E+03  0.12500000000E+03 0.  0.
         25    1    1    2    0    0  0.63184507760E+02 -0.37485947184E+02 -0.19944714304E+04  0.19997346737E+04  0.12500000000E+03 0.  0.
         25    1    1    2    0    0 -0.22838495404E+02  0.64031004471E+02 -0.33221498069E+03  0.36140470362E+03  0.12500000000E+03 0.  0.
</event>
<event>
 5    0  0.5684733E-005  0.3473765E+03  0.7546771E-02  0.1063697E+00
         21   -1    0    0  502  501  0.00000000000E+00  0.00000000000E+00  0.27809991271E+03  0.27809991271E+03  0.00000000000E+00 0.  1.
         21   -1    0    0  501  502 -0.00000000000E+00 -0.00000000000E+00 -0.43391042350E+03  0.43391042350E+03  0.00000000000E+00 0.  1.
         25    1    1    2    0    0 -0.13890463034E+02 -0.16666295652E+02 -0.22094094210E+03  0.25477560768E+03  0.12500000000E+03 0.  0.
         25    1    1    2    0    0 -0.13515277153E+03 -0.90847547658E+02 -0.43502454489E+02  0.20984997525E+03  0.12500000000E+03 0.  0.
         25    1    1    2    0    0  0.14904323456E+03  0.10751384331E+03  0.10863288581E+03  0.24738475327E+03  0.12500000000E+03 0.  0.
</event>
<event>
 5    0  0.5684733E-005  0.3745689E+03  0.7546771E-02  0.1052960E+00
         21   -1    0    0  502  501  0.00000000000E+00  0.00000000000E+00  0.10110644803E+03  0.10110644803E+03  0.00000000000E+00 0.  1.
         21   -1    0    0  501  502 -0.00000000000E+00 -0.00000000000E+00 -0.13876651276E+04  0.13876651276E+04  0.00000000000E+00 0.  1.
         25    1    1    2    0    0 -0.92090470502E+02 -0.29246440657E+03 -0.48812050026E+03  0.58983277854E+03  0.12500000000E+03 0.  0.
         25    1    1    2    0    0  0.36665949766E+02  0.76550003206E+02 -0.22377738004E+03  0.27001038995E+03  0.12500000000E+03 0.  0.
         25    1    1    2    0    0  0.55424520737E+02  0.21591440337E+03 -0.57466079927E+03  0.62892840713E+03  0.12500000000E+03 0.  0.
</event>
<event>
 5    0  0.5684733E-005  0.2265749E+03  0.7546771E-02  0.1129074E+00
         21   -1    0    0  502  501  0.00000000000E+00  0.00000000000E+00  0.17845379357E+02  0.17845379357E+02  0.00000000000E+00 0.  1.
         21   -1    0    0  501  502 -0.00000000000E+00 -0.00000000000E+00 -0.28767214334E+04  0.28767214334E+04  0.00000000000E+00 0.  1.
         25    1    1    2    0    0  0.24209011914E+02  0.97906675226E+02 -0.11459335475E+04  0.11571346026E+04  0.12500000000E+03 0.  0.
         25    1    1    2    0    0 -0.45401459695E+02 -0.65666530864E+01 -0.70767039129E+03  0.72008804753E+03  0.12500000000E+03 0.  0.
         25    1    1    2    0    0  0.21192447781E+02 -0.91340022139E+02 -0.10052721152E+04  0.10173441626E+04  0.12500000000E+03 0.  0.
</event>
<event>
 5    0  0.5684733E-005  0.4696076E+03  0.7546771E-02  0.1022031E+00
         21   -1    0    0  502  501  0.00000000000E+00  0.00000000000E+00  0.62771210308E+03  0.62771210308E+03  0.00000000000E+00 0. -1.
         21   -1    0    0  501  502 -0.00000000000E+00 -0.00000000000E+00 -0.35132549233E+03  0.35132549233E+03  0.00000000000E+00 0. -1.
         25    1    1    2    0    0 -0.11696347848E+03  0.13381132171E+03  0.30479979709E+03  0.37431783476E+03  0.12500000000E+03 0.  0.
         25    1    1    2    0    0  0.11522999556E+03 -0.33002914657E+03 -0.24032696470E+02  0.37202118214E+03  0.12500000000E+03 0.  0.
         25    1    1    2    0    0  0.17334829178E+01  0.19621782485E+03 -0.43804898647E+01  0.23269857852E+03  0.12500000000E+03 0.  0.
</event>
<event>
 5    0  0.5684733E-005  0.3876472E+03  0.7546771E-02  0.1048143E+00
         21   -1    0    0  502  501  0.00000000000E+00  0.00000000000E+00  0.32124016374E+03  0.32124016374E+03  0.00000000000E+00 0.  1.
         21   -1    0    0  501  502 -0.00000000000E+00 -0.00000000000E+00 -0.46778196056E+03  0.46778196056E+03  0.00000000000E+00 0.  1.
         25    1    1    2    0    0  0.81689915171E+02 -0.22531581695E+03 -0.16504601440E+03  0.31671066682E+03  0.12500000000E+03 0.  0.
         25    1    1    2    0    0 -0.47470802652E+02 -0.67065177790E+01  0.12767548163E+03  0.18499860296E+03  0.12500000000E+03 0.  0.
         25    1    1    2    0    0 -0.34219112519E+02  0.23202233473E+03 -0.10917126406E+03  0.28731285452E+03  0.12500000000E+03 0.  0.
</event>
<event>
 5    0  0.5684733E-005  0.3112855E+03  0.7546771E-02  0.1079731E+00
         21   -1    0    0  502  501  0.00000000000E+00  0.00000000000E+00  0.24841029665E+03  0.24841029665E+03  0.00000000000E+00 0.  1.
         21   -1    0    0  501  502 -0.00000000000E+00 -0.00000000000E+00 -0.39007509278E+03  0.39007509278E+03  0.00000000000E+00 0.  1.
         25    1    1    2    0    0 -0.18542506683E+03  0.12025607960E+03  0.45182840949E+01  0.25394762252E+03  0.12500000000E+03 0.  0.
         25    1    1    2    0    0  0.12911453511E+03 -0.12426372094E+03 -0.87656370048E+02  0.23541596107E+03  0.12500000000E+03 0.  0.
         25    1    1    2    0    0  0.56310531723E+02  0.40076413380E+01 -0.58526710180E+02  0.14912180584E+03  0.12500000000E+03 0.  0.
</event>
<event>
 5    0  0.5684733E-005  0.2628396E+03  0.7546771E-02  0.1105449E+00
         21   -1    0    0  502  501  0.00000000000E+00  0.00000000000E+00  0.11401217222E+03  0.11401217222E+03  0.00000000000E+00 0. -1.
         21   -1    0    0  501  502 -0.00000000000E+00 -0.00000000000E+00 -0.60594104076E+03  0.60594104076E+03  0.00000000000E+00 0. -1.
         25    1    1    2    0    0 -0.65819389390E+02 -0.13385964465E+03 -0.19982677802E+03  0.27893787426E+03  0.12500000000E+03 0.  0.
         25    1    1    2    0    0  0.65218753410E+02  0.76010853710E+02 -0.25013646890E+03  0.29702590586E+03  0.12500000000E+03 0.  0.
         25    1    1    2    0    0  0.60063598062E+00  0.57848790945E+02 -0.41965621619E+02  0.14398943286E+03  0.12500000000E+03 0.  0.
</event>
<event>
 5    0  0.5684733E-005  0.2288609E+03  0.7546771E-02  0.1127444E+00
         21   -1    0    0  502  501  0.00000000000E+00  0.00000000000E+00  0.75169587827E+03  0.75169587827E+03  0.00000000000E+00 0.  1.
         21   -1    0    0  501  502 -0.00000000000E+00 -0.00000000000E+00 -0.69678889200E+02  0.69678889200E+02  0.00000000000E+00 0.  1.
         25    1    1    2    0    0  0.51650720311E+02 -0.31213357602E+02  0.98218120918E+02  0.17004078887E+03  0.12500000000E+03 0.  0.
         25    1    1    2    0    0 -0.27813543319E+02  0.16777889625E+02  0.14476659083E+03  0.19400375407E+03  0.12500000000E+03 0.  0.
         25    1    1    2    0    0 -0.23837176992E+02  0.14435467977E+02  0.43903227733E+03  0.45733022454E+03  0.12500000000E+03 0.  0.
</event>
<event>
 5    0  0.5684733E-005  0.2537538E+03  0.7546771E-02  0.1110955E+00
         21   -1    0    0  502  501  0.00000000000E+00  0.00000000000E+00  0.18883462630E+04  0.18883462630E+04  0.00000000000E+00 0. -1.
         21   -1    0    0  501  502 -0.00000000000E+00 -0.00000000000E+00 -0.34099143422E+02  0.34099143422E+02  0.00000000000E+00 0. -1.
         25    1    1    2    0    0 -0.69055706062E+02 -0.11079244497E+03  0.43106275649E+03  0.46742246034E+03  0.12500000000E+03 0.  0.
         25    1    1    2    0    0  0.90444877429E+01  0.50188444233E+02  0.43950364211E+03  0.45977074082E+03  0.12500000000E+03 0.  0.
         25    1    1    2    0    0  0.60011218319E+02  0.60604000736E+02  0.98368072101E+03  0.99525220528E+03  0.12500000000E+03 0.  0.
</event>
<event>
 5    0  0.5684733E-005  0.2656698E+03  0.7546771E-02  0.1103784E+00
         21   -1    0    0  502  501  0.00000000000E+00  0.00000000000E+00  0.46871657834E+03  0.46871657834E+03  0.00000000000E+00 0.  1.
         21   -1    0    0  501  502 -0.00000000000E+00 -0.00000000000E+00 -0.15058235234E+03  0.15058235234E+03  0.00000000000E+00 0.  1.
         25    1    1    2    0    0 -0.11391820049E+02 -0.38312918570E+02  0.11250798016E+03  0.17286034505E+03  0.12500000000E+03 0.  0.
         25    1    1    2    0    0 -0.96553829260E+02 -0.72612208144E+02  0.21150347234E+02  0.17512142046E+03  0.12500000000E+03 0.  0.
         25    1    1    2    0    0  0.10794564931E+03  0.11092512671E+03  0.18447589862E+03  0.27131716516E+03  0.12500000000E+03 0.  0.
</event>
<event>
 5    0  0.5684733E-005  0.5909996E+03  0.7546771E-02  0.9924257E-01
         21   -1    0    0  502  501  0.00000000000E+00  0.00000000000E+00  0.12682658300E+04  0.12682658300E+04  0.00000000000E+00 0.  1.
         21   -1    0    0  501  502 -0.00000000000E+00 -0.00000000000E+00 -0.27540006966E+03  0.27540006966E+03  0.00000000000E+00 0.  1.
         25    1    1    2    0    0  0.16583323934E+03 -0.49027558768E+03  0.21499001599E+03  0.57420947582E+03  0.12500000000E+03 0.  0.
         25    1    1    2    0    0 -0.82232582110E+02  0.24011193883E+03  0.32762433934E+03  0.43287255452E+03  0.12500000000E+03 0.  0.
         25    1    1    2    0    0 -0.83600657229E+02  0.25016364884E+03  0.45025140503E+03  0.53658386933E+03  0.12500000000E+03 0.  0.
</event>
<event>
 5    0  0.5684733E-005  0.3170518E+03  0.7546771E-02  0.1077014E+00
         21   -1    0    0  502  501  0.00000000000E+00  0.00000000000E+00  0.61004976182E+03  0.61004976182E+03  0.00000000000E+00 0.  1.
         21   -1    0    0  501  502 -0.00000000000E+00 -0.00000000000E+00 -0.16477644611E+03  0.16477644611E+03  0.00000000000E+00 0.  1.
         25    1    1    2    0    0  0.57956643841E+02 -0.82785754371E+02  0.30288219299E+03  0.34289222289E+03  0.12500000000E+03 0.  0.
         25    1    1    2    0    0 -0.40869787199E+02 -0.11376991190E+02  0.21988621519E+03  0.25646583216E+03  0.12500000000E+03 0.  0.
         25    1    1    2    0    0 -0.17086856642E+02  0.94162745560E+02 -0.77495092462E+02  0.17546815289E+03  0.12500000000E+03 0.  0.
</event>
<event>
 5    0  0.5684733E-005  0.2520790E+03  0.7546771E-02  0.1111998E+00
         21   -1    0    0  502  501  0.00000000000E+00  0.00000000000E+00  0.69280711731E+03  0.69280711731E+03  0.00000000000E+00 0. -1.
         21   -1    0    0  501  502 -0.00000000000E+00 -0.00000000000E+00 -0.91719376169E+02  0.91719376169E+02  0.00000000000E+00 0.  1.
         25    1    1    2    0    0  0.44135475744E+02  0.46576476367E+02  0.96920369574E+02  0.17069231502E+03  0.12500000000E+03 0.  0.
         25    1    1    2    0    0 -0.11070359716E+03  0.55048510679E+02  0.25716091051E+03  0.31151622565E+03  0.12500000000E+03 0.  0.
         25    1    1    2    0    0  0.66568121419E+02 -0.10162498705E+03  0.24700646106E+03  0.30231795280E+03  0.12500000000E+03 0.  0.
</event>
<event>
 5    0  0.5684733E-005  0.1018078E+04  0.7546771E-02  0.9288936E-01
         21   -1    0    0  502  501  0.00000000000E+00  0.00000000000E+00  0.84153641014E+03  0.84153641014E+03  0.00000000000E+00 0.  1.
         21   -1    0    0  501  502 -0.00000000000E+00 -0.00000000000E+00 -0.12316560230E+04  0.12316560230E+04  0.00000000000E+00 0.  1.
         25    1    1    2    0    0  0.27728096925E+02  0.51928777530E+03  0.64574944424E+03  0.83847837519E+03  0.12500000000E+03 0.  0.
         25    1    1    2    0    0 -0.12213160863E+03 -0.33416610923E+03 -0.37960012620E+03  0.53507417635E+03  0.12500000000E+03 0.  0.
         25    1    1    2    0    0  0.94403511709E+02 -0.18512166607E+03 -0.65626893094E+03  0.69963988165E+03  0.12500000000E+03 0.  0.
</event>
<event>
 5    0  0.7029190E-005  0.3038833E+03  0.7546771E-02  0.1083315E+00
         21   -1    0    0  502  501  0.00000000000E+00  0.00000000000E+00  0.56261222678E+03  0.56261222678E+03  0.00000000000E+00 0. -1.
         21   -1    0    0  501  502 -0.00000000000E+00 -0.00000000000E+00 -0.16413629440E+03  0.16413629440E+03  0.00000000000E+00 0. -1.
         25    1    1    2    0    0  0.15306564548E+03 -0.52387888143E+02  0.26578680006E+03  0.33532253986E+03  0.12500000000E+03 0.  0.
         25    1    1    2    0    0 -0.15899963086E+03 -0.16936866617E+02  0.14256244367E+03  0.24802578577E+03  0.12500000000E+03 0.  0.
         25    1    1    2    0    0  0.59339853801E+01  0.69324754760E+02 -0.98733113567E+01  0.14340019554E+03  0.12500000000E+03 0.  0.
</event>
<event>
 5    0  0.5684733E-005  0.3070816E+03  0.7546771E-02  0.1081753E+00
         21   -1    0    0  502  501  0.00000000000E+00  0.00000000000E+00  0.20232191404E+03  0.20232191404E+03  0.00000000000E+00 0.  1.
         21   -1    0    0  501  502 -0.00000000000E+00 -0.00000000000E+00 -0.46608443061E+03  0.46608443061E+03  0.00000000000E+00 0. -1.
         25    1    1    2    0    0  0.91986740291E+02 -0.63265030903E+02 -0.17533092005E+03  0.24254887353E+03  0.12500000000E+03 0.  0.
         25    1    1    2    0    0  0.10265899853E+03 -0.33185255647E+02 -0.48263958239E+02  0.17203063924E+03  0.12500000000E+03 0.  0.
         25    1    1    2    0    0 -0.19464573883E+03  0.96450286550E+02 -0.40167638280E+02  0.25382683188E+03  0.12500000000E+03 0.  0.
</event>
<event>
 5    0  0.5684733E-005  0.3284507E+03  0.7546771E-02  0.1071824E+00
         21   -1    0    0  502  501  0.00000000000E+00  0.00000000000E+00  0.76161160352E+02  0.76161160352E+02  0.00000000000E+00 0. -1.
         21   -1    0    0  501  502 -0.00000000000E+00 -0.00000000000E+00 -0.14164681989E+04  0.14164681989E+04  0.00000000000E+00 0. -1.
         25    1    1    2    0    0 -0.81180952959E+02  0.84854050127E+02 -0.10125448507E+04  0.10269676877E+04  0.12500000000E+03 0.  0.
         25    1    1    2    0    0 -0.18544168218E+02 -0.93081643228E+02 -0.22870750583E+03  0.27738096853E+03  0.12500000000E+03 0.  0.
         25    1    1    2    0    0  0.99725121177E+02  0.82275931009E+01 -0.99054681965E+02  0.18828070294E+03  0.12500000000E+03 0.  0.
</event>
<event>
 5    0  0.5684733E-005  0.3080355E+03  0.7546771E-02  0.1081291E+00
         21   -1    0    0  502  501  0.00000000000E+00  0.00000000000E+00  0.18582541825E+03  0.18582541825E+03  0.00000000000E+00 0.  1.
         21   -1    0    0  501  502 -0.00000000000E+00 -0.00000000000E+00 -0.51061839333E+03  0.51061839333E+03  0.00000000000E+00 0.  1.
         25    1    1    2    0    0 -0.18913784926E+03  0.94436339128E+02 -0.11087605246E+03  0.26946214424E+03  0.12500000000E+03 0.  0.
         25    1    1    2    0    0  0.14769464034E+03  0.14967714786E+02 -0.14574187900E+03  0.24270029783E+03  0.12500000000E+03 0.  0.
         25    1    1    2    0    0  0.41443208918E+02 -0.10940405391E+03 -0.68175043624E+02  0.18428136952E+03  0.12500000000E+03 0.  0.
</event>
<event>
 5    0  0.5684733E-005  0.3623147E+03  0.7546771E-02  0.1057671E+00
         21   -1    0    0  502  501  0.00000000000E+00  0.00000000000E+00  0.24353009808E+03  0.24353009808E+03  0.00000000000E+00 0. -1.
         21   -1    0    0  501  502 -0.00000000000E+00 -0.00000000000E+00 -0.53903779129E+03  0.53903779129E+03  0.00000000000E+00 0. -1.
         25    1    1    2    0    0  0.60529850345E+02  0.63496198187E+01 -0.16388505455E+03  0.21491275337E+03  0.12500000000E+03 0.  0.
         25    1    1    2    0    0 -0.12581850001E+02  0.24037167148E+03 -0.73331203900E+02  0.28096140102E+03  0.12500000000E+03 0.  0.
         25    1    1    2    0    0 -0.47948000344E+02 -0.24672129129E+03 -0.58291434761E+02  0.28669373499E+03  0.12500000000E+03 0.  0.
</event>
<event>
 5    0  0.6512936E-005  0.2998857E+03  0.7546771E-02  0.1085298E+00
         21   -1    0    0  502  501  0.00000000000E+00  0.00000000000E+00  0.44844734095E+03  0.44844734095E+03  0.00000000000E+00 0.  1.
         21   -1    0    0  501  502 -0.00000000000E+00 -0.00000000000E+00 -0.20053962129E+03  0.20053962129E+03  0.00000000000E+00 0.  1.
         25    1    1    2    0    0 -0.52376677099E+02 -0.13125027146E+03  0.71891367553E+02  0.20189927883E+03  0.12500000000E+03 0.  0.
         25    1    1    2    0    0  0.97356892153E+02 -0.70186793097E+01  0.19844595773E+03  0.25403429778E+03  0.12500000000E+03 0.  0.
         25    1    1    2    0    0 -0.44980215054E+02  0.13826895077E+03 -0.22429605627E+02  0.19305338563E+03  0.12500000000E+03 0.  0.
</event>
<event>
 5    0  0.5684733E-005  0.2873887E+03  0.7546771E-02  0.1091720E+00
         21   -1    0    0  502  501  0.00000000000E+00  0.00000000000E+00  0.52858153656E+02  0.52858153656E+02  0.00000000000E+00 0. -1.
         21   -1    0    0  501  502 -0.00000000000E+00 -0.00000000000E+00 -0.15625262661E+04  0.15625262661E+04  0.00000000000E+00 0. -1.
         25    1    1    2    0    0 -0.76745159540E+02 -0.48494630827E+01 -0.20222898403E+03  0.24986976365E+03  0.12500000000E+03 0.  0.
         25    1    1    2    0    0  0.98553220380E+02 -0.50535575490E+02 -0.11205652523E+04  0.11329422167E+04  0.12500000000E+03 0.  0.
         25    1    1    2    0    0 -0.21808060840E+02  0.55385038572E+02 -0.18687387613E+03  0.23257243946E+03  0.12500000000E+03 0.  0.
</event>
<event>
 5    0  0.5684733E-005  0.5152440E+03  0.7546771E-02  0.1009875E+00
         21   -1    0    0  502  501  0.00000000000E+00  0.00000000000E+00  0.47258730312E+03  0.47258730312E+03  0.00000000000E+00 0. -1.
         21   -1    0    0  501  502 -0.00000000000E+00 -0.00000000000E+00 -0.56175099714E+03  0.56175099714E+03  0.00000000000E+00 0. -1.
         25    1    1    2    0    0  0.12079568643E+03  0.15912377576E+03 -0.17262811735E+03  0.29212572768E+03  0.12500000000E+03 0.  0.
         25    1    1    2    0    0 -0.20330793896E+03 -0.38856794237E+03  0.79509092385E+00  0.45600964469E+03  0.12500000000E+03 0.  0.
         25    1    1    2    0    0  0.82512252521E+02  0.22944416661E+03  0.82669332406E+02  0.28620292788E+03  0.12500000000E+03 0.  0.
</event>
<event>
 5    0  0.5961978E-005  0.3091020E+03  0.7546771E-02  0.1080777E+00
         21   -1    0    0  502  501  0.00000000000E+00  0.00000000000E+00  0.67831853247E+03  0.67831853247E+03  0.00000000000E+00 0.  1.
         21   -1    0    0  501  502 -0.00000000000E+00 -0.00000000000E+00 -0.14085423231E+03  0.14085423231E+03  0.00000000000E+00 0.  1.
         25    1    1    2    0    0 -0.59857522571E+02  0.14013454525E+03  0.37890795376E+03  0.42710285788E+03  0.12500000000E+03 0.  0.
         25    1    1    2    0    0 -0.68867506786E+02 -0.83270598766E+02  0.41321557160E+02  0.17032086542E+03  0.12500000000E+03 0.  0.
         25    1    1    2    0    0  0.12872502936E+03 -0.56863946480E+02  0.11723478924E+03  0.22174904149E+03  0.12500000000E+03 0.  0.
</event>
<event>
 5    0  0.5962586E-005  0.3157428E+03  0.7546771E-02  0.1077625E+00
         21   -1    0    0  502  501  0.00000000000E+00  0.00000000000E+00  0.15128640163E+03  0.15128640163E+03  0.00000000000E+00 0.  1.
         21   -1    0    0  501  502 -0.00000000000E+00 -0.00000000000E+00 -0.65897215751E+03  0.65897215751E+03  0.00000000000E+00 0.  1.
         25    1    1    2    0    0  0.33089419023E+02  0.96087133432E+02 -0.20411921640E+02  0.16238624759E+03  0.12500000000E+03 0.  0.
         25    1    1    2    0    0 -0.16902667625E+03 -0.78302645659E+02 -0.35529445462E+03  0.42019099358E+03  0.12500000000E+03 0.  0.
         25    1    1    2    0    0  0.13593725723E+03 -0.17784487773E+02 -0.13197937962E+03  0.22768131797E+03  0.12500000000E+03 0.  0.
</event>
<event>
 5    0  0.5684733E-005  0.2789483E+03  0.7546771E-02  0.1096265E+00
         21   -1    0    0  502  501  0.00000000000E+00  0.00000000000E+00  0.51126740431E+03  0.51126740431E+03  0.00000000000E+00 0.  1.
         21   -1    0    0  501  502 -0.00000000000E+00 -0.00000000000E+00 -0.15219464130E+03  0.15219464130E+03  0.00000000000E+00 0.  1.
         25    1    1    2    0    0 -0.52135703581E+02 -0.91012417861E+02 -0.20338682564E+02  0.16443860192E+03  0.12500000000E+03 0.  0.
         25    1    1    2    0    0 -0.41040142296E+02  0.96908151523E+02  0.15152139922E+03  0.22284348214E+03  0.12500000000E+03 0.  0.
         25    1    1    2    0    0  0.93175845877E+02 -0.58957336623E+01  0.22789004636E+03  0.27617996154E+03  0.12500000000E+03 0.  0.
</event>
<event>
 5    0  0.5684733E-005  0.2670608E+03  0.7546771E-02  0.1102974E+00
         21   -1    0    0  502  501  0.00000000000E+00  0.00000000000E+00  0.84466186875E+03  0.84466186875E+03  0.00000000000E+00 0.  1.
         21   -1    0    0  501  502 -0.00000000000E+00 -0.00000000000E+00 -0.84437892758E+02  0.84437892758E+02  0.00000000000E+00 0.  1.
         25    1    1    2    0    0 -0.91913000074E+02 -0.75315160403E+02  0.33773031101E+03  0.37921911337E+03  0.12500000000E+03 0.  0.
         25    1    1    2    0    0  0.21804464791E+02  0.23371315533E+02  0.36470307810E+03  0.38685266995E+03  0.12500000000E+03 0.  0.
         25    1    1    2    0    0  0.70108535283E+02  0.51943844870E+02  0.57790586882E+02  0.16302797819E+03  0.12500000000E+03 0.  0.
</event>
<event>
 5    0  0.5684733E-005  0.2717337E+03  0.7546771E-02  0.1100291E+00
         21   -1    0    0  502  501  0.00000000000E+00  0.00000000000E+00  0.38833212553E+02  0.38833212553E+02  0.00000000000E+00 0. -1.
         21   -1    0    0  501  502 -0.00000000000E+00 -0.00000000000E+00 -0.19014440182E+04  0.19014440182E+04  0.00000000000E+00 0. -1.
         25    1    1    2    0    0  0.30185741616E+02 -0.83082065910E+02 -0.63795426905E+03  0.65606741884E+03  0.12500000000E+03 0.  0.
         25    1    1    2    0    0  0.72507605227E+01 -0.62099585774E+02 -0.85334072609E+03  0.86471054514E+03  0.12500000000E+03 0.  0.
         25    1    1    2    0    0 -0.37436502138E+02  0.14518165168E+03 -0.37131581048E+03  0.41949926674E+03  0.12500000000E+03 0.  0.
</event>
<event>
 5    0  0.5684733E-005  0.2879181E+03  0.7546771E-02  0.1091441E+00
         21   -1    0    0  502  501  0.00000000000E+00  0.00000000000E+00  0.40397644278E+03  0.40397644278E+03  0.00000000000E+00 0.  1.
         21   -1    0    0  501  502 -0.00000000000E+00 -0.00000000000E+00 -0.20520212773E+03  0.20520212773E+03  0.00000000000E+00 0.  1.
         25    1    1    2    0    0  0.10886397069E+03 -0.38533503782E+02 -0.50451116853E+02  0.17750073301E+03  0.12500000000E+03 0.  0.
         25    1    1    2    0    0 -0.83340297343E+02 -0.38692913988E+02  0.17514661930E+02  0.15612338113E+03  0.12500000000E+03 0.  0.
         25    1    1    2    0    0 -0.25523673344E+02  0.77226417770E+02  0.23171076997E+03  0.27555445637E+03  0.12500000000E+03 0.  0.
</event>
<event>
 5    0  0.5733076E-005  0.3313575E+03  0.7546771E-02  0.1070538E+00
         21   -1    0    0  502  501  0.00000000000E+00  0.00000000000E+00  0.64550771604E+03  0.64550771604E+03  0.00000000000E+00 0.  1.
         21   -1    0    0  501  502 -0.00000000000E+00 -0.00000000000E+00 -0.17009524520E+03  0.17009524520E+03  0.00000000000E+00 0.  1.
         25    1    1    2    0    0  0.34912203932E+02 -0.10537506107E+03  0.11700625443E+03  0.20405447571E+03  0.12500000000E+03 0.  0.
         25    1    1    2    0    0  0.11411975415E+03 -0.93181804171E+02  0.56788195635E+02  0.20138536709E+03  0.12500000000E+03 0.  0.
         25    1    1    2    0    0 -0.14903195808E+03  0.19855686524E+03  0.30161802077E+03  0.41016311843E+03  0.12500000000E+03 0.  0.
</event>
<event>
 5    0  0.5684733E-005  0.2112396E+03  0.7546771E-02  0.1140588E+00
         21   -1    0    0  502  501  0.00000000000E+00  0.00000000000E+00  0.64482801218E+03  0.64482801218E+03  0.00000000000E+00 0.  1.
         21   -1    0    0  501  502 -0.00000000000E+00 -0.00000000000E+00 -0.69200130981E+02  0.69200130981E+02  0.00000000000E+00 0.  1.
         25    1    1    2    0    0 -0.17222817549E+02  0.92200884836E+01  0.26065173652E+03  0.28973429764E+03  0.12500000000E+03 0.  0.
         25    1    1    2    0    0  0.70434390679E+00  0.45816467571E+02  0.21990287190E+03  0.25706403457E+03  0.12500000000E+03 0.  0.
         25    1    1    2    0    0  0.16518473642E+02 -0.55036556054E+02  0.95073272777E+02  0.16722981095E+03  0.12500000000E+03 0.  0.
</event>
<event>
 5    0  0.5684733E-005  0.2507576E+03  0.7546771E-02  0.1112827E+00
         21   -1    0    0  502  501  0.00000000000E+00  0.00000000000E+00  0.91762462324E+03  0.91762462324E+03  0.00000000000E+00 0. -1.
         21   -1    0    0  501  502 -0.00000000000E+00 -0.00000000000E+00 -0.68524076007E+02  0.68524076007E+02  0.00000000000E+00 0. -1.
         25    1    1    2    0    0  0.14969490215E+02  0.28412875903E+02  0.29820168084E+03  0.32493171530E+03  0.12500000000E+03 0.  0.
         25    1    1    2    0    0 -0.65948380276E+02 -0.53301198876E+02  0.80420208229E+02  0.17112164257E+03  0.12500000000E+03 0.  0.
         25    1    1    2    0    0  0.50978890062E+02  0.24888322973E+02  0.47047865816E+03  0.49009534138E+03  0.12500000000E+03 0.  0.
</event>
<event>
 5    0  0.5684733E-005  0.2328547E+03  0.7546771E-02  0.1124646E+00
         21   -1    0    0  502  501  0.00000000000E+00  0.00000000000E+00  0.33539032979E+03  0.33539032979E+03  0.00000000000E+00 0.  1.
         21   -1    0    0  501  502 -0.00000000000E+00 -0.00000000000E+00 -0.16166629104E+03  0.16166629104E+03  0.00000000000E+00 0.  1.
         25    1    1    2    0    0 -0.83385681577E+02 -0.99394440913E+02  0.40822029612E+02  0.18472645960E+03  0.12500000000E+03 0.  0.
         25    1    1    2    0    0  0.39672162795E+02  0.37067117476E+02  0.64835760315E+02  0.15091894352E+03  0.12500000000E+03 0.  0.
         25    1    1    2    0    0  0.43713518782E+02  0.62327323437E+02  0.68066248824E+02  0.16141121770E+03  0.12500000000E+03 0.  0.
</event>
<event>
 5    0  0.5684733E-005  0.4446899E+03  0.7546771E-02  0.1029318E+00
         21   -1    0    0  502  501  0.00000000000E+00  0.00000000000E+00  0.57352258018E+03  0.57352258018E+03  0.00000000000E+00 0. -1.
         21   -1    0    0  501  502 -0.00000000000E+00 -0.00000000000E+00 -0.34479737780E+03  0.34479737780E+03  0.00000000000E+00 0. -1.
         25    1    1    2    0    0 -0.72517742250E+02  0.23049631778E+03  0.18371132404E+03  0.32827157360E+03  0.12500000000E+03 0.  0.
         25    1    1    2    0    0  0.12182927163E+03  0.67697673631E+02  0.15700137224E+03  0.24433537879E+03  0.12500000000E+03 0.  0.
         25    1    1    2    0    0 -0.49311529384E+02 -0.29819399141E+03 -0.11198749391E+03  0.34571300559E+03  0.12500000000E+03 0.  0.
</event>
<event>
 5    0  0.5684733E-005  0.3620314E+03  0.7546771E-02  0.1057782E+00
         21   -1    0    0  502  501  0.00000000000E+00  0.00000000000E+00  0.83663721569E+02  0.83663721569E+02  0.00000000000E+00 0. -1.
         21   -1    0    0  501  502 -0.00000000000E+00 -0.00000000000E+00 -0.15665900915E+04  0.15665900915E+04  0.00000000000E+00 0. -1.
         25    1    1    2    0    0 -0.14735147965E+03  0.88977099425E+02 -0.10311699521E+03  0.23640536686E+03  0.12500000000E+03 0.  0.
         25    1    1    2    0    0  0.59394679841E+02 -0.67336373101E+02 -0.70669417993E+03  0.72325899862E+03  0.12500000000E+03 0.  0.
         25    1    1    2    0    0  0.87956799812E+02 -0.21640726325E+02 -0.67311519480E+03  0.69058944761E+03  0.12500000000E+03 0.  0.
</event>
<event>
 5    0  0.5684733E-005  0.2495177E+03  0.7546771E-02  0.1113610E+00
         21   -1    0    0  502  501  0.00000000000E+00  0.00000000000E+00  0.27396330391E+03  0.27396330391E+03  0.00000000000E+00 0. -1.
         21   -1    0    0  501  502 -0.00000000000E+00 -0.00000000000E+00 -0.22725331291E+03  0.22725331291E+03  0.00000000000E+00 0. -1.
         25    1    1    2    0    0  0.60772889790E+02  0.43076279289E+02  0.13381624975E+02  0.14612658163E+03  0.12500000000E+03 0.  0.
         25    1    1    2    0    0 -0.13424430625E+03 -0.76953091276E+02 -0.12467839127E+02  0.19930820111E+03  0.12500000000E+03 0.  0.
         25    1    1    2    0    0  0.73471416459E+02  0.33876811987E+02  0.45796205151E+02  0.15578183409E+03  0.12500000000E+03 0.  0.
</event>
<event>
 5    0  0.5684733E-005  0.3615163E+03  0.7546771E-02  0.1057985E+00
         21   -1    0    0  502  501  0.00000000000E+00  0.00000000000E+00  0.13240488747E+04  0.13240488747E+04  0.00000000000E+00 0. -1.
         21   -1    0    0  501  502 -0.00000000000E+00 -0.00000000000E+00 -0.98707846797E+02  0.98707846797E+02  0.00000000000E+00 0. -1.
         25    1    1    2    0    0  0.67227804808E+02  0.19061654118E+03  0.91127645022E+03  0.94175581349E+03  0.12500000000E+03 0.  0.
         25    1    1    2    0    0 -0.10776639871E+03 -0.92405832931E+02  0.10871472907E+03  0.21816582447E+03  0.12500000000E+03 0.  0.
         25    1    1    2    0    0  0.40538593902E+02 -0.98210708253E+02  0.20534984858E+03  0.26283508351E+03  0.12500000000E+03 0.  0.
</event>
<event>
 5    0  0.5684733E-005  0.5117325E+03  0.7546771E-02  0.1010761E+00
         21   -1    0    0  502  501  0.00000000000E+00  0.00000000000E+00  0.56563284650E+03  0.56563284650E+03  0.00000000000E+00 0.  1.
         21   -1    0    0  501  502 -0.00000000000E+00 -0.00000000000E+00 -0.46296839550E+03  0.46296839550E+03  0.00000000000E+00 0.  1.
         25    1    1    2    0    0 -0.34770081111E+03 -0.95214531236E+02  0.23178955440E+03  0.44644491098E+03  0.12500000000E+03 0.  0.
         25    1    1    2    0    0  0.31211961929E+03  0.17561666315E+03 -0.18162876519E+03  0.42056376148E+03  0.12500000000E+03 0.  0.
         25    1    1    2    0    0  0.35581191824E+02 -0.80402131918E+02  0.52503661791E+02  0.16159256954E+03  0.12500000000E+03 0.  0.
</event>
<event>
 5    0  0.5684733E-005  0.3075586E+03  0.7546771E-02  0.1081522E+00
         21   -1    0    0  502  501  0.00000000000E+00  0.00000000000E+00  0.41454888868E+02  0.41454888868E+02  0.00000000000E+00 0. -1.
         21   -1    0    0  501  502 -0.00000000000E+00 -0.00000000000E+00 -0.22818133595E+04  0.22818133595E+04  0.00000000000E+00 0. -1.
         25    1    1    2    0    0 -0.41845736983E+02  0.72565106718E+02 -0.96463208313E+03  0.97629750395E+03  0.12500000000E+03 0.  0.
         25    1    1    2    0    0 -0.12806174856E+03  0.29323997863E+02 -0.74662385397E+03  0.76833058485E+03  0.12500000000E+03 0.  0.
         25    1    1    2    0    0  0.16990748554E+03 -0.10188910458E+03 -0.52910253352E+03  0.57864015955E+03  0.12500000000E+03 0.  0.
</event>
<event>
 5    0  0.5684733E-005  0.3906234E+03  0.7546771E-02  0.1047076E+00
         21   -1    0    0  502  501  0.00000000000E+00  0.00000000000E+00  0.26909651260E+03  0.26909651260E+03  0.00000000000E+00 0. -1.
         21   -1    0    0  501  502 -0.00000000000E+00 -0.00000000000E+00 -0.56703325110E+03  0.56703325110E+03  0.00000000000E+00 0. -1.
         25    1    1    2    0    0  0.27810064014E+02 -0.82550389966E+02  0.85657467557E+02  0.17478606435E+03  0.12500000000E+03 0.  0.
         25    1    1    2    0    0  0.36011847807E+01  0.13303137418E+03 -0.46583385489E+03  0.50033638226E+03  0.12500000000E+03 0.  0.
         25    1    1    2    0    0 -0.31411248795E+02 -0.50480984212E+02  0.82239648831E+02  0.16100731709E+03  0.12500000000E+03 0.  0.
</event>
<event>
 5    0  0.5684733E-005  0.2494152E+03  0.7546771E-02  0.1113675E+00
         21   -1    0    0  502  501  0.00000000000E+00  0.00000000000E+00  0.69749521615E+02  0.69749521615E+02  0.00000000000E+00 0.  1.
         21   -1    0    0  501  502 -0.00000000000E+00 -0.00000000000E+00 -0.89187632791E+03  0.89187632791E+03  0.00000000000E+00 0.  1.
         25    1    1    2    0    0 -0.14649771628E+03 -0.49084355887E+02 -0.32490108308E+03  0.38086292633E+03  0.12500000000E+03 0.  0.
         25    1    1    2    0    0  0.10273371995E+03  0.32156898405E+02 -0.30435687710E+03  0.34618837642E+03  0.12500000000E+03 0.  0.
         25    1    1    2    0    0  0.43763996334E+02  0.16927457482E+02 -0.19286884612E+03  0.23457454677E+03  0.12500000000E+03 0.  0.
</event>
<event>
 5    0  0.5684733E-005  0.2430297E+03  0.7546771E-02  0.1117791E+00
         21   -1    0    0  502  501  0.00000000000E+00  0.00000000000E+00  0.28781485638E+03  0.28781485638E+03  0.00000000000E+00 0. -1.
         21   -1    0    0  501  502 -0.00000000000E+00 -0.00000000000E+00 -0.20521324571E+03  0.20521324571E+03  0.00000000000E+00 0. -1.
         25    1    1    2    0    0  0.11469829225E+03 -0.99761313144E+01 -0.22078563999E+02  0.17137002197E+03  0.12500000000E+03 0.  0.
         25    1    1    2    0    0 -0.12474924509E+02 -0.26898759476E+02  0.54688871659E+01  0.12858489697E+03  0.12500000000E+03 0.  0.
         25    1    1    2    0    0 -0.10222336774E+03  0.36874890791E+02  0.99211287508E+02  0.19307318315E+03  0.12500000000E+03 0.  0.
</event>
<event>
 5    0  0.5684733E-005  0.3959074E+03  0.7546771E-02  0.1045206E+00
         21   -1    0    0  502  501  0.00000000000E+00  0.00000000000E+00  0.50861497298E+03  0.50861497298E+03  0.00000000000E+00 0. -1.
         21   -1    0    0  501  502 -0.00000000000E+00 -0.00000000000E+00 -0.30817549760E+03  0.30817549760E+03  0.00000000000E+00 0. -1.
         25    1    1    2    0    0  0.11389192907E+03  0.53703970398E+02  0.39069392387E+03  0.42909466333E+03  0.12500000000E+03 0.  0.
         25    1    1    2    0    0 -0.14231377530E+03 -0.31438231540E+02 -0.16914642531E+03  0.25588490819E+03  0.12500000000E+03 0.  0.
         25    1    1    2    0    0  0.28421846232E+02 -0.22265738857E+02 -0.21108023182E+02  0.13181089907E+03  0.12500000000E+03 0.  0.
</event>
<event>
 5    0  0.5684733E-005  0.2794452E+03  0.7546771E-02  0.1095992E+00
         21   -1    0    0  502  501  0.00000000000E+00  0.00000000000E+00  0.12716809295E+04  0.12716809295E+04  0.00000000000E+00 0. -1.
         21   -1    0    0  501  502 -0.00000000000E+00 -0.00000000000E+00 -0.61406603697E+02  0.61406603697E+02  0.00000000000E+00 0. -1.
         25    1    1    2    0    0 -0.32962746449E+02  0.12117504240E+02  0.59871720357E+02  0.14297901755E+03  0.12500000000E+03 0.  0.
         25    1    1    2    0    0  0.56517108457E+02 -0.49311152236E+02  0.84065624901E+03  0.85320202899E+03  0.12500000000E+03 0.  0.
         25    1    1    2    0    0 -0.23554362008E+02  0.37193647996E+02  0.30974635647E+03  0.33690648668E+03  0.12500000000E+03 0.  0.
</event>
<event>
 5    0  0.5684733E-005  0.3634540E+03  0.7546771E-02  0.1057225E+00
         21   -1    0    0  502  501  0.00000000000E+00  0.00000000000E+00  0.29675335816E+03  0.29675335816E+03  0.00000000000E+00 0.  1.
         21   -1    0    0  501  502 -0.00000000000E+00 -0.00000000000E+00 -0.44514686024E+03  0.44514686024E+03  0.00000000000E+00 0.  1.
         25    1    1    2    0    0  0.88779344260E+02 -0.15339495139E+03 -0.30614236861E+03  0.37517986745E+03  0.12500000000E+03 0.  0.
         25    1    1    2    0    0 -0.74702686098E+02  0.12431174218E+03  0.48300889480E+02  0.19746360798E+03  0.12500000000E+03 0.  0.
         25    1    1    2    0    0 -0.14076658162E+02  0.29083209210E+02  0.10944797705E+03  0.16925674298E+03  0.12500000000E+03 0.  0.
</event>
<event>
 5    0  0.5684733E-005  0.4906180E+03  0.7546771E-02  0.1016257E+00
         21   -1    0    0  502  501  0.00000000000E+00  0.00000000000E+00  0.18717691604E+03  0.18717691604E+03  0.00000000000E+00 0. -1.
         21   -1    0    0  501  502 -0.00000000000E+00 -0.00000000000E+00 -0.12859814539E+04  0.12859814539E+04  0.00000000000E+00 0. -1.
         25    1    1    2    0    0  0.43812782489E+02 -0.66638242186E+01 -0.99465502043E+03  0.10034578098E+04  0.12500000000E+03 0.  0.
         25    1    1    2    0    0 -0.13688541065E+03  0.77714590346E+01  0.10164497418E+03  0.21155309499E+03  0.12500000000E+03 0.  0.
         25    1    1    2    0    0  0.93072628164E+02 -0.11076348160E+01 -0.20579449165E+03  0.25814746514E+03  0.12500000000E+03 0.  0.
</event>
<event>
 5    0  0.5684733E-005  0.2813560E+03  0.7546771E-02  0.1094951E+00
         21   -1    0    0  502  501  0.00000000000E+00  0.00000000000E+00  0.36031109035E+03  0.36031109035E+03  0.00000000000E+00 0.  1.
         21   -1    0    0  501  502 -0.00000000000E+00 -0.00000000000E+00 -0.21970235645E+03  0.21970235645E+03  0.00000000000E+00 0.  1.
         25    1    1    2    0    0 -0.70214491904E+02 -0.20232882021E+02  0.81218586552E+00  0.14479331488E+03  0.12500000000E+03 0.  0.
         25    1    1    2    0    0 -0.25449388380E+02  0.10995366478E+03  0.18326856225E+03  0.24889725928E+03  0.12500000000E+03 0.  0.
         25    1    1    2    0    0  0.95663880283E+02 -0.89720782762E+02 -0.43472014213E+02  0.18632287264E+03  0.12500000000E+03 0.  0.
</event>
<event>
 5    0  0.5684733E-005  0.3116373E+03  0.7546771E-02  0.1079564E+00
         21   -1    0    0  502  501  0.00000000000E+00  0.00000000000E+00  0.91616437907E+02  0.91616437907E+02  0.00000000000E+00 0. -1.
         21   -1    0    0  501  502 -0.00000000000E+00 -0.00000000000E+00 -0.10600477215E+04  0.10600477215E+04  0.00000000000E+00 0. -1.
         25    1    1    2    0    0 -0.65342986868E+02  0.88778739990E+02 -0.54015857552E+03  0.56528546533E+03  0.12500000000E+03 0.  0.
         25    1    1    2    0    0  0.22109928079E+01  0.66535224476E+02 -0.32206980693E+03  0.35183204107E+03  0.12500000000E+03 0.  0.
         25    1    1    2    0    0  0.63131994060E+02 -0.15531396447E+03 -0.10620290117E+03  0.23454665303E+03  0.12500000000E+03 0.  0.
</event>
<event>
 5    0  0.5684733E-005  0.2741380E+03  0.7546771E-02  0.1098934E+00
         21   -1    0    0  502  501  0.00000000000E+00  0.00000000000E+00  0.53462233619E+02  0.53462233619E+02  0.00000000000E+00 0.  1.
         21   -1    0    0  501  502 -0.00000000000E+00 -0.00000000000E+00 -0.14056957643E+04  0.14056957643E+04  0.00000000000E+00 0.  1.
         25    1    1    2    0    0 -0.14071962714E+02 -0.10770321175E+03 -0.25893862638E+03  0.30736332603E+03  0.12500000000E+03 0.  0.
         25    1    1    2    0    0 -0.57991776653E+00  0.17221318551E+03 -0.77117086237E+03  0.79999201030E+03  0.12500000000E+03 0.  0.
         25    1    1    2    0    0  0.14651880480E+02 -0.64509973761E+02 -0.32212404196E+03  0.35180266162E+03  0.12500000000E+03 0.  0.
</event>
<event>
 5    0  0.5684733E-005  0.4160629E+03  0.7546771E-02  0.1038355E+00
         21   -1    0    0  502  501  0.00000000000E+00  0.00000000000E+00  0.23220855321E+04  0.23220855321E+04  0.00000000000E+00 0.  1.
         21   -1    0    0  501  502 -0.00000000000E+00 -0.00000000000E+00 -0.74548631096E+02  0.74548631096E+02  0.00000000000E+00 0.  1.
         25    1    1    2    0    0 -0.18655286234E+03  0.23597780282E+03  0.10980163243E+04  0.11453175727E+04  0.12500000000E+03 0.  0.
         25    1    1    2    0    0  0.16643085903E+03 -0.88553446543E+02  0.93452869133E+03  0.96151433617E+03  0.12500000000E+03 0.  0.
         25    1    1    2    0    0  0.20122003316E+02 -0.14742435628E+03  0.21499188533E+03  0.28980225431E+03  0.12500000000E+03 0.  0.
</event>
<event>
 5    0  0.5684733E-005  0.3470216E+03  0.7546771E-02  0.1063844E+00
         21   -1    0    0  502  501  0.00000000000E+00  0.00000000000E+00  0.35354821128E+03  0.35354821128E+03  0.00000000000E+00 0.  1.
         21   -1    0    0  501  502 -0.00000000000E+00 -0.00000000000E+00 -0.34061540804E+03  0.34061540804E+03  0.00000000000E+00 0.  1.
         25    1    1    2    0    0 -0.49160253022E+02  0.24617572298E+03 -0.39800868386E+01  0.28046400510E+03  0.12500000000E+03 0.  0.
         25    1    1    2    0    0 -0.43236022181E+02 -0.47892670751E+02  0.68596753468E+02  0.15650423672E+03  0.12500000000E+03 0.  0.
         25    1    1    2    0    0  0.92396275203E+02 -0.19828305223E+03 -0.51683863380E+02  0.25719537750E+03  0.12500000000E+03 0.  0.
</event>
<event>
 5    0  0.5684733E-005  0.2330570E+03  0.7546771E-02  0.1124506E+00
         21   -1    0    0  502  501  0.00000000000E+00  0.00000000000E+00  0.34972992770E+03  0.34972992770E+03  0.00000000000E+00 0. -1.
         21   -1    0    0  501  502 -0.00000000000E+00 -0.00000000000E+00 -0.15530722710E+03  0.15530722710E+03  0.00000000000E+00 0. -1.
         25    1    1    2    0    0  0.43900822097E+02  0.10356732032E+02  0.12747777556E+03  0.18414702642E+03  0.12500000000E+03 0.  0.
         25    1    1    2    0    0 -0.64879314187E+02 -0.46484059961E+02  0.10730113147E+03  0.18305361525E+03  0.12500000000E+03 0.  0.
         25    1    1    2    0    0  0.20978492090E+02  0.36127327929E+02 -0.40356206426E+02  0.13783651313E+03  0.12500000000E+03 0.  0.
</event>
<event>
 5    0  0.5684733E-005  0.2428635E+03  0.7546771E-02  0.1117900E+00
         21   -1    0    0  502  501  0.00000000000E+00  0.00000000000E+00  0.28605279758E+02  0.28605279758E+02  0.00000000000E+00 0.  1.
         21   -1    0    0  501  502 -0.00000000000E+00 -0.00000000000E+00 -0.20619503479E+04  0.20619503479E+04  0.00000000000E+00 0.  1.
         25    1    1    2    0    0 -0.54381640074E+02  0.67783711836E+02 -0.62566363779E+03  0.64391923564E+03  0.12500000000E+03 0.  0.
         25    1    1    2    0    0  0.87188045448E+02 -0.65077939626E+02 -0.11071799262E+04  0.11195129666E+04  0.12500000000E+03 0.  0.
         25    1    1    2    0    0 -0.32806405374E+02 -0.27057722106E+01 -0.30050150415E+03  0.32712342538E+03  0.12500000000E+03 0.  0.
</event>
<event>
 5    0  0.5684733E-005  0.4487288E+03  0.7546771E-02  0.1028102E+00
         21   -1    0    0  502  501  0.00000000000E+00  0.00000000000E+00  0.59392934529E+03  0.59392934529E+03  0.00000000000E+00 0. -1.
         21   -1    0    0  501  502 -0.00000000000E+00 -0.00000000000E+00 -0.33902604721E+03  0.33902604721E+03  0.00000000000E+00 0. -1.
         25    1    1    2    0    0 -0.13224793195E+03  0.90591122528E+02 -0.14918861489E+02  0.20382305909E+03  0.12500000000E+03 0.  0.
         25    1    1    2    0    0  0.33229794464E+03  0.89737657458E+02  0.74421675925E+02  0.37368216043E+03  0.12500000000E+03 0.  0.
         25    1    1    2    0    0 -0.20005001269E+03 -0.18032877999E+03  0.19540048364E+03  0.35545017299E+03  0.12500000000E+03 0.  0.
</event>
<event>
 5    0  0.5684733E-005  0.2710285E+03  0.7546771E-02  0.1100692E+00
         21   -1    0    0  502  501  0.00000000000E+00  0.00000000000E+00  0.20212807575E+04  0.20212807575E+04  0.00000000000E+00 0. -1.
         21   -1    0    0  501  502 -0.00000000000E+00 -0.00000000000E+00 -0.36341546775E+02  0.36341546775E+02  0.00000000000E+00 0. -1.
         25    1    1    2    0    0 -0.72178370369E+02  0.44721122136E+02  0.25329478079E+03  0.29494565922E+03  0.12500000000E+03 0.  0.
         25    1    1    2    0    0 -0.83780839397E+01 -0.39674710003E+02  0.36462291822E+03  0.38758114944E+03  0.12500000000E+03 0.  0.
         25    1    1    2    0    0  0.80556454308E+02 -0.50464121324E+01  0.13670215117E+04  0.13750954957E+04  0.12500000000E+03 0.  0.
</event>
<event>
 5    0  0.5684733E-005  0.3008072E+03  0.7546771E-02  0.1084838E+00
         21   -1    0    0  502  501  0.00000000000E+00  0.00000000000E+00  0.92351041989E+02  0.92351041989E+02  0.00000000000E+00 0.  1.
         21   -1    0    0  501  502 -0.00000000000E+00 -0.00000000000E+00 -0.97979359652E+03  0.97979359652E+03  0.00000000000E+00 0.  1.
         25    1    1    2    0    0 -0.75918397590E+02  0.41365325687E+02 -0.57820898975E+03  0.59785059094E+03  0.12500000000E+03 0.  0.
         25    1    1    2    0    0  0.99778299435E+02 -0.93222269628E+02 -0.27696748650E+03  0.33313974421E+03  0.12500000000E+03 0.  0.
         25    1    1    2    0    0 -0.23859901845E+02  0.51856943940E+02 -0.32266078289E+02  0.14115430337E+03  0.12500000000E+03 0.  0.
</event>
<event>
 5    0  0.5684733E-005  0.3073151E+03  0.7546771E-02  0.1081640E+00
         21   -1    0    0  502  501  0.00000000000E+00  0.00000000000E+00  0.77003009103E+02  0.77003009103E+02  0.00000000000E+00 0. -1.
         21   -1    0    0  501  502 -0.00000000000E+00 -0.00000000000E+00 -0.12264789992E+04  0.12264789992E+04  0.00000000000E+00 0. -1.
         25    1    1    2    0    0 -0.96999373157E+02  0.11660698833E+02 -0.51676235535E+03  0.54056746313E+03  0.12500000000E+03 0.  0.
         25    1    1    2    0    0 -0.18586072520E+02 -0.85832468064E+02 -0.52813899069E+03  0.54978945802E+03  0.12500000000E+03 0.  0.
         25    1    1    2    0    0  0.11558544568E+03  0.74171769232E+02 -0.10457464411E+03  0.21312508720E+03  0.12500000000E+03 0.  0.
</event>
<event>
 5    0  0.5684733E-005  0.3243501E+03  0.7546771E-02  0.1073664E+00
         21   -1    0    0  502  501  0.00000000000E+00  0.00000000000E+00  0.91497867476E+02  0.91497867476E+02  0.00000000000E+00 0. -1.
         21   -1    0    0  501  502 -0.00000000000E+00 -0.00000000000E+00 -0.11497865669E+04  0.11497865669E+04  0.00000000000E+00 0. -1.
         25    1    1    2    0    0  0.14502924347E+02  0.16019203688E+03 -0.29089836435E+03  0.35513192179E+03  0.12500000000E+03 0.  0.
         25    1    1    2    0    0  0.45481485933E+02  0.87504891465E+02 -0.28314708404E+03  0.32484295097E+03  0.12500000000E+03 0.  0.
         25    1    1    2    0    0 -0.59984410280E+02 -0.24769692834E+03 -0.48424325100E+03  0.56130956158E+03  0.12500000000E+03 0.  0.
</event>
<event>
 5    0  0.5684733E-005  0.3615180E+03  0.7546771E-02  0.1057984E+00
         21   -1    0    0  502  501  0.00000000000E+00  0.00000000000E+00  0.15736227388E+03  0.15736227388E+03  0.00000000000E+00 0. -1.
         21   -1    0    0  501  502 -0.00000000000E+00 -0.00000000000E+00 -0.83053724167E+03  0.83053724167E+03  0.00000000000E+00 0. -1.
         25    1    1    2    0    0  0.15650549085E+03  0.53126721910E+02 -0.15871021144E+03  0.26101790832E+03  0.12500000000E+03 0.  0.
         25    1    1    2    0    0 -0.18216748180E+03 -0.14025886502E+03 -0.50892525523E+03  0.57226519731E+03  0.12500000000E+03 0.  0.
         25    1    1    2    0    0  0.25661990955E+02  0.87132143112E+02 -0.55395011199E+01  0.15461640992E+03  0.12500000000E+03 0.  0.
</event>
<event>
 5    0  0.5684733E-005  0.3459644E+03  0.7546771E-02  0.1064284E+00
         21   -1    0    0  502  501  0.00000000000E+00  0.00000000000E+00  0.24762371375E+04  0.24762371375E+04  0.00000000000E+00 0.  1.
         21   -1    0    0  501  502 -0.00000000000E+00 -0.00000000000E+00 -0.48335995574E+02  0.48335995574E+02  0.00000000000E+00 0.  1.
         25    1    1    2    0    0  0.94702442025E+02  0.49942630177E+01  0.14999507664E+04  0.15081348736E+04  0.12500000000E+03 0.  0.
         25    1    1    2    0    0 -0.71127406235E+02 -0.12607464679E+03  0.24248114139E+03  0.30883009635E+03  0.12500000000E+03 0.  0.
         25    1    1    2    0    0 -0.23575035790E+02  0.12108038377E+03  0.68546923413E+03  0.70760816317E+03  0.12500000000E+03 0.  0.
</event>
<event>
 5    0  0.5684733E-005  0.2635594E+03  0.7546771E-02  0.1105023E+00
         21   -1    0    0  502  501  0.00000000000E+00  0.00000000000E+00  0.19675292438E+04  0.19675292438E+04  0.00000000000E+00 0. -1.
         21   -1    0    0  501  502 -0.00000000000E+00 -0.00000000000E+00 -0.35304955818E+02  0.35304955818E+02  0.00000000000E+00 0. -1.
         25    1    1    2    0    0 -0.74010469775E+02 -0.11334543742E+03  0.74192090281E+03  0.76445821590E+03  0.12500000000E+03 0.  0.
         25    1    1    2    0    0  0.14170763299E+02  0.15134724618E+03  0.73825363442E+03  0.76403548883E+03  0.12500000000E+03 0.  0.
         25    1    1    2    0    0  0.59839706476E+02 -0.38001808757E+02  0.45204975072E+03  0.47434049486E+03  0.12500000000E+03 0.  0.
</event>
<event>
 5    0  0.5684733E-005  0.2936849E+03  0.7546771E-02  0.1088441E+00
         21   -1    0    0  502  501  0.00000000000E+00  0.00000000000E+00  0.10289002341E+03  0.10289002341E+03  0.00000000000E+00 0. -1.
         21   -1    0    0  501  502 -0.00000000000E+00 -0.00000000000E+00 -0.83828145298E+03  0.83828145298E+03  0.00000000000E+00 0. -1.
         25    1    1    2    0    0  0.44184586248E+02 -0.59931531829E+02 -0.37946199346E+02  0.15036282856E+03  0.12500000000E+03 0.  0.
         25    1    1    2    0    0  0.10979855757E+02  0.90538729003E+02 -0.60147168863E+03  0.62105636693E+03  0.12500000000E+03 0.  0.
         25    1    1    2    0    0 -0.55164442005E+02 -0.30607197174E+02 -0.95973541591E+02  0.16975228089E+03  0.12500000000E+03 0.  0.
</event>
<event>
 5    0  0.5867100E-005  0.3002642E+03  0.7546771E-02  0.1085109E+00
         21   -1    0    0  502  501  0.00000000000E+00  0.00000000000E+00  0.19549431289E+03  0.19549431289E+03  0.00000000000E+00 0. -1.
         21   -1    0    0  501  502 -0.00000000000E+00 -0.00000000000E+00 -0.46118263561E+03  0.46118263561E+03  0.00000000000E+00 0. -1.
         25    1    1    2    0    0  0.19930353274E+03  0.19681536281E+01 -0.49307166518E+02  0.24037880203E+03  0.12500000000E+03 0.  0.
         25    1    1    2    0    0 -0.73384592895E+02 -0.50360063785E+02 -0.33754760786E+02  0.15711721222E+03  0.12500000000E+03 0.  0.
         25    1    1    2    0    0 -0.12591893985E+03  0.48391910157E+02 -0.18262639542E+03  0.25918093426E+03  0.12500000000E+03 0.  0.
</event>
<event>
 5    0  0.5684733E-005  0.4503801E+03  0.7546771E-02  0.1027609E+00
         21   -1    0    0  502  501  0.00000000000E+00  0.00000000000E+00  0.21021415941E+04  0.21021415941E+04  0.00000000000E+00 0.  1.
         21   -1    0    0  501  502 -0.00000000000E+00 -0.00000000000E+00 -0.96493135704E+02  0.96493135704E+02  0.00000000000E+00 0.  1.
         25    1    1    2    0    0  0.78555809489E+02 -0.52734595831E+02  0.15775046778E+03  0.22240090577E+03  0.12500000000E+03 0.  0.
         25    1    1    2    0    0  0.14426399571E+03 -0.22308821801E+03  0.11086919936E+04  0.11469103670E+04  0.12500000000E+03 0.  0.
         25    1    1    2    0    0 -0.22281980520E+03  0.27582281384E+03  0.73920599711E+03  0.82932345704E+03  0.12500000000E+03 0.  0.
</event>
<event>
 5    0  0.5684733E-005  0.2527361E+03  0.7546771E-02  0.1111588E+00
         21   -1    0    0  502  501  0.00000000000E+00  0.00000000000E+00  0.45765549537E+03  0.45765549537E+03  0.00000000000E+00 0. -1.
         21   -1    0    0  501  502 -0.00000000000E+00 -0.00000000000E+00 -0.13957123259E+03  0.13957123259E+03  0.00000000000E+00 0. -1.
         25    1    1    2    0    0  0.39388408051E+02 -0.14970077579E+03  0.99956701042E+02  0.22266142693E+03  0.12500000000E+03 0.  0.
         25    1    1    2    0    0 -0.39203652941E+02  0.11584284553E+03  0.12013652914E+03  0.21216568266E+03  0.12500000000E+03 0.  0.
         25    1    1    2    0    0 -0.18475510957E+00  0.33857930256E+02  0.97991032595E+02  0.16239961836E+03  0.12500000000E+03 0.  0.
</event>
<event>
 5    0  0.5684733E-005  0.2576755E+03  0.7546771E-02  0.1108548E+00
         21   -1    0    0  502  501  0.00000000000E+00  0.00000000000E+00  0.93635417846E+02  0.93635417846E+02  0.00000000000E+00 0. -1.
         21   -1    0    0  501  502 -0.00000000000E+00 -0.00000000000E+00 -0.70909765898E+03  0.70909765898E+03  0.00000000000E+00 0. -1.
         25    1    1    2    0    0  0.70767314132E+01 -0.12810620650E+01 -0.23378776520E+03  0.26520452561E+03  0.12500000000E+03 0.  0.
         25    1    1    2    0    0 -0.10935710823E+02  0.11346130499E+03 -0.69240729067E+02  0.18279041568E+03  0.12500000000E+03 0.  0.
         25    1    1    2    0    0  0.38589794098E+01 -0.11218024292E+03 -0.31243374687E+03  0.35473813554E+03  0.12500000000E+03 0.  0.
</event>
<event>
 5    0  0.5684733E-005  0.3553375E+03  0.7546771E-02  0.1060445E+00
         21   -1    0    0  502  501  0.00000000000E+00  0.00000000000E+00  0.91005549971E+03  0.91005549971E+03  0.00000000000E+00 0. -1.
         21   -1    0    0  501  502 -0.00000000000E+00 -0.00000000000E+00 -0.13874402400E+03  0.13874402400E+03  0.00000000000E+00 0. -1.
         25    1    1    2    0    0  0.11540307055E+03 -0.22945335088E+03  0.21815252884E+03  0.35941930215E+03  0.12500000000E+03 0.  0.
         25    1    1    2    0    0 -0.85333432089E+01  0.20611926521E+02  0.90961987043E+02  0.15619459833E+03  0.12500000000E+03 0.  0.
         25    1    1    2    0    0 -0.10686972734E+03  0.20884142436E+03  0.46219695982E+03  0.53318562322E+03  0.12500000000E+03 0.  0.
</event>
<event>
 5    0  0.5684733E-005  0.2815987E+03  0.7546771E-02  0.1094819E+00
         21   -1    0    0  502  501  0.00000000000E+00  0.00000000000E+00  0.28439377871E+03  0.28439377871E+03  0.00000000000E+00 0.  1.
         21   -1    0    0  501  502 -0.00000000000E+00 -0.00000000000E+00 -0.27883104261E+03  0.27883104261E+03  0.00000000000E+00 0.  1.
         25    1    1    2    0    0  0.16830772424E+03  0.59086506229E+02 -0.69168546528E+01  0.21792555641E+03  0.12500000000E+03 0.  0.
         25    1    1    2    0    0 -0.98043117741E+02 -0.94583522207E+02  0.52600521693E+02  0.19222463550E+03  0.12500000000E+03 0.  0.
         25    1    1    2    0    0 -0.70264606503E+02  0.35497015978E+02 -0.40120930935E+02  0.15307462941E+03  0.12500000000E+03 0.  0.
</event>
<event>
 5    0  0.5684733E-005  0.4084094E+03  0.7546771E-02  0.1040906E+00
         21   -1    0    0  502  501  0.00000000000E+00  0.00000000000E+00  0.68683666977E+03  0.68683666977E+03  0.00000000000E+00 0. -1.
         21   -1    0    0  501  502 -0.00000000000E+00 -0.00000000000E+00 -0.24284990121E+03  0.24284990121E+03  0.00000000000E+00 0. -1.
         25    1    1    2    0    0 -0.21503957956E+03  0.23970964943E+02  0.58266627859E+02  0.25658649197E+03  0.12500000000E+03 0.  0.
         25    1    1    2    0    0  0.34499227782E+03  0.13855382022E+02  0.24868980070E+03  0.44348986498E+03  0.12500000000E+03 0.  0.
         25    1    1    2    0    0 -0.12995269825E+03 -0.37826346965E+02  0.13703034000E+03  0.22961021403E+03  0.12500000000E+03 0.  0.
</event>
<event>
 5    0  0.5684733E-005  0.2912807E+03  0.7546771E-02  0.1089682E+00
         21   -1    0    0  502  501  0.00000000000E+00  0.00000000000E+00  0.61028834595E+03  0.61028834595E+03  0.00000000000E+00 0.  1.
         21   -1    0    0  501  502 -0.00000000000E+00 -0.00000000000E+00 -0.13902351776E+03  0.13902351776E+03  0.00000000000E+00 0.  1.
         25    1    1    2    0    0 -0.10715633147E+03  0.81619584152E+01  0.49124260119E+01  0.16491885541E+03  0.12500000000E+03 0.  0.
         25    1    1    2    0    0  0.65062757107E+02 -0.35445091496E+02  0.61613464418E+02  0.15783135262E+03  0.12500000000E+03 0.  0.
         25    1    1    2    0    0  0.42093574368E+02  0.27283133081E+02  0.40473893776E+03  0.42656165567E+03  0.12500000000E+03 0.  0.
</event>
<event>
 5    0  0.5684733E-005  0.4367611E+03  0.7546771E-02  0.1031745E+00
         21   -1    0    0  502  501  0.00000000000E+00  0.00000000000E+00  0.16264432994E+03  0.16264432994E+03  0.00000000000E+00 0.  1.
         21   -1    0    0  501  502 -0.00000000000E+00 -0.00000000000E+00 -0.11728674755E+04  0.11728674755E+04  0.00000000000E+00 0.  1.
         25    1    1    2    0    0 -0.19178789936E+03  0.12602929657E+03 -0.25720390454E+02  0.26258811934E+03  0.12500000000E+03 0.  0.
         25    1    1    2    0    0 -0.38366656157E+02  0.43428421161E+01 -0.36698666753E+03  0.38960887403E+03  0.12500000000E+03 0.  0.
         25    1    1    2    0    0  0.23015455551E+03 -0.13037213868E+03 -0.61751608754E+03  0.68331481203E+03  0.12500000000E+03 0.  0.
</event>
<event>
 5    0  0.5784671E-005  0.2827605E+03  0.7546771E-02  0.1094191E+00
         21   -1    0    0  502  501  0.00000000000E+00  0.00000000000E+00  0.39796524457E+03  0.39796524457E+03  0.00000000000E+00 0. -1.
         21   -1    0    0  501  502 -0.00000000000E+00 -0.00000000000E+00 -0.20090573728E+03  0.20090573728E+03  0.00000000000E+00 0. -1.
         25    1    1    2    0    0 -0.64521603763E+02 -0.40082115415E+02  0.13756971418E+03  0.20079850494E+03  0.12500000000E+03 0.  0.
         25    1    1    2    0    0  0.26631391581E+02 -0.77127101727E+02 -0.84086765915E+02  0.17132835446E+03  0.12500000000E+03 0.  0.
         25    1    1    2    0    0  0.37890212181E+02  0.11720921714E+03  0.14357655903E+03  0.22674412245E+03  0.12500000000E+03 0.  0.
</event>
<event>
 5    0  0.5684733E-005  0.2705778E+03  0.7546771E-02  0.1100949E+00
         21   -1    0    0  502  501  0.00000000000E+00  0.00000000000E+00  0.84648277753E+03  0.84648277753E+03  0.00000000000E+00 0. -1.
         21   -1    0    0  501  502 -0.00000000000E+00 -0.00000000000E+00 -0.86490069174E+02  0.86490069174E+02  0.00000000000E+00 0. -1.
         25    1    1    2    0    0 -0.12888901091E+03 -0.31144256351E+02  0.21248580450E+03  0.27992420215E+03  0.12500000000E+03 0.  0.
         25    1    1    2    0    0  0.48418130460E+02  0.11791787301E+03  0.33470003144E+03  0.37933896607E+03  0.12500000000E+03 0.  0.
         25    1    1    2    0    0  0.80470880449E+02 -0.86773616656E+02  0.21280687241E+03  0.27370967848E+03  0.12500000000E+03 0.  0.
</event>
<event>
 5    0  0.5684733E-005  0.2432025E+03  0.7546771E-02  0.1117678E+00
         21   -1    0    0  502  501  0.00000000000E+00  0.00000000000E+00  0.70948040046E+02  0.70948040046E+02  0.00000000000E+00 0.  1.
         21   -1    0    0  501  502 -0.00000000000E+00 -0.00000000000E+00 -0.83367269986E+03  0.83367269986E+03  0.00000000000E+00 0.  1.
         25    1    1    2    0    0  0.80533112770E+02 -0.72155368931E+02 -0.38202981962E+03  0.41624963976E+03  0.12500000000E+03 0.  0.
         25    1    1    2    0    0 -0.38564154266E+02 -0.25986868261E+02 -0.22731488975E+03  0.26355183630E+03  0.12500000000E+03 0.  0.
         25    1    1    2    0    0 -0.41968958505E+02  0.98142237192E+02 -0.15337995044E+03  0.22481926385E+03  0.12500000000E+03 0.  0.
</event>
<event>
 5    0  0.5684733E-005  0.3236592E+03  0.7546771E-02  0.1073977E+00
         21   -1    0    0  502  501  0.00000000000E+00  0.00000000000E+00  0.53133467083E+02  0.53133467083E+02  0.00000000000E+00 0.  1.
         21   -1    0    0  501  502 -0.00000000000E+00 -0.00000000000E+00 -0.19715497543E+04  0.19715497543E+04  0.00000000000E+00 0.  1.
         25    1    1    2    0    0 -0.58378041245E+02 -0.10101953717E+03 -0.21278022748E+03  0.27297136809E+03  0.12500000000E+03 0.  0.
         25    1    1    2    0    0 -0.25291017367E+02  0.14708739538E+03 -0.51214529630E+03  0.54789793024E+03  0.12500000000E+03 0.  0.
         25    1    1    2    0    0  0.83669058613E+02 -0.46067858202E+02 -0.11934907634E+04  0.12038139230E+04  0.12500000000E+03 0.  0.
</event>
<event>
 5    0  0.5684733E-005  0.5416944E+03  0.7546771E-02  0.1003435E+00
         21   -1    0    0  502  501  0.00000000000E+00  0.00000000000E+00  0.22046360817E+03  0.22046360817E+03  0.00000000000E+00 0. -1.
         21   -1    0    0  501  502 -0.00000000000E+00 -0.00000000000E+00 -0.13309807799E+04  0.13309807799E+04  0.00000000000E+00 0. -1.
         25    1    1    2    0    0  0.88899232624E+02  0.16014891631E+01 -0.81438688309E+03  0.82870780959E+03  0.12500000000E+03 0.  0.
         25    1    1    2    0    0 -0.32221492190E+03 -0.10224552749E+03 -0.87180566908E+02  0.37081269535E+03  0.12500000000E+03 0.  0.
         25    1    1    2    0    0  0.23331568928E+03  0.10064403833E+03 -0.20894972176E+03  0.35192388316E+03  0.12500000000E+03 0.  0.
</event>
<event>
 5    0  0.5684733E-005  0.2779460E+03  0.7546771E-02  0.1096816E+00
         21   -1    0    0  502  501  0.00000000000E+00  0.00000000000E+00  0.19204888188E+03  0.19204888188E+03  0.00000000000E+00 0.  1.
         21   -1    0    0  501  502 -0.00000000000E+00 -0.00000000000E+00 -0.40226199265E+03  0.40226199265E+03  0.00000000000E+00 0.  1.
         25    1    1    2    0    0  0.65028685588E+02  0.62702372711E+02 -0.21412875208E+03  0.26388717279E+03  0.12500000000E+03 0.  0.
         25    1    1    2    0    0 -0.11766366412E+02 -0.69672132864E+02  0.89963363881E+02  0.16944338381E+03  0.12500000000E+03 0.  0.
         25    1    1    2    0    0 -0.53262319176E+02  0.69697601533E+01 -0.86047722572E+02  0.16098031793E+03  0.12500000000E+03 0.  0.
</event>
<event>
 5    0  0.5684733E-005  0.3739697E+03  0.7546771E-02  0.1053185E+00
         21   -1    0    0  502  501  0.00000000000E+00  0.00000000000E+00  0.78260572878E+03  0.78260572878E+03  0.00000000000E+00 0.  1.
         21   -1    0    0  501  502 -0.00000000000E+00 -0.00000000000E+00 -0.17870213982E+03  0.17870213982E+03  0.00000000000E+00 0.  1.
         25    1    1    2    0    0  0.12526155295E+03  0.31614511318E+01  0.14186370972E+03  0.22682760757E+03  0.12500000000E+03 0.  0.
         25    1    1    2    0    0 -0.75278677327E+01  0.31045093392E+02 -0.88707554782E+02  0.15657106020E+03  0.12500000000E+03 0.  0.
         25    1    1    2    0    0 -0.11773368521E+03 -0.34206544524E+02  0.55074743402E+03  0.57790920083E+03  0.12500000000E+03 0.  0.
</event>
<event>
 5    0  0.5684733E-005  0.3815559E+03  0.7546771E-02  0.1050360E+00
         21   -1    0    0  502  501  0.00000000000E+00  0.00000000000E+00  0.10135054984E+03  0.10135054984E+03  0.00000000000E+00 0.  1.
         21   -1    0    0  501  502 -0.00000000000E+00 -0.00000000000E+00 -0.14364492467E+04  0.14364492467E+04  0.00000000000E+00 0.  1.
         25    1    1    2    0    0  0.17196960884E+03  0.77577875253E+02 -0.17160430521E+03  0.28401568735E+03  0.12500000000E+03 0.  0.
         25    1    1    2    0    0 -0.96050832461E+02  0.26448544823E+02 -0.99451988432E+03  0.10072835193E+04  0.12500000000E+03 0.  0.
         25    1    1    2    0    0 -0.75918776378E+02 -0.10402642008E+03 -0.16897450729E+03  0.24650058984E+03  0.12500000000E+03 0.  0.
</event>
<event>
 5    0  0.5684733E-005  0.4054959E+03  0.7546771E-02  0.1041893E+00
         21   -1    0    0  502  501  0.00000000000E+00  0.00000000000E+00  0.65863601210E+03  0.65863601210E+03  0.00000000000E+00 0.  1.
         21   -1    0    0  501  502 -0.00000000000E+00 -0.00000000000E+00 -0.24964767581E+03  0.24964767581E+03  0.00000000000E+00 0.  1.
         25    1    1    2    0    0  0.18640385327E+03 -0.25202896628E+03  0.24557651674E+03  0.41737012583E+03  0.12500000000E+03 0.  0.
         25    1    1    2    0    0 -0.58728804958E+02  0.24605544871E+03  0.77804150944E+02  0.29269581868E+03  0.12500000000E+03 0.  0.
         25    1    1    2    0    0 -0.12767504832E+03  0.59735175759E+01  0.85607668605E+02  0.19821774340E+03  0.12500000000E+03 0.  0.
</event>
<event>
 5    0  0.5684733E-005  0.2473709E+03  0.7546771E-02  0.1114978E+00
         21   -1    0    0  502  501  0.00000000000E+00  0.00000000000E+00  0.13011261664E+03  0.13011261664E+03  0.00000000000E+00 0.  1.
         21   -1    0    0  501  502 -0.00000000000E+00 -0.00000000000E+00 -0.47030298713E+03  0.47030298713E+03  0.00000000000E+00 0.  1.
         25    1    1    2    0    0  0.41207077135E+02  0.20988469698E+02 -0.93457959104E+02  0.16278184538E+03  0.12500000000E+03 0.  0.
         25    1    1    2    0    0 -0.23518578557E+02  0.47548350831E+02  0.17465169517E+02  0.13690873365E+03  0.12500000000E+03 0.  0.
         25    1    1    2    0    0 -0.17688498578E+02 -0.68536820528E+02 -0.26419758090E+03  0.30072502474E+03  0.12500000000E+03 0.  0.
</event>
<event>
 5    0  0.5684733E-005  0.3604360E+03  0.7546771E-02  0.1058411E+00
         21   -1    0    0  502  501  0.00000000000E+00  0.00000000000E+00  0.22028240067E+03  0.22028240067E+03  0.00000000000E+00 0.  1.
         21   -1    0    0  501  502 -0.00000000000E+00 -0.00000000000E+00 -0.58976149862E+03  0.58976149862E+03  0.00000000000E+00 0.  1.
         25    1    1    2    0    0 -0.16401252417E+03 -0.15602918561E+03 -0.16160736205E+03  0.30493795158E+03  0.12500000000E+03 0.  0.
         25    1    1    2    0    0  0.16341778106E+03  0.52932929545E+02  0.32812604728E+02  0.21496263216E+03  0.12500000000E+03 0.  0.
         25    1    1    2    0    0  0.59474310983E+00  0.10309625606E+03 -0.24068434063E+03  0.29014331555E+03  0.12500000000E+03 0.  0.
</event>
<event>
 5    0  0.5684733E-005  0.2922730E+03  0.7546771E-02  0.1089168E+00
         21   -1    0    0  502  501  0.00000000000E+00  0.00000000000E+00  0.83572063525E+02  0.83572063525E+02  0.00000000000E+00 0. -1.
         21   -1    0    0  501  502 -0.00000000000E+00 -0.00000000000E+00 -0.10221540424E+04  0.10221540424E+04  0.00000000000E+00 0. -1.
         25    1    1    2    0    0  0.17769720977E+03 -0.20781631076E+02 -0.23792131758E+03  0.32286177834E+03  0.12500000000E+03 0.  0.
         25    1    1    2    0    0 -0.69708242634E+02 -0.45545882533E+02 -0.19079927178E+03  0.24282303972E+03  0.12500000000E+03 0.  0.
         25    1    1    2    0    0 -0.10798896714E+03  0.66327513609E+02 -0.50986138952E+03  0.54004128787E+03  0.12500000000E+03 0.  0.
</event>
<event>
 5    0  0.5684733E-005  0.3324386E+03  0.7546771E-02  0.1070063E+00
         21   -1    0    0  502  501  0.00000000000E+00  0.00000000000E+00  0.22309228507E+03  0.22309228507E+03  0.00000000000E+00 0. -1.
         21   -1    0    0  501  502 -0.00000000000E+00 -0.00000000000E+00 -0.49537987002E+03  0.49537987002E+03  0.00000000000E+00 0. -1.
         25    1    1    2    0    0 -0.58330388587E+02 -0.80337333142E+02 -0.74585202047E+02  0.17619442015E+03  0.12500000000E+03 0.  0.
         25    1    1    2    0    0  0.63661261636E+02 -0.17276390922E+03 -0.82480268409E+02  0.23733545719E+03  0.12500000000E+03 0.  0.
         25    1    1    2    0    0 -0.53308730488E+01  0.25310124236E+03 -0.11522211449E+03  0.30494227775E+03  0.12500000000E+03 0.  0.
</event>
<event>
 5    0  0.5684733E-005  0.2447723E+03  0.7546771E-02  0.1116654E+00
         21   -1    0    0  502  501  0.00000000000E+00  0.00000000000E+00  0.85777520482E+03  0.85777520482E+03  0.00000000000E+00 0.  1.
         21   -1    0    0  501  502 -0.00000000000E+00 -0.00000000000E+00 -0.69847510903E+02  0.69847510903E+02  0.00000000000E+00 0. -1.
         25    1    1    2    0    0 -0.67855058390E+02  0.57417031762E+02  0.24653097165E+03  0.29035072665E+03  0.12500000000E+03 0.  0.
         25    1    1    2    0    0  0.11476858923E+01  0.70691305199E+02  0.20255257504E+03  0.24829644272E+03  0.12500000000E+03 0.  0.
         25    1    1    2    0    0  0.66707372497E+02 -0.12810833696E+03  0.33884414723E+03  0.38897554635E+03  0.12500000000E+03 0.  0.
</event>
<event>
 5    0  0.5684733E-005  0.3926891E+03  0.7546771E-02  0.1046341E+00
         21   -1    0    0  502  501  0.00000000000E+00  0.00000000000E+00  0.26033755306E+04  0.26033755306E+04  0.00000000000E+00 0.  1.
         21   -1    0    0  501  502 -0.00000000000E+00 -0.00000000000E+00 -0.59232595993E+02  0.59232595993E+02  0.00000000000E+00 0.  1.
         25    1    1    2    0    0  0.26092501101E+02  0.14785401905E+03  0.30863497059E+03  0.36527000237E+03  0.12500000000E+03 0.  0.
         25    1    1    2    0    0  0.12527498625E+03 -0.12737759710E+03  0.44050647698E+03  0.49151788440E+03  0.12500000000E+03 0.  0.
         25    1    1    2    0    0 -0.15136748735E+03 -0.20476421944E+02  0.17950014871E+04  0.18058202398E+04  0.12500000000E+03 0.  0.
</event>
<event>
 5    0  0.5684733E-005  0.2298333E+03  0.7546771E-02  0.1126757E+00
         21   -1    0    0  502  501  0.00000000000E+00  0.00000000000E+00  0.44111534124E+03  0.44111534124E+03  0.00000000000E+00 0.  1.
         21   -1    0    0  501  502 -0.00000000000E+00 -0.00000000000E+00 -0.11974951084E+03  0.11974951084E+03  0.00000000000E+00 0.  1.
         25    1    1    2    0    0 -0.91486554926E+02 -0.82052873282E+00  0.19765903954E+03  0.25112657946E+03  0.12500000000E+03 0.  0.
         25    1    1    2    0    0  0.57692539998E+02 -0.88692819959E+01  0.12047389763E+02  0.13848188667E+03  0.12500000000E+03 0.  0.
         25    1    1    2    0    0  0.33794014927E+02  0.96898107287E+01  0.11165940109E+03  0.17125638595E+03  0.12500000000E+03 0.  0.
</event>
<event>
 5    0  0.5735941E-005  0.3014819E+03  0.7546771E-02  0.1084502E+00
         21   -1    0    0  502  501  0.00000000000E+00  0.00000000000E+00  0.27017842418E+03  0.27017842418E+03  0.00000000000E+00 0. -1.
         21   -1    0    0  501  502 -0.00000000000E+00 -0.00000000000E+00 -0.33641224811E+03  0.33641224811E+03  0.00000000000E+00 0. -1.
         25    1    1    2    0    0 -0.34706546169E+02  0.10149438177E+03 -0.36566273940E+02  0.16872387581E+03  0.12500000000E+03 0.  0.
         25    1    1    2    0    0  0.88510225136E+02  0.10187865603E+03 -0.54628784609E+02  0.19189222135E+03  0.12500000000E+03 0.  0.
         25    1    1    2    0    0 -0.53803678968E+02 -0.20337303780E+03  0.24961234622E+02  0.24597457513E+03  0.12500000000E+03 0.  0.
</event>
<event>
 5    0  0.5684733E-005  0.2338574E+03  0.7546771E-02  0.1123954E+00
         21   -1    0    0  502  501  0.00000000000E+00  0.00000000000E+00  0.29305546876E+03  0.29305546876E+03  0.00000000000E+00 0.  1.
         21   -1    0    0  501  502 -0.00000000000E+00 -0.00000000000E+00 -0.18661759428E+03  0.18661759428E+03  0.00000000000E+00 0.  1.
         25    1    1    2    0    0 -0.88148293573E+02 -0.35988728564E+01  0.66528544085E+02  0.16683560988E+03  0.12500000000E+03 0.  0.
         25    1    1    2    0    0 -0.12853828754E+02  0.48705060770E+02 -0.18424656443E+02  0.13602158587E+03  0.12500000000E+03 0.  0.
         25    1    1    2    0    0  0.10100212233E+03 -0.45106187914E+02  0.58333986837E+02  0.17681586728E+03  0.12500000000E+03 0.  0.
</event>
<event>
 5    0  0.5684733E-005  0.2320037E+03  0.7546771E-02  0.1125237E+00
         21   -1    0    0  502  501  0.00000000000E+00  0.00000000000E+00  0.10365872293E+03  0.10365872293E+03  0.00000000000E+00 0.  1.
         21   -1    0    0  501  502 -0.00000000000E+00 -0.00000000000E+00 -0.51925903078E+03  0.51925903078E+03  0.00000000000E+00 0.  1.
         25    1    1    2    0    0 -0.43091920917E+02 -0.37878861400E+02 -0.70990433908E+02  0.15477843356E+03  0.12500000000E+03 0.  0.
         25    1    1    2    0    0 -0.16316743947E+02 -0.33976443445E+02 -0.60168994549E+02  0.14375653984E+03  0.12500000000E+03 0.  0.
         25    1    1    2    0    0  0.59408664864E+02  0.71855304845E+02 -0.28444087938E+03  0.32438278031E+03  0.12500000000E+03 0.  0.
</event>
<event>
 5    0  0.5684733E-005  0.3066724E+03  0.7546771E-02  0.1081952E+00
         21   -1    0    0  502  501  0.00000000000E+00  0.00000000000E+00  0.86956790669E+02  0.86956790669E+02  0.00000000000E+00 0.  1.
         21   -1    0    0  501  502 -0.00000000000E+00 -0.00000000000E+00 -0.10815483199E+04  0.10815483199E+04  0.00000000000E+00 0.  1.
         25    1    1    2    0    0  0.16606465195E+03 -0.72772921483E+02 -0.26475967400E+03  0.34437777470E+03  0.12500000000E+03 0.  0.
         25    1    1    2    0    0  0.42548793231E+02  0.35048949184E+02 -0.25282348610E+03  0.28737352656E+03  0.12500000000E+03 0.  0.
         25    1    1    2    0    0 -0.20861344518E+03  0.37723972299E+02 -0.47700836916E+03  0.53675380934E+03  0.12500000000E+03 0.  0.
</event>
<event>
 5    0  0.5684733E-005  0.3029413E+03  0.7546771E-02  0.1083779E+00
         21   -1    0    0  502  501  0.00000000000E+00  0.00000000000E+00  0.28966355545E+04  0.28966355545E+04  0.00000000000E+00 0. -1.
         21   -1    0    0  501  502 -0.00000000000E+00 -0.00000000000E+00 -0.31682771997E+02  0.31682771997E+02  0.00000000000E+00 0. -1.
         25    1    1    2    0    0 -0.12450978633E+02 -0.10088257483E+03  0.10157575823E+04  0.10284555346E+04  0.12500000000E+03 0.  0.
         25    1    1    2    0    0 -0.78627317016E+02  0.18847365752E+03  0.77765661488E+03  0.81368260718E+03  0.12500000000E+03 0.  0.
         25    1    1    2    0    0  0.91078295649E+02 -0.87591082688E+02  0.10715385854E+04  0.10861801847E+04  0.12500000000E+03 0.  0.
</event>
<event>
 5    0  0.5684733E-005  0.3287301E+03  0.7546771E-02  0.1071700E+00
         21   -1    0    0  502  501  0.00000000000E+00  0.00000000000E+00  0.38783586741E+03  0.38783586741E+03  0.00000000000E+00 0.  1.
         21   -1    0    0  501  502 -0.00000000000E+00 -0.00000000000E+00 -0.27863199895E+03  0.27863199895E+03  0.00000000000E+00 0.  1.
         25    1    1    2    0    0 -0.31513534322E+02  0.84082356576E+02 -0.50668913986E+02  0.16203482458E+03  0.12500000000E+03 0.  0.
         25    1    1    2    0    0 -0.17101694334E+03 -0.83023075584E+02  0.13641004231E+03  0.26527782725E+03  0.12500000000E+03 0.  0.
         25    1    1    2    0    0  0.20253047767E+03 -0.10592809915E+01  0.23462740140E+02  0.23915521453E+03  0.12500000000E+03 0.  0.
</event>
<event>
 5    0  0.5684733E-005  0.3612188E+03  0.7546771E-02  0.1058102E+00
         21   -1    0    0  502  501  0.00000000000E+00  0.00000000000E+00  0.37964573255E+03  0.37964573255E+03  0.00000000000E+00 0. -1.
         21   -1    0    0  501  502 -0.00000000000E+00 -0.00000000000E+00 -0.34368628196E+03  0.34368628196E+03  0.00000000000E+00 0. -1.
         25    1    1    2    0    0  0.61809182215E+02 -0.23459195958E+03  0.14147432382E+03  0.30739835199E+03  0.12500000000E+03 0.  0.
         25    1    1    2    0    0 -0.65188128765E+02  0.60350898429E+01 -0.48782629948E+02  0.14930056740E+03  0.12500000000E+03 0.  0.
         25    1    1    2    0    0  0.33789465499E+01  0.22855686974E+03 -0.56732243276E+02  0.26663309512E+03  0.12500000000E+03 0.  0.
</event>
<event>
 5    0  0.5684733E-005  0.2730578E+03  0.7546771E-02  0.1099542E+00
         21   -1    0    0  502  501  0.00000000000E+00  0.00000000000E+00  0.21677871408E+03  0.21677871408E+03  0.00000000000E+00 0. -1.
         21   -1    0    0  501  502 -0.00000000000E+00 -0.00000000000E+00 -0.34394770486E+03  0.34394770486E+03  0.00000000000E+00 0. -1.
         25    1    1    2    0    0  0.62723960504E+02 -0.98883735880E+02  0.10271671374E+03  0.19971983308E+03  0.12500000000E+03 0.  0.
         25    1    1    2    0    0 -0.30399587795E+02  0.66581145805E+02 -0.11006043250E+03  0.18192163894E+03  0.12500000000E+03 0.  0.
         25    1    1    2    0    0 -0.32324372708E+02  0.32302590075E+02 -0.11982527202E+03  0.17908494691E+03  0.12500000000E+03 0.  0.
</event>
<event>
 5    0  0.5684733E-005  0.4902839E+03  0.7546771E-02  0.1016347E+00
         21   -1    0    0  502  501  0.00000000000E+00  0.00000000000E+00  0.48439405029E+03  0.48439405029E+03  0.00000000000E+00 0.  1.
         21   -1    0    0  501  502 -0.00000000000E+00 -0.00000000000E+00 -0.49624542800E+03  0.49624542800E+03  0.00000000000E+00 0. -1.
         25    1    1    2    0    0 -0.46368699749E+02  0.17649015360E+03  0.20818613140E+02  0.22216490562E+03  0.12500000000E+03 0.  0.
         25    1    1    2    0    0  0.24905318416E+03 -0.32484503955E+03  0.11256939834E+03  0.44254791571E+03  0.12500000000E+03 0.  0.
         25    1    1    2    0    0 -0.20268448441E+03  0.14835488594E+03 -0.14523938919E+03  0.31592665696E+03  0.12500000000E+03 0.  0.
</event>
<event>
 5    0  0.5684733E-005  0.2660630E+03  0.7546771E-02  0.1103554E+00
         21   -1    0    0  502  501  0.00000000000E+00  0.00000000000E+00  0.32570005440E+03  0.32570005440E+03  0.00000000000E+00 0.  1.
         21   -1    0    0  501  502 -0.00000000000E+00 -0.00000000000E+00 -0.21734571562E+03  0.21734571562E+03  0.00000000000E+00 0.  1.
         25    1    1    2    0    0 -0.50680347502E+02  0.11264669858E+03  0.46975739468E+02  0.18190518526E+03  0.12500000000E+03 0.  0.
         25    1    1    2    0    0  0.97700325340E+02 -0.14573169697E+03  0.15003796495E+02  0.21594720416E+03  0.12500000000E+03 0.  0.
         25    1    1    2    0    0 -0.47019977838E+02  0.33084998392E+02  0.46374802824E+02  0.14519338060E+03  0.12500000000E+03 0.  0.
</event>
<event>
 5    0  0.5684733E-005  0.2833448E+03  0.7546771E-02  0.1093876E+00
         21   -1    0    0  502  501  0.00000000000E+00  0.00000000000E+00  0.11370115342E+04  0.11370115342E+04  0.00000000000E+00 0.  1.
         21   -1    0    0  501  502 -0.00000000000E+00 -0.00000000000E+00 -0.70609924136E+02  0.70609924136E+02  0.00000000000E+00 0.  1.
         25    1    1    2    0    0  0.50505006330E+02  0.89468599203E+02  0.22716674132E+03  0.27889982838E+03  0.12500000000E+03 0.  0.
         25    1    1    2    0    0  0.54858457604E+02 -0.16120203650E+03  0.54572979605E+03  0.58518506239E+03  0.12500000000E+03 0.  0.
         25    1    1    2    0    0 -0.10536346393E+03  0.71733437296E+02  0.29350507266E+03  0.34353656754E+03  0.12500000000E+03 0.  0.
</event>
<event>
 5    0  0.5684733E-005  0.2979113E+03  0.7546771E-02  0.1086289E+00
         21   -1    0    0  502  501  0.00000000000E+00  0.00000000000E+00  0.52205302000E+03  0.52205302000E+03  0.00000000000E+00 0.  1.
         21   -1    0    0  501  502 -0.00000000000E+00 -0.00000000000E+00 -0.17000410288E+03  0.17000410288E+03  0.00000000000E+00 0.  1.
         25    1    1    2    0    0 -0.50073182608E+02 -0.84962099200E+02  0.82277420200E+02  0.17922180613E+03  0.12500000000E+03 0.  0.
         25    1    1    2    0    0  0.13919214675E+03 -0.86043036375E+02  0.13877155015E+03  0.24831512431E+03  0.12500000000E+03 0.  0.
         25    1    1    2    0    0 -0.89118964145E+02  0.17100513557E+03  0.13099994676E+03  0.26452019245E+03  0.12500000000E+03 0.  0.
</event>
<event>
 5    0  0.5684733E-005  0.2605236E+03  0.7546771E-02  0.1106829E+00
         21   -1    0    0  502  501  0.00000000000E+00  0.00000000000E+00  0.24730441440E+03  0.24730441440E+03  0.00000000000E+00 0.  1.
         21   -1    0    0  501  502 -0.00000000000E+00 -0.00000000000E+00 -0.27444929866E+03  0.27444929866E+03  0.00000000000E+00 0.  1.
         25    1    1    2    0    0 -0.75454431697E+02 -0.57143442389E+02  0.21901589704E+02  0.15831431995E+03  0.12500000000E+03 0.  0.
         25    1    1    2    0    0 -0.78306848860E+02  0.52434341363E+02  0.92798788854E+01  0.15681976561E+03  0.12500000000E+03 0.  0.
         25    1    1    2    0    0  0.15376128056E+03  0.47091010256E+01 -0.58326352851E+02  0.20661962750E+03  0.12500000000E+03 0.  0.
</event>
<event>
 5    0  0.5684733E-005  0.2498387E+03  0.7546771E-02  0.1113407E+00
         21   -1    0    0  502  501  0.00000000000E+00  0.00000000000E+00  0.38200340141E+03  0.38200340141E+03  0.00000000000E+00 0. -1.
         21   -1    0    0  501  502 -0.00000000000E+00 -0.00000000000E+00 -0.16340006375E+03  0.16340006375E+03  0.00000000000E+00 0. -1.
         25    1    1    2    0    0 -0.27320238483E+02 -0.89326361764E+02  0.89373507735E+01  0.15630249702E+03  0.12500000000E+03 0.  0.
         25    1    1    2    0    0 -0.42656762409E+02  0.55084727606E+01  0.17538465291E+03  0.21962404042E+03  0.12500000000E+03 0.  0.
         25    1    1    2    0    0  0.69977000892E+02  0.83817889004E+02  0.34281333972E+02  0.16947692772E+03  0.12500000000E+03 0.  0.
</event>
<event>
 5    0  0.5684733E-005  0.5795427E+03  0.7546771E-02  0.9948781E-01
         21   -1    0    0  502  501  0.00000000000E+00  0.00000000000E+00  0.44896900822E+03  0.44896900822E+03  0.00000000000E+00 0.  1.
         21   -1    0    0  501  502 -0.00000000000E+00 -0.00000000000E+00 -0.74809125207E+03  0.74809125207E+03  0.00000000000E+00 0.  1.
         25    1    1    2    0    0 -0.32783570049E+03  0.15734622650E+03 -0.37743688091E+02  0.38637244661E+03  0.12500000000E+03 0.  0.
         25    1    1    2    0    0  0.26148227318E+03 -0.34171212920E+03 -0.34307606682E+03  0.56432822546E+03  0.12500000000E+03 0.  0.
         25    1    1    2    0    0  0.66353427311E+02  0.18436590270E+03  0.81697511061E+02  0.24635958822E+03  0.12500000000E+03 0.  0.
</event>
<event>
 5    0  0.5684733E-005  0.3215151E+03  0.7546771E-02  0.1074954E+00
         21   -1    0    0  502  501  0.00000000000E+00  0.00000000000E+00  0.16493206583E+03  0.16493206583E+03  0.00000000000E+00 0. -1.
         21   -1    0    0  501  502 -0.00000000000E+00 -0.00000000000E+00 -0.62675484463E+03  0.62675484463E+03  0.00000000000E+00 0. -1.
         25    1    1    2    0    0  0.34445956823E+02  0.63216440556E+02 -0.30707973553E+03  0.33927246612E+03  0.12500000000E+03 0.  0.
         25    1    1    2    0    0 -0.10267397665E+03  0.13024606997E+02  0.69091282836E+02  0.17638081311E+03  0.12500000000E+03 0.  0.
         25    1    1    2    0    0  0.68228019830E+02 -0.76241047553E+02 -0.22383432611E+03  0.27603363123E+03  0.12500000000E+03 0.  0.
</event>
<event>
 5    0  0.5684733E-005  0.2732814E+03  0.7546771E-02  0.1099416E+00
         21   -1    0    0  502  501  0.00000000000E+00  0.00000000000E+00  0.11956379605E+04  0.11956379605E+04  0.00000000000E+00 0. -1.
         21   -1    0    0  501  502 -0.00000000000E+00 -0.00000000000E+00 -0.62462665289E+02  0.62462665289E+02  0.00000000000E+00 0. -1.
         25    1    1    2    0    0 -0.39618998488E+02 -0.14567962210E+03  0.26012961371E+03  0.32570636049E+03  0.12500000000E+03 0.  0.
         25    1    1    2    0    0 -0.24238822194E+02  0.13351767136E+03  0.54465435128E+03  0.57505465083E+03  0.12500000000E+03 0.  0.
         25    1    1    2    0    0  0.63857820682E+02  0.12161950732E+02  0.32839133023E+03  0.35733961448E+03  0.12500000000E+03 0.  0.
</event>
<event>
 5    0  0.5684733E-005  0.2818751E+03  0.7546771E-02  0.1094669E+00
         21   -1    0    0  502  501  0.00000000000E+00  0.00000000000E+00  0.17169517257E+04  0.17169517257E+04  0.00000000000E+00 0. -1.
         21   -1    0    0  501  502 -0.00000000000E+00 -0.00000000000E+00 -0.46275958428E+02  0.46275958428E+02  0.00000000000E+00 0. -1.
         25    1    1    2    0    0 -0.87015844769E+02 -0.55375579978E+02  0.78838864722E+03  0.80487258070E+03  0.12500000000E+03 0.  0.
         25    1    1    2    0    0  0.15129466275E+03 -0.53495026354E+01  0.65892682953E+03  0.68755236807E+03  0.12500000000E+03 0.  0.
         25    1    1    2    0    0 -0.64278817982E+02  0.60725082613E+02  0.22336029053E+03  0.27080273537E+03  0.12500000000E+03 0.  0.
</event>
<event>
 5    0  0.5684733E-005  0.3746021E+03  0.7546771E-02  0.1052947E+00
         21   -1    0    0  502  501  0.00000000000E+00  0.00000000000E+00  0.15872425235E+04  0.15872425235E+04  0.00000000000E+00 0.  1.
         21   -1    0    0  501  502 -0.00000000000E+00 -0.00000000000E+00 -0.88409154083E+02  0.88409154083E+02  0.00000000000E+00 0.  1.
         25    1    1    2    0    0  0.26434811454E+03  0.15115649342E+03  0.81949474356E+03  0.88313353797E+03  0.12500000000E+03 0.  0.
         25    1    1    2    0    0 -0.17967940621E+03 -0.95429653114E+02  0.48178320747E+03  0.53770955609E+03  0.12500000000E+03 0.  0.
         25    1    1    2    0    0 -0.84668708331E+02 -0.55726840302E+02  0.19755541836E+03  0.25480858349E+03  0.12500000000E+03 0.  0.
</event>
<event>
 5    0  0.5684733E-005  0.2082599E+03  0.7546771E-02  0.1142951E+00
         21   -1    0    0  502  501  0.00000000000E+00  0.00000000000E+00  0.15879431988E+03  0.15879431988E+03  0.00000000000E+00 0. -1.
         21   -1    0    0  501  502 -0.00000000000E+00 -0.00000000000E+00 -0.27313429136E+03  0.27313429136E+03  0.00000000000E+00 0. -1.
         25    1    1    2    0    0 -0.41956297528E+02  0.83031694044E+01 -0.67949698202E+02  0.14856458195E+03  0.12500000000E+03 0.  0.
         25    1    1    2    0    0  0.23515385838E+02  0.51555194339E+02 -0.41446143927E+01  0.13730655215E+03  0.12500000000E+03 0.  0.
         25    1    1    2    0    0  0.18440911690E+02 -0.59858363744E+02 -0.42245658879E+02  0.14605747714E+03  0.12500000000E+03 0.  0.
</event>
<event>
 5    0  0.5684733E-005  0.2185668E+03  0.7546771E-02  0.1134956E+00
         21   -1    0    0  502  501  0.00000000000E+00  0.00000000000E+00  0.41920229763E+02  0.41920229763E+02  0.00000000000E+00 0.  1.
         21   -1    0    0  501  502 -0.00000000000E+00 -0.00000000000E+00 -0.11395800925E+04  0.11395800925E+04  0.00000000000E+00 0.  1.
         25    1    1    2    0    0  0.12920942034E+02 -0.78923634426E+00 -0.52252534255E+03  0.53742469913E+03  0.12500000000E+03 0.  0.
         25    1    1    2    0    0 -0.33767900003E+02  0.76636288178E+01 -0.14017605694E+03  0.19097991836E+03  0.12500000000E+03 0.  0.
         25    1    1    2    0    0  0.20846957969E+02 -0.68743924735E+01 -0.43495846329E+03  0.45309570481E+03  0.12500000000E+03 0.  0.
</event>
<event>
 5    0  0.5684733E-005  0.2754245E+03  0.7546771E-02  0.1098215E+00
         21   -1    0    0  502  501  0.00000000000E+00  0.00000000000E+00  0.69378439882E+02  0.69378439882E+02  0.00000000000E+00 0. -1.
         21   -1    0    0  501  502 -0.00000000000E+00 -0.00000000000E+00 -0.10934036431E+04  0.10934036431E+04  0.00000000000E+00 0. -1.
         25    1    1    2    0    0 -0.11998054103E+03  0.47472212343E+02 -0.14140038848E+03  0.22862198283E+03  0.12500000000E+03 0.  0.
         25    1    1    2    0    0  0.28351388010E+02  0.34913280131E+01 -0.53503652259E+03  0.55018639667E+03  0.12500000000E+03 0.  0.
         25    1    1    2    0    0  0.91629153018E+02 -0.50963540357E+02 -0.34758829212E+03  0.38397370346E+03  0.12500000000E+03 0.  0.
</event>
<event>
 5    0  0.5684733E-005  0.2806439E+03  0.7546771E-02  0.1095338E+00
         21   -1    0    0  502  501  0.00000000000E+00  0.00000000000E+00  0.12204565001E+03  0.12204565001E+03  0.00000000000E+00 0.  1.
         21   -1    0    0  501  502 -0.00000000000E+00 -0.00000000000E+00 -0.64534028049E+03  0.64534028049E+03  0.00000000000E+00 0.  1.
         25    1    1    2    0    0  0.26008245159E+02  0.10825236487E+03 -0.21182134406E+03  0.26997830489E+03  0.12500000000E+03 0.  0.
         25    1    1    2    0    0  0.11741228498E+03 -0.68838004344E+01 -0.15197765014E+03  0.22924929120E+03  0.12500000000E+03 0.  0.
         25    1    1    2    0    0 -0.14342053014E+03 -0.10136856443E+03 -0.15949563628E+03  0.26815833441E+03  0.12500000000E+03 0.  0.
</event>
<event>
 5    0  0.5684733E-005  0.2960032E+03  0.7546771E-02  0.1087256E+00
         21   -1    0    0  502  501  0.00000000000E+00  0.00000000000E+00  0.74801576432E+02  0.74801576432E+02  0.00000000000E+00 0.  1.
         21   -1    0    0  501  502 -0.00000000000E+00 -0.00000000000E+00 -0.11713375178E+04  0.11713375178E+04  0.00000000000E+00 0.  1.
         25    1    1    2    0    0  0.13581282066E+02 -0.52910233151E+01 -0.26197460841E+03  0.29063403379E+03  0.12500000000E+03 0.  0.
         25    1    1    2    0    0 -0.17933550415E+03  0.11991954376E+02 -0.61709391945E+03  0.65477853923E+03  0.12500000000E+03 0.  0.
         25    1    1    2    0    0  0.16575422208E+03 -0.67009310608E+01 -0.21746741351E+03  0.30072652120E+03  0.12500000000E+03 0.  0.
</event>
<event>
 5    0  0.5684733E-005  0.3659021E+03  0.7546771E-02  0.1056271E+00
         21   -1    0    0  502  501  0.00000000000E+00  0.00000000000E+00  0.10720470966E+04  0.10720470966E+04  0.00000000000E+00 0.  1.
         21   -1    0    0  501  502 -0.00000000000E+00 -0.00000000000E+00 -0.12488664792E+03  0.12488664792E+03  0.00000000000E+00 0.  1.
         25    1    1    2    0    0 -0.78922263465E+02  0.18981168570E+03  0.19893586297E+03  0.31218212196E+03  0.12500000000E+03 0.  0.
         25    1    1    2    0    0  0.14277393058E+03 -0.16230255627E+03  0.68363421349E+03  0.72780990160E+03  0.12500000000E+03 0.  0.
         25    1    1    2    0    0 -0.63851667110E+02 -0.27509129429E+02  0.64590372236E+02  0.15694172097E+03  0.12500000000E+03 0.  0.
</event>
<event>
 5    0  0.5684733E-005  0.3211154E+03  0.7546771E-02  0.1075137E+00
         21   -1    0    0  502  501  0.00000000000E+00  0.00000000000E+00  0.42922669316E+03  0.42922669316E+03  0.00000000000E+00 0. -1.
         21   -1    0    0  501  502 -0.00000000000E+00 -0.00000000000E+00 -0.24023461978E+03  0.24023461978E+03  0.00000000000E+00 0. -1.
         25    1    1    2    0    0  0.60405863062E+02  0.15047753394E+03  0.70239535281E+02  0.21645080002E+03  0.12500000000E+03 0.  0.
         25    1    1    2    0    0 -0.14093853733E+03 -0.13624090147E+01  0.14909724798E+03  0.24025094551E+03  0.12500000000E+03 0.  0.
         25    1    1    2    0    0  0.80532674266E+02 -0.14911512493E+03 -0.30344709877E+02  0.21275956741E+03  0.12500000000E+03 0.  0.
</event>
<event>
 5    0  0.5684733E-005  0.2634975E+03  0.7546771E-02  0.1105060E+00
         21   -1    0    0  502  501  0.00000000000E+00  0.00000000000E+00  0.69996726033E+03  0.69996726033E+03  0.00000000000E+00 0. -1.
         21   -1    0    0  501  502 -0.00000000000E+00 -0.00000000000E+00 -0.99191648239E+02  0.99191648239E+02  0.00000000000E+00 0. -1.
         25    1    1    2    0    0  0.21435142005E+02 -0.51049046919E+02  0.67397550187E+02  0.15242342430E+03  0.12500000000E+03 0.  0.
         25    1    1    2    0    0  0.70121270022E+02  0.10427458952E+03  0.39249774547E+03  0.43066188911E+03  0.12500000000E+03 0.  0.
         25    1    1    2    0    0 -0.91556412027E+02 -0.53225542600E+02  0.14088031644E+03  0.21607359516E+03  0.12500000000E+03 0.  0.
</event>
<event>
 5    0  0.5684733E-005  0.2586756E+03  0.7546771E-02  0.1107942E+00
         21   -1    0    0  502  501  0.00000000000E+00  0.00000000000E+00  0.95567123804E+02  0.95567123804E+02  0.00000000000E+00 0. -1.
         21   -1    0    0  501  502 -0.00000000000E+00 -0.00000000000E+00 -0.70016816976E+03  0.70016816976E+03  0.00000000000E+00 0. -1.
         25    1    1    2    0    0  0.33249854334E+02  0.74686012781E+02 -0.12006417993E+03  0.19163496711E+03  0.12500000000E+03 0.  0.
         25    1    1    2    0    0  0.82400955270E+02 -0.32736385066E+02 -0.35312079061E+03  0.38494269846E+03  0.12500000000E+03 0.  0.
         25    1    1    2    0    0 -0.11565080960E+03 -0.41949627715E+02 -0.13141607541E+03  0.21915762799E+03  0.12500000000E+03 0.  0.
</event>
<event>
 5    0  0.5684733E-005  0.2570037E+03  0.7546771E-02  0.1108957E+00
         21   -1    0    0  502  501  0.00000000000E+00  0.00000000000E+00  0.68275076486E+03  0.68275076486E+03  0.00000000000E+00 0. -1.
         21   -1    0    0  501  502 -0.00000000000E+00 -0.00000000000E+00 -0.96742310246E+02  0.96742310246E+02  0.00000000000E+00 0. -1.
         25    1    1    2    0    0  0.26341716901E+02  0.71078365592E+01  0.46524613267E+03  0.48251774201E+03  0.12500000000E+03 0.  0.
         25    1    1    2    0    0  0.18786678732E+02 -0.23213058749E+02  0.21461711465E+02  0.13029731560E+03  0.12500000000E+03 0.  0.
         25    1    1    2    0    0 -0.45128395634E+02  0.16105222190E+02  0.99300610480E+02  0.16667801749E+03  0.12500000000E+03 0.  0.
</event>
<event>
 5    0  0.5684733E-005  0.2803100E+03  0.7546771E-02  0.1095520E+00
         21   -1    0    0  502  501  0.00000000000E+00  0.00000000000E+00  0.41311671609E+03  0.41311671609E+03  0.00000000000E+00 0. -1.
         21   -1    0    0  501  502 -0.00000000000E+00 -0.00000000000E+00 -0.19019736036E+03  0.19019736036E+03  0.00000000000E+00 0. -1.
         25    1    1    2    0    0  0.11785086897E+03  0.13126789031E+03  0.54448423659E+02  0.22295676079E+03  0.12500000000E+03 0.  0.
         25    1    1    2    0    0 -0.13187822831E+03 -0.42915335424E+02  0.10353498791E+03  0.21349024998E+03  0.12500000000E+03 0.  0.
         25    1    1    2    0    0  0.14027359341E+02 -0.88352554884E+02  0.64935944159E+02  0.16686706568E+03  0.12500000000E+03 0.  0.
</event>
<event>
 5    0  0.5684733E-005  0.2773106E+03  0.7546771E-02  0.1097167E+00
         21   -1    0    0  502  501  0.00000000000E+00  0.00000000000E+00  0.30728403680E+02  0.30728403680E+02  0.00000000000E+00 0. -1.
         21   -1    0    0  501  502 -0.00000000000E+00 -0.00000000000E+00 -0.25026079410E+04  0.25026079410E+04  0.00000000000E+00 0. -1.
         25    1    1    2    0    0  0.55953271310E+02 -0.10085419549E+02 -0.63910028989E+03  0.65368697768E+03  0.12500000000E+03 0.  0.
         25    1    1    2    0    0  0.73036676072E+02  0.22930780983E+02 -0.27616686521E+03  0.31265526416E+03  0.12500000000E+03 0.  0.
         25    1    1    2    0    0 -0.12898994738E+03 -0.12845361434E+02 -0.15566123822E+04  0.15669941028E+04  0.12500000000E+03 0.  0.
</event>
<event>
 5    0  0.5684733E-005  0.2847137E+03  0.7546771E-02  0.1093142E+00
         21   -1    0    0  502  501  0.00000000000E+00  0.00000000000E+00  0.31732305610E+02  0.31732305610E+02  0.00000000000E+00 0. -1.
         21   -1    0    0  501  502 -0.00000000000E+00 -0.00000000000E+00 -0.25545532223E+04  0.25545532223E+04  0.00000000000E+00 0. -1.
         25    1    1    2    0    0 -0.44067138569E+01  0.37564862247E+02 -0.43733549681E+03  0.45641853026E+03  0.12500000000E+03 0.  0.
         25    1    1    2    0    0 -0.14687308600E+03 -0.83194680941E+02 -0.73456399276E+03  0.76400413467E+03  0.12500000000E+03 0.  0.
         25    1    1    2    0    0  0.15127979986E+03  0.45629818693E+02 -0.13509214271E+04  0.13658628630E+04  0.12500000000E+03 0.  0.
</event>
<event>
 5    0  0.6335783E-005  0.2928667E+03  0.7546771E-02  0.1088862E+00
         21   -1    0    0  502  501  0.00000000000E+00  0.00000000000E+00  0.35816019841E+03  0.35816019841E+03  0.00000000000E+00 0.  1.
         21   -1    0    0  501  502 -0.00000000000E+00 -0.00000000000E+00 -0.23947639551E+03  0.23947639551E+03  0.00000000000E+00 0.  1.
         25    1    1    2    0    0  0.39375849450E+02 -0.12484072885E+03  0.69126091858E+02  0.19375004949E+03  0.12500000000E+03 0.  0.
         25    1    1    2    0    0  0.58517360818E+02  0.81429640584E+02 -0.93737603828E+02  0.18565238015E+03  0.12500000000E+03 0.  0.
         25    1    1    2    0    0 -0.97893210268E+02  0.43411088267E+02  0.14329531486E+03  0.21823416429E+03  0.12500000000E+03 0.  0.
</event>
<event>
 5    0  0.5684733E-005  0.2431362E+03  0.7546771E-02  0.1117721E+00
         21   -1    0    0  502  501  0.00000000000E+00  0.00000000000E+00  0.10842751447E+03  0.10842751447E+03  0.00000000000E+00 0.  1.
         21   -1    0    0  501  502 -0.00000000000E+00 -0.00000000000E+00 -0.54520509489E+03  0.54520509489E+03  0.00000000000E+00 0.  1.
         25    1    1    2    0    0  0.11649795264E+02 -0.68310831753E+01 -0.16987850731E+02  0.12686988807E+03  0.12500000000E+03 0.  0.
         25    1    1    2    0    0  0.33935425200E+02  0.81521697457E+02 -0.28350990059E+03  0.32218048354E+03  0.12500000000E+03 0.  0.
         25    1    1    2    0    0 -0.45585220464E+02 -0.74690614282E+02 -0.13627982910E+03  0.20458223776E+03  0.12500000000E+03 0.  0.
</event>
<event>
 5    0  0.5684733E-005  0.4010675E+03  0.7546771E-02  0.1043411E+00
         21   -1    0    0  502  501  0.00000000000E+00  0.00000000000E+00  0.24895955832E+04  0.24895955832E+04  0.00000000000E+00 0.  1.
         21   -1    0    0  501  502 -0.00000000000E+00 -0.00000000000E+00 -0.64610948190E+02  0.64610948190E+02  0.00000000000E+00 0.  1.
         25    1    1    2    0    0 -0.63728770577E+02  0.10122983876E+03  0.10738524394E+03  0.20363061428E+03  0.12500000000E+03 0.  0.
         25    1    1    2    0    0 -0.51271032651E+02 -0.13259542429E+03  0.75130884746E+03  0.77479045528E+03  0.12500000000E+03 0.  0.
         25    1    1    2    0    0  0.11499980323E+03  0.31365585523E+02  0.15662905436E+04  0.15757854619E+04  0.12500000000E+03 0.  0.
</event>
<event>
 5    0  0.5684733E-005  0.3368872E+03  0.7546771E-02  0.1068130E+00
         21   -1    0    0  502  501  0.00000000000E+00  0.00000000000E+00  0.10647475937E+03  0.10647475937E+03  0.00000000000E+00 0. -1.
         21   -1    0    0  501  502 -0.00000000000E+00 -0.00000000000E+00 -0.10659142455E+04  0.10659142455E+04  0.00000000000E+00 0. -1.
         25    1    1    2    0    0  0.78895615542E+02  0.77916854935E+01 -0.15319914437E+03  0.21302630436E+03  0.12500000000E+03 0.  0.
         25    1    1    2    0    0 -0.86962896853E+02  0.21526837053E+03 -0.38926709614E+03  0.47016687348E+03  0.12500000000E+03 0.  0.
         25    1    1    2    0    0  0.80672813113E+01 -0.22306005603E+03 -0.41697324562E+03  0.48919582703E+03  0.12500000000E+03 0.  0.
</event>
<event>
 5    0  0.5684733E-005  0.2299658E+03  0.7546771E-02  0.1126664E+00
         21   -1    0    0  502  501  0.00000000000E+00  0.00000000000E+00  0.62838142026E+03  0.62838142026E+03  0.00000000000E+00 0. -1.
         21   -1    0    0  501  502 -0.00000000000E+00 -0.00000000000E+00 -0.84159531142E+02  0.84159531142E+02  0.00000000000E+00 0. -1.
         25    1    1    2    0    0  0.67689030795E+02 -0.43830696240E+02  0.13744130270E+03  0.20252912509E+03  0.12500000000E+03 0.  0.
         25    1    1    2    0    0 -0.72705246007E+02  0.31173457641E+02  0.10025985113E+03  0.17870331560E+03  0.12500000000E+03 0.  0.
         25    1    1    2    0    0  0.50162152117E+01  0.12657238599E+02  0.30652073530E+03  0.33130851071E+03  0.12500000000E+03 0.  0.
</event>
<event>
 5    0  0.5684733E-005  0.2056387E+03  0.7546771E-02  0.1145067E+00
         21   -1    0    0  502  501  0.00000000000E+00  0.00000000000E+00  0.56957371768E+03  0.56957371768E+03  0.00000000000E+00 0. -1.
         21   -1    0    0  501  502 -0.00000000000E+00 -0.00000000000E+00 -0.74243695753E+02  0.74243695753E+02  0.00000000000E+00 0. -1.
         25    1    1    2    0    0 -0.26960714268E+02 -0.62795669728E+01  0.21485204651E+03  0.25010540771E+03  0.12500000000E+03 0.  0.
         25    1    1    2    0    0 -0.15698534172E+02  0.50803253279E+02  0.15582053916E+03  0.20671829852E+03  0.12500000000E+03 0.  0.
         25    1    1    2    0    0  0.42659248440E+02 -0.44523686306E+02  0.12465743626E+03  0.18699370720E+03  0.12500000000E+03 0.  0.
</event>
<event>
 5    0  0.5684733E-005  0.2995224E+03  0.7546771E-02  0.1085480E+00
         21   -1    0    0  502  501  0.00000000000E+00  0.00000000000E+00  0.34362886952E+03  0.34362886952E+03  0.00000000000E+00 0. -1.
         21   -1    0    0  501  502 -0.00000000000E+00 -0.00000000000E+00 -0.26107724631E+03  0.26107724631E+03  0.00000000000E+00 0. -1.
         25    1    1    2    0    0 -0.11517424211E+03  0.13580413839E+03  0.29848515860E+02  0.21959918932E+03  0.12500000000E+03 0.  0.
         25    1    1    2    0    0  0.45388133923E+02 -0.15318763054E+03 -0.48934519336E+02  0.20867707118E+03  0.12500000000E+03 0.  0.
         25    1    1    2    0    0  0.69786108191E+02  0.17383492157E+02  0.10163762668E+03  0.17642985534E+03  0.12500000000E+03 0.  0.
</event>
<event>
 5    0  0.5684733E-005  0.3754560E+03  0.7546771E-02  0.1052626E+00
         21   -1    0    0  502  501  0.00000000000E+00  0.00000000000E+00  0.23004909594E+03  0.23004909594E+03  0.00000000000E+00 0. -1.
         21   -1    0    0  501  502 -0.00000000000E+00 -0.00000000000E+00 -0.61277022936E+03  0.61277022936E+03  0.00000000000E+00 0.  1.
         25    1    1    2    0    0 -0.88010251087E+02  0.16277408510E+02 -0.13233290515E+03  0.20284909689E+03  0.12500000000E+03 0.  0.
         25    1    1    2    0    0 -0.20520373313E+03 -0.98124386694E+02 -0.12098446864E+03  0.28635504013E+03  0.12500000000E+03 0.  0.
         25    1    1    2    0    0  0.29321398422E+03  0.81846978184E+02 -0.12940375963E+03  0.35361518828E+03  0.12500000000E+03 0.  0.
</event>
<event>
 5    0  0.5684733E-005  0.2418792E+03  0.7546771E-02  0.1118547E+00
         21   -1    0    0  502  501  0.00000000000E+00  0.00000000000E+00  0.94582368588E+03  0.94582368588E+03  0.00000000000E+00 0. -1.
         21   -1    0    0  501  502 -0.00000000000E+00 -0.00000000000E+00 -0.61856701983E+02  0.61856701983E+02  0.00000000000E+00 0. -1.
         25    1    1    2    0    0 -0.41371307666E+02 -0.28722724346E+01  0.16687570813E+03  0.21258489365E+03  0.12500000000E+03 0.  0.
         25    1    1    2    0    0  0.12717976058E+03 -0.23379869992E+02  0.29123813460E+03  0.34229513708E+03  0.12500000000E+03 0.  0.
         25    1    1    2    0    0 -0.85808452915E+02  0.26252142427E+02  0.42585314117E+03  0.45280035713E+03  0.12500000000E+03 0.  0.
</event>
<event>
 5    0  0.5684733E-005  0.4971422E+03  0.7546771E-02  0.1014528E+00
         21   -1    0    0  502  501  0.00000000000E+00  0.00000000000E+00  0.33743659498E+03  0.33743659498E+03  0.00000000000E+00 0.  1.
         21   -1    0    0  501  502 -0.00000000000E+00 -0.00000000000E+00 -0.73243489084E+03  0.73243489084E+03  0.00000000000E+00 0.  1.
         25    1    1    2    0    0 -0.36061947059E+02 -0.31249455287E+03  0.67090375543E+02  0.34507887228E+03  0.12500000000E+03 0.  0.
         25    1    1    2    0    0 -0.71106566811E+02  0.35588377528E+03 -0.27738183044E+03  0.47357690527E+03  0.12500000000E+03 0.  0.
         25    1    1    2    0    0  0.10716851387E+03 -0.43389222404E+02 -0.18470684096E+03  0.25121570828E+03  0.12500000000E+03 0.  0.
</event>
<event>
 5    0  0.5684733E-005  0.6063772E+03  0.7546771E-02  0.9892263E-01
         21   -1    0    0  502  501  0.00000000000E+00  0.00000000000E+00  0.58719904193E+03  0.58719904193E+03  0.00000000000E+00 0. -1.
         21   -1    0    0  501  502 -0.00000000000E+00 -0.00000000000E+00 -0.62618176650E+03  0.62618176650E+03  0.00000000000E+00 0. -1.
         25    1    1    2    0    0 -0.53243872172E+03 -0.67586833291E+02 -0.12701251359E+03  0.56552290054E+03  0.12500000000E+03 0.  0.
         25    1    1    2    0    0  0.37502128705E+03  0.15240308935E+03  0.56263546219E+02  0.42738536944E+03  0.12500000000E+03 0.  0.
         25    1    1    2    0    0  0.15741743468E+03 -0.84816256056E+02  0.31766242799E+02  0.22047253845E+03  0.12500000000E+03 0.  0.
</event>
<event>
 5    0  0.5684733E-005  0.3952291E+03  0.7546771E-02  0.1045444E+00
         21   -1    0    0  502  501  0.00000000000E+00  0.00000000000E+00  0.11295887993E+04  0.11295887993E+04  0.00000000000E+00 0.  1.
         21   -1    0    0  501  502 -0.00000000000E+00 -0.00000000000E+00 -0.13828577648E+03  0.13828577648E+03  0.00000000000E+00 0.  1.
         25    1    1    2    0    0  0.23455627539E+03 -0.23992583089E+03  0.38067679073E+03  0.52260967238E+03  0.12500000000E+03 0.  0.
         25    1    1    2    0    0 -0.11453948965E+03  0.98946021393E+02  0.35599016738E+03  0.40652627112E+03  0.12500000000E+03 0.  0.
         25    1    1    2    0    0 -0.12001678575E+03  0.14097980950E+03  0.25463606466E+03  0.33873863225E+03  0.12500000000E+03 0.  0.
</event>
<event>
 5    0  0.5684733E-005  0.3072099E+03  0.7546771E-02  0.1081691E+00
         21   -1    0    0  502  501  0.00000000000E+00  0.00000000000E+00  0.10204617640E+04  0.10204617640E+04  0.00000000000E+00 0.  1.
         21   -1    0    0  501  502 -0.00000000000E+00 -0.00000000000E+00 -0.92485490804E+02  0.92485490804E+02  0.00000000000E+00 0. -1.
         25    1    1    2    0    0  0.16894862841E+03 -0.98503704559E+02  0.54105075732E+03  0.58873384551E+03  0.12500000000E+03 0.  0.
         25    1    1    2    0    0 -0.15435823822E+03  0.13740957374E+02  0.18626921996E+03  0.27264721147E+03  0.12500000000E+03 0.  0.
         25    1    1    2    0    0 -0.14590390191E+02  0.84762747185E+02  0.20065629591E+03  0.25156619782E+03  0.12500000000E+03 0.  0.
</event>
<event>
 5    0  0.5684733E-005  0.3759561E+03  0.7546771E-02  0.1052439E+00
         21   -1    0    0  502  501  0.00000000000E+00  0.00000000000E+00  0.19995999569E+04  0.19995999569E+04  0.00000000000E+00 0. -1.
         21   -1    0    0  501  502 -0.00000000000E+00 -0.00000000000E+00 -0.70685625179E+02  0.70685625179E+02  0.00000000000E+00 0. -1.
         25    1    1    2    0    0 -0.60872686637E+02  0.14290200265E+03  0.32822189373E+03  0.38403265208E+03  0.12500000000E+03 0.  0.
         25    1    1    2    0    0  0.12073761973E+03 -0.71490618484E+00  0.13737897502E+04  0.13847387341E+04  0.12500000000E+03 0.  0.
         25    1    1    2    0    0 -0.59864933091E+02 -0.14218709646E+03  0.22690268778E+03  0.30151419591E+03  0.12500000000E+03 0.  0.
</event>
<event>
 5    0  0.5684733E-005  0.3896621E+03  0.7546771E-02  0.1047419E+00
         21   -1    0    0  502  501  0.00000000000E+00  0.00000000000E+00  0.73321449049E+03  0.73321449049E+03  0.00000000000E+00 0. -1.
         21   -1    0    0  501  502 -0.00000000000E+00 -0.00000000000E+00 -0.20708344671E+03  0.20708344671E+03  0.00000000000E+00 0. -1.
         25    1    1    2    0    0 -0.62511037572E+02  0.78409620242E+02  0.10196020403E+03  0.18993836256E+03  0.12500000000E+03 0.  0.
         25    1    1    2    0    0 -0.12562225490E+03  0.15136106469E+03  0.34873919016E+03  0.41944623682E+03  0.12500000000E+03 0.  0.
         25    1    1    2    0    0  0.18813329248E+03 -0.22977068493E+03  0.75431649593E+02  0.33091333783E+03  0.12500000000E+03 0.  0.
</event>
<event>
 5    0  0.5684733E-005  0.3776396E+03  0.7546771E-02  0.1051810E+00
         21   -1    0    0  502  501  0.00000000000E+00  0.00000000000E+00  0.20380235037E+03  0.20380235037E+03  0.00000000000E+00 0. -1.
         21   -1    0    0  501  502 -0.00000000000E+00 -0.00000000000E+00 -0.69975476342E+03  0.69975476342E+03  0.00000000000E+00 0. -1.
         25    1    1    2    0    0  0.21202153479E+03 -0.57860207913E+02 -0.37207867377E+03  0.44985383665E+03  0.12500000000E+03 0.  0.
         25    1    1    2    0    0 -0.13580266080E+03 -0.70690277195E+02  0.36947479029E+02  0.20107111721E+03  0.12500000000E+03 0.  0.
         25    1    1    2    0    0 -0.76218873984E+02  0.12855048511E+03 -0.16082121831E+03  0.25263215993E+03  0.12500000000E+03 0.  0.
</event>
<event>
 5    0  0.5684733E-005  0.2659876E+03  0.7546771E-02  0.1103598E+00
         21   -1    0    0  502  501  0.00000000000E+00  0.00000000000E+00  0.20441513994E+03  0.20441513994E+03  0.00000000000E+00 0.  1.
         21   -1    0    0  501  502 -0.00000000000E+00 -0.00000000000E+00 -0.34610640404E+03  0.34610640404E+03  0.00000000000E+00 0.  1.
         25    1    1    2    0    0 -0.35252766283E+02 -0.12410719442E+03 -0.15130291476E+03  0.23486788894E+03  0.12500000000E+03 0.  0.
         25    1    1    2    0    0  0.27393046535E+02 -0.11213792262E+02 -0.16179666920E+02  0.12947165619E+03  0.12500000000E+03 0.  0.
         25    1    1    2    0    0  0.78597197480E+01  0.13532098669E+03  0.25791317590E+02  0.18618199885E+03  0.12500000000E+03 0.  0.
</event>
<event>
 5    0  0.5684733E-005  0.2352145E+03  0.7546771E-02  0.1123022E+00
         21   -1    0    0  502  501  0.00000000000E+00  0.00000000000E+00  0.14546968463E+03  0.14546968463E+03  0.00000000000E+00 0.  1.
         21   -1    0    0  501  502 -0.00000000000E+00 -0.00000000000E+00 -0.38032559534E+03  0.38032559534E+03  0.00000000000E+00 0.  1.
         25    1    1    2    0    0  0.27094224970E+01 -0.36740119540E+01 -0.31153118588E+02  0.12890444574E+03  0.12500000000E+03 0.  0.
         25    1    1    2    0    0 -0.34220687654E+02  0.81142976317E+01 -0.23104717875E+03  0.26503715985E+03  0.12500000000E+03 0.  0.
         25    1    1    2    0    0  0.31511265157E+02 -0.44402856778E+01  0.27344386625E+02  0.13185367438E+03  0.12500000000E+03 0.  0.
</event>
<event>
 5    0  0.6016773E-005  0.3048038E+03  0.7546771E-02  0.1082864E+00
         21   -1    0    0  502  501  0.00000000000E+00  0.00000000000E+00  0.24713657605E+03  0.24713657605E+03  0.00000000000E+00 0.  1.
         21   -1    0    0  501  502 -0.00000000000E+00 -0.00000000000E+00 -0.37592718550E+03  0.37592718550E+03  0.00000000000E+00 0.  1.
         25    1    1    2    0    0 -0.26781966499E+02 -0.13171339089E+03  0.42976217032E+02  0.18851431325E+03  0.12500000000E+03 0.  0.
         25    1    1    2    0    0  0.18000798921E+02  0.11607868178E+03  0.50589652911E+02  0.17883680300E+03  0.12500000000E+03 0.  0.
         25    1    1    2    0    0  0.87811675780E+01  0.15634709112E+02 -0.22235647939E+03  0.25571264529E+03  0.12500000000E+03 0.  0.
</event>
<event>
 5    0  0.5684733E-005  0.3787703E+03  0.7546771E-02  0.1051389E+00
         21   -1    0    0  502  501  0.00000000000E+00  0.00000000000E+00  0.42314294920E+03  0.42314294920E+03  0.00000000000E+00 0. -1.
         21   -1    0    0  501  502 -0.00000000000E+00 -0.00000000000E+00 -0.33905084321E+03  0.33905084321E+03  0.00000000000E+00 0. -1.
         25    1    1    2    0    0  0.97193801333E+01  0.30056918196E+02 -0.13023572684E+03  0.18326000444E+03  0.12500000000E+03 0.  0.
         25    1    1    2    0    0  0.13522902888E+03 -0.18068674139E+03  0.54185678370E+01  0.25804834749E+03  0.12500000000E+03 0.  0.
         25    1    1    2    0    0 -0.14494840901E+03  0.15062982320E+03  0.20890926499E+03  0.32088544048E+03  0.12500000000E+03 0.  0.
</event>
<event>
 5    0  0.5684733E-005  0.3354613E+03  0.7546771E-02  0.1068746E+00
         21   -1    0    0  502  501  0.00000000000E+00  0.00000000000E+00  0.15988373873E+03  0.15988373873E+03  0.00000000000E+00 0. -1.
         21   -1    0    0  501  502 -0.00000000000E+00 -0.00000000000E+00 -0.70385079203E+03  0.70385079203E+03  0.00000000000E+00 0. -1.
         25    1    1    2    0    0 -0.66536626104E+01 -0.14687515771E+03 -0.16031018920E+03  0.25088032992E+03  0.12500000000E+03 0.  0.
         25    1    1    2    0    0  0.12714823945E+03 -0.62147069240E+02 -0.24036625919E+03  0.30566300327E+03  0.12500000000E+03 0.  0.
         25    1    1    2    0    0 -0.12049457684E+03  0.20902222695E+03 -0.14329060492E+03  0.30719119757E+03  0.12500000000E+03 0.  0.
</event>
<event>
 5    0  0.5684733E-005  0.3584221E+03  0.7546771E-02  0.1059210E+00
         21   -1    0    0  502  501  0.00000000000E+00  0.00000000000E+00  0.48082956484E+03  0.48082956484E+03  0.00000000000E+00 0. -1.
         21   -1    0    0  501  502 -0.00000000000E+00 -0.00000000000E+00 -0.26717654145E+03  0.26717654145E+03  0.00000000000E+00 0. -1.
         25    1    1    2    0    0 -0.17209504193E+03 -0.37171659557E+02  0.13362766364E+03  0.25392870697E+03  0.12500000000E+03 0.  0.
         25    1    1    2    0    0  0.20093353223E+03  0.11528954542E+03 -0.79496607479E+02  0.27497395196E+03  0.12500000000E+03 0.  0.
         25    1    1    2    0    0 -0.28838490300E+02 -0.78117885864E+02  0.15952196723E+03  0.21910344736E+03  0.12500000000E+03 0.  0.
</event>
<event>
 5    0  0.5684733E-005  0.3864669E+03  0.7546771E-02  0.1048569E+00
         21   -1    0    0  502  501  0.00000000000E+00  0.00000000000E+00  0.11411662537E+03  0.11411662537E+03  0.00000000000E+00 0.  1.
         21   -1    0    0  501  502 -0.00000000000E+00 -0.00000000000E+00 -0.13088073023E+04  0.13088073023E+04  0.00000000000E+00 0.  1.
         25    1    1    2    0    0  0.70458320813E+02 -0.33263690678E+02 -0.46580265542E+02  0.15448485113E+03  0.12500000000E+03 0.  0.
         25    1    1    2    0    0  0.74615963493E+02  0.15137780489E+03 -0.18655181433E+03  0.28090810108E+03  0.12500000000E+03 0.  0.
         25    1    1    2    0    0 -0.14507428431E+03 -0.11811411421E+03 -0.96155859704E+03  0.98753097546E+03  0.12500000000E+03 0.  0.
</event>
<event>
 5    0  0.5684733E-005  0.3251846E+03  0.7546771E-02  0.1073288E+00
         21   -1    0    0  502  501  0.00000000000E+00  0.00000000000E+00  0.18941795724E+03  0.18941795724E+03  0.00000000000E+00 0. -1.
         21   -1    0    0  501  502 -0.00000000000E+00 -0.00000000000E+00 -0.55826293753E+03  0.55826293753E+03  0.00000000000E+00 0. -1.
         25    1    1    2    0    0  0.16196320245E+03 -0.85006781844E+01  0.43651356778E+02  0.20936757491E+03  0.12500000000E+03 0.  0.
         25    1    1    2    0    0 -0.95522295346E+02 -0.80965510851E+02 -0.18701883266E+03  0.25745090139E+03  0.12500000000E+03 0.  0.
         25    1    1    2    0    0 -0.66440907099E+02  0.89466189035E+02 -0.22547750440E+03  0.28086241847E+03  0.12500000000E+03 0.  0.
</event>
<event>
 5    0  0.5684733E-005  0.4310669E+03  0.7546771E-02  0.1033523E+00
         21   -1    0    0  502  501  0.00000000000E+00  0.00000000000E+00  0.48015252091E+03  0.48015252091E+03  0.00000000000E+00 0.  1.
         21   -1    0    0  501  502 -0.00000000000E+00 -0.00000000000E+00 -0.38699932218E+03  0.38699932218E+03  0.00000000000E+00 0.  1.
         25    1    1    2    0    0  0.75451026110E+02  0.72836286025E+02  0.20620178686E+03  0.26294896617E+03  0.12500000000E+03 0.  0.
         25    1    1    2    0    0  0.11393245797E+03  0.87381631063E+02  0.13372221098E+03  0.23264304016E+03  0.12500000000E+03 0.  0.
         25    1    1    2    0    0 -0.18938348408E+03 -0.16021791709E+03 -0.24677079911E+03  0.37155983676E+03  0.12500000000E+03 0.  0.
</event>
<event>
 5    0  0.5684733E-005  0.2590742E+03  0.7546771E-02  0.1107701E+00
         21   -1    0    0  502  501  0.00000000000E+00  0.00000000000E+00  0.20065214622E+03  0.20065214622E+03  0.00000000000E+00 0. -1.
         21   -1    0    0  501  502 -0.00000000000E+00 -0.00000000000E+00 -0.33450644478E+03  0.33450644478E+03  0.00000000000E+00 0. -1.
         25    1    1    2    0    0  0.73404034143E+02 -0.82639402326E+02 -0.27676292679E+02  0.16914017921E+03  0.12500000000E+03 0.  0.
         25    1    1    2    0    0  0.45992668101E+02 -0.19491906211E+02  0.83555692225E+01  0.13487058784E+03  0.12500000000E+03 0.  0.
         25    1    1    2    0    0 -0.11939670224E+03  0.10213130854E+03 -0.11453357510E+03  0.23114782395E+03  0.12500000000E+03 0.  0.
</event>
<event>
 5    0  0.5684733E-005  0.3679534E+03  0.7546771E-02  0.1055478E+00
         21   -1    0    0  502  501  0.00000000000E+00  0.00000000000E+00  0.72415112218E+02  0.72415112218E+02  0.00000000000E+00 0.  1.
         21   -1    0    0  501  502 -0.00000000000E+00 -0.00000000000E+00 -0.18696336650E+04  0.18696336650E+04  0.00000000000E+00 0.  1.
         25    1    1    2    0    0  0.14984834790E+03  0.99130009373E+02 -0.33759242578E+03  0.40233683907E+03  0.12500000000E+03 0.  0.
         25    1    1    2    0    0 -0.15645450521E+03 -0.57319998105E+02 -0.26141531934E+03  0.33425523716E+03  0.12500000000E+03 0.  0.
         25    1    1    2    0    0  0.66061573119E+01 -0.41810011268E+02 -0.11982108076E+04  0.12054567010E+04  0.12500000000E+03 0.  0.
</event>
<event>
 5    0  0.5684733E-005  0.3477982E+03  0.7546771E-02  0.1063522E+00
         21   -1    0    0  502  501  0.00000000000E+00  0.00000000000E+00  0.29586057132E+03  0.29586057132E+03  0.00000000000E+00 0.  1.
         21   -1    0    0  501  502 -0.00000000000E+00 -0.00000000000E+00 -0.40885345048E+03  0.40885345048E+03  0.00000000000E+00 0.  1.
         25    1    1    2    0    0  0.66175673909E+02  0.74866831995E+02 -0.41596159398E+02  0.16534661420E+03  0.12500000000E+03 0.  0.
         25    1    1    2    0    0  0.13067147338E+03 -0.19558563105E+03  0.32306537155E+01  0.26639108497E+03  0.12500000000E+03 0.  0.
         25    1    1    2    0    0 -0.19684714729E+03  0.12071879905E+03 -0.74627373475E+02  0.27297632263E+03  0.12500000000E+03 0.  0.
</event>
<event>
 5    0  0.6320093E-005  0.3074816E+03  0.7546771E-02  0.1081559E+00
         21   -1    0    0  502  501  0.00000000000E+00  0.00000000000E+00  0.12187170542E+03  0.12187170542E+03  0.00000000000E+00 0. -1.
         21   -1    0    0  501  502 -0.00000000000E+00 -0.00000000000E+00 -0.77577436878E+03  0.77577436878E+03  0.00000000000E+00 0. -1.
         25    1    1    2    0    0  0.73384802305E+02  0.88756561149E+02 -0.10963374446E+03  0.20225630838E+03  0.12500000000E+03 0.  0.
         25    1    1    2    0    0 -0.82722832985E+02 -0.18837290381E+03 -0.19020537722E+03  0.30680694828E+03  0.12500000000E+03 0.  0.
         25    1    1    2    0    0  0.93380306803E+01  0.99616342665E+02 -0.35406354167E+03  0.38858281754E+03  0.12500000000E+03 0.  0.
</event>
<event>
 5    0  0.5684733E-005  0.2990640E+03  0.7546771E-02  0.1085709E+00
         21   -1    0    0  502  501  0.00000000000E+00  0.00000000000E+00  0.11397723558E+03  0.11397723558E+03  0.00000000000E+00 0.  1.
         21   -1    0    0  501  502 -0.00000000000E+00 -0.00000000000E+00 -0.78471169994E+03  0.78471169994E+03  0.00000000000E+00 0.  1.
         25    1    1    2    0    0 -0.18909636621E+03 -0.33319083407E+02 -0.12959072543E+03  0.26322301030E+03  0.12500000000E+03 0.  0.
         25    1    1    2    0    0  0.15827919423E+03  0.23325679142E+02 -0.30671134840E+03  0.36782229659E+03  0.12500000000E+03 0.  0.
         25    1    1    2    0    0  0.30817171974E+02  0.99934042653E+01 -0.23443239054E+03  0.26764362864E+03  0.12500000000E+03 0.  0.
</event>
<event>
 5    0  0.5684733E-005  0.3218634E+03  0.7546771E-02  0.1074795E+00
         21   -1    0    0  502  501  0.00000000000E+00  0.00000000000E+00  0.13986680590E+04  0.13986680590E+04  0.00000000000E+00 0. -1.
         21   -1    0    0  501  502 -0.00000000000E+00 -0.00000000000E+00 -0.74067657816E+02  0.74067657816E+02  0.00000000000E+00 0. -1.
         25    1    1    2    0    0 -0.11126340035E+03 -0.94232353895E+02  0.16981992826E+03  0.25636514742E+03  0.12500000000E+03 0.  0.
         25    1    1    2    0    0  0.10802435475E+03  0.85150829629E+02  0.10002859230E+04  0.10174069258E+04  0.12500000000E+03 0.  0.
         25    1    1    2    0    0  0.32390456014E+01  0.90815242658E+01  0.15449454994E+03  0.19896364356E+03  0.12500000000E+03 0.  0.
</event>
<event>
 5    0  0.5684733E-005  0.6126699E+03  0.7546771E-02  0.9879463E-01
         21   -1    0    0  502  501  0.00000000000E+00  0.00000000000E+00  0.16993870223E+04  0.16993870223E+04  0.00000000000E+00 0. -1.
         21   -1    0    0  501  502 -0.00000000000E+00 -0.00000000000E+00 -0.22088224327E+03  0.22088224327E+03  0.00000000000E+00 0.  1.
         25    1    1    2    0    0  0.12405390485E+00  0.27637395883E+03  0.81933077292E+03  0.87367642521E+03  0.12500000000E+03 0.  0.
         25    1    1    2    0    0 -0.11308779491E+03 -0.46849794221E+03  0.60822567916E+03  0.78602967374E+03  0.12500000000E+03 0.  0.
         25    1    1    2    0    0  0.11296374100E+03  0.19212398338E+03  0.50948326932E+02  0.26056316660E+03  0.12500000000E+03 0.  0.
</event>
<event>
 5    0  0.5684733E-005  0.3462412E+03  0.7546771E-02  0.1064168E+00
         21   -1    0    0  502  501  0.00000000000E+00  0.00000000000E+00  0.11271264319E+03  0.11271264319E+03  0.00000000000E+00 0.  1.
         21   -1    0    0  501  502 -0.00000000000E+00 -0.00000000000E+00 -0.10636157038E+04  0.10636157038E+04  0.00000000000E+00 0.  1.
         25    1    1    2    0    0 -0.50566342906E+02  0.43299379075E+02 -0.10388586755E+03  0.17563901827E+03  0.12500000000E+03 0.  0.
         25    1    1    2    0    0 -0.18567033980E+03  0.75940217589E+00 -0.57399538856E+03  0.61609232901E+03  0.12500000000E+03 0.  0.
         25    1    1    2    0    0  0.23623668270E+03 -0.44058781250E+02 -0.27302180455E+03  0.38459699975E+03  0.12500000000E+03 0.  0.
</event>
<event>
 5    0  0.5684733E-005  0.2814312E+03  0.7546771E-02  0.1094910E+00
         21   -1    0    0  502  501  0.00000000000E+00  0.00000000000E+00  0.50029073770E+02  0.50029073770E+02  0.00000000000E+00 0. -1.
         21   -1    0    0  501  502 -0.00000000000E+00 -0.00000000000E+00 -0.15831498980E+04  0.15831498980E+04  0.00000000000E+00 0. -1.
         25    1    1    2    0    0  0.17631358967E+02 -0.52004920619E+02 -0.51490016576E+03  0.53269368054E+03  0.12500000000E+03 0.  0.
         25    1    1    2    0    0 -0.47963667734E+01  0.16467391770E+03 -0.79012651399E+03  0.81674072533E+03  0.12500000000E+03 0.  0.
         25    1    1    2    0    0 -0.12834992193E+02 -0.11266899708E+03 -0.22809414444E+03  0.28374456586E+03  0.12500000000E+03 0.  0.
</event>
<event>
 5    0  0.5684733E-005  0.2548132E+03  0.7546771E-02  0.1110300E+00
         21   -1    0    0  502  501  0.00000000000E+00  0.00000000000E+00  0.10969289651E+03  0.10969289651E+03  0.00000000000E+00 0. -1.
         21   -1    0    0  501  502 -0.00000000000E+00 -0.00000000000E+00 -0.59192306200E+03  0.59192306200E+03  0.00000000000E+00 0. -1.
         25    1    1    2    0    0  0.75128739978E+02 -0.12844028637E+02 -0.17093830387E+03  0.22506488036E+03  0.12500000000E+03 0.  0.
         25    1    1    2    0    0 -0.16234810848E+03 -0.14147979800E+02 -0.19163252411E+03  0.28090051256E+03  0.12500000000E+03 0.  0.
         25    1    1    2    0    0  0.87219368502E+02  0.26992008437E+02 -0.11965933751E+03  0.19565056559E+03  0.12500000000E+03 0.  0.
</event>
<event>
 5    0  0.5684733E-005  0.2255187E+03  0.7546771E-02  0.1129834E+00
         21   -1    0    0  502  501  0.00000000000E+00  0.00000000000E+00  0.45265081919E+03  0.45265081919E+03  0.00000000000E+00 0. -1.
         21   -1    0    0  501  502 -0.00000000000E+00 -0.00000000000E+00 -0.11235744124E+03  0.11235744124E+03  0.00000000000E+00 0. -1.
         25    1    1    2    0    0 -0.41053167112E+02  0.43105409760E+02  0.76205273751E+02  0.15803696602E+03  0.12500000000E+03 0.  0.
         25    1    1    2    0    0  0.63307125307E+02 -0.95808513958E+02  0.12034476708E+03  0.20807432909E+03  0.12500000000E+03 0.  0.
         25    1    1    2    0    0 -0.22253958195E+02  0.52703104197E+02  0.14374333711E+03  0.19889696532E+03  0.12500000000E+03 0.  0.
</event>
<event>
 5    0  0.5684733E-005  0.4205729E+03  0.7546771E-02  0.1036880E+00
         21   -1    0    0  502  501  0.00000000000E+00  0.00000000000E+00  0.12975005730E+04  0.12975005730E+04  0.00000000000E+00 0.  1.
         21   -1    0    0  501  502 -0.00000000000E+00 -0.00000000000E+00 -0.13632483034E+03  0.13632483034E+03  0.00000000000E+00 0.  1.
         25    1    1    2    0    0  0.11922120995E+03 -0.52165942859E+02  0.34616744110E+03  0.39037402548E+03  0.12500000000E+03 0.  0.
         25    1    1    2    0    0 -0.43750887575E+02  0.31496749970E+03  0.52026327249E+03  0.62242874189E+03  0.12500000000E+03 0.  0.
         25    1    1    2    0    0 -0.75470322374E+02 -0.26280155684E+03  0.29474502909E+03  0.42102263598E+03  0.12500000000E+03 0.  0.
</event>
<event>
 5    0  0.5684733E-005  0.3564241E+03  0.7546771E-02  0.1060009E+00
         21   -1    0    0  502  501  0.00000000000E+00  0.00000000000E+00  0.22647052209E+03  0.22647052209E+03  0.00000000000E+00 0. -1.
         21   -1    0    0  501  502 -0.00000000000E+00 -0.00000000000E+00 -0.56094773308E+03  0.56094773308E+03  0.00000000000E+00 0. -1.
         25    1    1    2    0    0  0.74396232639E+02  0.10388006945E+02 -0.13345050138E+03  0.19767839143E+03  0.12500000000E+03 0.  0.
         25    1    1    2    0    0 -0.94839360216E+02  0.17104995971E+03  0.67556000705E+02  0.24174657431E+03  0.12500000000E+03 0.  0.
         25    1    1    2    0    0  0.20443127577E+02 -0.18143796665E+03 -0.26858271032E+03  0.34799328943E+03  0.12500000000E+03 0.  0.
</event>
<event>
 5    0  0.5684733E-005  0.3655244E+03  0.7546771E-02  0.1056418E+00
         21   -1    0    0  502  501  0.00000000000E+00  0.00000000000E+00  0.11594954001E+03  0.11594954001E+03  0.00000000000E+00 0.  1.
         21   -1    0    0  501  502 -0.00000000000E+00 -0.00000000000E+00 -0.11522952811E+04  0.11522952811E+04  0.00000000000E+00 0.  1.
         25    1    1    2    0    0  0.52814152558E+02  0.15568424630E+03 -0.49394743884E+03  0.53538396651E+03  0.12500000000E+03 0.  0.
         25    1    1    2    0    0  0.54412566776E+02  0.11230686680E+03 -0.22437900589E+03  0.28555997275E+03  0.12500000000E+03 0.  0.
         25    1    1    2    0    0 -0.10722671933E+03 -0.26799111310E+03 -0.31801929633E+03  0.44730088182E+03  0.12500000000E+03 0.  0.
</event>
<event>
 5    0  0.6925699E-005  0.6589741E+03  0.7546771E-02  0.9790084E-01
         21   -1    0    0  502  501  0.00000000000E+00  0.00000000000E+00  0.18983747732E+04  0.18983747732E+04  0.00000000000E+00 0.  1.
         21   -1    0    0  501  502 -0.00000000000E+00 -0.00000000000E+00 -0.22874663717E+03  0.22874663717E+03  0.00000000000E+00 0.  1.
         25    1    1    2    0    0 -0.24525720689E+03 -0.30143283080E+03  0.23399531581E+03  0.47052274848E+03  0.12500000000E+03 0.  0.
         25    1    1    2    0    0 -0.19380445930E+03  0.20874755742E+03  0.86944049883E+03  0.92341079275E+03  0.12500000000E+03 0.  0.
         25    1    1    2    0    0  0.43906166619E+03  0.92685273383E+02  0.56619232136E+03  0.73318786909E+03  0.12500000000E+03 0.  0.
</event>
<event>
 5    0  0.5684733E-005  0.2662296E+03  0.7546771E-02  0.1103457E+00
         21   -1    0    0  502  501  0.00000000000E+00  0.00000000000E+00  0.17496581200E+03  0.17496581200E+03  0.00000000000E+00 0.  1.
         21   -1    0    0  501  502 -0.00000000000E+00 -0.00000000000E+00 -0.40509749805E+03  0.40509749805E+03  0.00000000000E+00 0.  1.
         25    1    1    2    0    0  0.24687069228E+02 -0.29259691913E+02 -0.46931204074E+02  0.13889967197E+03  0.12500000000E+03 0.  0.
         25    1    1    2    0    0 -0.15516726004E+03  0.36202078127E+02 -0.16152587970E+03  0.25904261978E+03  0.12500000000E+03 0.  0.
         25    1    1    2    0    0  0.13048019082E+03 -0.69423862141E+01 -0.21674602282E+02  0.18212101830E+03  0.12500000000E+03 0.  0.
</event>
<event>
 5    0  0.5684733E-005  0.1966728E+03  0.7546771E-02  0.1152577E+00
         21   -1    0    0  502  501  0.00000000000E+00  0.00000000000E+00  0.18071721713E+03  0.18071721713E+03  0.00000000000E+00 0.  1.
         21   -1    0    0  501  502 -0.00000000000E+00 -0.00000000000E+00 -0.21403715683E+03  0.21403715683E+03  0.00000000000E+00 0.  1.
         25    1    1    2    0    0 -0.10915932431E+02  0.98221045949E+01 -0.42103719123E+02  0.13271531367E+03  0.12500000000E+03 0.  0.
         25    1    1    2    0    0  0.12035344119E+01  0.14070424761E+02  0.37400547858E+02  0.13123729016E+03  0.12500000000E+03 0.  0.
         25    1    1    2    0    0  0.97123980191E+01 -0.23892529356E+02 -0.28616768432E+02  0.13080177013E+03  0.12500000000E+03 0.  0.
</event>
<event>
 5    0  0.5684733E-005  0.4335092E+03  0.7546771E-02  0.1032757E+00
         21   -1    0    0  502  501  0.00000000000E+00  0.00000000000E+00  0.84564403980E+02  0.84564403980E+02  0.00000000000E+00 0. -1.
         21   -1    0    0  501  502 -0.00000000000E+00 -0.00000000000E+00 -0.22223327485E+04  0.22223327485E+04  0.00000000000E+00 0. -1.
         25    1    1    2    0    0 -0.19316325720E+03 -0.59635459229E+02 -0.92402908365E+03  0.95410857839E+03  0.12500000000E+03 0.  0.
         25    1    1    2    0    0  0.73789328508E+02  0.19895255987E+02 -0.11574939222E+04  0.11667295600E+04  0.12500000000E+03 0.  0.
         25    1    1    2    0    0  0.11937392869E+03  0.39740203242E+02 -0.56245338661E+02  0.18605901409E+03  0.12500000000E+03 0.  0.
</event>
<event>
 5    0  0.5684733E-005  0.2513704E+03  0.7546771E-02  0.1112442E+00
         21   -1    0    0  502  501  0.00000000000E+00  0.00000000000E+00  0.90266292886E+03  0.90266292886E+03  0.00000000000E+00 0.  1.
         21   -1    0    0  501  502 -0.00000000000E+00 -0.00000000000E+00 -0.70000746817E+02  0.70000746817E+02  0.00000000000E+00 0.  1.
         25    1    1    2    0    0  0.70123090635E+02 -0.21608876256E+02  0.21228762049E+03  0.25705101670E+03  0.12500000000E+03 0.  0.
         25    1    1    2    0    0 -0.62692912954E+02 -0.60148173256E+02  0.50292296230E+03  0.52545666813E+03  0.12500000000E+03 0.  0.
         25    1    1    2    0    0 -0.74301776816E+01  0.81757049512E+02  0.11745159925E+03  0.19015599084E+03  0.12500000000E+03 0.  0.
</event>
<event>
 5    0  0.5684733E-005  0.2882596E+03  0.7546771E-02  0.1091261E+00
         21   -1    0    0  502  501  0.00000000000E+00  0.00000000000E+00  0.60457224142E+02  0.60457224142E+02  0.00000000000E+00 0.  1.
         21   -1    0    0  501  502 -0.00000000000E+00 -0.00000000000E+00 -0.13744200436E+04  0.13744200436E+04  0.00000000000E+00 0.  1.
         25    1    1    2    0    0  0.23292851881E+02 -0.94841221297E+02 -0.74827323990E+03  0.76490212168E+03  0.12500000000E+03 0.  0.
         25    1    1    2    0    0  0.42384599811E+02 -0.36778570493E+02 -0.37238113770E+03  0.39678940166E+03  0.12500000000E+03 0.  0.
         25    1    1    2    0    0 -0.65677451692E+02  0.13161979179E+03 -0.19330844184E+03  0.27318574439E+03  0.12500000000E+03 0.  0.
</event>
<event>
 5    0  0.6227966E-005  0.3932377E+03  0.7546771E-02  0.1046147E+00
         21   -1    0    0  502  501  0.00000000000E+00  0.00000000000E+00  0.32626251560E+03  0.32626251560E+03  0.00000000000E+00 0. -1.
         21   -1    0    0  501  502 -0.00000000000E+00 -0.00000000000E+00 -0.47396152190E+03  0.47396152190E+03  0.00000000000E+00 0. -1.
         25    1    1    2    0    0 -0.19611576420E+03  0.11955467657E+03  0.27687325432E+02  0.26295684369E+03  0.12500000000E+03 0.  0.
         25    1    1    2    0    0  0.95702144788E+02  0.49700393358E+02  0.86717071579E+02  0.18647755929E+03  0.12500000000E+03 0.  0.
         25    1    1    2    0    0  0.10041361941E+03 -0.16925506993E+03 -0.26210340331E+03  0.35078963452E+03  0.12500000000E+03 0.  0.
</event>
<event>
 5    0  0.5684733E-005  0.2335968E+03  0.7546771E-02  0.1124134E+00
         21   -1    0    0  502  501  0.00000000000E+00  0.00000000000E+00  0.45019176899E+02  0.45019176899E+02  0.00000000000E+00 0. -1.
         21   -1    0    0  501  502 -0.00000000000E+00 -0.00000000000E+00 -0.12120934400E+04  0.12120934400E+04  0.00000000000E+00 0. -1.
         25    1    1    2    0    0  0.55200266809E+02  0.24855077428E-01 -0.30722969528E+03  0.33624716465E+03  0.12500000000E+03 0.  0.
         25    1    1    2    0    0 -0.82093736882E+01  0.89030576245E+02 -0.28219565244E+03  0.32133039629E+03  0.12500000000E+03 0.  0.
         25    1    1    2    0    0 -0.46990893120E+02 -0.89055431322E+02 -0.57764891535E+03  0.59953505593E+03  0.12500000000E+03 0.  0.
</event>
<event>
 5    0  0.5684733E-005  0.3797884E+03  0.7546771E-02  0.1051012E+00
         21   -1    0    0  502  501  0.00000000000E+00  0.00000000000E+00  0.85988411882E+03  0.85988411882E+03  0.00000000000E+00 0. -1.
         21   -1    0    0  501  502 -0.00000000000E+00 -0.00000000000E+00 -0.16774264320E+03  0.16774264320E+03  0.00000000000E+00 0. -1.
         25    1    1    2    0    0 -0.66359318244E+02 -0.57602184249E+02  0.62351249907E+03  0.64196137519E+03  0.12500000000E+03 0.  0.
         25    1    1    2    0    0 -0.91546689876E+02  0.83979405968E+02  0.26251144678E+02  0.17817816828E+03  0.12500000000E+03 0.  0.
         25    1    1    2    0    0  0.15790600812E+03 -0.26377221719E+02  0.42377831872E+02  0.20748721855E+03  0.12500000000E+03 0.  0.
</event>
<event>
 5    0  0.5684733E-005  0.4391508E+03  0.7546771E-02  0.1031008E+00
         21   -1    0    0  502  501  0.00000000000E+00  0.00000000000E+00  0.78491979857E+02  0.78491979857E+02  0.00000000000E+00 0. -1.
         21   -1    0    0  501  502 -0.00000000000E+00 -0.00000000000E+00 -0.24569820009E+04  0.24569820009E+04  0.00000000000E+00 0. -1.
         25    1    1    2    0    0  0.23393901980E+03 -0.25754013022E+03 -0.86608738153E+03  0.94169354681E+03  0.12500000000E+03 0.  0.
         25    1    1    2    0    0 -0.42148248675E+02  0.31363762727E+02 -0.80863586665E+03  0.81992507299E+03  0.12500000000E+03 0.  0.
         25    1    1    2    0    0 -0.19179077113E+03  0.22617636749E+03 -0.70376677288E+03  0.77385536098E+03  0.12500000000E+03 0.  0.
</event>
<event>
 5    0  0.5684733E-005  0.3635607E+03  0.7546771E-02  0.1057183E+00
         21   -1    0    0  502  501  0.00000000000E+00  0.00000000000E+00  0.57642596684E+03  0.57642596684E+03  0.00000000000E+00 0. -1.
         21   -1    0    0  501  502 -0.00000000000E+00 -0.00000000000E+00 -0.22930330186E+03  0.22930330186E+03  0.00000000000E+00 0. -1.
         25    1    1    2    0    0  0.53487178390E+02 -0.89598190328E+02  0.44052088075E+03  0.46965131783E+03  0.12500000000E+03 0.  0.
         25    1    1    2    0    0 -0.10135145825E+03  0.89216836422E+02 -0.24779856653E+02  0.18566314466E+03  0.12500000000E+03 0.  0.
         25    1    1    2    0    0  0.47864279862E+02  0.38135390565E+00 -0.68618359116E+02  0.15041480620E+03  0.12500000000E+03 0.  0.
</event>
<event>
 5    0  0.5684733E-005  0.2366969E+03  0.7546771E-02  0.1122013E+00
         21   -1    0    0  502  501  0.00000000000E+00  0.00000000000E+00  0.71337639919E+03  0.71337639919E+03  0.00000000000E+00 0. -1.
         21   -1    0    0  501  502 -0.00000000000E+00 -0.00000000000E+00 -0.78535601845E+02  0.78535601845E+02  0.00000000000E+00 0. -1.
         25    1    1    2    0    0  0.15604244746E+02 -0.32479446909E+01  0.20309243533E+03  0.23900957907E+03  0.12500000000E+03 0.  0.
         25    1    1    2    0    0  0.50916161978E+02  0.59965042407E+02  0.34990433878E+03  0.37979772005E+03  0.12500000000E+03 0.  0.
         25    1    1    2    0    0 -0.66520406723E+02 -0.56717097716E+02  0.81844023235E+02  0.17310470191E+03  0.12500000000E+03 0.  0.
</event>
<event>
 5    0  0.5684733E-005  0.3121152E+03  0.7546771E-02  0.1079336E+00
         21   -1    0    0  502  501  0.00000000000E+00  0.00000000000E+00  0.25529353216E+03  0.25529353216E+03  0.00000000000E+00 0. -1.
         21   -1    0    0  501  502 -0.00000000000E+00 -0.00000000000E+00 -0.38158394859E+03  0.38158394859E+03  0.00000000000E+00 0. -1.
         25    1    1    2    0    0  0.88177352298E+02 -0.11658242250E+03  0.96635074828E+02  0.21524415063E+03  0.12500000000E+03 0.  0.
         25    1    1    2    0    0 -0.24275959004E+02 -0.52573622141E+02 -0.94274412630E+02  0.16693104207E+03  0.12500000000E+03 0.  0.
         25    1    1    2    0    0 -0.63901393294E+02  0.16915604464E+03 -0.12865107862E+03  0.25470228805E+03  0.12500000000E+03 0.  0.
</event>
<event>
 5    0  0.5684733E-005  0.2973899E+03  0.7546771E-02  0.1086553E+00
         21   -1    0    0  502  501  0.00000000000E+00  0.00000000000E+00  0.13151411520E+03  0.13151411520E+03  0.00000000000E+00 0. -1.
         21   -1    0    0  501  502 -0.00000000000E+00 -0.00000000000E+00 -0.67248125991E+03  0.67248125991E+03  0.00000000000E+00 0. -1.
         25    1    1    2    0    0  0.80254839120E+02  0.66320230223E+02 -0.25204979018E+02  0.16461926712E+03  0.12500000000E+03 0.  0.
         25    1    1    2    0    0 -0.14203113638E+03 -0.11796579518E+03 -0.36438275301E+03  0.42718680132E+03  0.12500000000E+03 0.  0.
         25    1    1    2    0    0  0.61776297259E+02  0.51645564962E+02 -0.15137941268E+03  0.21218930667E+03  0.12500000000E+03 0.  0.
</event>
<event>
 5    0  0.5684733E-005  0.5604051E+03  0.7546771E-02  0.9991139E-01
         21   -1    0    0  502  501  0.00000000000E+00  0.00000000000E+00  0.13897033318E+03  0.13897033318E+03  0.00000000000E+00 0. -1.
         21   -1    0    0  501  502 -0.00000000000E+00 -0.00000000000E+00 -0.22598623428E+04  0.22598623428E+04  0.00000000000E+00 0. -1.
         25    1    1    2    0    0 -0.15750997272E+03  0.92472090396E+02 -0.31212891706E+03  0.38263551831E+03  0.12500000000E+03 0.  0.
         25    1    1    2    0    0  0.42703629533E+03  0.15986639980E+03 -0.73568607591E+03  0.87451487443E+03  0.12500000000E+03 0.  0.
         25    1    1    2    0    0 -0.26952632261E+03 -0.25233849019E+03 -0.10730770167E+04  0.11416822832E+04  0.12500000000E+03 0.  0.
</event>
<event>
 5    0  0.5684733E-005  0.2628387E+03  0.7546771E-02  0.1105450E+00
         21   -1    0    0  502  501  0.00000000000E+00  0.00000000000E+00  0.54812546361E+02  0.54812546361E+02  0.00000000000E+00 0. -1.
         21   -1    0    0  501  502 -0.00000000000E+00 -0.00000000000E+00 -0.12603721733E+04  0.12603721733E+04  0.00000000000E+00 0. -1.
         25    1    1    2    0    0 -0.99326142049E+02  0.12488052083E+02 -0.24630760689E+03  0.29379256484E+03  0.12500000000E+03 0.  0.
         25    1    1    2    0    0  0.56195281940E+02 -0.22665839016E+02 -0.16296344080E+03  0.21413484772E+03  0.12500000000E+03 0.  0.
         25    1    1    2    0    0  0.43130860110E+02  0.10177786933E+02 -0.79628857929E+03  0.80725730715E+03  0.12500000000E+03 0.  0.
</event>
<event>
 5    0  0.5684733E-005  0.2081726E+03  0.7546771E-02  0.1143021E+00
         21   -1    0    0  502  501  0.00000000000E+00  0.00000000000E+00  0.84029913607E+02  0.84029913607E+02  0.00000000000E+00 0. -1.
         21   -1    0    0  501  502 -0.00000000000E+00 -0.00000000000E+00 -0.51571892158E+03  0.51571892158E+03  0.00000000000E+00 0. -1.
         25    1    1    2    0    0 -0.92471046046E+00  0.30850825155E+02 -0.13807154864E+03  0.18878925034E+03  0.12500000000E+03 0.  0.
         25    1    1    2    0    0  0.51733628313E+02 -0.28629812428E+02 -0.84419847772E+02  0.16201155871E+03  0.12500000000E+03 0.  0.
         25    1    1    2    0    0 -0.50808917852E+02 -0.22210127269E+01 -0.20919761156E+03  0.24894802613E+03  0.12500000000E+03 0.  0.
</event>
<event>
 5    0  0.5684733E-005  0.2521203E+03  0.7546771E-02  0.1111972E+00
         21   -1    0    0  502  501  0.00000000000E+00  0.00000000000E+00  0.19205452551E+03  0.19205452551E+03  0.00000000000E+00 0.  1.
         21   -1    0    0  501  502 -0.00000000000E+00 -0.00000000000E+00 -0.33097179400E+03  0.33097179400E+03  0.00000000000E+00 0.  1.
         25    1    1    2    0    0  0.24535898009E+02 -0.12395958089E+01 -0.14414012670E+03  0.19236663696E+03  0.12500000000E+03 0.  0.
         25    1    1    2    0    0  0.66019152862E+02  0.18071590614E+02 -0.69257436844E+02  0.15845094979E+03  0.12500000000E+03 0.  0.
         25    1    1    2    0    0 -0.90555050871E+02 -0.16831994805E+02  0.74480295063E+02  0.17220873276E+03  0.12500000000E+03 0.  0.
</event>
<event>
 5    0  0.5684733E-005  0.4608986E+03  0.7546771E-02  0.1024521E+00
         21   -1    0    0  502  501  0.00000000000E+00  0.00000000000E+00  0.40815199308E+03  0.40815199308E+03  0.00000000000E+00 0. -1.
         21   -1    0    0  501  502 -0.00000000000E+00 -0.00000000000E+00 -0.52046181189E+03  0.52046181189E+03  0.00000000000E+00 0. -1.
         25    1    1    2    0    0  0.13090705722E+02 -0.99085442230E+02  0.16844770159E+03  0.23235515835E+03  0.12500000000E+03 0.  0.
         25    1    1    2    0    0 -0.51733196315E+02  0.17859297621E+03 -0.42847402377E+03  0.48351500886E+03  0.12500000000E+03 0.  0.
         25    1    1    2    0    0  0.38642490593E+02 -0.79507533975E+02  0.14771650338E+03  0.21274363776E+03  0.12500000000E+03 0.  0.
</event>
<event>
 5    0  0.5684733E-005  0.2423094E+03  0.7546771E-02  0.1118264E+00
         21   -1    0    0  502  501  0.00000000000E+00  0.00000000000E+00  0.80082277951E+02  0.80082277951E+02  0.00000000000E+00 0. -1.
         21   -1    0    0  501  502 -0.00000000000E+00 -0.00000000000E+00 -0.73316929553E+03  0.73316929553E+03  0.00000000000E+00 0. -1.
         25    1    1    2    0    0 -0.74095954989E+02 -0.56748778539E+02 -0.14317422552E+03  0.21174157188E+03  0.12500000000E+03 0.  0.
         25    1    1    2    0    0 -0.19507984977E+02 -0.43092461922E+02 -0.21961951322E+03  0.25708996935E+03  0.12500000000E+03 0.  0.
         25    1    1    2    0    0  0.93603939966E+02  0.99841240461E+02 -0.29029327884E+03  0.34442003225E+03  0.12500000000E+03 0.  0.
</event>
<event>
 5    0  0.5684733E-005  0.4288303E+03  0.7546771E-02  0.1034230E+00
         21   -1    0    0  502  501  0.00000000000E+00  0.00000000000E+00  0.13547083874E+03  0.13547083874E+03  0.00000000000E+00 0.  1.
         21   -1    0    0  501  502 -0.00000000000E+00 -0.00000000000E+00 -0.13574539319E+04  0.13574539319E+04  0.00000000000E+00 0.  1.
         25    1    1    2    0    0 -0.17357929510E+02 -0.96528946122E+02 -0.67983978568E+02  0.17281769729E+03  0.12500000000E+03 0.  0.
         25    1    1    2    0    0 -0.21972224143E+03 -0.69013291402E+02 -0.24755895742E+03  0.36048735785E+03  0.12500000000E+03 0.  0.
         25    1    1    2    0    0  0.23708017094E+03  0.16554223752E+03 -0.90644015721E+03  0.95961971554E+03  0.12500000000E+03 0.  0.
</event>
<event>
 5    0  0.5684733E-005  0.4997004E+03  0.7546771E-02  0.1013857E+00
         21   -1    0    0  502  501  0.00000000000E+00  0.00000000000E+00  0.30750445763E+03  0.30750445763E+03  0.00000000000E+00 0.  1.
         21   -1    0    0  501  502 -0.00000000000E+00 -0.00000000000E+00 -0.81202224656E+03  0.81202224656E+03  0.00000000000E+00 0.  1.
         25    1    1    2    0    0 -0.24183242304E+02 -0.33100836325E+03 -0.28681865617E+02  0.35580755355E+03  0.12500000000E+03 0.  0.
         25    1    1    2    0    0  0.12955782000E+03  0.37815017604E+03 -0.27754534924E+03  0.50243328438E+03  0.12500000000E+03 0.  0.
         25    1    1    2    0    0 -0.10537457770E+03 -0.47141812794E+02 -0.19829057407E+03  0.26128586626E+03  0.12500000000E+03 0.  0.
</event>
<event>
 5    0  0.5684733E-005  0.6132544E+03  0.7546771E-02  0.9878283E-01
         21   -1    0    0  502  501  0.00000000000E+00  0.00000000000E+00  0.14307907455E+03  0.14307907455E+03  0.00000000000E+00 0.  1.
         21   -1    0    0  501  502 -0.00000000000E+00 -0.00000000000E+00 -0.26284836312E+04  0.26284836312E+04  0.00000000000E+00 0.  1.
         25    1    1    2    0    0 -0.18579736800E+02  0.50579500765E+03 -0.17854634652E+04  0.18600211241E+04  0.12500000000E+03 0.  0.
         25    1    1    2    0    0  0.58183173849E+02 -0.31599479687E+03 -0.49328706785E+03  0.60182649051E+03  0.12500000000E+03 0.  0.
         25    1    1    2    0    0 -0.39603437049E+02 -0.18980021077E+03 -0.20665402357E+03  0.30971509116E+03  0.12500000000E+03 0.  0.
</event>
<event>
 5    0  0.5684733E-005  0.2226763E+03  0.7546771E-02  0.1131903E+00
         21   -1    0    0  502  501  0.00000000000E+00  0.00000000000E+00  0.26584538543E+03  0.26584538543E+03  0.00000000000E+00 0. -1.
         21   -1    0    0  501  502 -0.00000000000E+00 -0.00000000000E+00 -0.18651725760E+03  0.18651725760E+03  0.00000000000E+00 0. -1.
         25    1    1    2    0    0  0.56651756279E+02  0.30532816591E+02  0.62737008374E+02  0.15395650879E+03  0.12500000000E+03 0.  0.
         25    1    1    2    0    0 -0.56432238426E+02 -0.36361311559E+02 -0.57371244282E+02  0.15304640532E+03  0.12500000000E+03 0.  0.
         25    1    1    2    0    0 -0.21951785243E+00  0.58284949687E+01  0.73962363734E+02  0.14535972892E+03  0.12500000000E+03 0.  0.
</event>
<event>
 5    0  0.5684733E-005  0.3818355E+03  0.7546771E-02  0.1050257E+00
         21   -1    0    0  502  501  0.00000000000E+00  0.00000000000E+00  0.52957799131E+03  0.52957799131E+03  0.00000000000E+00 0. -1.
         21   -1    0    0  501  502 -0.00000000000E+00 -0.00000000000E+00 -0.27531050585E+03  0.27531050585E+03  0.00000000000E+00 0. -1.
         25    1    1    2    0    0 -0.93039037200E+00 -0.45947708431E+02  0.10793560180E+03  0.17142681141E+03  0.12500000000E+03 0.  0.
         25    1    1    2    0    0  0.19736544176E+03  0.19265471378E+03  0.18606772268E+03  0.35540843232E+03  0.12500000000E+03 0.  0.
         25    1    1    2    0    0 -0.19643505139E+03 -0.14670700535E+03 -0.39735839023E+02  0.27805325342E+03  0.12500000000E+03 0.  0.
</event>
<event>
 5    0  0.5684733E-005  0.2538252E+03  0.7546771E-02  0.1110911E+00
         21   -1    0    0  502  501  0.00000000000E+00  0.00000000000E+00  0.39605857952E+03  0.39605857952E+03  0.00000000000E+00 0. -1.
         21   -1    0    0  501  502 -0.00000000000E+00 -0.00000000000E+00 -0.16267099281E+03  0.16267099281E+03  0.00000000000E+00 0. -1.
         25    1    1    2    0    0  0.61746395015E+02 -0.89343464389E+02  0.77506659597E+02  0.18283094434E+03  0.12500000000E+03 0.  0.
         25    1    1    2    0    0 -0.18825535528E+02  0.14840706950E+03  0.67556512351E+02  0.20631999764E+03  0.12500000000E+03 0.  0.
         25    1    1    2    0    0 -0.42920859487E+02 -0.59063605116E+02  0.88324414765E+02  0.16957863035E+03  0.12500000000E+03 0.  0.
</event>
<event>
 5    0  0.5684733E-005  0.2791286E+03  0.7546771E-02  0.1096166E+00
         21   -1    0    0  502  501  0.00000000000E+00  0.00000000000E+00  0.16986165245E+03  0.16986165245E+03  0.00000000000E+00 0. -1.
         21   -1    0    0  501  502 -0.00000000000E+00 -0.00000000000E+00 -0.45868387306E+03  0.45868387306E+03  0.00000000000E+00 0. -1.
         25    1    1    2    0    0  0.12285704067E+03  0.51068568354E+02 -0.35798705149E+02  0.18603332607E+03  0.12500000000E+03 0.  0.
         25    1    1    2    0    0 -0.15050631361E+03 -0.90461205731E+02 -0.21223027696E+03  0.30249309188E+03  0.12500000000E+03 0.  0.
         25    1    1    2    0    0  0.27649272939E+02  0.39392637376E+02 -0.40793238501E+02  0.14001910756E+03  0.12500000000E+03 0.  0.
</event>
<event>
 5    0  0.5684733E-005  0.2347218E+03  0.7546771E-02  0.1123360E+00
         21   -1    0    0  502  501  0.00000000000E+00  0.00000000000E+00  0.23018863461E+03  0.23018863461E+03  0.00000000000E+00 0. -1.
         21   -1    0    0  501  502 -0.00000000000E+00 -0.00000000000E+00 -0.23934431712E+03  0.23934431712E+03  0.00000000000E+00 0. -1.
         25    1    1    2    0    0  0.12683792883E+02  0.57213043584E+01 -0.50735662412E+02  0.13561976023E+03  0.12500000000E+03 0.  0.
         25    1    1    2    0    0 -0.74053208760E+02  0.65560710411E+02  0.71405220909E+02  0.17465906805E+03  0.12500000000E+03 0.  0.
         25    1    1    2    0    0  0.61369415877E+02 -0.71282014770E+02 -0.29825241002E+02  0.15925412345E+03  0.12500000000E+03 0.  0.
</event>
<event>
 5    0  0.5684733E-005  0.3957126E+03  0.7546771E-02  0.1045274E+00
         21   -1    0    0  502  501  0.00000000000E+00  0.00000000000E+00  0.33148482750E+03  0.33148482750E+03  0.00000000000E+00 0.  1.
         21   -1    0    0  501  502 -0.00000000000E+00 -0.00000000000E+00 -0.47238495113E+03  0.47238495113E+03  0.00000000000E+00 0.  1.
         25    1    1    2    0    0 -0.44642236802E+02 -0.18312102642E+02 -0.26769727882E+03  0.29935780514E+03  0.12500000000E+03 0.  0.
         25    1    1    2    0    0 -0.14735705626E+03 -0.24796013598E+02 -0.62086660358E+02  0.20447175286E+03  0.12500000000E+03 0.  0.
         25    1    1    2    0    0  0.19199929307E+03  0.43108116241E+02  0.18888381555E+03  0.30004022064E+03  0.12500000000E+03 0.  0.
</event>
<event>
 5    0  0.5684733E-005  0.2611804E+03  0.7546771E-02  0.1106436E+00
         21   -1    0    0  502  501  0.00000000000E+00  0.00000000000E+00  0.55883904030E+02  0.55883904030E+02  0.00000000000E+00 0. -1.
         21   -1    0    0  501  502 -0.00000000000E+00 -0.00000000000E+00 -0.12206595176E+04  0.12206595176E+04  0.00000000000E+00 0. -1.
         25    1    1    2    0    0  0.72896764829E+02 -0.95200196473E+02 -0.54826833398E+03  0.57497841853E+03  0.12500000000E+03 0.  0.
         25    1    1    2    0    0  0.13123858987E+02 -0.15844342017E+02 -0.37290422619E+03  0.39383478866E+03  0.12500000000E+03 0.  0.
         25    1    1    2    0    0 -0.86020623817E+02  0.11104453849E+03 -0.24360305338E+03  0.30773021442E+03  0.12500000000E+03 0.  0.
</event>
<event>
 5    0  0.5684733E-005  0.2842732E+03  0.7546771E-02  0.1093378E+00
         21   -1    0    0  502  501  0.00000000000E+00  0.00000000000E+00  0.22514429757E+03  0.22514429757E+03  0.00000000000E+00 0. -1.
         21   -1    0    0  501  502 -0.00000000000E+00 -0.00000000000E+00 -0.35893096501E+03  0.35893096501E+03  0.00000000000E+00 0. -1.
         25    1    1    2    0    0  0.19437398245E+02  0.24848775286E+02 -0.76042429280E+02  0.14967539923E+03  0.12500000000E+03 0.  0.
         25    1    1    2    0    0 -0.12438889273E+03  0.91108648844E+02  0.53207037951E+02  0.20549786232E+03  0.12500000000E+03 0.  0.
         25    1    1    2    0    0  0.10495149448E+03 -0.11595742413E+03 -0.11095127611E+03  0.22890200103E+03  0.12500000000E+03 0.  0.
</event>
<event>
 5    0  0.5684733E-005  0.2509520E+03  0.7546771E-02  0.1112705E+00
         21   -1    0    0  502  501  0.00000000000E+00  0.00000000000E+00  0.24251560040E+03  0.24251560040E+03  0.00000000000E+00 0.  1.
         21   -1    0    0  501  502 -0.00000000000E+00 -0.00000000000E+00 -0.25968177772E+03  0.25968177772E+03  0.00000000000E+00 0.  1.
         25    1    1    2    0    0 -0.20339233087E+02 -0.12545020404E+03 -0.51002955463E+02  0.18541235008E+03  0.12500000000E+03 0.  0.
         25    1    1    2    0    0 -0.16955342481E+01 -0.10691948690E+02  0.36378824185E+02  0.13063541423E+03  0.12500000000E+03 0.  0.
         25    1    1    2    0    0  0.22034767335E+02  0.13614215273E+03 -0.25420460423E+01  0.18614961381E+03  0.12500000000E+03 0.  0.
</event>
<event>
 5    0  0.5684733E-005  0.3079727E+03  0.7546771E-02  0.1081322E+00
         21   -1    0    0  502  501  0.00000000000E+00  0.00000000000E+00  0.70033413062E+02  0.70033413062E+02  0.00000000000E+00 0. -1.
         21   -1    0    0  501  502 -0.00000000000E+00 -0.00000000000E+00 -0.13543135173E+04  0.13543135173E+04  0.00000000000E+00 0. -1.
         25    1    1    2    0    0 -0.11820771387E+03 -0.11730331228E+02 -0.13057656415E+03  0.21630049328E+03  0.12500000000E+03 0.  0.
         25    1    1    2    0    0 -0.14185098612E+02 -0.48038640190E+02 -0.73947064384E+03  0.75163206496E+03  0.12500000000E+03 0.  0.
         25    1    1    2    0    0  0.13239281248E+03  0.59768971418E+02 -0.41423289626E+03  0.45641437213E+03  0.12500000000E+03 0.  0.
</event>
<event>
 5    0  0.5684733E-005  0.3403451E+03  0.7546771E-02  0.1066649E+00
         21   -1    0    0  502  501  0.00000000000E+00  0.00000000000E+00  0.30646455371E+03  0.30646455371E+03  0.00000000000E+00 0. -1.
         21   -1    0    0  501  502 -0.00000000000E+00 -0.00000000000E+00 -0.37797133869E+03  0.37797133869E+03  0.00000000000E+00 0. -1.
         25    1    1    2    0    0 -0.83649398024E+02 -0.22170417906E+03 -0.11480705814E+03  0.29147148300E+03  0.12500000000E+03 0.  0.
         25    1    1    2    0    0  0.35056894572E+02  0.21657925153E+03  0.19078459190E+01  0.25251573797E+03  0.12500000000E+03 0.  0.
         25    1    1    2    0    0  0.48592503451E+02  0.51249275329E+01  0.41392427241E+02  0.14044867143E+03  0.12500000000E+03 0.  0.
</event>
<event>
 5    0  0.5684733E-005  0.2656799E+03  0.7546771E-02  0.1103778E+00
         21   -1    0    0  502  501  0.00000000000E+00  0.00000000000E+00  0.55888086921E+03  0.55888086921E+03  0.00000000000E+00 0. -1.
         21   -1    0    0  501  502 -0.00000000000E+00 -0.00000000000E+00 -0.12629847669E+03  0.12629847669E+03  0.00000000000E+00 0. -1.
         25    1    1    2    0    0  0.12245426431E+03 -0.12272847325E+03  0.19773386961E+03  0.29117178467E+03  0.12500000000E+03 0.  0.
         25    1    1    2    0    0 -0.32207846559E+02  0.66438923768E+02  0.15186533985E+03  0.21009416322E+03  0.12500000000E+03 0.  0.
         25    1    1    2    0    0 -0.90246417753E+02  0.56289549484E+02  0.82983183060E+02  0.18391339801E+03  0.12500000000E+03 0.  0.
</event>
<event>
 5    0  0.5684733E-005  0.2124458E+03  0.7546771E-02  0.1139644E+00
         21   -1    0    0  502  501  0.00000000000E+00  0.00000000000E+00  0.14993994106E+03  0.14993994106E+03  0.00000000000E+00 0. -1.
         21   -1    0    0  501  502 -0.00000000000E+00 -0.00000000000E+00 -0.30100861437E+03  0.30100861437E+03  0.00000000000E+00 0. -1.
         25    1    1    2    0    0  0.62930740902E+02 -0.28608995721E+02 -0.10541958366E+03  0.17753039572E+03  0.12500000000E+03 0.  0.
         25    1    1    2    0    0 -0.36825714484E+02 -0.93205081242E+01 -0.50635408961E+02  0.14011405982E+03  0.12500000000E+03 0.  0.
         25    1    1    2    0    0 -0.26105026419E+02  0.37929503846E+02  0.49863193132E+01  0.13330409989E+03  0.12500000000E+03 0.  0.
</event>
<event>
 5    0  0.7060922E-005  0.2899186E+03  0.7546771E-02  0.1090392E+00
         21   -1    0    0  502  501  0.00000000000E+00  0.00000000000E+00  0.18281419825E+03  0.18281419825E+03  0.00000000000E+00 0.  1.
         21   -1    0    0  501  502 -0.00000000000E+00 -0.00000000000E+00 -0.45977159080E+03  0.45977159080E+03  0.00000000000E+00 0.  1.
         25    1    1    2    0    0 -0.12925206211E+03  0.75538315493E+01 -0.74978160223E+02  0.19496122805E+03  0.12500000000E+03 0.  0.
         25    1    1    2    0    0  0.10970650169E+03  0.59077238748E+02 -0.24164088409E+03  0.29923394445E+03  0.12500000000E+03 0.  0.
         25    1    1    2    0    0  0.19545560422E+02 -0.66631070298E+02  0.39661651754E+02  0.14839061655E+03  0.12500000000E+03 0.  0.
</event>
<event>
 5    0  0.5684733E-005  0.2709164E+03  0.7546771E-02  0.1100756E+00
         21   -1    0    0  502  501  0.00000000000E+00  0.00000000000E+00  0.11338218015E+04  0.11338218015E+04  0.00000000000E+00 0.  1.
         21   -1    0    0  501  502 -0.00000000000E+00 -0.00000000000E+00 -0.64733011441E+02  0.64733011441E+02  0.00000000000E+00 0.  1.
         25    1    1    2    0    0  0.12849289624E+03 -0.12864378610E+03  0.34235219067E+03  0.40729555675E+03  0.12500000000E+03 0.  0.
         25    1    1    2    0    0 -0.80939131389E+02  0.79768148777E+02  0.35377606682E+03  0.39204158708E+03  0.12500000000E+03 0.  0.
         25    1    1    2    0    0 -0.47553764853E+02  0.48875637322E+02  0.37296053252E+03  0.39921766906E+03  0.12500000000E+03 0.  0.
</event>
<event>
 5    0  0.5684733E-005  0.2957121E+03  0.7546771E-02  0.1087404E+00
         21   -1    0    0  502  501  0.00000000000E+00  0.00000000000E+00  0.12824113288E+03  0.12824113288E+03  0.00000000000E+00 0.  1.
         21   -1    0    0  501  502 -0.00000000000E+00 -0.00000000000E+00 -0.68188440859E+03  0.68188440859E+03  0.00000000000E+00 0.  1.
         25    1    1    2    0    0  0.14977591948E+02 -0.19649296834E+03 -0.32803837351E+03  0.40257668755E+03  0.12500000000E+03 0.  0.
         25    1    1    2    0    0 -0.43964210653E+02  0.14629743426E+03 -0.10075754287E+03  0.22161424488E+03  0.12500000000E+03 0.  0.
         25    1    1    2    0    0  0.28986618705E+02  0.50195534079E+02 -0.12484735933E+03  0.18593460903E+03  0.12500000000E+03 0.  0.
</event>
<event>
 5    0  0.5684733E-005  0.2292715E+03  0.7546771E-02  0.1127154E+00
         21   -1    0    0  502  501  0.00000000000E+00  0.00000000000E+00  0.75914449992E+03  0.75914449992E+03  0.00000000000E+00 0. -1.
         21   -1    0    0  501  502 -0.00000000000E+00 -0.00000000000E+00 -0.69242940958E+02  0.69242940958E+02  0.00000000000E+00 0. -1.
         25    1    1    2    0    0  0.29367825831E+01 -0.67883635954E+02  0.18118500501E+03  0.23036887542E+03  0.12500000000E+03 0.  0.
         25    1    1    2    0    0 -0.12938568466E+02 -0.24836127798E+02  0.36161597123E+03  0.38363439685E+03  0.12500000000E+03 0.  0.
         25    1    1    2    0    0  0.10001785883E+02  0.92719763752E+02  0.14710058271E+03  0.21438416860E+03  0.12500000000E+03 0.  0.
</event>
<event>
 5    0  0.5684733E-005  0.2691272E+03  0.7546771E-02  0.1101780E+00
         21   -1    0    0  502  501  0.00000000000E+00  0.00000000000E+00  0.39418681942E+03  0.39418681942E+03  0.00000000000E+00 0. -1.
         21   -1    0    0  501  502 -0.00000000000E+00 -0.00000000000E+00 -0.18374392300E+03  0.18374392300E+03  0.00000000000E+00 0. -1.
         25    1    1    2    0    0  0.11405325560E+01  0.13678382995E+03  0.11247325841E+03  0.21676335209E+03  0.12500000000E+03 0.  0.
         25    1    1    2    0    0  0.83863851543E+02 -0.12326366836E+03  0.39496476243E+02  0.19852468151E+03  0.12500000000E+03 0.  0.
         25    1    1    2    0    0 -0.85004384099E+02 -0.13520161595E+02  0.58473161771E+02  0.16264270882E+03  0.12500000000E+03 0.  0.
</event>
<event>
 5    0  0.5684733E-005  0.5216246E+03  0.7546771E-02  0.1008284E+00
         21   -1    0    0  502  501  0.00000000000E+00  0.00000000000E+00  0.85954182209E+03  0.85954182209E+03  0.00000000000E+00 0. -1.
         21   -1    0    0  501  502 -0.00000000000E+00 -0.00000000000E+00 -0.31655489992E+03  0.31655489992E+03  0.00000000000E+00 0. -1.
         25    1    1    2    0    0  0.14927971912E+02 -0.16195959573E+03  0.79393580276E+02  0.21995930438E+03  0.12500000000E+03 0.  0.
         25    1    1    2    0    0 -0.10805263011E+03 -0.20168259948E+03  0.49477724810E+03  0.55926806368E+03  0.12500000000E+03 0.  0.
         25    1    1    2    0    0  0.93124658201E+02  0.36364219521E+03 -0.31183906207E+02  0.39686935396E+03  0.12500000000E+03 0.  0.
</event>
<event>
 5    0  0.5684733E-005  0.2785882E+03  0.7546771E-02  0.1096463E+00
         21   -1    0    0  502  501  0.00000000000E+00  0.00000000000E+00  0.70038151371E+03  0.70038151371E+03  0.00000000000E+00 0.  1.
         21   -1    0    0  501  502 -0.00000000000E+00 -0.00000000000E+00 -0.11081302274E+03  0.11081302274E+03  0.00000000000E+00 0.  1.
         25    1    1    2    0    0  0.66863437085E+02  0.12059210960E+03  0.35211504640E+03  0.39827525910E+03  0.12500000000E+03 0.  0.
         25    1    1    2    0    0 -0.41024150533E+02  0.35154011963E+02  0.87747288996E+02  0.16199806237E+03  0.12500000000E+03 0.  0.
         25    1    1    2    0    0 -0.25839286552E+02 -0.15574612156E+03  0.14970615557E+03  0.25092121498E+03  0.12500000000E+03 0.  0.
</event>
<event>
 5    0  0.5684733E-005  0.2095687E+03  0.7546771E-02  0.1141908E+00
         21   -1    0    0  502  501  0.00000000000E+00  0.00000000000E+00  0.88823185342E+02  0.88823185342E+02  0.00000000000E+00 0.  1.
         21   -1    0    0  501  502 -0.00000000000E+00 -0.00000000000E+00 -0.49445447761E+03  0.49445447761E+03  0.00000000000E+00 0.  1.
         25    1    1    2    0    0  0.20934113548E+02  0.23345519110E+02 -0.18668999952E+03  0.22685106632E+03  0.12500000000E+03 0.  0.
         25    1    1    2    0    0  0.40408914385E+02 -0.34576018155E+02 -0.72249196023E+02  0.15386139126E+03  0.12500000000E+03 0.  0.
         25    1    1    2    0    0 -0.61343027933E+02  0.11230499044E+02 -0.14669209673E+03  0.20256520537E+03  0.12500000000E+03 0.  0.
</event>
<event>
 5    0  0.5684733E-005  0.2900420E+03  0.7546771E-02  0.1090327E+00
         21   -1    0    0  502  501  0.00000000000E+00  0.00000000000E+00  0.31597652037E+03  0.31597652037E+03  0.00000000000E+00 0. -1.
         21   -1    0    0  501  502 -0.00000000000E+00 -0.00000000000E+00 -0.26623602701E+03  0.26623602701E+03  0.00000000000E+00 0. -1.
         25    1    1    2    0    0  0.13902174247E+01  0.30619643095E+02 -0.14249639136E+03  0.19201488692E+03  0.12500000000E+03 0.  0.
         25    1    1    2    0    0  0.48508235636E+02 -0.97395109177E+02  0.28820678376E+02  0.16820965406E+03  0.12500000000E+03 0.  0.
         25    1    1    2    0    0 -0.49898453060E+02  0.66775466082E+02  0.16341620635E+03  0.22198800640E+03  0.12500000000E+03 0.  0.
</event>
<event>
 5    0  0.5684733E-005  0.3940867E+03  0.7546771E-02  0.1045847E+00
         21   -1    0    0  502  501  0.00000000000E+00  0.00000000000E+00  0.13886708232E+03  0.13886708232E+03  0.00000000000E+00 0.  1.
         21   -1    0    0  501  502 -0.00000000000E+00 -0.00000000000E+00 -0.11183669655E+04  0.11183669655E+04  0.00000000000E+00 0. -1.
         25    1    1    2    0    0  0.15719229013E+02 -0.17297868088E+02 -0.60972855100E+02  0.14102836403E+03  0.12500000000E+03 0.  0.
         25    1    1    2    0    0 -0.24240577574E+03 -0.38903857381E+02 -0.75788609515E+03  0.80640585530E+03  0.12500000000E+03 0.  0.
         25    1    1    2    0    0  0.22668654673E+03  0.56201725469E+02 -0.16064093296E+03  0.30979982853E+03  0.12500000000E+03 0.  0.
</event>
<event>
 5    0  0.5684733E-005  0.3315604E+03  0.7546771E-02  0.1070449E+00
         21   -1    0    0  502  501  0.00000000000E+00  0.00000000000E+00  0.39726227520E+03  0.39726227520E+03  0.00000000000E+00 0. -1.
         21   -1    0    0  501  502 -0.00000000000E+00 -0.00000000000E+00 -0.27672472069E+03  0.27672472069E+03  0.00000000000E+00 0. -1.
         25    1    1    2    0    0  0.50464719680E+02 -0.23458682811E+02  0.11570334237E+03  0.17919057220E+03  0.12500000000E+03 0.  0.
         25    1    1    2    0    0 -0.86844863491E+02 -0.16637731528E+03 -0.93979597445E+02  0.24429614424E+03  0.12500000000E+03 0.  0.
         25    1    1    2    0    0  0.36380143811E+02  0.18983599809E+03  0.98813809592E+02  0.25050027944E+03  0.12500000000E+03 0.  0.
</event>
<event>
 5    0  0.5684733E-005  0.3734774E+03  0.7546771E-02  0.1053371E+00
         21   -1    0    0  502  501  0.00000000000E+00  0.00000000000E+00  0.21909155426E+03  0.21909155426E+03  0.00000000000E+00 0. -1.
         21   -1    0    0  501  502 -0.00000000000E+00 -0.00000000000E+00 -0.63665336055E+03  0.63665336055E+03  0.00000000000E+00 0. -1.
         25    1    1    2    0    0 -0.38557609174E+02 -0.12732893815E+03 -0.24703021466E+03  0.30716164258E+03  0.12500000000E+03 0.  0.
         25    1    1    2    0    0  0.78641456785E+02  0.25408421022E+03 -0.21085548041E+03  0.36170194668E+03  0.12500000000E+03 0.  0.
         25    1    1    2    0    0 -0.40083847611E+02 -0.12675527207E+03  0.40323888782E+02  0.18688132556E+03  0.12500000000E+03 0.  0.
</event>
<event>
 5    0  0.5942923E-005  0.2776108E+03  0.7546771E-02  0.1097001E+00
         21   -1    0    0  502  501  0.00000000000E+00  0.00000000000E+00  0.16137400083E+03  0.16137400083E+03  0.00000000000E+00 0. -1.
         21   -1    0    0  501  502 -0.00000000000E+00 -0.00000000000E+00 -0.47757234247E+03  0.47757234247E+03  0.00000000000E+00 0. -1.
         25    1    1    2    0    0  0.26115934595E+02 -0.45998149982E+02 -0.20572868995E+03  0.24646940116E+03  0.12500000000E+03 0.  0.
         25    1    1    2    0    0 -0.67243818070E+02 -0.58744423922E+01 -0.18447849478E+03  0.23283804495E+03  0.12500000000E+03 0.  0.
         25    1    1    2    0    0  0.41127883475E+02  0.51872592374E+02  0.74008843090E+02  0.15963889718E+03  0.12500000000E+03 0.  0.
</event>
<event>
 5    0  0.5684733E-005  0.4721916E+03  0.7546771E-02  0.1021303E+00
         21   -1    0    0  502  501  0.00000000000E+00  0.00000000000E+00  0.79979176977E+03  0.79979176977E+03  0.00000000000E+00 0. -1.
         21   -1    0    0  501  502 -0.00000000000E+00 -0.00000000000E+00 -0.27877871220E+03  0.27877871220E+03  0.00000000000E+00 0. -1.
         25    1    1    2    0    0  0.74190016881E+02 -0.29924077265E+03  0.41856404603E+03  0.53466817677E+03  0.12500000000E+03 0.  0.
         25    1    1    2    0    0 -0.18872706412E+02  0.18208545154E+02  0.18113473807E+03  0.22163601580E+03  0.12500000000E+03 0.  0.
         25    1    1    2    0    0 -0.55317310469E+02  0.28103222750E+03 -0.78685726518E+02  0.32226628941E+03  0.12500000000E+03 0.  0.
</event>
<event>
 5    0  0.5684733E-005  0.3328211E+03  0.7546771E-02  0.1069895E+00
         21   -1    0    0  502  501  0.00000000000E+00  0.00000000000E+00  0.87267122485E+02  0.87267122485E+02  0.00000000000E+00 0.  1.
         21   -1    0    0  501  502 -0.00000000000E+00 -0.00000000000E+00 -0.12693198998E+04  0.12693198998E+04  0.00000000000E+00 0.  1.
         25    1    1    2    0    0  0.14112226668E+03  0.34691344607E+02 -0.33065272748E+03  0.38219786726E+03  0.12500000000E+03 0.  0.
         25    1    1    2    0    0  0.27852451799E+02  0.75426805054E+02 -0.63858025494E+03  0.65564830816E+03  0.12500000000E+03 0.  0.
         25    1    1    2    0    0 -0.16897471848E+03 -0.11011814966E+03 -0.21281979492E+03  0.31874084690E+03  0.12500000000E+03 0.  0.
</event>
<event>
 5    0  0.5684733E-005  0.3001670E+03  0.7546771E-02  0.1085157E+00
         21   -1    0    0  502  501  0.00000000000E+00  0.00000000000E+00  0.35665610798E+03  0.35665610798E+03  0.00000000000E+00 0.  1.
         21   -1    0    0  501  502 -0.00000000000E+00 -0.00000000000E+00 -0.25262501276E+03  0.25262501276E+03  0.00000000000E+00 0.  1.
         25    1    1    2    0    0 -0.10049551376E+03 -0.14688153005E+02 -0.11028899472E+02  0.16143644802E+03  0.12500000000E+03 0.  0.
         25    1    1    2    0    0  0.97973767009E+02  0.99656736716E+01 -0.10784059794E+03  0.19223102829E+03  0.12500000000E+03 0.  0.
         25    1    1    2    0    0  0.25217467558E+01  0.47224793332E+01  0.22290059264E+03  0.25561364442E+03  0.12500000000E+03 0.  0.
</event>
<event>
 5    0  0.5684733E-005  0.3654668E+03  0.7546771E-02  0.1056440E+00
         21   -1    0    0  502  501  0.00000000000E+00  0.00000000000E+00  0.16178467498E+04  0.16178467498E+04  0.00000000000E+00 0. -1.
         21   -1    0    0  501  502 -0.00000000000E+00 -0.00000000000E+00 -0.82557848514E+02  0.82557848514E+02  0.00000000000E+00 0. -1.
         25    1    1    2    0    0 -0.47283145779E+02 -0.47930318976E+02  0.24786705349E+03  0.28565028892E+03  0.12500000000E+03 0.  0.
         25    1    1    2    0    0  0.25935422776E+03  0.12083400231E+03  0.87402615840E+03  0.92812294290E+03  0.12500000000E+03 0.  0.
         25    1    1    2    0    0 -0.21207108198E+03 -0.72903683332E+02  0.41339568942E+03  0.48663136653E+03  0.12500000000E+03 0.  0.
</event>
<event>
 5    0  0.5684733E-005  0.2686840E+03  0.7546771E-02  0.1102035E+00
         21   -1    0    0  502  501  0.00000000000E+00  0.00000000000E+00  0.36102662172E+03  0.36102662172E+03  0.00000000000E+00 0. -1.
         21   -1    0    0  501  502 -0.00000000000E+00 -0.00000000000E+00 -0.19996051428E+03  0.19996051428E+03  0.00000000000E+00 0. -1.
         25    1    1    2    0    0 -0.20073159576E+02 -0.29951655938E+02  0.23785118292E+01  0.13011798779E+03  0.12500000000E+03 0.  0.
         25    1    1    2    0    0 -0.33609614336E+02  0.16421444397E+03  0.73902339473E+02  0.22177138130E+03  0.12500000000E+03 0.  0.
         25    1    1    2    0    0  0.53682773912E+02 -0.13426278803E+03  0.84785256139E+02  0.20909776690E+03  0.12500000000E+03 0.  0.
</event>
<event>
 5    0  0.5684733E-005  0.3290805E+03  0.7546771E-02  0.1071544E+00
         21   -1    0    0  502  501  0.00000000000E+00  0.00000000000E+00  0.98881859581E+03  0.98881859581E+03  0.00000000000E+00 0. -1.
         21   -1    0    0  501  502 -0.00000000000E+00 -0.00000000000E+00 -0.10951852242E+03  0.10951852242E+03  0.00000000000E+00 0. -1.
         25    1    1    2    0    0  0.16825735270E+03  0.11964256438E+03  0.48229562878E+03  0.53931340933E+03  0.12500000000E+03 0.  0.
         25    1    1    2    0    0 -0.14498287467E+03  0.31670027290E+02  0.16929936083E+03  0.25750786037E+03  0.12500000000E+03 0.  0.
         25    1    1    2    0    0 -0.23274478028E+02 -0.15131259167E+03  0.22770508379E+03  0.30151584852E+03  0.12500000000E+03 0.  0.
</event>
<event>
 5    0  0.5684733E-005  0.6823114E+03  0.7546771E-02  0.9747969E-01
         21   -1    0    0  502  501  0.00000000000E+00  0.00000000000E+00  0.78934169072E+03  0.78934169072E+03  0.00000000000E+00 0.  1.
         21   -1    0    0  501  502 -0.00000000000E+00 -0.00000000000E+00 -0.58979382838E+03  0.58979382838E+03  0.00000000000E+00 0.  1.
         25    1    1    2    0    0  0.28322334872E+03  0.13553487817E+03 -0.38968293123E+03  0.51581290731E+03  0.12500000000E+03 0.  0.
         25    1    1    2    0    0  0.53427092066E+02  0.36276157932E+02 -0.13122335794E+02  0.14130679211E+03  0.12500000000E+03 0.  0.
         25    1    1    2    0    0 -0.33665044078E+03 -0.17181103610E+03  0.60235312936E+03  0.72201581968E+03  0.12500000000E+03 0.  0.
</event>
<event>
 5    0  0.5684733E-005  0.2396240E+03  0.7546771E-02  0.1120044E+00
         21   -1    0    0  502  501  0.00000000000E+00  0.00000000000E+00  0.78859482968E+03  0.78859482968E+03  0.00000000000E+00 0.  1.
         21   -1    0    0  501  502 -0.00000000000E+00 -0.00000000000E+00 -0.72812647510E+02  0.72812647510E+02  0.00000000000E+00 0.  1.
         25    1    1    2    0    0  0.35083525225E+02  0.15492512500E+02  0.24071421099E+03  0.27393284407E+03  0.12500000000E+03 0.  0.
         25    1    1    2    0    0  0.11007108232E+01  0.50981532272E+01  0.43062366971E+03  0.44842942326E+03  0.12500000000E+03 0.  0.
         25    1    1    2    0    0 -0.36184236049E+02 -0.20590665728E+02  0.44444301473E+02  0.13904520987E+03  0.12500000000E+03 0.  0.
</event>
<event>
 5    0  0.6765253E-005  0.3428585E+03  0.7546771E-02  0.1065585E+00
         21   -1    0    0  502  501  0.00000000000E+00  0.00000000000E+00  0.56942924878E+03  0.56942924878E+03  0.00000000000E+00 0. -1.
         21   -1    0    0  501  502 -0.00000000000E+00 -0.00000000000E+00 -0.20643820655E+03  0.20643820655E+03  0.00000000000E+00 0. -1.
         25    1    1    2    0    0  0.24044601823E+03  0.79324786932E+00  0.22817737119E+03  0.35426660814E+03  0.12500000000E+03 0.  0.
         25    1    1    2    0    0 -0.15233215543E+03  0.56211958069E+02  0.15528899489E+03  0.25710803515E+03  0.12500000000E+03 0.  0.
         25    1    1    2    0    0 -0.88113862798E+02 -0.57005205938E+02 -0.20475323842E+02  0.16449281202E+03  0.12500000000E+03 0.  0.
</event>
<event>
 5    0  0.5684733E-005  0.3062082E+03  0.7546771E-02  0.1082178E+00
         21   -1    0    0  502  501  0.00000000000E+00  0.00000000000E+00  0.11393313561E+04  0.11393313561E+04  0.00000000000E+00 0. -1.
         21   -1    0    0  501  502 -0.00000000000E+00 -0.00000000000E+00 -0.82296937484E+02  0.82296937484E+02  0.00000000000E+00 0. -1.
         25    1    1    2    0    0 -0.12448523568E+03  0.76722716339E+02  0.28858356826E+03  0.34682621726E+03  0.12500000000E+03 0.  0.
         25    1    1    2    0    0  0.13109531603E+03 -0.17977977455E+03  0.49421829559E+03  0.55622250307E+03  0.12500000000E+03 0.  0.
         25    1    1    2    0    0 -0.66100803501E+01  0.10305705821E+03  0.27423255477E+03  0.31857957327E+03  0.12500000000E+03 0.  0.
</event>
<event>
 5    0  0.5684733E-005  0.6530911E+03  0.7546771E-02  0.9800996E-01
         21   -1    0    0  502  501  0.00000000000E+00  0.00000000000E+00  0.26911526286E+03  0.26911526286E+03  0.00000000000E+00 0.  1.
         21   -1    0    0  501  502 -0.00000000000E+00 -0.00000000000E+00 -0.15849269817E+04  0.15849269817E+04  0.00000000000E+00 0.  1.
         25    1    1    2    0    0 -0.50843022508E+03 -0.23311561292E+03 -0.56226880627E+03  0.80287943881E+03  0.12500000000E+03 0.  0.
         25    1    1    2    0    0  0.42542253857E+03  0.14702820471E+03 -0.74324934558E+03  0.87786457897E+03  0.12500000000E+03 0.  0.
         25    1    1    2    0    0  0.83007686504E+02  0.86087408216E+02 -0.10293566956E+02  0.17329822674E+03  0.12500000000E+03 0.  0.
</event>
<event>
 5    0  0.5684733E-005  0.2152370E+03  0.7546771E-02  0.1137485E+00
         21   -1    0    0  502  501  0.00000000000E+00  0.00000000000E+00  0.13608862263E+03  0.13608862263E+03  0.00000000000E+00 0. -1.
         21   -1    0    0  501  502 -0.00000000000E+00 -0.00000000000E+00 -0.34041755253E+03  0.34041755253E+03  0.00000000000E+00 0. -1.
         25    1    1    2    0    0  0.56598521996E+02  0.11224328950E+02 -0.12773644600E+03  0.18780569185E+03  0.12500000000E+03 0.  0.
         25    1    1    2    0    0 -0.62269404200E+02 -0.32106347864E+02 -0.57690803677E+01  0.14341052458E+03  0.12500000000E+03 0.  0.
         25    1    1    2    0    0  0.56708822039E+01  0.20882018914E+02 -0.70823403535E+02  0.14528995873E+03  0.12500000000E+03 0.  0.
</event>
<event>
 5    0  0.5684733E-005  0.3160425E+03  0.7546771E-02  0.1077485E+00
         21   -1    0    0  502  501  0.00000000000E+00  0.00000000000E+00  0.13444954210E+04  0.13444954210E+04  0.00000000000E+00 0.  1.
         21   -1    0    0  501  502 -0.00000000000E+00 -0.00000000000E+00 -0.74290235272E+02  0.74290235272E+02  0.00000000000E+00 0.  1.
         25    1    1    2    0    0  0.64363266892E+02  0.35575460844E+01  0.10333313509E+04  0.10428585556E+04  0.12500000000E+03 0.  0.
         25    1    1    2    0    0 -0.10146867910E+03  0.60030236732E+01  0.13449358872E+03  0.20987008967E+03  0.12500000000E+03 0.  0.
         25    1    1    2    0    0  0.37105412210E+02 -0.95605697576E+01  0.10238024614E+03  0.16605701102E+03  0.12500000000E+03 0.  0.
</event>
<event>
 5    0  0.5684733E-005  0.3095919E+03  0.7546771E-02  0.1080542E+00
         21   -1    0    0  502  501  0.00000000000E+00  0.00000000000E+00  0.69041028152E+03  0.69041028152E+03  0.00000000000E+00 0.  1.
         21   -1    0    0  501  502 -0.00000000000E+00 -0.00000000000E+00 -0.13882639621E+03  0.13882639621E+03  0.00000000000E+00 0.  1.
         25    1    1    2    0    0  0.17747522320E+03 -0.64493792260E+02  0.15897673337E+03  0.27668665643E+03  0.12500000000E+03 0.  0.
         25    1    1    2    0    0 -0.12187987354E+03  0.66649638734E+02  0.65567734035E+02  0.19804293894E+03  0.12500000000E+03 0.  0.
         25    1    1    2    0    0 -0.55595349656E+02 -0.21558464748E+01  0.32703941791E+03  0.35450708236E+03  0.12500000000E+03 0.  0.
</event>
<event>
 5    0  0.5684733E-005  0.3230634E+03  0.7546771E-02  0.1074248E+00
         21   -1    0    0  502  501  0.00000000000E+00  0.00000000000E+00  0.51710691373E+02  0.51710691373E+02  0.00000000000E+00 0. -1.
         21   -1    0    0  501  502 -0.00000000000E+00 -0.00000000000E+00 -0.20183441282E+04  0.20183441282E+04  0.00000000000E+00 0. -1.
         25    1    1    2    0    0  0.93056117733E+02  0.25597002827E+02 -0.33538243537E+03  0.37070341994E+03  0.12500000000E+03 0.  0.
         25    1    1    2    0    0  0.91081817126E+02  0.13216891422E+03 -0.69361905560E+03  0.72283947982E+03  0.12500000000E+03 0.  0.
         25    1    1    2    0    0 -0.18413793486E+03 -0.15776591705E+03 -0.93763194583E+03  0.97651191979E+03  0.12500000000E+03 0.  0.
</event>
<event>
 5    0  0.5684733E-005  0.5451250E+03  0.7546771E-02  0.1002629E+00
         21   -1    0    0  502  501  0.00000000000E+00  0.00000000000E+00  0.19023921243E+03  0.19023921243E+03  0.00000000000E+00 0.  1.
         21   -1    0    0  501  502 -0.00000000000E+00 -0.00000000000E+00 -0.15620398018E+04  0.15620398018E+04  0.00000000000E+00 0.  1.
         25    1    1    2    0    0 -0.61479626123E+02  0.29384806228E+02 -0.62293830399E+02  0.15539862474E+03  0.12500000000E+03 0.  0.
         25    1    1    2    0    0 -0.37736983031E+03 -0.61513827403E+02 -0.34718025226E+03  0.53136716811E+03  0.12500000000E+03 0.  0.
         25    1    1    2    0    0  0.43884945643E+03  0.32129021175E+02 -0.96232650673E+03  0.10655132214E+04  0.12500000000E+03 0.  0.
</event>
<event>
 5    0  0.5684733E-005  0.3262543E+03  0.7546771E-02  0.1072806E+00
         21   -1    0    0  502  501  0.00000000000E+00  0.00000000000E+00  0.20431465783E+03  0.20431465783E+03  0.00000000000E+00 0. -1.
         21   -1    0    0  501  502 -0.00000000000E+00 -0.00000000000E+00 -0.52097027437E+03  0.52097027437E+03  0.00000000000E+00 0. -1.
         25    1    1    2    0    0  0.73538144499E+02 -0.10303273830E+02  0.55343881158E+02  0.15556979569E+03  0.12500000000E+03 0.  0.
         25    1    1    2    0    0  0.41090989335E+01  0.16993658098E+03 -0.21902249788E+03  0.30412362754E+03  0.12500000000E+03 0.  0.
         25    1    1    2    0    0 -0.77647243432E+02 -0.15963330715E+03 -0.15297699982E+03  0.26559150897E+03  0.12500000000E+03 0.  0.
</event>
<event>
 5    0  0.5684733E-005  0.3057368E+03  0.7546771E-02  0.1082407E+00
         21   -1    0    0  502  501  0.00000000000E+00  0.00000000000E+00  0.42056922595E+03  0.42056922595E+03  0.00000000000E+00 0.  1.
         21   -1    0    0  501  502 -0.00000000000E+00 -0.00000000000E+00 -0.22225832150E+03  0.22225832150E+03  0.00000000000E+00 0.  1.
         25    1    1    2    0    0  0.11770622792E+03 -0.31102421123E+02 -0.10313490641E+03  0.20269170089E+03  0.12500000000E+03 0.  0.
         25    1    1    2    0    0 -0.23965761365E+02 -0.58948493673E+02  0.12643647409E+03  0.18883978555E+03  0.12500000000E+03 0.  0.
         25    1    1    2    0    0 -0.93740466555E+02  0.90050914796E+02  0.17500933677E+03  0.25129606101E+03  0.12500000000E+03 0.  0.
</event>
<event>
 5    0  0.5684733E-005  0.3086460E+03  0.7546771E-02  0.1080997E+00
         21   -1    0    0  502  501  0.00000000000E+00  0.00000000000E+00  0.10477090077E+04  0.10477090077E+04  0.00000000000E+00 0. -1.
         21   -1    0    0  501  502 -0.00000000000E+00 -0.00000000000E+00 -0.90924452629E+02  0.90924452629E+02  0.00000000000E+00 0. -1.
         25    1    1    2    0    0  0.82271988574E+02  0.30511588548E+02  0.11678944575E+03  0.19226131118E+03  0.12500000000E+03 0.  0.
         25    1    1    2    0    0 -0.14413020995E+03  0.32981733076E+02  0.73633272415E+03  0.76136206419E+03  0.12500000000E+03 0.  0.
         25    1    1    2    0    0  0.61858221371E+02 -0.63493321624E+02  0.10366238521E+03  0.18501008500E+03  0.12500000000E+03 0.  0.
</event>
<event>
 5    0  0.5684733E-005  0.4424276E+03  0.7546771E-02  0.1030005E+00
         21   -1    0    0  502  501  0.00000000000E+00  0.00000000000E+00  0.24123366443E+03  0.24123366443E+03  0.00000000000E+00 0.  1.
         21   -1    0    0  501  502 -0.00000000000E+00 -0.00000000000E+00 -0.81142137624E+03  0.81142137624E+03  0.00000000000E+00 0.  1.
         25    1    1    2    0    0 -0.12889853355E+03 -0.19331903908E+03 -0.58335187242E+03  0.64024330522E+03  0.12500000000E+03 0.  0.
         25    1    1    2    0    0  0.97571475172E+01  0.19926923138E+03  0.35836983441E+02  0.23814432155E+03  0.12500000000E+03 0.  0.
         25    1    1    2    0    0  0.11914138603E+03 -0.59501923039E+01 -0.22672822833E+02  0.17426741390E+03  0.12500000000E+03 0.  0.
</event>
<event>
 5    0  0.5684733E-005  0.3425080E+03  0.7546771E-02  0.1065733E+00
         21   -1    0    0  502  501  0.00000000000E+00  0.00000000000E+00  0.29205159971E+03  0.29205159971E+03  0.00000000000E+00 0.  1.
         21   -1    0    0  501  502 -0.00000000000E+00 -0.00000000000E+00 -0.40168150200E+03  0.40168150200E+03  0.00000000000E+00 0.  1.
         25    1    1    2    0    0 -0.71911389422E+02  0.85095813512E+02 -0.10424935338E+03  0.19724470357E+03  0.12500000000E+03 0.  0.
         25    1    1    2    0    0 -0.10128313919E+03  0.11553636394E+03  0.33477030672E+02  0.20087965865E+03  0.12500000000E+03 0.  0.
         25    1    1    2    0    0  0.17319452861E+03 -0.20063217745E+03 -0.38857579585E+02  0.29560873949E+03  0.12500000000E+03 0.  0.
</event>
<event>
 5    0  0.5684733E-005  0.2576802E+03  0.7546771E-02  0.1108545E+00
         21   -1    0    0  502  501  0.00000000000E+00  0.00000000000E+00  0.95536632339E+02  0.95536632339E+02  0.00000000000E+00 0.  1.
         21   -1    0    0  501  502 -0.00000000000E+00 -0.00000000000E+00 -0.69501192307E+03  0.69501192307E+03  0.00000000000E+00 0.  1.
         25    1    1    2    0    0 -0.61874113305E+02 -0.11165230245E+01 -0.31884407957E+03  0.34801752772E+03  0.12500000000E+03 0.  0.
         25    1    1    2    0    0 -0.18252690377E+02 -0.20078648064E+02 -0.41372380137E+01  0.12797823859E+03  0.12500000000E+03 0.  0.
         25    1    1    2    0    0  0.80126803682E+02  0.21195171088E+02 -0.27649397315E+03  0.31455278910E+03  0.12500000000E+03 0.  0.
</event>
<event>
 5    0  0.5684733E-005  0.2619945E+03  0.7546771E-02  0.1105951E+00
         21   -1    0    0  502  501  0.00000000000E+00  0.00000000000E+00  0.61832961666E+03  0.61832961666E+03  0.00000000000E+00 0. -1.
         21   -1    0    0  501  502 -0.00000000000E+00 -0.00000000000E+00 -0.11101052064E+03  0.11101052064E+03  0.00000000000E+00 0. -1.
         25    1    1    2    0    0 -0.92503679207E+02 -0.90105004051E+02  0.12195914131E+03  0.21719777755E+03  0.12500000000E+03 0.  0.
         25    1    1    2    0    0 -0.12533779926E+02  0.60619592765E+02  0.70611294063E+02  0.15634188663E+03  0.12500000000E+03 0.  0.
         25    1    1    2    0    0  0.10503745913E+03  0.29485411286E+02  0.31474866065E+03  0.35580047313E+03  0.12500000000E+03 0.  0.
</event>
<event>
 5    0  0.6060324E-005  0.2435750E+03  0.7546771E-02  0.1117434E+00
         21   -1    0    0  502  501  0.00000000000E+00  0.00000000000E+00  0.14061038679E+03  0.14061038679E+03  0.00000000000E+00 0. -1.
         21   -1    0    0  501  502 -0.00000000000E+00 -0.00000000000E+00 -0.42193726927E+03  0.42193726927E+03  0.00000000000E+00 0. -1.
         25    1    1    2    0    0  0.24494686308E+01 -0.17596017995E+02 -0.50896479153E+02  0.13612887767E+03  0.12500000000E+03 0.  0.
         25    1    1    2    0    0  0.30526308475E+02 -0.34253680657E+02 -0.25243869156E+03  0.28540403491E+03  0.12500000000E+03 0.  0.
         25    1    1    2    0    0 -0.32975777106E+02  0.51849698653E+02  0.22008288234E+02  0.14101474347E+03  0.12500000000E+03 0.  0.
</event>
<event>
 5    0  0.5852478E-005  0.4024668E+03  0.7546771E-02  0.1042929E+00
         21   -1    0    0  502  501  0.00000000000E+00  0.00000000000E+00  0.36030428817E+03  0.36030428817E+03  0.00000000000E+00 0.  1.
         21   -1    0    0  501  502 -0.00000000000E+00 -0.00000000000E+00 -0.44956304951E+03  0.44956304951E+03  0.00000000000E+00 0.  1.
         25    1    1    2    0    0  0.85642564303E+02 -0.13781688674E+03  0.13235455510E+03  0.24386650312E+03  0.12500000000E+03 0.  0.
         25    1    1    2    0    0  0.10012803729E+03  0.22041618627E+03 -0.63633793527E+02  0.27979131277E+03  0.12500000000E+03 0.  0.
         25    1    1    2    0    0 -0.18577060160E+03 -0.82599299530E+02 -0.15797952291E+03  0.28620952178E+03  0.12500000000E+03 0.  0.
</event>
<event>
 5    0  0.5684733E-005  0.2518461E+03  0.7546771E-02  0.1112144E+00
         21   -1    0    0  502  501  0.00000000000E+00  0.00000000000E+00  0.61461806136E+03  0.61461806136E+03  0.00000000000E+00 0. -1.
         21   -1    0    0  501  502 -0.00000000000E+00 -0.00000000000E+00 -0.10319654226E+03  0.10319654226E+03  0.00000000000E+00 0. -1.
         25    1    1    2    0    0 -0.24044826851E+02 -0.85278236130E+02  0.62969793893E+02  0.16565242588E+03  0.12500000000E+03 0.  0.
         25    1    1    2    0    0 -0.43527771301E+00  0.46030487316E+02  0.69070086805E+02  0.15004889910E+03  0.12500000000E+03 0.  0.
         25    1    1    2    0    0  0.24480104564E+02  0.39247748814E+02  0.37938163840E+03  0.40211327865E+03  0.12500000000E+03 0.  0.
</event>
<event>
 5    0  0.5684733E-005  0.5605941E+03  0.7546771E-02  0.9990711E-01
         21   -1    0    0  502  501  0.00000000000E+00  0.00000000000E+00  0.98483123486E+03  0.98483123486E+03  0.00000000000E+00 0. -1.
         21   -1    0    0  501  502 -0.00000000000E+00 -0.00000000000E+00 -0.31910620599E+03  0.31910620599E+03  0.00000000000E+00 0. -1.
         25    1    1    2    0    0  0.22336172580E+02 -0.27383163769E+03  0.39047014114E+03  0.49353277655E+03  0.12500000000E+03 0.  0.
         25    1    1    2    0    0  0.13394771636E+03  0.42273776677E+03  0.31771623098E+02  0.46182642433E+03  0.12500000000E+03 0.  0.
         25    1    1    2    0    0 -0.15628388895E+03 -0.14890612908E+03  0.24348326464E+03  0.34857823997E+03  0.12500000000E+03 0.  0.
</event>
<event>
 5    0  0.5684733E-005  0.3948180E+03  0.7546771E-02  0.1045589E+00
         21   -1    0    0  502  501  0.00000000000E+00  0.00000000000E+00  0.28015050898E+03  0.28015050898E+03  0.00000000000E+00 0.  1.
         21   -1    0    0  501  502 -0.00000000000E+00 -0.00000000000E+00 -0.55641971357E+03  0.55641971357E+03  0.00000000000E+00 0.  1.
         25    1    1    2    0    0 -0.14125649659E+03  0.24202148631E+02 -0.18957285189E+02  0.19111127777E+03  0.12500000000E+03 0.  0.
         25    1    1    2    0    0 -0.14020978420E+03 -0.16628802583E+03 -0.83894790824E+02  0.26452566426E+03  0.12500000000E+03 0.  0.
         25    1    1    2    0    0  0.28146628080E+03  0.14208587720E+03 -0.17341712858E+03  0.38093328052E+03  0.12500000000E+03 0.  0.
</event>
<event>
 5    0  0.5684733E-005  0.3916670E+03  0.7546771E-02  0.1046704E+00
         21   -1    0    0  502  501  0.00000000000E+00  0.00000000000E+00  0.78669147652E+02  0.78669147652E+02  0.00000000000E+00 0.  1.
         21   -1    0    0  501  502 -0.00000000000E+00 -0.00000000000E+00 -0.19499766487E+04  0.19499766487E+04  0.00000000000E+00 0.  1.
         25    1    1    2    0    0 -0.11586387019E+03  0.19551381771E+03 -0.84389452895E+03  0.88285506474E+03  0.12500000000E+03 0.  0.
         25    1    1    2    0    0 -0.86069030555E+02 -0.45374023102E+02 -0.12843927544E+03  0.20393216389E+03  0.12500000000E+03 0.  0.
         25    1    1    2    0    0  0.20193290075E+03 -0.15013979460E+03 -0.89897369669E+03  0.94185856776E+03  0.12500000000E+03 0.  0.
</event>
<event>
 5    0  0.5684733E-005  0.7338915E+03  0.7546771E-02  0.9660966E-01
         21   -1    0    0  502  501  0.00000000000E+00  0.00000000000E+00  0.22683544793E+03  0.22683544793E+03  0.00000000000E+00 0.  1.
         21   -1    0    0  501  502 -0.00000000000E+00 -0.00000000000E+00 -0.23743941764E+04  0.23743941764E+04  0.00000000000E+00 0.  1.
         25    1    1    2    0    0  0.43255507144E+03  0.31403019563E+03 -0.74073266488E+03  0.92197002902E+03  0.12500000000E+03 0.  0.
         25    1    1    2    0    0  0.40891839739E+02 -0.37777129473E+03 -0.44692281075E+03  0.59979020703E+03  0.12500000000E+03 0.  0.
         25    1    1    2    0    0 -0.47344691118E+03  0.63741099102E+02 -0.95990325283E+03  0.10794693883E+04  0.12500000000E+03 0.  0.
</event>
<event>
 5    0  0.5684733E-005  0.3095592E+03  0.7546771E-02  0.1080557E+00
         21   -1    0    0  502  501  0.00000000000E+00  0.00000000000E+00  0.22840104813E+03  0.22840104813E+03  0.00000000000E+00 0.  1.
         21   -1    0    0  501  502 -0.00000000000E+00 -0.00000000000E+00 -0.41955541572E+03  0.41955541572E+03  0.00000000000E+00 0.  1.
         25    1    1    2    0    0 -0.14520400357E+03  0.16592553169E+03 -0.77360762048E+02  0.26500032495E+03  0.12500000000E+03 0.  0.
         25    1    1    2    0    0  0.93470760406E+01 -0.54084449410E+02 -0.94939394943E+02  0.16628585090E+03  0.12500000000E+03 0.  0.
         25    1    1    2    0    0  0.13585692753E+03 -0.11184108228E+03 -0.18854210601E+02  0.21667028800E+03  0.12500000000E+03 0.  0.
</event>
<event>
 5    0  0.5684733E-005  0.4080365E+03  0.7546771E-02  0.1041032E+00
         21   -1    0    0  502  501  0.00000000000E+00  0.00000000000E+00  0.49517482063E+03  0.49517482063E+03  0.00000000000E+00 0.  1.
         21   -1    0    0  501  502 -0.00000000000E+00 -0.00000000000E+00 -0.33623238345E+03  0.33623238345E+03  0.00000000000E+00 0.  1.
         25    1    1    2    0    0  0.19534340426E+03 -0.18013557651E+03 -0.69518363187E+02  0.30177089709E+03  0.12500000000E+03 0.  0.
         25    1    1    2    0    0 -0.12126564884E+03  0.32632214041E+01 -0.38074816976E+02  0.17829946127E+03  0.12500000000E+03 0.  0.
         25    1    1    2    0    0 -0.74077755421E+02  0.17687235511E+03  0.26653561734E+03  0.35133684572E+03  0.12500000000E+03 0.  0.
</event>
<event>
 5    0  0.5684733E-005  0.3451873E+03  0.7546771E-02  0.1064608E+00
         21   -1    0    0  502  501  0.00000000000E+00  0.00000000000E+00  0.26115043450E+03  0.26115043450E+03  0.00000000000E+00 0. -1.
         21   -1    0    0  501  502 -0.00000000000E+00 -0.00000000000E+00 -0.45626682221E+03  0.45626682221E+03  0.00000000000E+00 0. -1.
         25    1    1    2    0    0  0.86437421223E+02  0.22346242313E+03  0.71298988714E+02  0.27949137398E+03  0.12500000000E+03 0.  0.
         25    1    1    2    0    0 -0.27963863785E+02 -0.10288913612E+03 -0.12801763232E+03  0.20828265937E+03  0.12500000000E+03 0.  0.
         25    1    1    2    0    0 -0.58473557438E+02 -0.12057328701E+03 -0.13839774410E+03  0.22964322335E+03  0.12500000000E+03 0.  0.
</event>
<event>
 5    0  0.5684733E-005  0.2876127E+03  0.7546771E-02  0.1091602E+00
         21   -1    0    0  502  501  0.00000000000E+00  0.00000000000E+00  0.45795434784E+03  0.45795434784E+03  0.00000000000E+00 0. -1.
         21   -1    0    0  501  502 -0.00000000000E+00 -0.00000000000E+00 -0.18063168315E+03  0.18063168315E+03  0.00000000000E+00 0. -1.
         25    1    1    2    0    0  0.11452244260E+03  0.15074925222E+03  0.68584152279E+02  0.23700108195E+03  0.12500000000E+03 0.  0.
         25    1    1    2    0    0  0.16618294655E+02 -0.49094048361E+02  0.83909973719E+02  0.15922398372E+03  0.12500000000E+03 0.  0.
         25    1    1    2    0    0 -0.13114073725E+03 -0.10165520386E+03  0.12482853869E+03  0.24236096532E+03  0.12500000000E+03 0.  0.
</event>
<event>
 5    0  0.5684733E-005  0.2888771E+03  0.7546771E-02  0.1090937E+00
         21   -1    0    0  502  501  0.00000000000E+00  0.00000000000E+00  0.15668711198E+04  0.15668711198E+04  0.00000000000E+00 0. -1.
         21   -1    0    0  501  502 -0.00000000000E+00 -0.00000000000E+00 -0.53258978539E+02  0.53258978539E+02  0.00000000000E+00 0. -1.
         25    1    1    2    0    0  0.16949100650E+03 -0.86084199281E+01  0.46003604139E+03  0.50602318678E+03  0.12500000000E+03 0.  0.
         25    1    1    2    0    0 -0.15812314798E+03  0.74070857929E+02  0.72976691010E+03  0.76070635925E+03  0.12500000000E+03 0.  0.
         25    1    1    2    0    0 -0.11367858520E+02 -0.65462438001E+02  0.32380918979E+03  0.35340055233E+03  0.12500000000E+03 0.  0.
</event>
<event>
 5    0  0.5684733E-005  0.4700184E+03  0.7546771E-02  0.1021915E+00
         21   -1    0    0  502  501  0.00000000000E+00  0.00000000000E+00  0.70393221463E+02  0.70393221463E+02  0.00000000000E+00 0. -1.
         21   -1    0    0  501  502 -0.00000000000E+00 -0.00000000000E+00 -0.31383323610E+04  0.31383323610E+04  0.00000000000E+00 0. -1.
         25    1    1    2    0    0 -0.11652702606E+03 -0.26973529519E+03 -0.12576398463E+04  0.12975433173E+04  0.12500000000E+03 0.  0.
         25    1    1    2    0    0  0.39569920794E+02 -0.47943104525E+02 -0.11714943617E+03  0.18224519280E+03  0.12500000000E+03 0.  0.
         25    1    1    2    0    0  0.76957105267E+02  0.31767839972E+03 -0.16931498570E+04  0.17289370723E+04  0.12500000000E+03 0.  0.
</event>
<event>
 5    0  0.5684733E-005  0.2238219E+03  0.7546771E-02  0.1131065E+00
         21   -1    0    0  502  501  0.00000000000E+00  0.00000000000E+00  0.28148628208E+03  0.28148628208E+03  0.00000000000E+00 0.  1.
         21   -1    0    0  501  502 -0.00000000000E+00 -0.00000000000E+00 -0.17797045072E+03  0.17797045072E+03  0.00000000000E+00 0.  1.
         25    1    1    2    0    0 -0.43931710476E+02 -0.84610752967E+02  0.98453573502E+02  0.18549145759E+03  0.12500000000E+03 0.  0.
         25    1    1    2    0    0  0.10128550819E+02  0.30919471739E+02  0.27338303050E+02  0.13202645223E+03  0.12500000000E+03 0.  0.
         25    1    1    2    0    0  0.33803159657E+02  0.53691281228E+02 -0.22276045191E+02  0.14193882299E+03  0.12500000000E+03 0.  0.
</event>
<event>
 5    0  0.5684733E-005  0.3568125E+03  0.7546771E-02  0.1059853E+00
         21   -1    0    0  502  501  0.00000000000E+00  0.00000000000E+00  0.31026820630E+03  0.31026820630E+03  0.00000000000E+00 0.  1.
         21   -1    0    0  501  502 -0.00000000000E+00 -0.00000000000E+00 -0.41033905119E+03  0.41033905119E+03  0.00000000000E+00 0.  1.
         25    1    1    2    0    0 -0.13300620566E+03 -0.11354726223E+03 -0.15276160872E+03  0.26371336827E+03  0.12500000000E+03 0.  0.
         25    1    1    2    0    0  0.13374018935E+02  0.15728675389E+03 -0.97429006632E+02  0.22368593757E+03  0.12500000000E+03 0.  0.
         25    1    1    2    0    0  0.11963218672E+03 -0.43739491663E+02  0.15011977046E+03  0.23320795165E+03  0.12500000000E+03 0.  0.
</event>
<event>
 5    0  0.6436363E-005  0.4282374E+03  0.7546771E-02  0.1034418E+00
         21   -1    0    0  502  501  0.00000000000E+00  0.00000000000E+00  0.18529880247E+03  0.18529880247E+03  0.00000000000E+00 0.  1.
         21   -1    0    0  501  502 -0.00000000000E+00 -0.00000000000E+00 -0.98968397290E+03  0.98968397290E+03  0.00000000000E+00 0.  1.
         25    1    1    2    0    0  0.20650729677E+03  0.67790595351E+02 -0.33766978576E+03  0.42057902070E+03  0.12500000000E+03 0.  0.
         25    1    1    2    0    0 -0.47213765158E+02  0.13843154463E+03  0.14634579587E+02  0.19295492502E+03  0.12500000000E+03 0.  0.
         25    1    1    2    0    0 -0.15929353161E+03 -0.20622213998E+03 -0.48134996425E+03  0.56144882965E+03  0.12500000000E+03 0.  0.
</event>
<event>
 5    0  0.5684733E-005  0.4919590E+03  0.7546771E-02  0.1015899E+00
         21   -1    0    0  502  501  0.00000000000E+00  0.00000000000E+00  0.11361253325E+04  0.11361253325E+04  0.00000000000E+00 0. -1.
         21   -1    0    0  501  502 -0.00000000000E+00 -0.00000000000E+00 -0.21302546642E+03  0.21302546642E+03  0.00000000000E+00 0. -1.
         25    1    1    2    0    0 -0.17532744159E+03  0.23855612869E+03  0.25023136911E+03  0.40729531841E+03  0.12500000000E+03 0.  0.
         25    1    1    2    0    0 -0.15081664424E+03 -0.10120116308E+03  0.69308131415E+02  0.23111891457E+03  0.12500000000E+03 0.  0.
         25    1    1    2    0    0  0.32614408583E+03 -0.13735496561E+03  0.60356036551E+03  0.71073656591E+03  0.12500000000E+03 0.  0.
</event>
<event>
 5    0  0.5684733E-005  0.2369319E+03  0.7546771E-02  0.1121854E+00
         21   -1    0    0  502  501  0.00000000000E+00  0.00000000000E+00  0.29955994949E+03  0.29955994949E+03  0.00000000000E+00 0. -1.
         21   -1    0    0  501  502 -0.00000000000E+00 -0.00000000000E+00 -0.18739726147E+03  0.18739726147E+03  0.00000000000E+00 0. -1.
         25    1    1    2    0    0  0.97701961677E+02  0.25034102203E+02  0.11481317040E+03  0.19743212425E+03  0.12500000000E+03 0.  0.
         25    1    1    2    0    0 -0.19647570590E+02  0.15422226599E+02  0.34892384136E+02  0.13216032148E+03  0.12500000000E+03 0.  0.
         25    1    1    2    0    0 -0.78054391087E+02 -0.40456328802E+02 -0.37542866513E+02  0.15736476522E+03  0.12500000000E+03 0.  0.
</event>
<event>
 5    0  0.5684733E-005  0.2763503E+03  0.7546771E-02  0.1097699E+00
         21   -1    0    0  502  501  0.00000000000E+00  0.00000000000E+00  0.90880989383E+02  0.90880989383E+02  0.00000000000E+00 0. -1.
         21   -1    0    0  501  502 -0.00000000000E+00 -0.00000000000E+00 -0.84032409977E+03  0.84032409977E+03  0.00000000000E+00 0. -1.
         25    1    1    2    0    0 -0.57472814329E+00 -0.12290004393E+02 -0.78896292437E+02  0.14832733895E+03  0.12500000000E+03 0.  0.
         25    1    1    2    0    0 -0.12562105068E+03  0.87176739036E+02 -0.44047602760E+03  0.48272617817E+03  0.12500000000E+03 0.  0.
         25    1    1    2    0    0  0.12619577883E+03 -0.74886734643E+02 -0.23007079035E+03  0.30015157203E+03  0.12500000000E+03 0.  0.
</event>
<event>
 5    0  0.5684733E-005  0.2568303E+03  0.7546771E-02  0.1109063E+00
         21   -1    0    0  502  501  0.00000000000E+00  0.00000000000E+00  0.13380046087E+03  0.13380046087E+03  0.00000000000E+00 0. -1.
         21   -1    0    0  501  502 -0.00000000000E+00 -0.00000000000E+00 -0.49298629853E+03  0.49298629853E+03  0.00000000000E+00 0. -1.
         25    1    1    2    0    0  0.41458553162E+01  0.10784022926E+02 -0.12373481445E+03  0.17626340395E+03  0.12500000000E+03 0.  0.
         25    1    1    2    0    0 -0.13195367040E+03 -0.31067336849E+02 -0.19038693188E+03  0.26504553266E+03  0.12500000000E+03 0.  0.
         25    1    1    2    0    0  0.12780781508E+03  0.20283313923E+02 -0.45064091335E+02  0.18547782279E+03  0.12500000000E+03 0.  0.
</event>
<event>
 5    0  0.5684733E-005  0.4020680E+03  0.7546771E-02  0.1043066E+00
         21   -1    0    0  502  501  0.00000000000E+00  0.00000000000E+00  0.76530699403E+03  0.76530699403E+03  0.00000000000E+00 0.  1.
         21   -1    0    0  501  502 -0.00000000000E+00 -0.00000000000E+00 -0.21123380720E+03  0.21123380720E+03  0.00000000000E+00 0.  1.
         25    1    1    2    0    0 -0.18236981179E+02 -0.17313589792E+03  0.19788136942E+03  0.29170303906E+03  0.12500000000E+03 0.  0.
         25    1    1    2    0    0 -0.18422147040E+02  0.10851476990E+03 -0.10793256620E+03  0.19846730117E+03  0.12500000000E+03 0.  0.
         25    1    1    2    0    0  0.36659128218E+02  0.64621128025E+02  0.46412438361E+03  0.48637046100E+03  0.12500000000E+03 0.  0.
</event>
<event>
 5    0  0.5684733E-005  0.2266253E+03  0.7546771E-02  0.1129038E+00
         21   -1    0    0  502  501  0.00000000000E+00  0.00000000000E+00  0.62573806741E+03  0.62573806741E+03  0.00000000000E+00 0. -1.
         21   -1    0    0  501  502 -0.00000000000E+00 -0.00000000000E+00 -0.82077497557E+02  0.82077497557E+02  0.00000000000E+00 0. -1.
         25    1    1    2    0    0  0.62867248764E+02  0.32018193909E+02  0.77622194036E+02  0.16317984163E+03  0.12500000000E+03 0.  0.
         25    1    1    2    0    0  0.60301216323E+01 -0.51044899570E+02  0.18822129242E+03  0.23172008774E+03  0.12500000000E+03 0.  0.
         25    1    1    2    0    0 -0.68897370396E+02  0.19026705661E+02  0.27781708339E+03  0.31291563559E+03  0.12500000000E+03 0.  0.
</event>
<event>
 5    0  0.5684733E-005  0.3707764E+03  0.7546771E-02  0.1054396E+00
         21   -1    0    0  502  501  0.00000000000E+00  0.00000000000E+00  0.58632796720E+03  0.58632796720E+03  0.00000000000E+00 0. -1.
         21   -1    0    0  501  502 -0.00000000000E+00 -0.00000000000E+00 -0.23446801521E+03  0.23446801521E+03  0.00000000000E+00 0. -1.
         25    1    1    2    0    0 -0.10582797498E+03  0.57043687276E+02  0.17361284111E+03  0.24539755733E+03  0.12500000000E+03 0.  0.
         25    1    1    2    0    0 -0.89860860210E+02 -0.15156979517E+03  0.23409096942E+03  0.31854663547E+03  0.12500000000E+03 0.  0.
         25    1    1    2    0    0  0.19568883519E+03  0.94526107894E+02 -0.55843858534E+02  0.25685178961E+03  0.12500000000E+03 0.  0.
</event>
<event>
 5    0  0.5684733E-005  0.5410817E+03  0.7546771E-02  0.1003579E+00
         21   -1    0    0  502  501  0.00000000000E+00  0.00000000000E+00  0.30521357116E+03  0.30521357116E+03  0.00000000000E+00 0. -1.
         21   -1    0    0  501  502 -0.00000000000E+00 -0.00000000000E+00 -0.95922815109E+03  0.95922815109E+03  0.00000000000E+00 0. -1.
         25    1    1    2    0    0 -0.19592096440E+03 -0.19581376176E+03  0.56574602622E+02  0.30911767864E+03  0.12500000000E+03 0.  0.
         25    1    1    2    0    0 -0.35395958347E+02 -0.15353432187E+03 -0.23383145745E+03  0.30842796947E+03  0.12500000000E+03 0.  0.
         25    1    1    2    0    0  0.23131692275E+03  0.34934808363E+03 -0.47675772511E+03  0.64689607414E+03  0.12500000000E+03 0.  0.
</event>
<event>
 5    0  0.5684733E-005  0.3833823E+03  0.7546771E-02  0.1049691E+00
         21   -1    0    0  502  501  0.00000000000E+00  0.00000000000E+00  0.52928036819E+03  0.52928036819E+03  0.00000000000E+00 0.  1.
         21   -1    0    0  501  502 -0.00000000000E+00 -0.00000000000E+00 -0.27770158645E+03  0.27770158645E+03  0.00000000000E+00 0.  1.
         25    1    1    2    0    0 -0.66288771934E+02  0.67576393678E+02 -0.27946205154E+02  0.15926945925E+03  0.12500000000E+03 0.  0.
         25    1    1    2    0    0 -0.22386189052E+03  0.78557112582E+01  0.15586504277E+03  0.30015790808E+03  0.12500000000E+03 0.  0.
         25    1    1    2    0    0  0.29015066245E+03 -0.75432104936E+02  0.12365994412E+03  0.34755458731E+03  0.12500000000E+03 0.  0.
</event>
<event>
 5    0  0.5684733E-005  0.4326740E+03  0.7546771E-02  0.1033019E+00
         21   -1    0    0  502  501  0.00000000000E+00  0.00000000000E+00  0.12080179746E+04  0.12080179746E+04  0.00000000000E+00 0. -1.
         21   -1    0    0  501  502 -0.00000000000E+00 -0.00000000000E+00 -0.15497019709E+03  0.15497019709E+03  0.00000000000E+00 0. -1.
         25    1    1    2    0    0  0.12223593952E+03 -0.73791826622E+02  0.41710423387E+03  0.45824425855E+03  0.12500000000E+03 0.  0.
         25    1    1    2    0    0  0.95928370360E+02  0.27090401228E+03  0.23305365047E+03  0.39055120037E+03  0.12500000000E+03 0.  0.
         25    1    1    2    0    0 -0.21816430988E+03 -0.19711218566E+03  0.40288989315E+03  0.51419271275E+03  0.12500000000E+03 0.  0.
</event>
<event>
 5    0  0.5684733E-005  0.1969475E+03  0.7546771E-02  0.1152340E+00
         21   -1    0    0  502  501  0.00000000000E+00  0.00000000000E+00  0.27868150082E+03  0.27868150082E+03  0.00000000000E+00 0. -1.
         21   -1    0    0  501  502 -0.00000000000E+00 -0.00000000000E+00 -0.13918510039E+03  0.13918510039E+03  0.00000000000E+00 0. -1.
         25    1    1    2    0    0 -0.35943908512E+01 -0.42119415248E+02  0.17683088361E+02  0.13313397914E+03  0.12500000000E+03 0.  0.
         25    1    1    2    0    0 -0.17891181333E+02  0.13803382716E+02  0.52497033160E+02  0.13744659412E+03  0.12500000000E+03 0.  0.
         25    1    1    2    0    0  0.21485572184E+02  0.28316032533E+02  0.69316278905E+02  0.14728602796E+03  0.12500000000E+03 0.  0.
</event>
<event>
 5    0  0.5684733E-005  0.3301823E+03  0.7546771E-02  0.1071056E+00
         21   -1    0    0  502  501  0.00000000000E+00  0.00000000000E+00  0.17519773388E+04  0.17519773388E+04  0.00000000000E+00 0. -1.
         21   -1    0    0  501  502 -0.00000000000E+00 -0.00000000000E+00 -0.62227038741E+02  0.62227038741E+02  0.00000000000E+00 0. -1.
         25    1    1    2    0    0  0.12109340511E+03 -0.19977475911E+03  0.71478184996E+03  0.76230680187E+03  0.12500000000E+03 0.  0.
         25    1    1    2    0    0  0.16261962452E+02  0.65053720854E+02  0.56040542920E+03  0.57807930520E+03  0.12500000000E+03 0.  0.
         25    1    1    2    0    0 -0.13735536756E+03  0.13472103826E+03  0.41456302093E+03  0.47381827051E+03  0.12500000000E+03 0.  0.
</event>
<event>
 5    0  0.5684733E-005  0.3033079E+03  0.7546771E-02  0.1083599E+00
         21   -1    0    0  502  501  0.00000000000E+00  0.00000000000E+00  0.48664329858E+03  0.48664329858E+03  0.00000000000E+00 0. -1.
         21   -1    0    0  501  502 -0.00000000000E+00 -0.00000000000E+00 -0.18904129789E+03  0.18904129789E+03  0.00000000000E+00 0. -1.
         25    1    1    2    0    0 -0.90231042565E+02 -0.93156253151E+02 -0.30989946098E+02  0.18277063578E+03  0.12500000000E+03 0.  0.
         25    1    1    2    0    0 -0.28675709550E+02 -0.53860029684E+02  0.14795718456E+03  0.20307517716E+03  0.12500000000E+03 0.  0.
         25    1    1    2    0    0  0.11890675211E+03  0.14701628284E+03  0.18063476223E+03  0.28983878354E+03  0.12500000000E+03 0.  0.
</event>
<event>
 5    0  0.5684733E-005  0.3037570E+03  0.7546771E-02  0.1083377E+00
         21   -1    0    0  502  501  0.00000000000E+00  0.00000000000E+00  0.11944351422E+03  0.11944351422E+03  0.00000000000E+00 0.  1.
         21   -1    0    0  501  502 -0.00000000000E+00 -0.00000000000E+00 -0.77248475361E+03  0.77248475361E+03  0.00000000000E+00 0.  1.
         25    1    1    2    0    0  0.18661431502E+03  0.30909857184E+02 -0.36976822282E+03  0.43374400336E+03  0.12500000000E+03 0.  0.
         25    1    1    2    0    0  0.10143189647E+02 -0.13045340501E+02 -0.10739480254E+03  0.16562520586E+03  0.12500000000E+03 0.  0.
         25    1    1    2    0    0 -0.19675750467E+03 -0.17864516683E+02 -0.17587821404E+03  0.29255905861E+03  0.12500000000E+03 0.  0.
</event>
<event>
 5    0  0.5684733E-005  0.2337161E+03  0.7546771E-02  0.1124051E+00
         21   -1    0    0  502  501  0.00000000000E+00  0.00000000000E+00  0.86005856380E+02  0.86005856380E+02  0.00000000000E+00 0.  1.
         21   -1    0    0  501  502 -0.00000000000E+00 -0.00000000000E+00 -0.63511068653E+03  0.63511068653E+03  0.00000000000E+00 0.  1.
         25    1    1    2    0    0  0.31772894178E+02 -0.41222948188E+02 -0.16197185451E+03  0.21111307377E+03  0.12500000000E+03 0.  0.
         25    1    1    2    0    0 -0.68563225111E+02 -0.12846596080E+02 -0.32640307614E+03  0.35641256850E+03  0.12500000000E+03 0.  0.
         25    1    1    2    0    0  0.36790330933E+02  0.54069544268E+02 -0.60729899494E+02  0.15359090064E+03  0.12500000000E+03 0.  0.
</event>
<event>
 5    0  0.5684733E-005  0.2425485E+03  0.7546771E-02  0.1118107E+00
         21   -1    0    0  502  501  0.00000000000E+00  0.00000000000E+00  0.12230347799E+03  0.12230347799E+03  0.00000000000E+00 0. -1.
         21   -1    0    0  501  502 -0.00000000000E+00 -0.00000000000E+00 -0.48101462438E+03  0.48101462438E+03  0.00000000000E+00 0. -1.
         25    1    1    2    0    0 -0.27282141747E+02  0.73301755365E+02 -0.20721292290E+03  0.25432195740E+03  0.12500000000E+03 0.  0.
         25    1    1    2    0    0  0.45418771888E+01 -0.11259778614E+03 -0.13345361715E+03  0.21478770454E+03  0.12500000000E+03 0.  0.
         25    1    1    2    0    0  0.22740264558E+02  0.39296030773E+02 -0.18044606340E+02  0.13420844044E+03  0.12500000000E+03 0.  0.
</event>
<event>
 5    0  0.5684733E-005  0.2760810E+03  0.7546771E-02  0.1097849E+00
         21   -1    0    0  502  501  0.00000000000E+00  0.00000000000E+00  0.10664520371E+04  0.10664520371E+04  0.00000000000E+00 0.  1.
         21   -1    0    0  501  502 -0.00000000000E+00 -0.00000000000E+00 -0.71471288184E+02  0.71471288184E+02  0.00000000000E+00 0.  1.
         25    1    1    2    0    0 -0.16961587580E+03  0.79808026776E+02  0.40324222412E+03  0.46191791237E+03  0.12500000000E+03 0.  0.
         25    1    1    2    0    0  0.98813397733E+02 -0.18093987906E+02  0.21589813565E+03  0.26893955631E+03  0.12500000000E+03 0.  0.
         25    1    1    2    0    0  0.70802478064E+02 -0.61714038870E+02  0.37584038910E+03  0.40706585656E+03  0.12500000000E+03 0.  0.
</event>
<event>
 5    0  0.5684733E-005  0.8348131E+03  0.7546771E-02  0.9510950E-01
         21   -1    0    0  502  501  0.00000000000E+00  0.00000000000E+00  0.13144539196E+04  0.13144539196E+04  0.00000000000E+00 0.  1.
         21   -1    0    0  501  502 -0.00000000000E+00 -0.00000000000E+00 -0.53019200172E+03  0.53019200172E+03  0.00000000000E+00 0.  1.
         25    1    1    2    0    0 -0.53956934771E+02 -0.62202011562E+02  0.18031681806E+03  0.23434930324E+03  0.12500000000E+03 0.  0.
         25    1    1    2    0    0  0.61381390320E+03  0.12130668253E+02 -0.16666008833E+03  0.64831724173E+03  0.12500000000E+03 0.  0.
         25    1    1    2    0    0 -0.55985696843E+03  0.50071343309E+02  0.77060518814E+03  0.96197937634E+03  0.12500000000E+03 0.  0.
</event>
<event>
 5    0  0.5684733E-005  0.4229127E+03  0.7546771E-02  0.1036122E+00
         21   -1    0    0  502  501  0.00000000000E+00  0.00000000000E+00  0.77861636582E+03  0.77861636582E+03  0.00000000000E+00 0.  1.
         21   -1    0    0  501  502 -0.00000000000E+00 -0.00000000000E+00 -0.22970892912E+03  0.22970892912E+03  0.00000000000E+00 0.  1.
         25    1    1    2    0    0 -0.17732349636E+03  0.65073318728E+02  0.47773213302E+03  0.52870705508E+03  0.12500000000E+03 0.  0.
         25    1    1    2    0    0  0.12885478204E+03 -0.19008740553E+03 -0.41078137872E+02  0.26466807516E+03  0.12500000000E+03 0.  0.
         25    1    1    2    0    0  0.48468714315E+02  0.12501408680E+03  0.11225344155E+03  0.21495016470E+03  0.12500000000E+03 0.  0.
</event>
<event>
 5    0  0.5684733E-005  0.3383845E+03  0.7546771E-02  0.1067486E+00
         21   -1    0    0  502  501  0.00000000000E+00  0.00000000000E+00  0.20324797030E+04  0.20324797030E+04  0.00000000000E+00 0.  1.
         21   -1    0    0  501  502 -0.00000000000E+00 -0.00000000000E+00 -0.56337112712E+02  0.56337112712E+02  0.00000000000E+00 0.  1.
         25    1    1    2    0    0  0.14780337979E+03 -0.12651388437E+03  0.88459290096E+03  0.91432007658E+03  0.12500000000E+03 0.  0.
         25    1    1    2    0    0  0.49353041426E+02  0.12012330139E+03  0.30780022214E+03  0.35669497752E+03  0.12500000000E+03 0.  0.
         25    1    1    2    0    0 -0.19715642122E+03  0.63905829817E+01  0.78374946722E+03  0.81780176164E+03  0.12500000000E+03 0.  0.
</event>
<event>
 5    0  0.5684733E-005  0.2202641E+03  0.7546771E-02  0.1133686E+00
         21   -1    0    0  502  501  0.00000000000E+00  0.00000000000E+00  0.18704635036E+03  0.18704635036E+03  0.00000000000E+00 0.  1.
         21   -1    0    0  501  502 -0.00000000000E+00 -0.00000000000E+00 -0.25938091826E+03  0.25938091826E+03  0.00000000000E+00 0.  1.
         25    1    1    2    0    0  0.32307797094E+02  0.26805759410E+02  0.56991666044E+02  0.14365024361E+03  0.12500000000E+03 0.  0.
         25    1    1    2    0    0 -0.47115496459E+02 -0.37561772118E+02 -0.29749044381E+02  0.14191815378E+03  0.12500000000E+03 0.  0.
         25    1    1    2    0    0  0.14807699366E+02  0.10756012708E+02 -0.99577189572E+02  0.16085887123E+03  0.12500000000E+03 0.  0.
</event>
<event>
 5    0  0.5684733E-005  0.2587766E+03  0.7546771E-02  0.1107881E+00
         21   -1    0    0  502  501  0.00000000000E+00  0.00000000000E+00  0.58156952883E+03  0.58156952883E+03  0.00000000000E+00 0. -1.
         21   -1    0    0  501  502 -0.00000000000E+00 -0.00000000000E+00 -0.11514582970E+03  0.11514582970E+03  0.00000000000E+00 0. -1.
         25    1    1    2    0    0  0.48883103021E+02 -0.79234774659E+02  0.19577603380E+03  0.25024180843E+03  0.12500000000E+03 0.  0.
         25    1    1    2    0    0  0.45217622454E+02 -0.57651531310E+02  0.13648863054E+03  0.19905395929E+03  0.12500000000E+03 0.  0.
         25    1    1    2    0    0 -0.94100725475E+02  0.13688630597E+03  0.13415903479E+03  0.24741959080E+03  0.12500000000E+03 0.  0.
</event>
<event>
 5    0  0.5684733E-005  0.3249709E+03  0.7546771E-02  0.1073384E+00
         21   -1    0    0  502  501  0.00000000000E+00  0.00000000000E+00  0.80831388833E+02  0.80831388833E+02  0.00000000000E+00 0. -1.
         21   -1    0    0  501  502 -0.00000000000E+00 -0.00000000000E+00 -0.13064986254E+04  0.13064986254E+04  0.00000000000E+00 0. -1.
         25    1    1    2    0    0  0.19306884174E+03 -0.86601805631E+02 -0.31329743122E+03  0.39819057096E+03  0.12500000000E+03 0.  0.
         25    1    1    2    0    0 -0.43604397731E+02 -0.38503063297E+01 -0.56819814469E+03  0.58342977297E+03  0.12500000000E+03 0.  0.
         25    1    1    2    0    0 -0.14946444401E+03  0.90452111961E+02 -0.34417166069E+03  0.40570967034E+03  0.12500000000E+03 0.  0.
</event>
