<event>
 6    0  0.2666600E+002  0.1377874E+03  0.7546771E-02  0.1216338E+00
         21   -1    0    0  505  501  0.00000000000E+00  0.00000000000E+00  0.12919103404E+04  0.12919103404E+04  0.00000000000E+00 0.  1.
         21   -1    0    0  504  502 -0.00000000000E+00 -0.00000000000E+00 -0.36173022834E+03  0.36173022834E+03  0.00000000000E+00 0.  1.
         21    1    1    2  503  502  0.53618964156E+02 -0.24954237439E+02 -0.11145595375E+03  0.12617502491E+03  0.00000000000E+00 0. -1.
         21    1    1    2  504  501 -0.56349808078E+02  0.17010626120E+02  0.76579783441E+02  0.96587398264E+02  0.00000000000E+00 0. -1.
         21    1    1    2  505  506 -0.73488091850E+02  0.21925637982E+01  0.11905314833E+04  0.11927994465E+04  0.00000000000E+00 0.  1.
         21    1    1    2  506  503  0.76218935772E+02  0.57510475205E+01 -0.22547520090E+03  0.23807869904E+03  0.00000000000E+00 0.  1.
<scales pt_clust_3="38.65883" pt_clust_4="58.86138" pt_clust_5="130.59033" pt_clust_6="38.65883"></scales>
<clustering>
<clus scale="   38.659">  3  6 -1 -1</clus>
<clus scale="   58.861">  1  4  2 -1</clus>
<clus scale="  130.590">  1  5  2 -1</clus>
<clus scale="   58.861">  1  3  2 -1</clus>
</clustering>
</event>
<event>
 6    0  0.2666600E+002  0.1865455E+03  0.7546771E-02  0.1161615E+00
         21   -1    0    0  504  501  0.00000000000E+00  0.00000000000E+00  0.18298135711E+04  0.18298135711E+04  0.00000000000E+00 0. -1.
         21   -1    0    0  506  502 -0.00000000000E+00 -0.00000000000E+00 -0.11860578480E+03  0.11860578480E+03  0.00000000000E+00 0.  1.
         21    1    1    2  503  501  0.17492800021E+03  0.93565777313E+02  0.15748436906E+04  0.15872892016E+04  0.00000000000E+00 0. -1.
         21    1    1    2  504  502 -0.39538215191E+02  0.67718151130E+01  0.16832731162E+03  0.17304106963E+03  0.00000000000E+00 0.  1.
         21    1    1    2  505  503 -0.28200731681E+02 -0.41257002631E+02  0.21658088038E+02  0.54465533238E+02  0.00000000000E+00 0. -1.
         21    1    1    2  506  505 -0.10718905334E+03 -0.59080589795E+02 -0.53621303946E+02  0.13362355138E+03  0.00000000000E+00 0.  1.
<scales pt_clust_3="169.82750" pt_clust_4="40.11394" pt_clust_5="49.36164" pt_clust_6="49.36164"></scales>
<clustering>
<clus scale="   40.114">  1  4  2 -1</clus>
<clus scale="   49.362">  5  6 -1 -1</clus>
<clus scale="  169.827">  1  3  2 -1</clus>
<clus scale="   40.114">  1  3  2 -1</clus>
</clustering>
</event>
<event>
 6    0  0.2666600E+002  0.2033460E+03  0.7546771E-02  0.1146946E+00
         21   -1    0    0  504  501  0.00000000000E+00  0.00000000000E+00  0.13475258383E+03  0.13475258383E+03  0.00000000000E+00 0. -1.
         21   -1    0    0  501  502 -0.00000000000E+00 -0.00000000000E+00 -0.72101408673E+03  0.72101408673E+03  0.00000000000E+00 0. -1.
         21    1    1    2  503  502  0.49606004003E+02 -0.31372776421E+01 -0.19586947430E+03  0.20207782933E+03  0.00000000000E+00 0. -1.
         21    1    1    2  504  506 -0.11465870637E+03 -0.80931628242E+02  0.45089644595E+02  0.14740971286E+03  0.00000000000E+00 0. -1.
         21    1    1    2  505  503  0.11671801756E+03  0.96851851310E+02 -0.42603128472E+03  0.45222343182E+03  0.00000000000E+00 0. -1.
         21    1    1    2  506  505 -0.51665315189E+02 -0.12782945426E+02 -0.94503884736E+01  0.54055696551E+02  0.00000000000E+00 0. -1.
<scales pt_clust_3="40.08714" pt_clust_4="198.28806" pt_clust_5="40.08714" pt_clust_6="33.00268"></scales>
<clustering>
<clus scale="   33.003">  4  6 -1 -1</clus>
<clus scale="   40.087">  3  5 -1 -1</clus>
<clus scale="  198.288">  1  4  2 -1</clus>
<clus scale="  198.288">  1  3  2 -1</clus>
</clustering>
</event>
<event>
 6    0  0.2666600E+002  0.9663984E+02  0.7546771E-02  0.1287525E+00
         21   -1    0    0  503  501  0.00000000000E+00  0.00000000000E+00  0.16896985804E+03  0.16896985804E+03  0.00000000000E+00 0. -1.
         21   -1    0    0  506  502 -0.00000000000E+00 -0.00000000000E+00 -0.50181914972E+03  0.50181914972E+03  0.00000000000E+00 0. -1.
         21    1    1    2  503  504 -0.43854886879E+02 -0.59656524506E+02  0.11827823242E+02  0.74980326900E+02  0.00000000000E+00 0. -1.
         21    1    1    2  504  502  0.44775784871E+02 -0.44668277138E+02 -0.18661936841E+03  0.19704546318E+03  0.00000000000E+00 0. -1.
         21    1    1    2  505  501  0.25933121189E+02  0.12102618893E+03  0.87244194113E+02  0.15143122065E+03  0.00000000000E+00 0. -1.
         21    1    1    2  506  505 -0.26854019182E+02 -0.16701387286E+02 -0.24530194062E+03  0.24733199704E+03  0.00000000000E+00 0. -1.
<scales pt_clust_3="14000.00000" pt_clust_4="62.27809" pt_clust_5="96.63984" pt_clust_6="31.62396"></scales>
<clustering>
<clus scale="   31.624">  2  6  1 -1</clus>
<clus scale="   62.278">  2  4  1 -1</clus>
<clus scale="   96.640">  2  5  1 -1</clus>
<clus scale="   96.640">  1  3  2 -1</clus>
</clustering>
</event>
<event>
 6    0  0.2666600E+002  0.2102244E+03  0.7546771E-02  0.1141388E+00
         21   -1    0    0  504  501  0.00000000000E+00  0.00000000000E+00  0.15060249162E+03  0.15060249162E+03  0.00000000000E+00 0. -1.
         21   -1    0    0  503  502 -0.00000000000E+00 -0.00000000000E+00 -0.35579789553E+03  0.35579789553E+03  0.00000000000E+00 0. -1.
         21    1    1    2  503  501  0.17894768864E+03 -0.10320001241E+03 -0.13773035879E+03  0.24827841140E+03  0.00000000000E+00 0. -1.
         21    1    1    2  504  506 -0.13053140612E+03  0.66543327923E+02 -0.44375793259E+01  0.14658156291E+03  0.00000000000E+00 0. -1.
         21    1    1    2  505  502  0.97143082612E+01  0.29643419777E+02 -0.34155466303E+02  0.46256848135E+02  0.00000000000E+00 0. -1.
         21    1    1    2  506  505 -0.58130590787E+02  0.70132647140E+01 -0.28871999483E+02  0.65283564711E+02  0.00000000000E+00 0. -1.
<scales pt_clust_3="203.52126" pt_clust_4="32.93426" pt_clust_5="31.19455" pt_clust_6="32.93426"></scales>
<clustering>
<clus scale="   31.195">  2  5  1 -1</clus>
<clus scale="   32.934">  4  6 -1 -1</clus>
<clus scale="  203.521">  2  3  1 -1</clus>
<clus scale="  210.224">  1  3  2 -1</clus>
</clustering>
</event>
<event>
 6    0  0.2666600E+002  0.1361581E+03  0.7546771E-02  0.1218594E+00
         21   -1    0    0  506  501  0.00000000000E+00  0.00000000000E+00  0.40371645374E+03  0.40371645374E+03  0.00000000000E+00 0.  1.
         21   -1    0    0  503  502 -0.00000000000E+00 -0.00000000000E+00 -0.15963397147E+04  0.15963397147E+04  0.00000000000E+00 0. -1.
         21    1    1    2  503  505 -0.94352746745E+02  0.60839607280E+02 -0.26064657915E+03  0.28379664878E+03  0.00000000000E+00 0. -1.
         21    1    1    2  504  502 -0.61344237253E+01  0.32098698768E+02 -0.12979333273E+04  0.12983446691E+04  0.00000000000E+00 0. -1.
         21    1    1    2  505  501 -0.20953629261E+02  0.23404688882E+02  0.37604680832E+02  0.48999449602E+02  0.00000000000E+00 0. -1.
         21    1    1    2  506  504  0.12144079973E+03 -0.11634299493E+03  0.32835196472E+03  0.36891540093E+03  0.00000000000E+00 0.  1.
<scales pt_clust_3="136.15807" pt_clust_4="32.69499" pt_clust_5="31.41391" pt_clust_6="14000.00000"></scales>
<clustering>
<clus scale="   31.414">  1  5  2 -1</clus>
<clus scale="   32.695">  2  4  1 -1</clus>
<clus scale="  136.158">  2  3  1 -1</clus>
<clus scale="   31.414">  1  3  2 -1</clus>
</clustering>
</event>
<event>
 6    0  0.2666600E+002  0.1278640E+03  0.7546771E-02  0.1230660E+00
         21   -1    0    0  506  501  0.00000000000E+00  0.00000000000E+00  0.92160183334E+02  0.92160183334E+02  0.00000000000E+00 0. -1.
         21   -1    0    0  505  502 -0.00000000000E+00 -0.00000000000E+00 -0.45921495552E+03  0.45921495552E+03  0.00000000000E+00 0. -1.
         21    1    1    2  503  504  0.73099372373E+02 -0.17868566829E+01  0.14881778181E+02  0.74620227955E+02  0.00000000000E+00 0. -1.
         21    1    1    2  504  501  0.49961479017E+02  0.43344683510E+01 -0.37127408668E+02  0.62396966880E+02  0.00000000000E+00 0. -1.
         21    1    1    2  505  503 -0.41857279008E+02  0.94311279867E+02 -0.16367031001E+03  0.19348028244E+03  0.00000000000E+00 0. -1.
         21    1    1    2  506  502 -0.81203572382E+02 -0.96858891535E+02 -0.18113883169E+03  0.22087766157E+03  0.00000000000E+00 0. -1.
<scales pt_clust_3="46.32014" pt_clust_4="46.32014" pt_clust_5="103.18260" pt_clust_6="114.98189"></scales>
<clustering>
<clus scale="   46.320">  3  4 -1 -1</clus>
<clus scale="  103.183">  2  5  1 -1</clus>
<clus scale="  114.982">  2  6  1 -1</clus>
<clus scale="  127.864">  1  3  2 -1</clus>
</clustering>
</event>
<event>
 6    0  0.2666600E+002  0.3133008E+03  0.7546771E-02  0.1078774E+00
         21   -1    0    0  505  501  0.00000000000E+00  0.00000000000E+00  0.16152146306E+04  0.16152146306E+04  0.00000000000E+00 0.  1.
         21   -1    0    0  503  502 -0.00000000000E+00 -0.00000000000E+00 -0.27286940397E+03  0.27286940397E+03  0.00000000000E+00 0. -1.
         21    1    1    2  503  506 -0.11937414021E+03  0.15375750363E+03 -0.11261387204E+03  0.22488539181E+03  0.00000000000E+00 0. -1.
         21    1    1    2  504  502  0.16080220533E+03 -0.22280721574E+03  0.10899767390E+04  0.11240772643E+04  0.00000000000E+00 0.  1.
         21    1    1    2  505  504  0.11971494498E+02 -0.38869177296E+02  0.40892749264E+03  0.41094503752E+03  0.00000000000E+00 0.  1.
         21    1    1    2  506  501 -0.53399559612E+02  0.10791888941E+03 -0.43945132971E+02  0.12817634091E+03  0.00000000000E+00 0.  1.
<scales pt_clust_3="33.52112" pt_clust_4="310.38816" pt_clust_5="40.67099" pt_clust_6="33.52112"></scales>
<clustering>
<clus scale="   33.521">  3  6 -1 -1</clus>
<clus scale="   40.671">  1  5  2 -1</clus>
<clus scale="  310.388">  1  4  2 -1</clus>
<clus scale="   40.671">  1  3  2 -1</clus>
</clustering>
</event>
<event>
 6    0  0.2666600E+002  0.6817956E+02  0.7546771E-02  0.1366395E+00
         21   -1    0    0  505  501  0.00000000000E+00  0.00000000000E+00  0.97219862915E+03  0.97219862915E+03  0.00000000000E+00 0. -1.
         21   -1    0    0  506  502 -0.00000000000E+00 -0.00000000000E+00 -0.54524228565E+03  0.54524228565E+03  0.00000000000E+00 0. -1.
         21    1    1    2  503  504  0.17101834569E+02 -0.12005826174E+03  0.67378298105E+03  0.68460935176E+03  0.00000000000E+00 0. -1.
         21    1    1    2  504  502  0.33369889696E+02  0.62386084410E+02 -0.13692028574E+03  0.15411923214E+03  0.00000000000E+00 0. -1.
         21    1    1    2  505  503 -0.19442700288E+02  0.52467016532E+02  0.28101273980E+03  0.28652917189E+03  0.00000000000E+00 0. -1.
         21    1    1    2  506  501 -0.31029023977E+02  0.52051607991E+01 -0.39091909160E+03  0.39218315901E+03  0.00000000000E+00 0. -1.
<scales pt_clust_3="68.17956" pt_clust_4="14000.00000" pt_clust_5="56.23683" pt_clust_6="31.46258"></scales>
<clustering>
<clus scale="   31.463">  2  6  1 -1</clus>
<clus scale="   56.237">  1  5  2 -1</clus>
<clus scale="   68.180">  1  3  2 -1</clus>
<clus scale="   56.237">  1  3  2 -1</clus>
</clustering>
</event>
<event>
 6    0  0.2666600E+002  0.1534394E+03  0.7546771E-02  0.1196309E+00
         21   -1    0    0  503  501  0.00000000000E+00  0.00000000000E+00  0.35809696617E+03  0.35809696617E+03  0.00000000000E+00 0.  1.
         21   -1    0    0  505  502 -0.00000000000E+00 -0.00000000000E+00 -0.17600042034E+04  0.17600042034E+04  0.00000000000E+00 0. -1.
         21    1    1    2  503  504 -0.58910744848E+02  0.14689069063E+03  0.27625863983E+03  0.31838056934E+03  0.00000000000E+00 0.  1.
         21    1    1    2  504  506  0.36384641127E+02 -0.36203019069E+02 -0.40888737044E+03  0.41209632661E+03  0.00000000000E+00 0. -1.
         21    1    1    2  505  501 -0.64492209871E+02 -0.65420732258E+02  0.20497623197E+02  0.94123694678E+02  0.00000000000E+00 0. -1.
         21    1    1    2  506  502  0.87018313593E+02 -0.45266939307E+02 -0.12897761298E+04  0.12935005790E+04  0.00000000000E+00 0. -1.
<scales pt_clust_3="147.66912" pt_clust_4="30.15265" pt_clust_5="91.86467" pt_clust_6="30.15265"></scales>
<clustering>
<clus scale="   30.153">  4  6 -1 -1</clus>
<clus scale="   91.865">  1  5  2 -1</clus>
<clus scale="  147.669">  1  3  2 -1</clus>
<clus scale="   91.865">  1  3  2 -1</clus>
</clustering>
</event>
<event>
 6    0  0.2666600E+002  0.9169377E+02  0.7546771E-02  0.1298801E+00
         21   -1    0    0  504  501  0.00000000000E+00  0.00000000000E+00  0.24253904976E+02  0.24253904976E+02  0.00000000000E+00 0.  1.
         21   -1    0    0  506  502 -0.00000000000E+00 -0.00000000000E+00 -0.12405038400E+04  0.12405038400E+04  0.00000000000E+00 0.  1.
         21    1    1    2  503  501 -0.72558384941E+02  0.83705793947E+02 -0.19224954302E+03  0.22188119785E+03  0.00000000000E+00 0.  1.
         21    1    1    2  504  505 -0.26342654929E+01 -0.31737722024E+02 -0.43151278673E+02  0.53630730044E+02  0.00000000000E+00 0.  1.
         21    1    1    2  505  502 -0.10731701006E+02 -0.39905079009E+02 -0.27600966611E+03  0.27908586586E+03  0.00000000000E+00 0.  1.
         21    1    1    2  506  503  0.85924351440E+02 -0.12062992914E+02 -0.70483944721E+03  0.71015995122E+03  0.00000000000E+00 0.  1.
<scales pt_clust_3="14000.00000" pt_clust_4="31.84686" pt_clust_5="43.85994" pt_clust_6="91.69377"></scales>
<clustering>
<clus scale="   31.847">  1  4  2 -1</clus>
<clus scale="   43.860">  2  5  1 -1</clus>
<clus scale="   91.694">  2  6  1 -1</clus>
<clus scale="   31.847">  1  3  2 -1</clus>
</clustering>
</event>
<event>
 6    0  0.2666600E+002  0.1388462E+03  0.7546771E-02  0.1214890E+00
         21   -1    0    0  502  501  0.00000000000E+00  0.00000000000E+00  0.15501615630E+04  0.15501615630E+04  0.00000000000E+00 0. -1.
         21   -1    0    0  506  502 -0.00000000000E+00 -0.00000000000E+00 -0.16484500139E+03  0.16484500139E+03  0.00000000000E+00 0. -1.
         21    1    1    2  503  501 -0.28721431844E+02 -0.51055727651E+02  0.80593999966E+03  0.80806614273E+03  0.00000000000E+00 0. -1.
         21    1    1    2  504  505  0.19794268702E+02  0.71510531808E+02  0.34801128630E+02  0.81955401206E+02  0.00000000000E+00 0.  1.
         21    1    1    2  505  503 -0.10681661336E+02 -0.82979529500E+02  0.67439513419E+03  0.67956493230E+03  0.00000000000E+00 0. -1.
         21    1    1    2  506  504  0.19608824478E+02  0.62524725344E+02 -0.12981970091E+03  0.14542008810E+03  0.00000000000E+00 0. -1.
<scales pt_clust_3="38.67324" pt_clust_4="130.92833" pt_clust_5="38.67324" pt_clust_6="65.52745"></scales>
<clustering>
<clus scale="   38.673">  3  5 -1 -1</clus>
<clus scale="   65.527">  2  6  1 -1</clus>
<clus scale="  130.928">  2  4  1 -1</clus>
<clus scale="  138.846">  1  3  2 -1</clus>
</clustering>
</event>
<event>
 6    0  0.2666600E+002  0.1286679E+03  0.7546771E-02  0.1229446E+00
         21   -1    0    0  503  501  0.00000000000E+00  0.00000000000E+00  0.53552085825E+03  0.53552085825E+03  0.00000000000E+00 0.  1.
         21   -1    0    0  504  502 -0.00000000000E+00 -0.00000000000E+00 -0.15794736749E+04  0.15794736749E+04  0.00000000000E+00 0.  1.
         21    1    1    2  503  502 -0.49583920047E+02  0.17160463936E+02  0.90460682169E+02  0.10457620030E+03  0.00000000000E+00 0.  1.
         21    1    1    2  504  506  0.17885773286E+02  0.29066234633E+02 -0.18443268931E+03  0.18756375921E+03  0.00000000000E+00 0.  1.
         21    1    1    2  505  501  0.51616807892E+02 -0.14604424946E+03  0.42074643004E+03  0.44835340530E+03  0.00000000000E+00 0.  1.
         21    1    1    2  506  505 -0.19918661132E+02  0.99817550886E+02 -0.13707272395E+04  0.13745011683E+04  0.00000000000E+00 0.  1.
<scales pt_clust_3="52.43230" pt_clust_4="34.12839" pt_clust_5="14000.00000" pt_clust_6="128.66788"></scales>
<clustering>
<clus scale="   34.128">  2  4  1 -1</clus>
<clus scale="   52.432">  1  3  2 -1</clus>
<clus scale="  128.668">  2  6  1 -1</clus>
<clus scale="   52.432">  1  3  2 -1</clus>
</clustering>
</event>
<event>
 6    0  0.2666600E+002  0.2458215E+03  0.7546771E-02  0.1115974E+00
         21   -1    0    0  506  501  0.00000000000E+00  0.00000000000E+00  0.87518808571E+02  0.87518808571E+02  0.00000000000E+00 0.  1.
         21   -1    0    0  504  502 -0.00000000000E+00 -0.00000000000E+00 -0.14666832889E+04  0.14666832889E+04  0.00000000000E+00 0.  1.
         21    1    1    2  503  502 -0.17542397337E+03  0.96565387385E+02 -0.11844342465E+03  0.23265272256E+03  0.00000000000E+00 0.  1.
         21    1    1    2  504  505  0.13063648740E+03 -0.24395339835E+02 -0.52019653835E+03  0.53690358814E+03  0.00000000000E+00 0.  1.
         21    1    1    2  505  501  0.11686474915E+03 -0.33067691074E+02 -0.65498581657E+03  0.66615108023E+03  0.00000000000E+00 0.  1.
         21    1    1    2  506  503 -0.72077263181E+02 -0.39102356476E+02 -0.85538700762E+02  0.11849470654E+03  0.00000000000E+00 0.  1.
<scales pt_clust_3="242.28108" pt_clust_4="39.74069" pt_clust_5="39.74069" pt_clust_6="82.00077"></scales>
<clustering>
<clus scale="   39.741">  4  5 -1 -1</clus>
<clus scale="   82.001">  1  6  2 -1</clus>
<clus scale="  242.281">  1  3  2 -1</clus>
<clus scale="   82.001">  1  3  2 -1</clus>
</clustering>
</event>
<event>
 6    0  0.2666600E+002  0.9642052E+02  0.7546771E-02  0.1288008E+00
         21   -1    0    0  506  501  0.00000000000E+00  0.00000000000E+00  0.11113542292E+04  0.11113542292E+04  0.00000000000E+00 0. -1.
         21   -1    0    0  504  502 -0.00000000000E+00 -0.00000000000E+00 -0.40421499078E+02  0.40421499078E+02  0.00000000000E+00 0.  1.
         21    1    1    2  503  501  0.41244316833E+02  0.69956963056E+02  0.49484665218E+03  0.50146612998E+03  0.00000000000E+00 0. -1.
         21    1    1    2  504  503 -0.23281358905E+02  0.10058461015E+03  0.21392829446E+03  0.23753862979E+03  0.00000000000E+00 0.  1.
         21    1    1    2  505  502 -0.85890903166E+01 -0.94315406366E+02  0.92476569186E+02  0.13236723235E+03  0.00000000000E+00 0.  1.
         21    1    1    2  506  505 -0.93738676118E+01 -0.76226166840E+02  0.26968121426E+03  0.28040373612E+03  0.00000000000E+00 0.  1.
<scales pt_clust_3="43.29543" pt_clust_4="96.42052" pt_clust_5="14000.00000" pt_clust_6="76.80038"></scales>
<clustering>
<clus scale="   76.800">  1  6  2 -1</clus>
<clus scale="   43.295">  1  3  2 -1</clus>
<clus scale="   96.421">  1  4  2 -1</clus>
<clus scale="   76.800">  1  3  2 -1</clus>
</clustering>
</event>
<event>
 6    0  0.2666600E+002  0.8242560E+02  0.7546771E-02  0.1322306E+00
         21   -1    0    0  503  501  0.00000000000E+00  0.00000000000E+00  0.83444838604E+02  0.83444838604E+02  0.00000000000E+00 0. -1.
         21   -1    0    0  505  502 -0.00000000000E+00 -0.00000000000E+00 -0.49295291181E+03  0.49295291181E+03  0.00000000000E+00 0. -1.
         21    1    1    2  503  504 -0.44797557813E+02 -0.22525216076E+02  0.89760307870E+01  0.50938940644E+02  0.00000000000E+00 0. -1.
         21    1    1    2  504  502  0.41415223901E+02  0.49646340972E+02 -0.25987445074E+03  0.26779602329E+03  0.00000000000E+00 0. -1.
         21    1    1    2  505  506 -0.35097399716E+02  0.46233523989E+02 -0.16467537219E+03  0.17460625537E+03  0.00000000000E+00 0. -1.
         21    1    1    2  506  501  0.38479733627E+02 -0.73354648886E+02  0.60657189433E+01  0.83056531107E+02  0.00000000000E+00 0. -1.
<scales pt_clust_3="50.14186" pt_clust_4="14000.00000" pt_clust_5="59.07281" pt_clust_6="82.42560"></scales>
<clustering>
<clus scale="   50.142">  1  3  2 -1</clus>
<clus scale="   59.073">  2  5  1 -1</clus>
<clus scale="   82.426">  1  6  2 -1</clus>
<clus scale="   50.142">  1  3  2 -1</clus>
</clustering>
</event>
<event>
 6    0  0.2666600E+002  0.1426355E+03  0.7546771E-02  0.1209826E+00
         21   -1    0    0  505  501  0.00000000000E+00  0.00000000000E+00  0.10087783417E+03  0.10087783417E+03  0.00000000000E+00 0. -1.
         21   -1    0    0  503  502 -0.00000000000E+00 -0.00000000000E+00 -0.16723556619E+04  0.16723556619E+04  0.00000000000E+00 0. -1.
         21    1    1    2  503  501 -0.27658919425E+02 -0.18836652547E+02 -0.52363246710E+02  0.62142939333E+02  0.00000000000E+00 0. -1.
         21    1    1    2  504  502  0.87755866048E+02  0.12864053515E+02 -0.12140036192E+04  0.12172392383E+04  0.00000000000E+00 0. -1.
         21    1    1    2  505  506 -0.10862898403E+03 -0.14381859676E+01  0.60912632706E+02  0.12454988308E+03  0.00000000000E+00 0. -1.
         21    1    1    2  506  504  0.48532037411E+02  0.74107849996E+01 -0.36602359458E+03  0.36930143538E+03  0.00000000000E+00 0. -1.
<scales pt_clust_3="33.46394" pt_clust_4="30.12816" pt_clust_5="136.76638" pt_clust_6="30.12816"></scales>
<clustering>
<clus scale="   30.128">  4  6 -1 -1</clus>
<clus scale="   33.464">  1  3  2 -1</clus>
<clus scale="  136.766">  1  5  2 -1</clus>
<clus scale="   33.464">  1  3  2 -1</clus>
</clustering>
</event>
<event>
 6    0  0.2666600E+002  0.1677922E+03  0.7546771E-02  0.1180170E+00
         21   -1    0    0  504  501  0.00000000000E+00  0.00000000000E+00  0.35104756258E+03  0.35104756258E+03  0.00000000000E+00 0. -1.
         21   -1    0    0  503  502 -0.00000000000E+00 -0.00000000000E+00 -0.18500792539E+03  0.18500792539E+03  0.00000000000E+00 0.  1.
         21    1    1    2  503  505 -0.19883090376E+02 -0.35827482648E+02  0.76013010315E+01  0.41674039559E+02  0.00000000000E+00 0. -1.
         21    1    1    2  504  506  0.13768145231E+02  0.12205207195E+03  0.16965091356E+03  0.20944618058E+03  0.00000000000E+00 0. -1.
         21    1    1    2  505  501 -0.33245695378E+02 -0.11184574593E+03 -0.11942893817E+03  0.16696711777E+03  0.00000000000E+00 0.  1.
         21    1    1    2  506  502  0.39360640523E+02  0.25621156632E+02  0.10821636077E+03  0.11796815006E+03  0.00000000000E+00 0. -1.
<scales pt_clust_3="40.97494" pt_clust_4="45.59984" pt_clust_5="150.97795" pt_clust_6="45.59984"></scales>
<clustering>
<clus scale="   40.975">  2  3  1 -1</clus>
<clus scale="   45.600">  4  6 -1 -1</clus>
<clus scale="  150.978">  2  5  1 -1</clus>
<clus scale="  167.792">  1  3  2 -1</clus>
</clustering>
</event>
<event>
 6    0  0.2666600E+002  0.1605581E+03  0.7546771E-02  0.1188068E+00
         21   -1    0    0  504  501  0.00000000000E+00  0.00000000000E+00  0.13037130229E+04  0.13037130229E+04  0.00000000000E+00 0. -1.
         21   -1    0    0  503  502 -0.00000000000E+00 -0.00000000000E+00 -0.99713644659E+02  0.99713644659E+02  0.00000000000E+00 0. -1.
         21    1    1    2  503  505 -0.50788881333E+02 -0.38969490025E+01  0.37421472658E+03  0.37766566996E+03  0.00000000000E+00 0.  1.
         21    1    1    2  504  506  0.85689428847E+02  0.58757142104E+02 -0.46612445746E+02  0.11387624890E+03  0.00000000000E+00 0. -1.
         21    1    1    2  505  501 -0.68303958564E+02 -0.84218656892E+02  0.85620456563E+03  0.86304372492E+03  0.00000000000E+00 0. -1.
         21    1    1    2  506  502  0.33403411050E+02  0.29358463791E+02  0.20192531810E+02  0.48841023810E+02  0.00000000000E+00 0.  1.
<scales pt_clust_3="40.43615" pt_clust_4="40.49624" pt_clust_5="159.46212" pt_clust_6="40.49624"></scales>
<clustering>
<clus scale="   40.436">  3  5 -1 -1</clus>
<clus scale="   40.496">  4  6 -1 -1</clus>
<clus scale="  159.462">  1  3  2 -1</clus>
<clus scale="  159.462">  1  3  2 -1</clus>
</clustering>
</event>
<event>
 6    0  0.2666600E+002  0.1360194E+03  0.7546771E-02  0.1218788E+00
         21   -1    0    0  506  501  0.00000000000E+00  0.00000000000E+00  0.16273289078E+04  0.16273289078E+04  0.00000000000E+00 0. -1.
         21   -1    0    0  505  502 -0.00000000000E+00 -0.00000000000E+00 -0.11123553435E+03  0.11123553435E+03  0.00000000000E+00 0. -1.
         21    1    1    2  503  502  0.63201663292E+02  0.11580079075E+01 -0.52971800107E+02  0.82473043061E+02  0.00000000000E+00 0. -1.
         21    1    1    2  504  503  0.85774708935E+02 -0.89310152044E-01  0.20976980494E+02  0.88302561570E+02  0.00000000000E+00 0. -1.
         21    1    1    2  505  501  0.28918762333E+01 -0.59491460678E+02  0.79972097007E+03  0.80193592438E+03  0.00000000000E+00 0. -1.
         21    1    1    2  506  504 -0.15186824846E+03  0.58422762922E+02  0.74836722301E+03  0.76585291316E+03  0.00000000000E+00 0. -1.
<scales pt_clust_3="63.25335" pt_clust_4="14000.00000" pt_clust_5="59.56171" pt_clust_6="136.01939"></scales>
<clustering>
<clus scale="   59.562">  1  5  2 -1</clus>
<clus scale="   63.253">  2  3  1 -1</clus>
<clus scale="  136.019">  1  6  2 -1</clus>
<clus scale="   59.562">  1  3  2 -1</clus>
</clustering>
</event>
<event>
 6    0  0.2666600E+002  0.1750197E+03  0.7546771E-02  0.1172712E+00
         21   -1    0    0  504  501  0.00000000000E+00  0.00000000000E+00  0.10774941648E+03  0.10774941648E+03  0.00000000000E+00 0. -1.
         21   -1    0    0  505  502 -0.00000000000E+00 -0.00000000000E+00 -0.37256547427E+03  0.37256547427E+03  0.00000000000E+00 0.  1.
         21    1    1    2  503  502 -0.70591648679E+02  0.20138303924E+02 -0.20394748608E+02  0.76188436911E+02  0.00000000000E+00 0. -1.
         21    1    1    2  504  503 -0.81605299330E+02  0.44474600937E+02  0.11957949625E+02  0.93703828985E+02  0.00000000000E+00 0. -1.
         21    1    1    2  505  506  0.30998798542E+02 -0.26585642023E+02 -0.29407777319E+02  0.50324340429E+02  0.00000000000E+00 0.  1.
         21    1    1    2  506  501  0.12119814947E+03 -0.38027262839E+02 -0.22697148148E+03  0.26009828442E+03  0.00000000000E+00 0.  1.
<scales pt_clust_3="33.88269" pt_clust_4="169.68265" pt_clust_5="32.53820" pt_clust_6="32.53820"></scales>
<clustering>
<clus scale="   32.538">  5  6 -1 -1</clus>
<clus scale="   33.883">  3  4 -1 -1</clus>
<clus scale="  169.683">  1  3  2 -1</clus>
<clus scale="  169.683">  1  3  2 -1</clus>
</clustering>
</event>
<event>
 6    0  0.2666600E+002  0.7059079E+02  0.7546771E-02  0.1358095E+00
         21   -1    0    0  504  501  0.00000000000E+00  0.00000000000E+00  0.15230579479E+03  0.15230579479E+03  0.00000000000E+00 0. -1.
         21   -1    0    0  503  502 -0.00000000000E+00 -0.00000000000E+00 -0.22128661794E+03  0.22128661794E+03  0.00000000000E+00 0. -1.
         21    1    1    2  503  506 -0.61086667782E+02 -0.10289008622E+02 -0.10907658021E+03  0.12543980640E+03  0.00000000000E+00 0. -1.
         21    1    1    2  504  502  0.47959416275E+02  0.76962642367E+02  0.86461254441E+02  0.12529526108E+03  0.00000000000E+00 0. -1.
         21    1    1    2  505  501 -0.31330434866E+02 -0.48209795450E+01  0.33819498760E+01  0.31879077427E+02  0.00000000000E+00 0. -1.
         21    1    1    2  506  505  0.44457686372E+02 -0.61852654200E+02 -0.49747447259E+02  0.90978267833E+02  0.00000000000E+00 0. -1.
<scales pt_clust_3="63.87267" pt_clust_4="70.59079" pt_clust_5="31.69918" pt_clust_6="14000.00000"></scales>
<clustering>
<clus scale="   31.699">  1  5  2 -1</clus>
<clus scale="   63.873">  2  3  1 -1</clus>
<clus scale="   70.591">  1  4  2 -1</clus>
<clus scale="   31.699">  1  3  2 -1</clus>
</clustering>
</event>
<event>
 6    0  0.2666600E+002  0.1137222E+03  0.7546771E-02  0.1253828E+00
         21   -1    0    0  505  501  0.00000000000E+00  0.00000000000E+00  0.12228500228E+03  0.12228500228E+03  0.00000000000E+00 0.  1.
         21   -1    0    0  503  502 -0.00000000000E+00 -0.00000000000E+00 -0.58577581601E+03  0.58577581601E+03  0.00000000000E+00 0.  1.
         21    1    1    2  503  501 -0.27802685436E+01  0.36151234031E+02  0.34115225062E+02  0.49784437289E+02  0.00000000000E+00 0.  1.
         21    1    1    2  504  502 -0.48742663690E+02 -0.12652528549E+03 -0.45160175406E+03  0.47151737975E+03  0.00000000000E+00 0.  1.
         21    1    1    2  505  506  0.57964163585E+02  0.81335184249E+01  0.37392062575E+02  0.69456207251E+02  0.00000000000E+00 0.  1.
         21    1    1    2  506  504 -0.64412313518E+01  0.82240533037E+02 -0.83396347312E+02  0.11730279400E+03  0.00000000000E+00 0.  1.
<scales pt_clust_3="36.25799" pt_clust_4="14000.00000" pt_clust_5="64.68484" pt_clust_6="113.72220"></scales>
<clustering>
<clus scale="   36.258">  1  3  2 -1</clus>
<clus scale="   64.685">  1  5  2 -1</clus>
<clus scale="  113.722">  1  6  2 -1</clus>
<clus scale="   36.258">  1  3  2 -1</clus>
</clustering>
</event>
<event>
 6    0  0.2820145E+002  0.9221623E+02  0.7546771E-02  0.1297572E+00
         21   -1    0    0  504  501  0.00000000000E+00  0.00000000000E+00  0.63471622835E+03  0.63471622835E+03  0.00000000000E+00 0. -1.
         21   -1    0    0  506  502 -0.00000000000E+00 -0.00000000000E+00 -0.15165762104E+03  0.15165762104E+03  0.00000000000E+00 0. -1.
         21    1    1    2  503  501 -0.35366893707E+02 -0.28166939126E+01  0.55849858842E+02  0.66166136866E+02  0.00000000000E+00 0. -1.
         21    1    1    2  504  505  0.91547988947E+02  0.77262104530E+02  0.54331888346E+03  0.55636847161E+03  0.00000000000E+00 0. -1.
         21    1    1    2  505  502  0.18539059194E+01 -0.35834874792E+02 -0.10659748140E+02  0.37432678890E+02  0.00000000000E+00 0. -1.
         21    1    1    2  506  503 -0.58035001159E+02 -0.38610535825E+02 -0.10545038686E+03  0.12640656203E+03  0.00000000000E+00 0. -1.
<scales pt_clust_3="35.47888" pt_clust_4="14000.00000" pt_clust_5="35.91533" pt_clust_6="92.21623"></scales>
<clustering>
<clus scale="   35.479">  1  3  2 -1</clus>
<clus scale="   35.915">  2  5  1 -1</clus>
<clus scale="   92.216">  2  6  1 -1</clus>
<clus scale="   35.479">  1  3  2 -1</clus>
</clustering>
</event>
<event>
 6    0  0.2666600E+002  0.1482042E+03  0.7546771E-02  0.1202697E+00
         21   -1    0    0  506  501  0.00000000000E+00  0.00000000000E+00  0.48917902596E+03  0.48917902596E+03  0.00000000000E+00 0.  1.
         21   -1    0    0  501  502 -0.00000000000E+00 -0.00000000000E+00 -0.27075439890E+03  0.27075439890E+03  0.00000000000E+00 0. -1.
         21    1    1    2  503  504  0.75651763961E+02 -0.10275692807E+02  0.30423277738E+03  0.31366600403E+03  0.00000000000E+00 0.  1.
         21    1    1    2  504  505 -0.90526981941E+02  0.11788277882E+02 -0.18371002817E+03  0.20514256605E+03  0.00000000000E+00 0. -1.
         21    1    1    2  505  502 -0.45836630096E+02 -0.24805696374E+02 -0.54512492681E+02  0.75418373686E+02  0.00000000000E+00 0.  1.
         21    1    1    2  506  503  0.60711848075E+02  0.23293111299E+02  0.15241437054E+03  0.16570648109E+03  0.00000000000E+00 0.  1.
<scales pt_clust_3="145.84705" pt_clust_4="42.74196" pt_clust_5="42.74196" pt_clust_6="46.20813"></scales>
<clustering>
<clus scale="   42.742">  4  5 -1 -1</clus>
<clus scale="   46.208">  3  6 -1 -1</clus>
<clus scale="  145.847">  1  3  2 -1</clus>
<clus scale="  145.847">  1  3  2 -1</clus>
</clustering>
</event>
<event>
 6    0  0.2666600E+002  0.7005783E+02  0.7546771E-02  0.1359896E+00
         21   -1    0    0  506  501  0.00000000000E+00  0.00000000000E+00  0.24064217516E+04  0.24064217516E+04  0.00000000000E+00 0. -1.
         21   -1    0    0  503  502 -0.00000000000E+00 -0.00000000000E+00 -0.12476324767E+02  0.12476324767E+02  0.00000000000E+00 0.  1.
         21    1    1    2  503  504 -0.10591049376E+02  0.54903602970E+02  0.12170208337E+03  0.13393271834E+03  0.00000000000E+00 0.  1.
         21    1    1    2  504  501  0.95460798137E+02 -0.34893300182E+02  0.74319281716E+03  0.75011057175E+03  0.00000000000E+00 0.  1.
         21    1    1    2  505  502 -0.34406168513E+02  0.81736763543E+01  0.13339784073E+03  0.13800571484E+03  0.00000000000E+00 0. -1.
         21    1    1    2  506  505 -0.50463580248E+02 -0.28183979142E+02  0.13956526856E+04  0.13968490714E+04  0.00000000000E+00 0. -1.
<scales pt_clust_3="14000.00000" pt_clust_4="70.05783" pt_clust_5="35.36373" pt_clust_6="59.34934"></scales>
<clustering>
<clus scale="   35.364">  2  5  1 -1</clus>
<clus scale="   59.349">  1  6  2 -1</clus>
<clus scale="   70.058">  1  4  2 -1</clus>
<clus scale="   59.349">  1  3  2 -1</clus>
</clustering>
</event>
<event>
 6    0  0.2666600E+002  0.1062726E+03  0.7546771E-02  0.1267632E+00
         21   -1    0    0  506  501  0.00000000000E+00  0.00000000000E+00  0.41748378392E+02  0.41748378392E+02  0.00000000000E+00 0.  1.
         21   -1    0    0  504  502 -0.00000000000E+00 -0.00000000000E+00 -0.60377821197E+03  0.60377821197E+03  0.00000000000E+00 0.  1.
         21    1    1    2  503  502 -0.45992709975E+02  0.75026281627E+01 -0.88946413831E+02  0.10041455738E+03  0.00000000000E+00 0.  1.
         21    1    1    2  504  501  0.34810292347E+02 -0.11933071688E+03 -0.16194036211E+03  0.20414763610E+03  0.00000000000E+00 0.  1.
         21    1    1    2  505  503  0.42659557472E+02  0.31085005814E+02 -0.11932450260E+03  0.13047778490E+03  0.00000000000E+00 0.  1.
         21    1    1    2  506  505 -0.31477139844E+02  0.80743082906E+02 -0.19181855504E+03  0.21048661199E+03  0.00000000000E+00 0.  1.
<scales pt_clust_3="46.60063" pt_clust_4="14000.00000" pt_clust_5="45.48121" pt_clust_6="106.27263"></scales>
<clustering>
<clus scale="   46.601">  2  3  1 -1</clus>
<clus scale="   45.481">  2  5  1 -1</clus>
<clus scale="  106.273">  2  6  1 -1</clus>
<clus scale="  106.273">  1  3  2 -1</clus>
</clustering>
</event>
<event>
 6    0  0.2666600E+002  0.7240593E+02  0.7546771E-02  0.1352098E+00
         21   -1    0    0  506  501  0.00000000000E+00  0.00000000000E+00  0.48792437004E+03  0.48792437004E+03  0.00000000000E+00 0.  1.
         21   -1    0    0  505  502 -0.00000000000E+00 -0.00000000000E+00 -0.16284738572E+03  0.16284738572E+03  0.00000000000E+00 0.  1.
         21    1    1    2  503  502  0.16719468221E+02 -0.58755981358E+02  0.26187572432E+03  0.26890649110E+03  0.00000000000E+00 0.  1.
         21    1    1    2  504  501  0.82895297317E+02  0.42137377233E+02 -0.12379237984E+02  0.93810630583E+02  0.00000000000E+00 0.  1.
         21    1    1    2  505  504 -0.68912902356E+02  0.20487585592E+02 -0.92497552699E+02  0.11715172440E+03  0.00000000000E+00 0.  1.
         21    1    1    2  506  503 -0.30701863182E+02 -0.38689814672E+01  0.16807805068E+03  0.17090290969E+03  0.00000000000E+00 0.  1.
<scales pt_clust_3="62.61172" pt_clust_4="72.40593" pt_clust_5="14000.00000" pt_clust_6="30.94468"></scales>
<clustering>
<clus scale="   30.945">  1  6  2 -1</clus>
<clus scale="   62.612">  1  3  2 -1</clus>
<clus scale="   72.406">  1  4  2 -1</clus>
<clus scale="   30.945">  1  3  2 -1</clus>
</clustering>
</event>
<event>
 6    0  0.2666600E+002  0.1237497E+03  0.7546771E-02  0.1237036E+00
         21   -1    0    0  504  501  0.00000000000E+00  0.00000000000E+00  0.14592439373E+04  0.14592439373E+04  0.00000000000E+00 0. -1.
         21   -1    0    0  503  502 -0.00000000000E+00 -0.00000000000E+00 -0.97317071037E+02  0.97317071037E+02  0.00000000000E+00 0. -1.
         21    1    1    2  503  506  0.93464889681E+02 -0.95021305637E+02 -0.17921888344E+02  0.13448393291E+03  0.00000000000E+00 0. -1.
         21    1    1    2  504  502 -0.50831908089E+02 -0.65514218996E+01  0.17497555133E+02  0.54156887323E+02  0.00000000000E+00 0. -1.
         21    1    1    2  505  501  0.64144524988E+01  0.47491142364E+02  0.67606856212E+03  0.67776489618E+03  0.00000000000E+00 0. -1.
         21    1    1    2  506  505 -0.49047434091E+02  0.54081585172E+02  0.68628263739E+03  0.69015529197E+03  0.00000000000E+00 0. -1.
<scales pt_clust_3="110.65139" pt_clust_4="51.25236" pt_clust_5="44.89163" pt_clust_6="44.89163"></scales>
<clustering>
<clus scale="   44.892">  5  6 -1 -1</clus>
<clus scale="   51.252">  2  4  1 -1</clus>
<clus scale="  110.651">  2  3  1 -1</clus>
<clus scale="  123.750">  1  3  2 -1</clus>
</clustering>
</event>
<event>
 6    0  0.2666600E+002  0.1679978E+03  0.7546771E-02  0.1179952E+00
         21   -1    0    0  506  501  0.00000000000E+00  0.00000000000E+00  0.15201229920E+04  0.15201229920E+04  0.00000000000E+00 0.  1.
         21   -1    0    0  504  502 -0.00000000000E+00 -0.00000000000E+00 -0.51279884886E+02  0.51279884886E+02  0.00000000000E+00 0.  1.
         21    1    1    2  503  501 -0.16454855191E+03  0.68686707299E+02  0.77581230054E+03  0.79603945591E+03  0.00000000000E+00 0.  1.
         21    1    1    2  504  503  0.83595650043E+01 -0.16055862417E+03  0.29443651485E+03  0.33547252554E+03  0.00000000000E+00 0.  1.
         21    1    1    2  505  502  0.68352445406E+02  0.18998481534E+02  0.17553143587E+03  0.18932586741E+03  0.00000000000E+00 0. -1.
         21    1    1    2  506  505  0.87836541504E+02  0.72873435332E+02  0.22306285584E+03  0.25056502800E+03  0.00000000000E+00 0.  1.
<scales pt_clust_3="162.57953" pt_clust_4="160.77610" pt_clust_5="33.36727" pt_clust_6="33.36727"></scales>
<clustering>
<clus scale="   33.367">  5  6 -1 -1</clus>
<clus scale="  160.776">  2  4  1 -1</clus>
<clus scale="  162.580">  1  3  2 -1</clus>
<clus scale="  162.580">  1  3  2 -1</clus>
</clustering>
</event>
<event>
 6    0  0.2666600E+002  0.8732038E+02  0.7546771E-02  0.1309474E+00
         21   -1    0    0  505  501  0.00000000000E+00  0.00000000000E+00  0.50215393261E+02  0.50215393261E+02  0.00000000000E+00 0. -1.
         21   -1    0    0  504  502 -0.00000000000E+00 -0.00000000000E+00 -0.54620592839E+03  0.54620592839E+03  0.00000000000E+00 0. -1.
         21    1    1    2  503  506  0.35069769415E+02  0.49652875240E+01  0.42809559699E+01  0.35677295175E+02  0.00000000000E+00 0. -1.
         21    1    1    2  504  503 -0.59016072266E+02  0.95486380678E+02 -0.27617986622E+03  0.29812055311E+03  0.00000000000E+00 0. -1.
         21    1    1    2  505  502 -0.78642804374E+01 -0.78413643071E+02 -0.20468387754E+03  0.21933088257E+03  0.00000000000E+00 0. -1.
         21    1    1    2  506  501  0.31810583289E+02 -0.22038025132E+02 -0.19407747343E+02  0.43292590796E+02  0.00000000000E+00 0. -1.
<scales pt_clust_3="33.72892" pt_clust_4="87.32038" pt_clust_5="14000.00000" pt_clust_6="77.50757"></scales>
<clustering>
<clus scale="   33.729">  3  6 -1 -1</clus>
<clus scale="   77.508">  1  3  2 -1</clus>
<clus scale="   87.320">  1  4  2 -1</clus>
<clus scale="   77.508">  1  3  2 -1</clus>
</clustering>
</event>
<event>
 6    0  0.2666600E+002  0.9571706E+02  0.7546771E-02  0.1289569E+00
         21   -1    0    0  503  501  0.00000000000E+00  0.00000000000E+00  0.19272611327E+03  0.19272611327E+03  0.00000000000E+00 0.  1.
         21   -1    0    0  505  502 -0.00000000000E+00 -0.00000000000E+00 -0.26164749509E+03  0.26164749509E+03  0.00000000000E+00 0. -1.
         21    1    1    2  503  504  0.35904963455E+02  0.13501164598E+02  0.18374838205E+02  0.42533310772E+02  0.00000000000E+00 0. -1.
         21    1    1    2  504  506 -0.33656581333E+02  0.54057082974E+02 -0.11586392261E+03  0.13220961481E+03  0.00000000000E+00 0. -1.
         21    1    1    2  505  501  0.60980607266E+02 -0.62174058106E+02  0.13208508138E+03  0.15821098789E+03  0.00000000000E+00 0.  1.
         21    1    1    2  506  502 -0.63228989387E+02 -0.53841894655E+01 -0.10351737879E+03  0.12141969489E+03  0.00000000000E+00 0. -1.
<scales pt_clust_3="38.35946" pt_clust_4="95.71706" pt_clust_5="14000.00000" pt_clust_6="61.42388"></scales>
<clustering>
<clus scale="   38.359">  1  3  2 -1</clus>
<clus scale="   61.424">  2  6  1 -1</clus>
<clus scale="   95.717">  2  4  1 -1</clus>
<clus scale="   38.359">  1  3  2 -1</clus>
</clustering>
</event>
<event>
 6    0  0.2666600E+002  0.1148543E+03  0.7546771E-02  0.1251836E+00
         21   -1    0    0  506  501  0.00000000000E+00  0.00000000000E+00  0.57331254330E+02  0.57331254330E+02  0.00000000000E+00 0. -1.
         21   -1    0    0  504  502 -0.00000000000E+00 -0.00000000000E+00 -0.80741952319E+03  0.80741952319E+03  0.00000000000E+00 0. -1.
         21    1    1    2  503  501  0.47954693646E+02 -0.12893474615E+00 -0.31062333638E+02  0.57136134258E+02  0.00000000000E+00 0.  1.
         21    1    1    2  504  503  0.66249546278E+01 -0.10698894069E+03 -0.65846593675E+03  0.66713410445E+03  0.00000000000E+00 0. -1.
         21    1    1    2  505  502 -0.36330826573E+02  0.63425685670E+02 -0.57557227453E+02  0.93035374961E+02  0.00000000000E+00 0. -1.
         21    1    1    2  506  505 -0.18248821701E+02  0.43692189762E+02 -0.30027710196E+01  0.47445163858E+02  0.00000000000E+00 0. -1.
<scales pt_clust_3="47.95487" pt_clust_4="107.59838" pt_clust_5="32.33576" pt_clust_6="32.33576"></scales>
<clustering>
<clus scale="   32.336">  5  6 -1 -1</clus>
<clus scale="   47.955">  1  3  2 -1</clus>
<clus scale="  107.598">  2  4  1 -1</clus>
<clus scale="   47.955">  1  3  2 -1</clus>
</clustering>
</event>
<event>
 6    0  0.2666600E+002  0.1846213E+03  0.7546771E-02  0.1163404E+00
         21   -1    0    0  502  501  0.00000000000E+00  0.00000000000E+00  0.15645283487E+02  0.15645283487E+02  0.00000000000E+00 0. -1.
         21   -1    0    0  504  502 -0.00000000000E+00 -0.00000000000E+00 -0.22010019075E+04  0.22010019075E+04  0.00000000000E+00 0.  1.
         21    1    1    2  503  506  0.27341443549E+02 -0.96826565995E+02 -0.62495146338E+03  0.63299863349E+03  0.00000000000E+00 0.  1.
         21    1    1    2  504  503  0.57505710420E+02 -0.59093537378E+02 -0.66704672220E+03  0.67212371070E+03  0.00000000000E+00 0. -1.
         21    1    1    2  505  501 -0.26694254183E+02  0.86216188962E+02 -0.43529144434E+03  0.44454972271E+03  0.00000000000E+00 0. -1.
         21    1    1    2  506  505 -0.58152899786E+02  0.69703914411E+02 -0.45806699413E+03  0.46697512412E+03  0.00000000000E+00 0. -1.
<scales pt_clust_3="45.93718" pt_clust_4="45.93718" pt_clust_5="35.64790" pt_clust_6="181.07525"></scales>
<clustering>
<clus scale="   35.648">  5  6 -1 -1</clus>
<clus scale="   45.937">  3  4 -1 -1</clus>
<clus scale="  181.075">  1  5  2 -1</clus>
<clus scale="  181.075">  1  3  2 -1</clus>
</clustering>
</event>
<event>
 6    0  0.2666600E+002  0.1331049E+03  0.7546771E-02  0.1222920E+00
         21   -1    0    0  503  501  0.00000000000E+00  0.00000000000E+00  0.91843127522E+03  0.91843127522E+03  0.00000000000E+00 0.  1.
         21   -1    0    0  504  502 -0.00000000000E+00 -0.00000000000E+00 -0.50313008018E+02  0.50313008018E+02  0.00000000000E+00 0.  1.
         21    1    1    2  503  506  0.44702508508E+02  0.37196402823E+02  0.17116847946E+03  0.18077758437E+03  0.00000000000E+00 0.  1.
         21    1    1    2  504  501  0.37537083433E+02  0.71998250385E+02  0.62277622546E+03  0.62804697889E+03  0.00000000000E+00 0.  1.
         21    1    1    2  505  502 -0.23127434177E+02 -0.52277239870E+02  0.16097704649E+02  0.59387912196E+02  0.00000000000E+00 0.  1.
         21    1    1    2  506  505 -0.59112157764E+02 -0.56917413339E+02  0.58075857633E+02  0.10053180778E+03  0.00000000000E+00 0.  1.
<scales pt_clust_3="58.15399" pt_clust_4="127.79331" pt_clust_5="31.07023" pt_clust_6="31.07023"></scales>
<clustering>
<clus scale="   31.070">  5  6 -1 -1</clus>
<clus scale="   58.154">  1  3  2 -1</clus>
<clus scale="  127.793">  1  4  2 -1</clus>
<clus scale="   58.154">  1  3  2 -1</clus>
</clustering>
</event>
<event>
 6    0  0.2666600E+002  0.1157833E+03  0.7546771E-02  0.1250220E+00
         21   -1    0    0  505  501  0.00000000000E+00  0.00000000000E+00  0.51934967088E+03  0.51934967088E+03  0.00000000000E+00 0.  1.
         21   -1    0    0  506  502 -0.00000000000E+00 -0.00000000000E+00 -0.40650215536E+02  0.40650215536E+02  0.00000000000E+00 0.  1.
         21    1    1    2  503  502 -0.55651365403E+02  0.79595605721E+02  0.15302412305E+03  0.18124270235E+03  0.00000000000E+00 0.  1.
         21    1    1    2  504  503  0.33277049750E+02 -0.73833261414E+02  0.15681270672E+03  0.17649061596E+03  0.00000000000E+00 0.  1.
         21    1    1    2  505  504 -0.11783969374E+02 -0.45818883295E+02  0.12530785356E+03  0.13394136839E+03  0.00000000000E+00 0.  1.
         21    1    1    2  506  501  0.34158285027E+02  0.40056538988E+02  0.43554772006E+02  0.68325199716E+02  0.00000000000E+00 0.  1.
<scales pt_clust_3="106.80985" pt_clust_4="34.15908" pt_clust_5="34.15908" pt_clust_6="52.64328"></scales>
<clustering>
<clus scale="   34.159">  4  5 -1 -1</clus>
<clus scale="   52.643">  2  6  1 -1</clus>
<clus scale="  106.810">  2  3  1 -1</clus>
<clus scale="  115.783">  1  3  2 -1</clus>
</clustering>
</event>
<event>
 6    0  0.2666600E+002  0.1117009E+03  0.7546771E-02  0.1257452E+00
         21   -1    0    0  506  501  0.00000000000E+00  0.00000000000E+00  0.26949810153E+02  0.26949810153E+02  0.00000000000E+00 0. -1.
         21   -1    0    0  505  502 -0.00000000000E+00 -0.00000000000E+00 -0.79633644073E+03  0.79633644073E+03  0.00000000000E+00 0. -1.
         21    1    1    2  503  504  0.88194935415E+01 -0.54661341827E+02 -0.18466987634E+03  0.19279162063E+03  0.00000000000E+00 0. -1.
         21    1    1    2  504  502  0.13836537449E+02  0.93099555996E+02 -0.39789203836E+03  0.40887290358E+03  0.00000000000E+00 0. -1.
         21    1    1    2  505  501 -0.49536687047E+02  0.20278607885E+02 -0.99876171809E+02  0.11331529022E+03  0.00000000000E+00 0. -1.
         21    1    1    2  506  503  0.26880656057E+02 -0.58716822054E+02 -0.86948544066E+02  0.10830643645E+03  0.00000000000E+00 0. -1.
<scales pt_clust_3="48.59607" pt_clust_4="98.60389" pt_clust_5="53.52668" pt_clust_6="48.59607"></scales>
<clustering>
<clus scale="   48.596">  3  6 -1 -1</clus>
<clus scale="   53.527">  1  5  2 -1</clus>
<clus scale="   98.604">  2  4  1 -1</clus>
<clus scale="   53.527">  1  3  2 -1</clus>
</clustering>
</event>
<event>
 6    0  0.2666600E+002  0.1538226E+03  0.7546771E-02  0.1195853E+00
         21   -1    0    0  506  501  0.00000000000E+00  0.00000000000E+00  0.27408183103E+03  0.27408183103E+03  0.00000000000E+00 0.  1.
         21   -1    0    0  501  502 -0.00000000000E+00 -0.00000000000E+00 -0.36270909194E+03  0.36270909194E+03  0.00000000000E+00 0.  1.
         21    1    1    2  503  502 -0.56621636431E+02 -0.62087864904E+02 -0.18742999582E+03  0.20540427458E+03  0.00000000000E+00 0.  1.
         21    1    1    2  504  503 -0.57693883453E+02 -0.48216981941E+02 -0.10393038657E+03  0.12827699244E+03  0.00000000000E+00 0.  1.
         21    1    1    2  505  504  0.80008122577E+02  0.87537718677E+02  0.25691788980E+02  0.12134339657E+03  0.00000000000E+00 0.  1.
         21    1    1    2  506  505  0.34307397306E+02  0.22767128167E+02  0.17704133251E+03  0.18176625938E+03  0.00000000000E+00 0.  1.
<scales pt_clust_3="33.00120" pt_clust_4="33.00120" pt_clust_5="149.81408" pt_clust_6="41.17450"></scales>
<clustering>
<clus scale="   33.001">  3  4 -1 -1</clus>
<clus scale="   41.175">  1  6  2 -1</clus>
<clus scale="  149.814">  1  5  2 -1</clus>
<clus scale="   41.175">  1  3  2 -1</clus>
</clustering>
</event>
<event>
 6    0  0.2666600E+002  0.1580656E+03  0.7546771E-02  0.1190898E+00
         21   -1    0    0  505  501  0.00000000000E+00  0.00000000000E+00  0.77629541799E+03  0.77629541799E+03  0.00000000000E+00 0.  1.
         21   -1    0    0  503  502 -0.00000000000E+00 -0.00000000000E+00 -0.59061424454E+03  0.59061424454E+03  0.00000000000E+00 0.  1.
         21    1    1    2  503  506  0.57092332364E+02  0.58069719399E+02 -0.31686491884E+02  0.87382266472E+02  0.00000000000E+00 0.  1.
         21    1    1    2  504  502 -0.19042304882E+02  0.10282963998E+03 -0.51272032524E+03  0.52327686376E+03  0.00000000000E+00 0.  1.
         21    1    1    2  505  504 -0.52564976226E+02 -0.77871100935E+02  0.54278667142E+03  0.55085783625E+03  0.00000000000E+00 0.  1.
         21    1    1    2  506  501  0.14514948745E+02 -0.83028258444E+02  0.18730131915E+03  0.20539269605E+03  0.00000000000E+00 0.  1.
<scales pt_clust_3="81.43480" pt_clust_4="14000.00000" pt_clust_5="158.06558" pt_clust_6="83.48824"></scales>
<clustering>
<clus scale="   81.435">  2  3  1 -1</clus>
<clus scale="   83.488">  1  6  2 -1</clus>
<clus scale="  158.066">  1  5  2 -1</clus>
<clus scale="   83.488">  1  3  2 -1</clus>
</clustering>
</event>
<event>
 6    0  0.2666600E+002  0.2580562E+03  0.7546771E-02  0.1108317E+00
         21   -1    0    0  505  501  0.00000000000E+00  0.00000000000E+00  0.73270989415E+02  0.73270989415E+02  0.00000000000E+00 0.  1.
         21   -1    0    0  504  502 -0.00000000000E+00 -0.00000000000E+00 -0.99278355161E+03  0.99278355161E+03  0.00000000000E+00 0.  1.
         21    1    1    2  503  502 -0.80147182266E+02 -0.24765285916E+02 -0.75293211175E+02  0.11272070733E+03  0.00000000000E+00 0.  1.
         21    1    1    2  504  501  0.30886606930E+02 -0.20369558424E+01 -0.12545073920E+03  0.12921307845E+03  0.00000000000E+00 0.  1.
         21    1    1    2  505  506  0.16675897889E+03  0.15519834323E+03 -0.37411063958E+03  0.43801124806E+03  0.00000000000E+00 0.  1.
         21    1    1    2  506  503 -0.11749840355E+03 -0.12839610147E+03 -0.34465797224E+03  0.38610950719E+03  0.00000000000E+00 0.  1.
<scales pt_clust_3="69.53512" pt_clust_4="30.95370" pt_clust_5="237.99703" pt_clust_6="69.53512"></scales>
<clustering>
<clus scale="   30.954">  2  4  1 -1</clus>
<clus scale="   69.535">  3  6 -1 -1</clus>
<clus scale="  237.997">  1  5  2 -1</clus>
<clus scale="  237.997">  1  3  2 -1</clus>
</clustering>
</event>
<event>
 6    0  0.2666600E+002  0.1024563E+03  0.7546771E-02  0.1275214E+00
         21   -1    0    0  503  501  0.00000000000E+00  0.00000000000E+00  0.52306737161E+03  0.52306737161E+03  0.00000000000E+00 0. -1.
         21   -1    0    0  505  502 -0.00000000000E+00 -0.00000000000E+00 -0.17820893415E+03  0.17820893415E+03  0.00000000000E+00 0.  1.
         21    1    1    2  503  506  0.98643949753E+01 -0.36750554188E+02  0.30442523401E+03  0.30679412091E+03  0.00000000000E+00 0. -1.
         21    1    1    2  504  502  0.68583858648E+02  0.34799392769E+02 -0.13863492195E+03  0.15853827610E+03  0.00000000000E+00 0.  1.
         21    1    1    2  505  501  0.31107643190E+02  0.78286754441E+00  0.69035806312E+01  0.31874092488E+02  0.00000000000E+00 0. -1.
         21    1    1    2  506  504 -0.10955589681E+03  0.11682938751E+01  0.17216454477E+03  0.20406981627E+03  0.00000000000E+00 0.  1.
<scales pt_clust_3="38.10425" pt_clust_4="102.45626" pt_clust_5="31.11749" pt_clust_6="14000.00000"></scales>
<clustering>
<clus scale="   31.117">  2  5  1 -1</clus>
<clus scale="   38.104">  1  3  2 -1</clus>
<clus scale="  102.456">  2  4  1 -1</clus>
<clus scale="   38.104">  1  3  2 -1</clus>
</clustering>
</event>
<event>
 6    0  0.2666600E+002  0.7928329E+02  0.7546771E-02  0.1331098E+00
         21   -1    0    0  505  501  0.00000000000E+00  0.00000000000E+00  0.13066794211E+03  0.13066794211E+03  0.00000000000E+00 0. -1.
         21   -1    0    0  506  502 -0.00000000000E+00 -0.00000000000E+00 -0.52748419581E+03  0.52748419581E+03  0.00000000000E+00 0.  1.
         21    1    1    2  503  502  0.41100717125E+02 -0.24412328641E+02 -0.25407592754E+03  0.25853395849E+03  0.00000000000E+00 0.  1.
         21    1    1    2  504  503 -0.32931610512E+01 -0.55846459947E+02 -0.20565322197E+03  0.21312653449E+03  0.00000000000E+00 0.  1.
         21    1    1    2  505  504  0.53651782185E+02  0.31191872459E+02  0.54096421578E+02  0.82327817089E+02  0.00000000000E+00 0. -1.
         21    1    1    2  506  501 -0.91459338258E+02  0.49066916128E+02  0.88164742306E+01  0.10416382784E+03  0.00000000000E+00 0. -1.
<scales pt_clust_3="47.80409" pt_clust_4="14000.00000" pt_clust_5="63.30823" pt_clust_6="79.28329"></scales>
<clustering>
<clus scale="   47.804">  2  3  1 -1</clus>
<clus scale="   63.308">  1  5  2 -1</clus>
<clus scale="   79.283">  1  6  2 -1</clus>
<clus scale="   63.308">  1  3  2 -1</clus>
</clustering>
</event>
<event>
 6    0  0.2666600E+002  0.1249579E+03  0.7546771E-02  0.1235135E+00
         21   -1    0    0  503  501  0.00000000000E+00  0.00000000000E+00  0.32263477611E+03  0.32263477611E+03  0.00000000000E+00 0. -1.
         21   -1    0    0  504  502 -0.00000000000E+00 -0.00000000000E+00 -0.13334721112E+03  0.13334721112E+03  0.00000000000E+00 0. -1.
         21    1    1    2  503  506  0.60492168752E+02 -0.19777231073E+02  0.11578882288E+03  0.13212680596E+03  0.00000000000E+00 0. -1.
         21    1    1    2  504  501 -0.12440689804E+03  0.47323115463E+02 -0.57911913793E+02  0.14515627199E+03  0.00000000000E+00 0. -1.
         21    1    1    2  505  502  0.26796205059E+02  0.18712390113E+02 -0.19533319897E+01  0.32741497449E+02  0.00000000000E+00 0.  1.
         21    1    1    2  506  505  0.37118524233E+02 -0.46258274502E+02  0.13336398790E+03  0.14595741184E+03  0.00000000000E+00 0. -1.
<scales pt_clust_3="35.32237" pt_clust_4="119.37047" pt_clust_5="32.68318" pt_clust_6="35.32237"></scales>
<clustering>
<clus scale="   32.683">  2  5  1 -1</clus>
<clus scale="   35.322">  3  6 -1 -1</clus>
<clus scale="  119.370">  2  4  1 -1</clus>
<clus scale="  124.958">  1  3  2 -1</clus>
</clustering>
</event>
<event>
 6    0  0.2666600E+002  0.2245162E+03  0.7546771E-02  0.1130560E+00
         21   -1    0    0  502  501  0.00000000000E+00  0.00000000000E+00  0.26590028821E+03  0.26590028821E+03  0.00000000000E+00 0.  1.
         21   -1    0    0  504  502 -0.00000000000E+00 -0.00000000000E+00 -0.45653776044E+03  0.45653776044E+03  0.00000000000E+00 0. -1.
         21    1    1    2  503  505  0.94395818895E+02 -0.46816126579E+02 -0.17457580156E+03  0.20390936914E+03  0.00000000000E+00 0. -1.
         21    1    1    2  504  503  0.25868385148E+02 -0.11629765006E+03 -0.20151226747E+03  0.23409722489E+03  0.00000000000E+00 0. -1.
         21    1    1    2  505  506 -0.86113360931E+02  0.12885350309E+03  0.94782067530E+02  0.18166556227E+03  0.00000000000E+00 0.  1.
         21    1    1    2  506  501 -0.34150843111E+02  0.34260273549E+02  0.90668529277E+02  0.10276589235E+03  0.00000000000E+00 0. -1.
<scales pt_clust_3="90.87633" pt_clust_4="90.87633" pt_clust_5="215.66022" pt_clust_6="41.20576"></scales>
<clustering>
<clus scale="   41.206">  5  6 -1 -1</clus>
<clus scale="   90.876">  3  4 -1 -1</clus>
<clus scale="  215.660">  1  5  2 -1</clus>
<clus scale="  215.660">  1  3  2 -1</clus>
</clustering>
</event>
<event>
 6    0  0.2666600E+002  0.1548647E+03  0.7546771E-02  0.1194620E+00
         21   -1    0    0  505  501  0.00000000000E+00  0.00000000000E+00  0.87058585604E+03  0.87058585604E+03  0.00000000000E+00 0.  1.
         21   -1    0    0  504  502 -0.00000000000E+00 -0.00000000000E+00 -0.14967780290E+03  0.14967780290E+03  0.00000000000E+00 0.  1.
         21    1    1    2  503  502 -0.69008161485E+02  0.10961116183E+02 -0.68891653468E+02  0.98124066044E+02  0.00000000000E+00 0.  1.
         21    1    1    2  504  506  0.17327722950E+03  0.10477221187E+02  0.50956470095E+03  0.53832235220E+03  0.00000000000E+00 0.  1.
         21    1    1    2  505  503 -0.73757415642E+02  0.20327604690E+02 -0.20065498553E+02  0.79094829836E+02  0.00000000000E+00 0.  1.
         21    1    1    2  506  501 -0.30511652371E+02 -0.41765942060E+02  0.30030050422E+03  0.30472241086E+03  0.00000000000E+00 0.  1.
<scales pt_clust_3="44.12805" pt_clust_4="147.82048" pt_clust_5="44.12805" pt_clust_6="51.72383"></scales>
<clustering>
<clus scale="   44.128">  3  5 -1 -1</clus>
<clus scale="   51.724">  1  6  2 -1</clus>
<clus scale="  147.820">  1  4  2 -1</clus>
<clus scale="   51.724">  1  3  2 -1</clus>
</clustering>
</event>
<event>
 6    0  0.2666600E+002  0.2109880E+03  0.7546771E-02  0.1140786E+00
         21   -1    0    0  505  501  0.00000000000E+00  0.00000000000E+00  0.68303437175E+02  0.68303437175E+02  0.00000000000E+00 0. -1.
         21   -1    0    0  501  502 -0.00000000000E+00 -0.00000000000E+00 -0.14940679901E+04  0.14940679901E+04  0.00000000000E+00 0. -1.
         21    1    1    2  503  506 -0.21318545168E+03 -0.89534421191E+02 -0.75492878512E+03  0.78954538818E+03  0.00000000000E+00 0. -1.
         21    1    1    2  504  503  0.10803439499E+03 -0.50863276767E+00 -0.13476677080E+03  0.17272455448E+03  0.00000000000E+00 0. -1.
         21    1    1    2  505  504  0.81145548413E+02  0.24135396638E+02 -0.30955210930E+02  0.90140681614E+02  0.00000000000E+00 0. -1.
         21    1    1    2  506  502  0.24005508279E+02  0.65907657321E+02 -0.50511378606E+03  0.50996080300E+03  0.00000000000E+00 0. -1.
<scales pt_clust_3="198.06279" pt_clust_4="64.36662" pt_clust_5="64.36662" pt_clust_6="70.14331"></scales>
<clustering>
<clus scale="   64.367">  4  5 -1 -1</clus>
<clus scale="   70.143">  2  6  1 -1</clus>
<clus scale="  198.063">  2  3  1 -1</clus>
<clus scale="  210.988">  1  3  2 -1</clus>
</clustering>
</event>
<event>
 6    0  0.2666600E+002  0.7925067E+02  0.7546771E-02  0.1331191E+00
         21   -1    0    0  503  501  0.00000000000E+00  0.00000000000E+00  0.17764044569E+03  0.17764044569E+03  0.00000000000E+00 0. -1.
         21   -1    0    0  506  502 -0.00000000000E+00 -0.00000000000E+00 -0.18842280036E+03  0.18842280036E+03  0.00000000000E+00 0.  1.
         21    1    1    2  503  505 -0.21857396713E+02  0.23669225674E+02  0.39742576715E+02  0.51161024609E+02  0.00000000000E+00 0. -1.
         21    1    1    2  504  501  0.29249022560E+02  0.43758544050E+02  0.81826751918E+02  0.97293025585E+02  0.00000000000E+00 0. -1.
         21    1    1    2  505  502 -0.69512960345E+02  0.85416599268E+01 -0.31183108435E+02  0.76664188915E+02  0.00000000000E+00 0. -1.
         21    1    1    2  506  504  0.62121334498E+02 -0.75969429651E+02 -0.10116857487E+03  0.14094500694E+03  0.00000000000E+00 0.  1.
<scales pt_clust_3="32.21767" pt_clust_4="61.51376" pt_clust_5="79.25067" pt_clust_6="14000.00000"></scales>
<clustering>
<clus scale="   32.218">  1  3  2 -1</clus>
<clus scale="   61.514">  1  4  2 -1</clus>
<clus scale="   79.251">  1  5  2 -1</clus>
<clus scale="   32.218">  1  3  2 -1</clus>
</clustering>
</event>
<event>
 6    0  0.2666600E+002  0.1002746E+03  0.7546771E-02  0.1279720E+00
         21   -1    0    0  505  501  0.00000000000E+00  0.00000000000E+00  0.19387470848E+03  0.19387470848E+03  0.00000000000E+00 0.  1.
         21   -1    0    0  506  502 -0.00000000000E+00 -0.00000000000E+00 -0.20296996806E+03  0.20296996806E+03  0.00000000000E+00 0. -1.
         21    1    1    2  503  502  0.55195740425E+02 -0.47874415586E+01 -0.64342590889E+02  0.84908529371E+02  0.00000000000E+00 0. -1.
         21    1    1    2  504  501 -0.29381755722E+02  0.38611195080E+02  0.16546758400E+02  0.51263117037E+02  0.00000000000E+00 0. -1.
         21    1    1    2  505  503 -0.63224252392E+02  0.38450683716E+02  0.12297235660E+03  0.14351989986E+03  0.00000000000E+00 0.  1.
         21    1    1    2  506  504  0.37410267689E+02 -0.72274437238E+02 -0.84271783690E+02  0.11715313027E+03  0.00000000000E+00 0. -1.
<scales pt_clust_3="53.35689" pt_clust_4="48.51919" pt_clust_5="14000.00000" pt_clust_6="100.27457"></scales>
<clustering>
<clus scale="   48.519">  1  4  2 -1</clus>
<clus scale="   53.357">  2  3  1 -1</clus>
<clus scale="  100.275">  2  6  1 -1</clus>
<clus scale="   48.519">  1  3  2 -1</clus>
</clustering>
</event>
<event>
 6    0  0.2666600E+002  0.1738453E+03  0.7546771E-02  0.1173896E+00
         21   -1    0    0  506  501  0.00000000000E+00  0.00000000000E+00  0.12477211804E+04  0.12477211804E+04  0.00000000000E+00 0.  1.
         21   -1    0    0  504  502 -0.00000000000E+00 -0.00000000000E+00 -0.41163342450E+02  0.41163342450E+02  0.00000000000E+00 0.  1.
         21    1    1    2  503  501  0.43845249484E+02 -0.72524806526E+02  0.52984192739E+03  0.53657685516E+03  0.00000000000E+00 0.  1.
         21    1    1    2  504  503  0.64998995145E+02 -0.62510530020E+02  0.27240136095E+03  0.28694065098E+03  0.00000000000E+00 0.  1.
         21    1    1    2  505  502 -0.13431708150E+03  0.84414160337E+02  0.21141863353E+03  0.26431925290E+03  0.00000000000E+00 0.  1.
         21    1    1    2  506  505  0.25472836875E+02  0.50621176210E+02  0.19289591606E+03  0.20104776381E+03  0.00000000000E+00 0.  1.
<scales pt_clust_3="61.75960" pt_clust_4="61.75960" pt_clust_5="160.36528" pt_clust_6="56.66894"></scales>
<clustering>
<clus scale="   56.669">  1  6  2 -1</clus>
<clus scale="   61.760">  3  4 -1 -1</clus>
<clus scale="  160.365">  2  5  1 -1</clus>
<clus scale="   56.669">  1  3  2 -1</clus>
</clustering>
</event>
<event>
 6    0  0.2666600E+002  0.2197895E+03  0.7546771E-02  0.1134040E+00
         21   -1    0    0  503  501  0.00000000000E+00  0.00000000000E+00  0.63628521309E+03  0.63628521309E+03  0.00000000000E+00 0.  1.
         21   -1    0    0  504  502 -0.00000000000E+00 -0.00000000000E+00 -0.12883824251E+03  0.12883824251E+03  0.00000000000E+00 0.  1.
         21    1    1    2  503  505  0.59854841841E+02 -0.59761979574E+02  0.23645234792E+02  0.87824788202E+02  0.00000000000E+00 0.  1.
         21    1    1    2  504  506 -0.64792144784E+02  0.56627953030E+02  0.13118645235E+03  0.15689051077E+03  0.00000000000E+00 0.  1.
         21    1    1    2  505  502  0.17923804418E+02 -0.11993290079E+03 -0.24319206909E+02  0.12367937290E+03  0.00000000000E+00 0.  1.
         21    1    1    2  506  501 -0.12986501476E+02  0.12306692733E+03  0.37693449035E+03  0.39672878373E+03  0.00000000000E+00 0.  1.
<scales pt_clust_3="66.78061" pt_clust_4="83.25326" pt_clust_5="211.50309" pt_clust_6="83.25326"></scales>
<clustering>
<clus scale="   66.781">  3  5 -1 -1</clus>
<clus scale="   83.253">  4  6 -1 -1</clus>
<clus scale="  211.503">  2  3  1 -1</clus>
<clus scale="  219.790">  1  3  2 -1</clus>
</clustering>
</event>
<event>
 6    0  0.2666600E+002  0.1312629E+03  0.7546771E-02  0.1225594E+00
         21   -1    0    0  504  501  0.00000000000E+00  0.00000000000E+00  0.77184300090E+02  0.77184300090E+02  0.00000000000E+00 0. -1.
         21   -1    0    0  506  502 -0.00000000000E+00 -0.00000000000E+00 -0.41438878153E+03  0.41438878153E+03  0.00000000000E+00 0. -1.
         21    1    1    2  503  502 -0.51299685773E+02 -0.70989239263E+02 -0.21109149439E+03  0.22854047531E+03  0.00000000000E+00 0. -1.
         21    1    1    2  504  503 -0.45853685039E+02 -0.12295386219E+02 -0.11115415389E+03  0.12086762544E+03  0.00000000000E+00 0. -1.
         21    1    1    2  505  501 -0.15091319005E+00  0.30415785629E+02 -0.64995749312E+01  0.31102849781E+02  0.00000000000E+00 0. -1.
         21    1    1    2  506  505  0.97304284002E+02  0.52868839854E+02 -0.84592582371E+01  0.11106213109E+03  0.00000000000E+00 0. -1.
<scales pt_clust_3="32.25596" pt_clust_4="32.25596" pt_clust_5="30.41616" pt_clust_6="123.94069"></scales>
<clustering>
<clus scale="   30.416">  1  5  2 -1</clus>
<clus scale="   32.256">  3  4 -1 -1</clus>
<clus scale="  123.941">  1  6  2 -1</clus>
<clus scale="   30.416">  1  3  2 -1</clus>
</clustering>
</event>
<event>
 6    0  0.2666600E+002  0.1036583E+03  0.7546771E-02  0.1272786E+00
         21   -1    0    0  506  501  0.00000000000E+00  0.00000000000E+00  0.11129864806E+03  0.11129864806E+03  0.00000000000E+00 0.  1.
         21   -1    0    0  505  502 -0.00000000000E+00 -0.00000000000E+00 -0.24372033509E+04  0.24372033509E+04  0.00000000000E+00 0.  1.
         21    1    1    2  503  501  0.41199366260E+02 -0.10663373915E+03  0.63373821949E+02  0.13070724316E+03  0.00000000000E+00 0.  1.
         21    1    1    2  504  502 -0.23155006910E+02  0.45333219735E+02 -0.18055373549E+04  0.18062547979E+04  0.00000000000E+00 0.  1.
         21    1    1    2  505  503  0.36470263321E+02  0.91474820295E+01 -0.48893647309E+03  0.49038008855E+03  0.00000000000E+00 0.  1.
         21    1    1    2  506  504 -0.54514622672E+02  0.52153037390E+02 -0.94804696810E+02  0.12115986931E+03  0.00000000000E+00 0.  1.
<scales pt_clust_3="14000.00000" pt_clust_4="54.86154" pt_clust_5="37.59995" pt_clust_6="103.65828"></scales>
<clustering>
<clus scale="   37.600">  2  5  1 -1</clus>
<clus scale="   54.862">  2  4  1 -1</clus>
<clus scale="  103.658">  2  6  1 -1</clus>
<clus scale="  103.658">  1  3  2 -1</clus>
</clustering>
</event>
<event>
 6    0  0.2666600E+002  0.2519226E+03  0.7546771E-02  0.1112096E+00
         21   -1    0    0  506  501  0.00000000000E+00  0.00000000000E+00  0.15354330186E+03  0.15354330186E+03  0.00000000000E+00 0.  1.
         21   -1    0    0  503  502 -0.00000000000E+00 -0.00000000000E+00 -0.41314703378E+03  0.41314703378E+03  0.00000000000E+00 0.  1.
         21    1    1    2  503  505 -0.11974786918E+03  0.13739612837E+03 -0.78389614680E+02  0.19839904222E+03  0.00000000000E+00 0.  1.
         21    1    1    2  504  502  0.94666412769E+02 -0.93029632870E+02 -0.84449311491E+02  0.15731474346E+03  0.00000000000E+00 0.  1.
         21    1    1    2  505  501 -0.86508011162E+01  0.68781788904E+02 -0.38857035843E+02  0.79471001499E+02  0.00000000000E+00 0.  1.
         21    1    1    2  506  504  0.33732257529E+02 -0.11314828440E+03 -0.57907769907E+02  0.13150554847E+03  0.00000000000E+00 0.  1.
<scales pt_clust_3="41.23120" pt_clust_4="251.29987" pt_clust_5="41.23120" pt_clust_6="60.80397"></scales>
<clustering>
<clus scale="   41.231">  3  5 -1 -1</clus>
<clus scale="   60.804">  4  6 -1 -1</clus>
<clus scale="  251.300">  2  4  1 -1</clus>
<clus scale="  251.923">  1  3  2 -1</clus>
</clustering>
</event>
<event>
 6    0  0.2666600E+002  0.1328899E+03  0.7546771E-02  0.1223230E+00
         21   -1    0    0  506  501  0.00000000000E+00  0.00000000000E+00  0.24255607022E+03  0.24255607022E+03  0.00000000000E+00 0.  1.
         21   -1    0    0  505  502 -0.00000000000E+00 -0.00000000000E+00 -0.66002821489E+03  0.66002821489E+03  0.00000000000E+00 0. -1.
         21    1    1    2  503  504  0.15895452458E+02  0.59713028329E+02  0.87907321850E+02  0.10745235407E+03  0.00000000000E+00 0.  1.
         21    1    1    2  504  502 -0.44325036206E+01 -0.51078256273E+02 -0.45003817098E+03  0.45294921425E+03  0.00000000000E+00 0. -1.
         21    1    1    2  505  501  0.68707834777E+01 -0.82071308472E+02 -0.17909101021E+03  0.19712051461E+03  0.00000000000E+00 0. -1.
         21    1    1    2  506  503 -0.18333732315E+02  0.73436536416E+02  0.12374971467E+03  0.14506220218E+03  0.00000000000E+00 0.  1.
<scales pt_clust_3="31.69027" pt_clust_4="51.27022" pt_clust_5="128.17795" pt_clust_6="31.69027"></scales>
<clustering>
<clus scale="   31.690">  3  6 -1 -1</clus>
<clus scale="   51.270">  2  4  1 -1</clus>
<clus scale="  128.178">  2  5  1 -1</clus>
<clus scale="  132.890">  1  3  2 -1</clus>
</clustering>
</event>
<event>
 6    0  0.2666600E+002  0.1327863E+03  0.7546771E-02  0.1223379E+00
         21   -1    0    0  503  501  0.00000000000E+00  0.00000000000E+00  0.35063710555E+03  0.35063710555E+03  0.00000000000E+00 0. -1.
         21   -1    0    0  504  502 -0.00000000000E+00 -0.00000000000E+00 -0.25187906272E+03  0.25187906272E+03  0.00000000000E+00 0. -1.
         21    1    1    2  503  502 -0.11689015047E+03  0.33443105391E+02  0.22943763175E+03  0.25966011522E+03  0.00000000000E+00 0. -1.
         21    1    1    2  504  505 -0.56349239122E+01 -0.12015299507E+03 -0.82649196255E+02  0.14594308560E+03  0.00000000000E+00 0. -1.
         21    1    1    2  505  506  0.13473703135E+03  0.47317634211E+02 -0.58565610372E+02  0.15434687183E+03  0.00000000000E+00 0. -1.
         21    1    1    2  506  501 -0.12211956976E+02  0.39392255471E+02  0.10535217701E+02  0.42566095619E+02  0.00000000000E+00 0. -1.
<scales pt_clust_3="132.78633" pt_clust_4="116.50657" pt_clust_5="14000.00000" pt_clust_6="41.24175"></scales>
<clustering>
<clus scale="   41.242">  1  6  2 -1</clus>
<clus scale="  116.507">  2  4  1 -1</clus>
<clus scale="  132.786">  1  3  2 -1</clus>
<clus scale="   41.242">  1  3  2 -1</clus>
</clustering>
</event>
<event>
 6    0  0.2666600E+002  0.1220958E+03  0.7546771E-02  0.1239679E+00
         21   -1    0    0  506  501  0.00000000000E+00  0.00000000000E+00  0.60814981497E+03  0.60814981497E+03  0.00000000000E+00 0.  1.
         21   -1    0    0  505  502 -0.00000000000E+00 -0.00000000000E+00 -0.17885526722E+04  0.17885526722E+04  0.00000000000E+00 0.  1.
         21    1    1    2  503  502  0.20679183225E+02 -0.14638228821E+03  0.42225306078E+03  0.44738467817E+03  0.00000000000E+00 0.  1.
         21    1    1    2  504  501 -0.37904924482E+02  0.59621464045E+02 -0.92255131623E+03  0.92525263218E+03  0.00000000000E+00 0.  1.
         21    1    1    2  505  504  0.17859201062E+02  0.47038892304E+02 -0.84903592143E+03  0.85052548718E+03  0.00000000000E+00 0.  1.
         21    1    1    2  506  503 -0.63345980464E+00  0.39721931861E+02  0.16893131962E+03  0.17353968967E+03  0.00000000000E+00 0. -1.
<scales pt_clust_3="108.71550" pt_clust_4="46.89243" pt_clust_5="46.89243" pt_clust_6="39.72698"></scales>
<clustering>
<clus scale="   39.727">  1  6  2 -1</clus>
<clus scale="   46.892">  4  5 -1 -1</clus>
<clus scale="  108.715">  1  3  2 -1</clus>
<clus scale="   39.727">  1  3  2 -1</clus>
</clustering>
</event>
<event>
 6    0  0.2666600E+002  0.1577742E+03  0.7546771E-02  0.1191233E+00
         21   -1    0    0  506  501  0.00000000000E+00  0.00000000000E+00  0.10397808871E+04  0.10397808871E+04  0.00000000000E+00 0.  1.
         21   -1    0    0  504  502 -0.00000000000E+00 -0.00000000000E+00 -0.25649512651E+02  0.25649512651E+02  0.00000000000E+00 0.  1.
         21    1    1    2  503  501 -0.29328205039E+02  0.77695016511E+02  0.44449388247E+03  0.45218521731E+03  0.00000000000E+00 0.  1.
         21    1    1    2  504  503 -0.63275762659E+02  0.31225176219E+02  0.23375068508E+03  0.24416841840E+03  0.00000000000E+00 0. -1.
         21    1    1    2  505  502  0.89218281764E+02 -0.68812850769E+02  0.25117920413E+03  0.27529275839E+03  0.00000000000E+00 0.  1.
         21    1    1    2  506  505  0.33856859342E+01 -0.40107341961E+02  0.84707602717E+02  0.93784005600E+02  0.00000000000E+00 0.  1.
<scales pt_clust_3="61.51447" pt_clust_4="61.51447" pt_clust_5="152.96310" pt_clust_6="32.51004"></scales>
<clustering>
<clus scale="   32.510">  5  6 -1 -1</clus>
<clus scale="   61.514">  3  4 -1 -1</clus>
<clus scale="  152.963">  2  5  1 -1</clus>
<clus scale="  157.774">  1  3  2 -1</clus>
</clustering>
</event>
<event>
 6    0  0.2666600E+002  0.1367848E+03  0.7546771E-02  0.1217722E+00
         21   -1    0    0  505  501  0.00000000000E+00  0.00000000000E+00  0.49392640393E+03  0.49392640393E+03  0.00000000000E+00 0. -1.
         21   -1    0    0  504  502 -0.00000000000E+00 -0.00000000000E+00 -0.54903820114E+03  0.54903820114E+03  0.00000000000E+00 0. -1.
         21    1    1    2  503  502 -0.11722857712E+03  0.81895955572E+01 -0.13277501022E+03  0.17730993234E+03  0.00000000000E+00 0.  1.
         21    1    1    2  504  501  0.23548509510E+03  0.64733280317E+02 -0.34008094291E+03  0.41868684638E+03  0.00000000000E+00 0. -1.
         21    1    1    2  505  506 -0.48890003630E+02  0.57265809509E+01  0.18943372354E+03  0.19572470922E+03  0.00000000000E+00 0. -1.
         21    1    1    2  506  503 -0.69366514348E+02 -0.78649456825E+02  0.22831043239E+03  0.25124311714E+03  0.00000000000E+00 0. -1.
<scales pt_clust_3="121.14775" pt_clust_4="14000.00000" pt_clust_5="49.22424" pt_clust_6="136.78481"></scales>
<clustering>
<clus scale="   49.224">  1  5  2 -1</clus>
<clus scale="  121.148">  2  3  1 -1</clus>
<clus scale="  136.785">  1  6  2 -1</clus>
<clus scale="   49.224">  1  3  2 -1</clus>
</clustering>
</event>
<event>
 6    0  0.2666600E+002  0.1547789E+03  0.7546771E-02  0.1194721E+00
         21   -1    0    0  503  501  0.00000000000E+00  0.00000000000E+00  0.12473314800E+03  0.12473314800E+03  0.00000000000E+00 0. -1.
         21   -1    0    0  501  502 -0.00000000000E+00 -0.00000000000E+00 -0.39963170556E+03  0.39963170556E+03  0.00000000000E+00 0.  1.
         21    1    1    2  503  506  0.95464260572E+00 -0.66947942251E+02  0.20990032836E+02  0.70167797404E+02  0.00000000000E+00 0. -1.
         21    1    1    2  504  502 -0.61618434457E+02  0.59881810632E+02 -0.17616868363E+03  0.19600527493E+03  0.00000000000E+00 0.  1.
         21    1    1    2  505  504 -0.43759035136E+02  0.67894394579E+02 -0.11066087407E+03  0.13700485765E+03  0.00000000000E+00 0. -1.
         21    1    1    2  506  505  0.10442282699E+03 -0.60828262960E+02 -0.90590326873E+01  0.12118692357E+03  0.00000000000E+00 0. -1.
<scales pt_clust_3="66.95475" pt_clust_4="33.49451" pt_clust_5="33.49451" pt_clust_6="150.87456"></scales>
<clustering>
<clus scale="   33.495">  4  5 -1 -1</clus>
<clus scale="   66.955">  1  3  2 -1</clus>
<clus scale="  150.875">  1  6  2 -1</clus>
<clus scale="   66.955">  1  3  2 -1</clus>
</clustering>
</event>
<event>
 6    0  0.2666600E+002  0.1548671E+03  0.7546771E-02  0.1194617E+00
         21   -1    0    0  506  501  0.00000000000E+00  0.00000000000E+00  0.17701870026E+03  0.17701870026E+03  0.00000000000E+00 0. -1.
         21   -1    0    0  505  502 -0.00000000000E+00 -0.00000000000E+00 -0.63282307977E+03  0.63282307977E+03  0.00000000000E+00 0. -1.
         21    1    1    2  503  504 -0.98245618164E+02 -0.43857168115E+02 -0.34976490693E+03  0.36593871455E+03  0.00000000000E+00 0. -1.
         21    1    1    2  504  502 -0.45126066623E+02  0.11693409711E+02 -0.22992564376E+03  0.23460370708E+03  0.00000000000E+00 0. -1.
         21    1    1    2  505  501  0.11638352173E+03  0.37957270165E+01  0.12405435234E+03  0.17014409777E+03  0.00000000000E+00 0. -1.
         21    1    1    2  506  503  0.26988163058E+02  0.28368031388E+02 -0.16818115928E+00  0.39155260630E+02  0.00000000000E+00 0. -1.
<scales pt_clust_3="36.17391" pt_clust_4="36.17391" pt_clust_5="144.78844" pt_clust_6="39.15490"></scales>
<clustering>
<clus scale="   36.174">  3  4 -1 -1</clus>
<clus scale="   39.155">  1  6  2 -1</clus>
<clus scale="  144.788">  1  5  2 -1</clus>
<clus scale="   39.155">  1  3  2 -1</clus>
</clustering>
</event>
<event>
 6    0  0.2666600E+002  0.8838797E+02  0.7546771E-02  0.1306803E+00
         21   -1    0    0  504  501  0.00000000000E+00  0.00000000000E+00  0.10487483171E+03  0.10487483171E+03  0.00000000000E+00 0. -1.
         21   -1    0    0  503  502 -0.00000000000E+00 -0.00000000000E+00 -0.29179847585E+03  0.29179847585E+03  0.00000000000E+00 0. -1.
         21    1    1    2  503  506  0.27798690672E+02 -0.53452745644E+02 -0.10878630576E+03  0.12435603540E+03  0.00000000000E+00 0. -1.
         21    1    1    2  504  505 -0.91382318743E+02  0.66375822751E+02  0.29537113348E+02  0.11674296163E+03  0.00000000000E+00 0. -1.
         21    1    1    2  505  502  0.20696542351E+02  0.31497820951E+02 -0.78928466932E+02  0.87465207266E+02  0.00000000000E+00 0. -1.
         21    1    1    2  506  501  0.42887085719E+02 -0.44420898057E+02 -0.28745984795E+02  0.68109103265E+02  0.00000000000E+00 0. -1.
<scales pt_clust_3="53.24334" pt_clust_4="14000.00000" pt_clust_5="37.68898" pt_clust_6="88.38797"></scales>
<clustering>
<clus scale="   37.689">  2  5  1 -1</clus>
<clus scale="   53.243">  2  3  1 -1</clus>
<clus scale="   88.388">  2  6  1 -1</clus>
<clus scale="   88.388">  1  3  2 -1</clus>
</clustering>
</event>
<event>
 6    0  0.2666600E+002  0.1457840E+03  0.7546771E-02  0.1205751E+00
         21   -1    0    0  504  501  0.00000000000E+00  0.00000000000E+00  0.12554457186E+03  0.12554457186E+03  0.00000000000E+00 0. -1.
         21   -1    0    0  506  502 -0.00000000000E+00 -0.00000000000E+00 -0.41398520744E+03  0.41398520744E+03  0.00000000000E+00 0.  1.
         21    1    1    2  503  501  0.28826911646E+02 -0.47003627922E+02 -0.62065860938E+02  0.83021099528E+02  0.00000000000E+00 0. -1.
         21    1    1    2  504  505 -0.62040987063E+02  0.33772428973E+02  0.39941329360E+02  0.81147833154E+02  0.00000000000E+00 0. -1.
         21    1    1    2  505  502 -0.91546806414E+00  0.10333399292E+03 -0.12769058531E+02  0.10412396953E+03  0.00000000000E+00 0. -1.
         21    1    1    2  506  503  0.34129543481E+02 -0.90102793976E+02 -0.25354704548E+03  0.27123687708E+03  0.00000000000E+00 0.  1.
<scales pt_clust_3="42.29270" pt_clust_4="70.63753" pt_clust_5="134.63823" pt_clust_6="42.29270"></scales>
<clustering>
<clus scale="   42.293">  3  6 -1 -1</clus>
<clus scale="   70.638">  1  4  2 -1</clus>
<clus scale="  134.638">  1  5  2 -1</clus>
<clus scale="   70.638">  1  3  2 -1</clus>
</clustering>
</event>
<event>
 6    0  0.2666600E+002  0.7102054E+02  0.7546771E-02  0.1356657E+00
         21   -1    0    0  505  501  0.00000000000E+00  0.00000000000E+00  0.21294177980E+02  0.21294177980E+02  0.00000000000E+00 0.  1.
         21   -1    0    0  503  502 -0.00000000000E+00 -0.00000000000E+00 -0.14026137403E+04  0.14026137403E+04  0.00000000000E+00 0.  1.
         21    1    1    2  503  501 -0.19342928968E+02 -0.70220565079E+02 -0.22617468278E+03  0.23761326518E+03  0.00000000000E+00 0.  1.
         21    1    1    2  504  502  0.24905476188E+02  0.43057117356E+02 -0.63786953526E+03  0.63980601912E+03  0.00000000000E+00 0.  1.
         21    1    1    2  505  506  0.41350328814E+02  0.58391608571E+02 -0.87479238422E+02  0.11301348061E+03  0.00000000000E+00 0.  1.
         21    1    1    2  506  504 -0.46912876034E+02 -0.31228160848E+02 -0.42979610589E+03  0.43347515339E+03  0.00000000000E+00 0.  1.
<scales pt_clust_3="71.02054" pt_clust_4="49.74131" pt_clust_5="14000.00000" pt_clust_6="33.55404"></scales>
<clustering>
<clus scale="   49.741">  2  4  1 -1</clus>
<clus scale="   33.554">  2  6  1 -1</clus>
<clus scale="   71.021">  2  3  1 -1</clus>
<clus scale="   71.021">  1  3  2 -1</clus>
</clustering>
</event>
<event>
 6    0  0.2666600E+002  0.1242243E+03  0.7546771E-02  0.1236287E+00
         21   -1    0    0  503  501  0.00000000000E+00  0.00000000000E+00  0.14092048152E+04  0.14092048152E+04  0.00000000000E+00 0.  1.
         21   -1    0    0  506  502 -0.00000000000E+00 -0.00000000000E+00 -0.39675308029E+02  0.39675308029E+02  0.00000000000E+00 0. -1.
         21    1    1    2  503  505 -0.68896203183E+02 -0.29986477704E+02  0.80641230319E+03  0.80990535150E+03  0.00000000000E+00 0.  1.
         21    1    1    2  504  502  0.20882953912E+02  0.81622656174E+02  0.48387190625E+02  0.97157994945E+02  0.00000000000E+00 0. -1.
         21    1    1    2  505  504 -0.24760191839E+02 -0.47382688932E+02  0.41421141187E+03  0.41764731537E+03  0.00000000000E+00 0. -1.
         21    1    1    2  506  501  0.72773441110E+02 -0.42534895384E+01  0.10051860151E+03  0.12416946144E+03  0.00000000000E+00 0.  1.
<scales pt_clust_3="39.61610" pt_clust_4="115.00390" pt_clust_5="39.61610" pt_clust_6="72.89764"></scales>
<clustering>
<clus scale="   39.616">  3  5 -1 -1</clus>
<clus scale="   72.898">  2  6  1 -1</clus>
<clus scale="  115.004">  2  4  1 -1</clus>
<clus scale="  124.224">  1  3  2 -1</clus>
</clustering>
</event>
<event>
 6    0  0.2666600E+002  0.1916726E+03  0.7546771E-02  0.1156961E+00
         21   -1    0    0  505  501  0.00000000000E+00  0.00000000000E+00  0.39307214207E+03  0.39307214207E+03  0.00000000000E+00 0. -1.
         21   -1    0    0  504  502 -0.00000000000E+00 -0.00000000000E+00 -0.16464158162E+03  0.16464158162E+03  0.00000000000E+00 0. -1.
         21    1    1    2  503  502  0.57426837625E+02  0.40770380741E+02  0.80012931208E+02  0.10659331492E+03  0.00000000000E+00 0. -1.
         21    1    1    2  504  506 -0.67501843234E+02 -0.16387497278E+03 -0.31834262611E+02  0.18006922508E+03  0.00000000000E+00 0. -1.
         21    1    1    2  505  503  0.63186025936E+02  0.13369007911E+03  0.13935809924E+03  0.20319003654E+03  0.00000000000E+00 0. -1.
         21    1    1    2  506  501 -0.53111020328E+02 -0.10585487072E+02  0.40893792615E+02  0.67861147140E+02  0.00000000000E+00 0. -1.
<scales pt_clust_3="36.89566" pt_clust_4="184.06586" pt_clust_5="36.89566" pt_clust_6="54.15564"></scales>
<clustering>
<clus scale="   36.896">  3  5 -1 -1</clus>
<clus scale="   54.156">  1  6  2 -1</clus>
<clus scale="  184.066">  2  4  1 -1</clus>
<clus scale="   54.156">  1  3  2 -1</clus>
</clustering>
</event>
<event>
 6    0  0.2666600E+002  0.1637122E+03  0.7546771E-02  0.1184568E+00
         21   -1    0    0  504  501  0.00000000000E+00  0.00000000000E+00  0.30753360307E+02  0.30753360307E+02  0.00000000000E+00 0. -1.
         21   -1    0    0  506  502 -0.00000000000E+00 -0.00000000000E+00 -0.26169987926E+04  0.26169987926E+04  0.00000000000E+00 0. -1.
         21    1    1    2  503  501 -0.12734203838E+02  0.57761748425E+02 -0.19747269007E+03  0.20614083257E+03  0.00000000000E+00 0. -1.
         21    1    1    2  504  505  0.11020757895E+03 -0.17085149980E+03 -0.47286753809E+03  0.51472289052E+03  0.00000000000E+00 0. -1.
         21    1    1    2  505  502 -0.83213203334E+02  0.14685095693E+03 -0.15784584941E+04  0.15874573564E+04  0.00000000000E+00 0. -1.
         21    1    1    2  506  503 -0.14260171777E+02 -0.33761205554E+02 -0.33744671000E+03  0.33943107340E+03  0.00000000000E+00 0. -1.
<scales pt_clust_3="56.53184" pt_clust_4="14000.00000" pt_clust_5="163.71223" pt_clust_6="36.64930"></scales>
<clustering>
<clus scale="   36.649">  2  6  1 -1</clus>
<clus scale="   56.532">  1  3  2 -1</clus>
<clus scale="  163.712">  2  5  1 -1</clus>
<clus scale="   56.532">  1  3  2 -1</clus>
</clustering>
</event>
<event>
 6    0  0.2666600E+002  0.1184025E+03  0.7546771E-02  0.1245756E+00
         21   -1    0    0  503  501  0.00000000000E+00  0.00000000000E+00  0.41033058732E+03  0.41033058732E+03  0.00000000000E+00 0.  1.
         21   -1    0    0  504  502 -0.00000000000E+00 -0.00000000000E+00 -0.83557408394E+02  0.83557408394E+02  0.00000000000E+00 0.  1.
         21    1    1    2  503  505  0.52118701559E+02 -0.29356659864E+02  0.13016481581E+03  0.14325170786E+03  0.00000000000E+00 0. -1.
         21    1    1    2  504  506 -0.11625770678E+03  0.57098316277E+02  0.51771612053E+02  0.13948609939E+03  0.00000000000E+00 0.  1.
         21    1    1    2  505  502  0.84499239644E+02 -0.65811070748E+02  0.81897372885E+02  0.13482729033E+03  0.00000000000E+00 0.  1.
         21    1    1    2  506  501 -0.20360234424E+02  0.38069414335E+02  0.62939378178E+02  0.76322898131E+02  0.00000000000E+00 0.  1.
<scales pt_clust_3="46.14965" pt_clust_4="118.40246" pt_clust_5="14000.00000" pt_clust_6="43.17198"></scales>
<clustering>
<clus scale="   43.172">  1  6  2 -1</clus>
<clus scale="   46.150">  1  3  2 -1</clus>
<clus scale="  118.402">  2  4  1 -1</clus>
<clus scale="   43.172">  1  3  2 -1</clus>
</clustering>
</event>
<event>
 6    0  0.2666600E+002  0.1450397E+03  0.7546771E-02  0.1206704E+00
         21   -1    0    0  504  501  0.00000000000E+00  0.00000000000E+00  0.11096481473E+03  0.11096481473E+03  0.00000000000E+00 0.  1.
         21   -1    0    0  501  502 -0.00000000000E+00 -0.00000000000E+00 -0.54858691751E+03  0.54858691751E+03  0.00000000000E+00 0.  1.
         21    1    1    2  503  502  0.11063574136E+02 -0.96423651195E+02 -0.35956509638E+03  0.37243386221E+03  0.00000000000E+00 0.  1.
         21    1    1    2  504  505  0.18799873788E+02  0.86897821415E+02  0.54512716584E+02  0.10428951477E+03  0.00000000000E+00 0.  1.
         21    1    1    2  505  506  0.22187869320E+00  0.45306464545E+02 -0.33709947190E+01  0.45432241471E+02  0.00000000000E+00 0. -1.
         21    1    1    2  506  503 -0.30085326617E+02 -0.35780634765E+02 -0.12919872826E+03  0.13739611379E+03  0.00000000000E+00 0.  1.
<scales pt_clust_3="39.23944" pt_clust_4="140.71648" pt_clust_5="31.61455" pt_clust_6="39.23944"></scales>
<clustering>
<clus scale="   31.615">  4  5 -1 -1</clus>
<clus scale="   39.239">  3  6 -1 -1</clus>
<clus scale="  140.716">  1  4  2 -1</clus>
<clus scale="  140.716">  1  3  2 -1</clus>
</clustering>
</event>
<event>
 6    0  0.2666600E+002  0.1076114E+03  0.7546771E-02  0.1265058E+00
         21   -1    0    0  506  501  0.00000000000E+00  0.00000000000E+00  0.10517170218E+03  0.10517170218E+03  0.00000000000E+00 0.  1.
         21   -1    0    0  504  502 -0.00000000000E+00 -0.00000000000E+00 -0.83574373871E+03  0.83574373871E+03  0.00000000000E+00 0.  1.
         21    1    1    2  503  505 -0.17355668570E+02 -0.73903868548E+02 -0.69686491613E+01  0.76233608658E+02  0.00000000000E+00 0.  1.
         21    1    1    2  504  503 -0.30499095129E+02  0.52876879910E+02 -0.29064688198E+03  0.29698782675E+03  0.00000000000E+00 0.  1.
         21    1    1    2  505  501 -0.20808497383E+01 -0.48725567495E+02  0.54275341712E+02  0.72967962704E+02  0.00000000000E+00 0.  1.
         21    1    1    2  506  502  0.49935613437E+02  0.69752556132E+02 -0.48723184710E+03  0.49472604278E+03  0.00000000000E+00 0.  1.
<scales pt_clust_3="107.61136" pt_clust_4="57.93532" pt_clust_5="48.76998" pt_clust_6="14000.00000"></scales>
<clustering>
<clus scale="   48.770">  1  5  2 -1</clus>
<clus scale="   57.935">  2  4  1 -1</clus>
<clus scale="  107.611">  1  3  2 -1</clus>
<clus scale="   48.770">  1  3  2 -1</clus>
</clustering>
</event>
<event>
 6    0  0.2666600E+002  0.1624284E+03  0.7546771E-02  0.1185982E+00
         21   -1    0    0  505  501  0.00000000000E+00  0.00000000000E+00  0.12569137035E+03  0.12569137035E+03  0.00000000000E+00 0.  1.
         21   -1    0    0  504  502 -0.00000000000E+00 -0.00000000000E+00 -0.41615516381E+03  0.41615516381E+03  0.00000000000E+00 0. -1.
         21    1    1    2  503  502  0.16417774012E+02  0.39942029909E+02 -0.17972908078E+03  0.18484439817E+03  0.00000000000E+00 0. -1.
         21    1    1    2  504  506 -0.43324408075E+02 -0.44083357629E+02  0.14717291545E+01  0.61826472822E+02  0.00000000000E+00 0. -1.
         21    1    1    2  505  503  0.58447650958E+02  0.88163375735E+02 -0.16129113991E+03  0.19288271187E+03  0.00000000000E+00 0. -1.
         21    1    1    2  506  501 -0.31541016896E+02 -0.84022048015E+02  0.49084698074E+02  0.10229295129E+03  0.00000000000E+00 0.  1.
<scales pt_clust_3="42.22471" pt_clust_4="40.34453" pt_clust_5="42.22471" pt_clust_6="156.13851"></scales>
<clustering>
<clus scale="   40.345">  4  6 -1 -1</clus>
<clus scale="   42.225">  3  5 -1 -1</clus>
<clus scale="  156.139">  1  4  2 -1</clus>
<clus scale="  156.139">  1  3  2 -1</clus>
</clustering>
</event>
<event>
 6    0  0.2666600E+002  0.1142500E+03  0.7546771E-02  0.1252896E+00
         21   -1    0    0  506  501  0.00000000000E+00  0.00000000000E+00  0.34315812658E+03  0.34315812658E+03  0.00000000000E+00 0.  1.
         21   -1    0    0  505  502 -0.00000000000E+00 -0.00000000000E+00 -0.28219749424E+03  0.28219749424E+03  0.00000000000E+00 0.  1.
         21    1    1    2  503  501 -0.53412009541E+02 -0.13296758238E+03  0.18271736442E+03  0.23220434102E+03  0.00000000000E+00 0.  1.
         21    1    1    2  504  502  0.39686012618E+02  0.76814292505E+02 -0.21184634672E+03  0.22881059798E+03  0.00000000000E+00 0.  1.
         21    1    1    2  505  503 -0.27932059481E+02 -0.25310102560E+02  0.26590213795E+01  0.37787188743E+02  0.00000000000E+00 0. -1.
         21    1    1    2  506  504  0.41658056403E+02  0.81463392433E+02  0.87430593266E+02  0.12655349307E+03  0.00000000000E+00 0.  1.
<scales pt_clust_3="14000.00000" pt_clust_4="58.11267" pt_clust_5="37.69352" pt_clust_6="114.24999"></scales>
<clustering>
<clus scale="   37.694">  2  5  1 -1</clus>
<clus scale="   58.113">  2  4  1 -1</clus>
<clus scale="  114.250">  1  6  2 -1</clus>
<clus scale="  114.250">  1  3  2 -1</clus>
</clustering>
</event>
<event>
 6    0  0.2666600E+002  0.1723198E+03  0.7546771E-02  0.1175450E+00
         21   -1    0    0  503  501  0.00000000000E+00  0.00000000000E+00  0.43423634136E+03  0.43423634136E+03  0.00000000000E+00 0. -1.
         21   -1    0    0  504  502 -0.00000000000E+00 -0.00000000000E+00 -0.26378792023E+03  0.26378792023E+03  0.00000000000E+00 0. -1.
         21    1    1    2  503  505  0.26613780189E+02  0.21888002529E+02  0.34089334429E+02  0.48471235516E+02  0.00000000000E+00 0. -1.
         21    1    1    2  504  501  0.15366115964E+03 -0.27622651224E+02  0.33190870982E+03  0.36679443084E+03  0.00000000000E+00 0. -1.
         21    1    1    2  505  506 -0.13780872228E+03 -0.16353083469E+02 -0.18895248944E+03  0.23443914038E+03  0.00000000000E+00 0. -1.
         21    1    1    2  506  502 -0.42466217553E+02  0.22087732164E+02 -0.65971336815E+01  0.48319454862E+02  0.00000000000E+00 0. -1.
<scales pt_clust_3="34.45835" pt_clust_4="14000.00000" pt_clust_5="172.31976" pt_clust_6="47.17973"></scales>
<clustering>
<clus scale="   34.458">  1  3  2 -1</clus>
<clus scale="   47.180">  2  6  1 -1</clus>
<clus scale="  172.320">  2  5  1 -1</clus>
<clus scale="   34.458">  1  3  2 -1</clus>
</clustering>
</event>
<event>
 6    0  0.2666600E+002  0.1339477E+03  0.7546771E-02  0.1221713E+00
         21   -1    0    0  504  501  0.00000000000E+00  0.00000000000E+00  0.39882239525E+03  0.39882239525E+03  0.00000000000E+00 0. -1.
         21   -1    0    0  505  502 -0.00000000000E+00 -0.00000000000E+00 -0.18481390479E+03  0.18481390479E+03  0.00000000000E+00 0.  1.
         21    1    1    2  503  502 -0.34762443090E+02 -0.43497750727E+02 -0.98312581253E+02  0.11298604073E+03  0.00000000000E+00 0.  1.
         21    1    1    2  504  506 -0.13421941341E+02  0.52338451718E+02  0.84649547104E+02  0.10042413984E+03  0.00000000000E+00 0. -1.
         21    1    1    2  505  501  0.81047702181E+02  0.54965090685E+02  0.26978692270E+03  0.28701023480E+03  0.00000000000E+00 0. -1.
         21    1    1    2  506  503 -0.32863317750E+02 -0.63805791677E+02 -0.42115398083E+02  0.83215884666E+02  0.00000000000E+00 0.  1.
<scales pt_clust_3="45.66526" pt_clust_4="54.03205" pt_clust_5="123.50749" pt_clust_6="45.66526"></scales>
<clustering>
<clus scale="   45.665">  3  6 -1 -1</clus>
<clus scale="   54.032">  1  4  2 -1</clus>
<clus scale="  123.507">  1  5  2 -1</clus>
<clus scale="   54.032">  1  3  2 -1</clus>
</clustering>
</event>
<event>
 6    0  0.2666600E+002  0.1231277E+03  0.7546771E-02  0.1238025E+00
         21   -1    0    0  504  501  0.00000000000E+00  0.00000000000E+00  0.20803151537E+03  0.20803151537E+03  0.00000000000E+00 0. -1.
         21   -1    0    0  506  502 -0.00000000000E+00 -0.00000000000E+00 -0.15364235445E+03  0.15364235445E+03  0.00000000000E+00 0. -1.
         21    1    1    2  503  505 -0.11266560040E+02 -0.45328646989E+02  0.36325092044E+02  0.59170380470E+02  0.00000000000E+00 0. -1.
         21    1    1    2  504  502  0.95153827517E+01  0.11233357920E+03 -0.52656921330E+02  0.12442719514E+03  0.00000000000E+00 0. -1.
         21    1    1    2  505  501  0.37664985682E+02 -0.64586036481E+02  0.10464771963E+03  0.12861241184E+03  0.00000000000E+00 0. -1.
         21    1    1    2  506  503 -0.35913808393E+02 -0.24188957341E+01 -0.33926729429E+02  0.49463882375E+02  0.00000000000E+00 0. -1.
<scales pt_clust_3="41.37803" pt_clust_4="112.02452" pt_clust_5="41.37803" pt_clust_6="35.99518"></scales>
<clustering>
<clus scale="   35.995">  2  6  1 -1</clus>
<clus scale="   41.378">  3  5 -1 -1</clus>
<clus scale="  112.025">  2  4  1 -1</clus>
<clus scale="  123.128">  1  3  2 -1</clus>
</clustering>
</event>
<event>
 6    0  0.2666600E+002  0.1140514E+03  0.7546771E-02  0.1253246E+00
         21   -1    0    0  504  501  0.00000000000E+00  0.00000000000E+00  0.60183358774E+03  0.60183358774E+03  0.00000000000E+00 0. -1.
         21   -1    0    0  503  502 -0.00000000000E+00 -0.00000000000E+00 -0.23231351441E+03  0.23231351441E+03  0.00000000000E+00 0. -1.
         21    1    1    2  503  501 -0.90164478145E+00 -0.88949788916E+02  0.43079791184E+03  0.43988602928E+03  0.00000000000E+00 0. -1.
         21    1    1    2  504  505  0.13771987891E+02  0.50019065937E+02  0.97901911188E+02  0.11079873114E+03  0.00000000000E+00 0. -1.
         21    1    1    2  505  506 -0.11190274678E+03  0.68279291213E+02 -0.83669130951E+02  0.15551466111E+03  0.00000000000E+00 0. -1.
         21    1    1    2  506  502  0.99032403668E+02 -0.29348568234E+02 -0.75510618749E+02  0.12794768063E+03  0.00000000000E+00 0. -1.
<scales pt_clust_3="46.53425" pt_clust_4="51.88039" pt_clust_5="114.05136" pt_clust_6="14000.00000"></scales>
<clustering>
<clus scale="   51.880">  1  4  2 -1</clus>
<clus scale="   46.534">  1  3  2 -1</clus>
<clus scale="  114.051">  1  5  2 -1</clus>
<clus scale="   51.880">  1  3  2 -1</clus>
</clustering>
</event>
<event>
 6    0  0.2666600E+002  0.2434839E+03  0.7546771E-02  0.1117493E+00
         21   -1    0    0  506  501  0.00000000000E+00  0.00000000000E+00  0.13275491953E+03  0.13275491953E+03  0.00000000000E+00 0. -1.
         21   -1    0    0  504  502 -0.00000000000E+00 -0.00000000000E+00 -0.70450042235E+03  0.70450042235E+03  0.00000000000E+00 0. -1.
         21    1    1    2  503  502 -0.15297001878E+02  0.59760025913E+02 -0.15980284445E+03  0.17129567437E+03  0.00000000000E+00 0. -1.
         21    1    1    2  504  505  0.49086097958E+02 -0.71154338418E+02 -0.18141080927E+03  0.20095339412E+03  0.00000000000E+00 0.  1.
         21    1    1    2  505  501  0.12509577213E+03 -0.12957955759E+03 -0.16078970059E+03  0.24143972698E+03  0.00000000000E+00 0. -1.
         21    1    1    2  506  503 -0.15888486821E+03  0.14097387009E+03 -0.69742148507E+02  0.22356654641E+03  0.00000000000E+00 0. -1.
<scales pt_clust_3="61.68678" pt_clust_4="57.42245" pt_clust_5="57.42245" pt_clust_6="226.51125"></scales>
<clustering>
<clus scale="   61.687">  2  3  1 -1</clus>
<clus scale="   57.422">  4  5 -1 -1</clus>
<clus scale="  226.511">  1  6  2 -1</clus>
<clus scale="  226.511">  1  3  2 -1</clus>
</clustering>
</event>
<event>
 6    0  0.2666600E+002  0.2755735E+03  0.7546771E-02  0.1098131E+00
         21   -1    0    0  504  501  0.00000000000E+00  0.00000000000E+00  0.10016200997E+04  0.10016200997E+04  0.00000000000E+00 0.  1.
         21   -1    0    0  505  502 -0.00000000000E+00 -0.00000000000E+00 -0.27161566563E+03  0.27161566563E+03  0.00000000000E+00 0. -1.
         21    1    1    2  503  502 -0.25487784136E+03  0.44821589956E+02 -0.15082730724E+03  0.29953391386E+03  0.00000000000E+00 0. -1.
         21    1    1    2  504  506  0.18160082931E+03 -0.11046597485E+03  0.50767891970E+03  0.55038121181E+03  0.00000000000E+00 0.  1.
         21    1    1    2  505  501 -0.42355505473E+02  0.69075443917E+02  0.11769379314E+03  0.14288888949E+03  0.00000000000E+00 0.  1.
         21    1    1    2  506  503  0.11563251753E+03 -0.34310590260E+01  0.25545902844E+03  0.28043175014E+03  0.00000000000E+00 0.  1.
<scales pt_clust_3="263.42042" pt_clust_4="59.70777" pt_clust_5="81.02719" pt_clust_6="59.70777"></scales>
<clustering>
<clus scale="   59.708">  4  6 -1 -1</clus>
<clus scale="   81.027">  1  5  2 -1</clus>
<clus scale="  263.420">  2  3  1 -1</clus>
<clus scale="   81.027">  1  3  2 -1</clus>
</clustering>
</event>
<event>
 6    0  0.2666600E+002  0.1126046E+03  0.7546771E-02  0.1255821E+00
         21   -1    0    0  504  501  0.00000000000E+00  0.00000000000E+00  0.36451465243E+03  0.36451465243E+03  0.00000000000E+00 0.  1.
         21   -1    0    0  505  502 -0.00000000000E+00 -0.00000000000E+00 -0.23236546123E+03  0.23236546123E+03  0.00000000000E+00 0. -1.
         21    1    1    2  503  501  0.20683278056E+02  0.25556462461E+02  0.49835463536E+02  0.59703468832E+02  0.00000000000E+00 0.  1.
         21    1    1    2  504  502 -0.69417524334E+02 -0.50651232559E+02 -0.14493139242E+03  0.16849168690E+03  0.00000000000E+00 0. -1.
         21    1    1    2  505  506 -0.44103463229E+02  0.18301385616E+02 -0.54206993961E+02  0.72238870275E+02  0.00000000000E+00 0. -1.
         21    1    1    2  506  503  0.92837709507E+02  0.67933844817E+01  0.28145211405E+03  0.29644608765E+03  0.00000000000E+00 0.  1.
<scales pt_clust_3="32.87751" pt_clust_4="112.60459" pt_clust_5="47.48785" pt_clust_6="14000.00000"></scales>
<clustering>
<clus scale="   32.878">  1  3  2 -1</clus>
<clus scale="   47.488">  2  5  1 -1</clus>
<clus scale="  112.605">  2  4  1 -1</clus>
<clus scale="   32.878">  1  3  2 -1</clus>
</clustering>
</event>
<event>
 6    0  0.2666600E+002  0.1615541E+03  0.7546771E-02  0.1186953E+00
         21   -1    0    0  504  501  0.00000000000E+00  0.00000000000E+00  0.42681021592E+03  0.42681021592E+03  0.00000000000E+00 0. -1.
         21   -1    0    0  506  502 -0.00000000000E+00 -0.00000000000E+00 -0.21931679277E+03  0.21931679277E+03  0.00000000000E+00 0. -1.
         21    1    1    2  503  501  0.60733261085E+02  0.53461725555E+02  0.39594959073E+02  0.90080219168E+02  0.00000000000E+00 0. -1.
         21    1    1    2  504  505 -0.10081289901E+03  0.10983042495E+03  0.18131946424E+03  0.23473966636E+03  0.00000000000E+00 0. -1.
         21    1    1    2  505  502  0.15486397990E+03 -0.11334331242E+03  0.16441508955E+02  0.19261329642E+03  0.00000000000E+00 0. -1.
         21    1    1    2  506  503 -0.11478434198E+03 -0.49948838086E+02 -0.29862509123E+02  0.12869382674E+03  0.00000000000E+00 0. -1.
<scales pt_clust_3="80.91159" pt_clust_4="14000.00000" pt_clust_5="161.55408" pt_clust_6="114.71639"></scales>
<clustering>
<clus scale="   80.912">  1  3  2 -1</clus>
<clus scale="  114.716">  2  6  1 -1</clus>
<clus scale="  161.554">  2  5  1 -1</clus>
<clus scale="   80.912">  1  3  2 -1</clus>
</clustering>
</event>
<event>
 6    0  0.2666600E+002  0.8691838E+02  0.7546771E-02  0.1310491E+00
         21   -1    0    0  505  501  0.00000000000E+00  0.00000000000E+00  0.14375916624E+03  0.14375916624E+03  0.00000000000E+00 0. -1.
         21   -1    0    0  504  502 -0.00000000000E+00 -0.00000000000E+00 -0.34488795726E+03  0.34488795726E+03  0.00000000000E+00 0. -1.
         21    1    1    2  503  501 -0.59829628056E+02 -0.80974995063E+02  0.42253855144E+02  0.10918755650E+03  0.00000000000E+00 0. -1.
         21    1    1    2  504  506 -0.67802287060E+01 -0.39392953030E+02 -0.25694076612E+02  0.47518015770E+02  0.00000000000E+00 0.  1.
         21    1    1    2  505  502 -0.23955385966E+02  0.68273226386E+02  0.17630671659E+02  0.74471031556E+02  0.00000000000E+00 0. -1.
         21    1    1    2  506  503  0.90565242728E+02  0.52094721707E+02 -0.23531924121E+03  0.25747051968E+03  0.00000000000E+00 0. -1.
<scales pt_clust_3="86.91838" pt_clust_4="39.97219" pt_clust_5="69.15735" pt_clust_6="14000.00000"></scales>
<clustering>
<clus scale="   39.972">  2  4  1 -1</clus>
<clus scale="   69.157">  1  5  2 -1</clus>
<clus scale="   86.918">  1  3  2 -1</clus>
<clus scale="   69.157">  1  3  2 -1</clus>
</clustering>
</event>
<event>
 6    0  0.2666600E+002  0.7615377E+02  0.7546771E-02  0.1340335E+00
         21   -1    0    0  505  501  0.00000000000E+00  0.00000000000E+00  0.59537122140E+03  0.59537122140E+03  0.00000000000E+00 0. -1.
         21   -1    0    0  504  502 -0.00000000000E+00 -0.00000000000E+00 -0.26044852826E+03  0.26044852826E+03  0.00000000000E+00 0. -1.
         21    1    1    2  503  506  0.24340595053E+02 -0.52941418170E+02 -0.48119743413E+02  0.75569623735E+02  0.00000000000E+00 0. -1.
         21    1    1    2  504  503  0.51921692797E+02  0.12837727043E+02 -0.17972196947E+03  0.18751174824E+03  0.00000000000E+00 0. -1.
         21    1    1    2  505  502 -0.76702327740E+02 -0.42124154447E+02  0.41014678132E+03  0.41937819888E+03  0.00000000000E+00 0. -1.
         21    1    1    2  506  501  0.44003989075E+00  0.82227845574E+02  0.15261762470E+03  0.17336017880E+03  0.00000000000E+00 0. -1.
<scales pt_clust_3="78.67131" pt_clust_4="53.48523" pt_clust_5="76.15377" pt_clust_6="14000.00000"></scales>
<clustering>
<clus scale="   53.485">  2  4  1 -1</clus>
<clus scale="   78.671">  2  3  1 -1</clus>
<clus scale="   76.154">  1  5  2 -1</clus>
<clus scale="   76.154">  1  3  2 -1</clus>
</clustering>
</event>
<event>
 6    0  0.2666600E+002  0.6443033E+02  0.7546771E-02  0.1380127E+00
         21   -1    0    0  506  501  0.00000000000E+00  0.00000000000E+00  0.11133669617E+03  0.11133669617E+03  0.00000000000E+00 0.  1.
         21   -1    0    0  503  502 -0.00000000000E+00 -0.00000000000E+00 -0.36919925463E+03  0.36919925463E+03  0.00000000000E+00 0.  1.
         21    1    1    2  503  505 -0.65221250429E+02  0.63037931744E+02 -0.71612682445E+02  0.11556802600E+03  0.00000000000E+00 0.  1.
         21    1    1    2  504  502  0.42851628109E+02 -0.42055948119E+02 -0.24180866043E+03  0.24915134569E+03  0.00000000000E+00 0.  1.
         21    1    1    2  505  501 -0.31336790719E+02  0.17167923728E+02  0.18694107799E+02  0.40326191540E+02  0.00000000000E+00 0.  1.
         21    1    1    2  506  504  0.53706413040E+02 -0.38149907353E+02  0.36864676611E+02  0.75490387562E+02  0.00000000000E+00 0.  1.
<scales pt_clust_3="64.43033" pt_clust_4="14000.00000" pt_clust_5="35.73139" pt_clust_6="41.60977"></scales>
<clustering>
<clus scale="   35.731">  1  5  2 -1</clus>
<clus scale="   41.610">  1  6  2 -1</clus>
<clus scale="   64.430">  1  3  2 -1</clus>
<clus scale="   35.731">  1  3  2 -1</clus>
</clustering>
</event>
<event>
 6    0  0.2666600E+002  0.1414251E+03  0.7546771E-02  0.1211424E+00
         21   -1    0    0  503  501  0.00000000000E+00  0.00000000000E+00  0.28161488859E+03  0.28161488859E+03  0.00000000000E+00 0.  1.
         21   -1    0    0  506  502 -0.00000000000E+00 -0.00000000000E+00 -0.71549351346E+03  0.71549351346E+03  0.00000000000E+00 0.  1.
         21    1    1    2  503  502 -0.21489255951E+02 -0.23389082909E+02 -0.79878648080E+02  0.85961827225E+02  0.00000000000E+00 0.  1.
         21    1    1    2  504  505  0.18348465171E+03  0.60140039752E+02 -0.11458730768E+03  0.22452993759E+03  0.00000000000E+00 0.  1.
         21    1    1    2  505  501 -0.13588995887E+03 -0.37147559699E+01  0.20184521082E+03  0.24335441123E+03  0.00000000000E+00 0.  1.
         21    1    1    2  506  504 -0.26105436887E+02 -0.33036200873E+02 -0.44125787993E+03  0.44326222601E+03  0.00000000000E+00 0.  1.
<scales pt_clust_3="31.76220" pt_clust_4="141.42510" pt_clust_5="14000.00000" pt_clust_6="64.27182"></scales>
<clustering>
<clus scale="   31.762">  2  3  1 -1</clus>
<clus scale="   64.272">  2  6  1 -1</clus>
<clus scale="  141.425">  2  4  1 -1</clus>
<clus scale="  141.425">  1  3  2 -1</clus>
</clustering>
</event>
<event>
 6    0  0.2666600E+002  0.2319626E+03  0.7546771E-02  0.1125266E+00
         21   -1    0    0  505  501  0.00000000000E+00  0.00000000000E+00  0.10811100534E+04  0.10811100534E+04  0.00000000000E+00 0. -1.
         21   -1    0    0  506  502 -0.00000000000E+00 -0.00000000000E+00 -0.85803639593E+03  0.85803639593E+03  0.00000000000E+00 0.  1.
         21    1    1    2  503  501  0.15756041867E+02  0.25659015494E+03  0.98891144637E+03  0.10217791392E+04  0.00000000000E+00 0. -1.
         21    1    1    2  504  503  0.47170385649E+01 -0.13098623507E+03 -0.16961312255E+01  0.13108211584E+03  0.00000000000E+00 0. -1.
         21    1    1    2  505  502  0.25271758551E+02 -0.12099960776E+03 -0.67240315680E+03  0.68367066058E+03  0.00000000000E+00 0.  1.
         21    1    1    2  506  504 -0.45744838984E+02 -0.46043121047E+01 -0.91738500900E+02  0.10261453372E+03  0.00000000000E+00 0. -1.
<scales pt_clust_3="14000.00000" pt_clust_4="231.96260" pt_clust_5="126.05848" pt_clust_6="45.97597"></scales>
<clustering>
<clus scale="   45.976">  2  6  1 -1</clus>
<clus scale="  126.058">  2  5  1 -1</clus>
<clus scale="  231.963">  2  4  1 -1</clus>
<clus scale="  231.963">  1  3  2 -1</clus>
</clustering>
</event>
<event>
 6    0  0.2666600E+002  0.1215560E+03  0.7546771E-02  0.1240552E+00
         21   -1    0    0  506  501  0.00000000000E+00  0.00000000000E+00  0.18516361059E+04  0.18516361059E+04  0.00000000000E+00 0. -1.
         21   -1    0    0  503  502 -0.00000000000E+00 -0.00000000000E+00 -0.50460469184E+03  0.50460469184E+03  0.00000000000E+00 0. -1.
         21    1    1    2  503  504 -0.61632465747E+02 -0.97420777358E+02 -0.27305371798E+03  0.29639112941E+03  0.00000000000E+00 0. -1.
         21    1    1    2  504  505  0.27472409222E+02  0.13722163745E+03 -0.18635305096E+03  0.23304928804E+03  0.00000000000E+00 0. -1.
         21    1    1    2  505  501  0.72059547312E+02 -0.35181205943E+02  0.17764301824E+04  0.17782391539E+04  0.00000000000E+00 0. -1.
         21    1    1    2  506  502 -0.37899490787E+02 -0.46196541481E+01  0.30008000624E+02  0.48561226383E+02  0.00000000000E+00 0. -1.
<scales pt_clust_3="121.55601" pt_clust_4="14000.00000" pt_clust_5="52.86289" pt_clust_6="38.18000"></scales>
<clustering>
<clus scale="   38.180">  1  6  2 -1</clus>
<clus scale="   52.863">  1  5  2 -1</clus>
<clus scale="  121.556">  2  3  1 -1</clus>
<clus scale="   38.180">  1  3  2 -1</clus>
</clustering>
</event>
<event>
 6    0  0.2666600E+002  0.1042079E+03  0.7546771E-02  0.1271688E+00
         21   -1    0    0  504  501  0.00000000000E+00  0.00000000000E+00  0.40603054016E+03  0.40603054016E+03  0.00000000000E+00 0.  1.
         21   -1    0    0  505  502 -0.00000000000E+00 -0.00000000000E+00 -0.26264264870E+03  0.26264264870E+03  0.00000000000E+00 0.  1.
         21    1    1    2  503  501 -0.41232881781E+02 -0.96042592339E+01  0.97085796053E+02  0.10591526864E+03  0.00000000000E+00 0.  1.
         21    1    1    2  504  502 -0.50647138849E+02  0.60506941186E+01 -0.16513743258E+03  0.17283551490E+03  0.00000000000E+00 0. -1.
         21    1    1    2  505  506  0.26590556872E+02  0.98401834842E+02 -0.43008142492E+02  0.11063308337E+03  0.00000000000E+00 0.  1.
         21    1    1    2  506  503  0.65289463758E+02 -0.94848269726E+02  0.25444767047E+03  0.27928932195E+03  0.00000000000E+00 0.  1.
<scales pt_clust_3="42.33665" pt_clust_4="51.51069" pt_clust_5="104.20790" pt_clust_6="14000.00000"></scales>
<clustering>
<clus scale="   42.337">  1  3  2 -1</clus>
<clus scale="   51.511">  2  4  1 -1</clus>
<clus scale="  104.208">  2  5  1 -1</clus>
<clus scale="   42.337">  1  3  2 -1</clus>
</clustering>
</event>
<event>
 6    0  0.2666600E+002  0.1961856E+03  0.7546771E-02  0.1152998E+00
         21   -1    0    0  504  501  0.00000000000E+00  0.00000000000E+00  0.16221761567E+04  0.16221761567E+04  0.00000000000E+00 0. -1.
         21   -1    0    0  506  502 -0.00000000000E+00 -0.00000000000E+00 -0.18326497373E+03  0.18326497373E+03  0.00000000000E+00 0. -1.
         21    1    1    2  503  502 -0.11766106333E+03 -0.78007668280E+01 -0.65939569225E+02  0.13510368084E+03  0.00000000000E+00 0. -1.
         21    1    1    2  504  505  0.95297523213E+02 -0.11514832836E+03  0.36271917884E+03  0.39230849871E+03  0.00000000000E+00 0. -1.
         21    1    1    2  505  503 -0.81307242599E+02  0.38048922979E+02 -0.32730191203E+02  0.95550267688E+02  0.00000000000E+00 0. -1.
         21    1    1    2  506  501  0.10367078271E+03  0.84900172209E+02  0.11748617645E+04  0.11824786832E+04  0.00000000000E+00 0. -1.
<scales pt_clust_3="47.48738" pt_clust_4="188.48506" pt_clust_5="47.48738" pt_clust_6="133.99877"></scales>
<clustering>
<clus scale="   47.487">  3  5 -1 -1</clus>
<clus scale="  133.999">  1  6  2 -1</clus>
<clus scale="  188.485">  1  4  2 -1</clus>
<clus scale="  133.999">  1  3  2 -1</clus>
</clustering>
</event>
<event>
 6    0  0.2666600E+002  0.7475899E+02  0.7546771E-02  0.1344619E+00
         21   -1    0    0  503  501  0.00000000000E+00  0.00000000000E+00  0.70412721170E+03  0.70412721170E+03  0.00000000000E+00 0.  1.
         21   -1    0    0  506  502 -0.00000000000E+00 -0.00000000000E+00 -0.23804080864E+03  0.23804080864E+03  0.00000000000E+00 0. -1.
         21    1    1    2  503  505  0.11428082580E+02 -0.75046082430E+02  0.35939512473E+03  0.36732461289E+03  0.00000000000E+00 0.  1.
         21    1    1    2  504  501 -0.75588874986E+02  0.50160815895E+02  0.31631988932E+03  0.32907150872E+03  0.00000000000E+00 0.  1.
         21    1    1    2  505  502  0.28629835033E+02 -0.40377730000E+02 -0.11686890182E+03  0.12691874860E+03  0.00000000000E+00 0. -1.
         21    1    1    2  506  504  0.35530957373E+02  0.65262996534E+02 -0.92759709170E+02  0.11885315012E+03  0.00000000000E+00 0. -1.
<scales pt_clust_3="14000.00000" pt_clust_4="74.75899" pt_clust_5="49.49776" pt_clust_6="67.87591"></scales>
<clustering>
<clus scale="   49.498">  2  5  1 -1</clus>
<clus scale="   67.876">  2  6  1 -1</clus>
<clus scale="   74.759">  2  4  1 -1</clus>
<clus scale="   74.759">  1  3  2 -1</clus>
</clustering>
</event>
<event>
 6    0  0.2666600E+002  0.9871158E+02  0.7546771E-02  0.1283029E+00
         21   -1    0    0  505  501  0.00000000000E+00  0.00000000000E+00  0.72596847010E+03  0.72596847010E+03  0.00000000000E+00 0.  1.
         21   -1    0    0  506  502 -0.00000000000E+00 -0.00000000000E+00 -0.27743267677E+02  0.27743267677E+02  0.00000000000E+00 0. -1.
         21    1    1    2  503  501 -0.78943961098E+02  0.42158053330E+01  0.37348394892E+03  0.38175932485E+03  0.00000000000E+00 0.  1.
         21    1    1    2  504  503  0.50361418162E+02 -0.13022230702E+02  0.15815236259E+03  0.16648729899E+03  0.00000000000E+00 0. -1.
         21    1    1    2  505  502 -0.44874833240E+02  0.12409801847E+02  0.59438680529E+02  0.75503050159E+02  0.00000000000E+00 0. -1.
         21    1    1    2  506  504  0.73457376176E+02 -0.36033764781E+01  0.10715021038E+03  0.12996206378E+03  0.00000000000E+00 0. -1.
<scales pt_clust_3="88.62680" pt_clust_4="36.55474" pt_clust_5="46.55914" pt_clust_6="36.55474"></scales>
<clustering>
<clus scale="   36.555">  4  6 -1 -1</clus>
<clus scale="   46.559">  2  5  1 -1</clus>
<clus scale="   88.627">  1  3  2 -1</clus>
<clus scale="   88.627">  1  3  2 -1</clus>
</clustering>
</event>
<event>
 6    0  0.2666600E+002  0.7227658E+02  0.7546771E-02  0.1352518E+00
         21   -1    0    0  505  501  0.00000000000E+00  0.00000000000E+00  0.33422616035E+03  0.33422616035E+03  0.00000000000E+00 0.  1.
         21   -1    0    0  504  502 -0.00000000000E+00 -0.00000000000E+00 -0.25303324152E+04  0.25303324152E+04  0.00000000000E+00 0.  1.
         21    1    1    2  503  502  0.66598056200E+02 -0.27864310151E+02 -0.24210494334E+04  0.24221255294E+04  0.00000000000E+00 0.  1.
         21    1    1    2  504  506 -0.92052371590E+02  0.18208479205E+02  0.10804506917E+03  0.14310459393E+03  0.00000000000E+00 0.  1.
         21    1    1    2  505  503  0.61410677227E+02  0.17446784610E+01 -0.78957252475E+02  0.10004280533E+03  0.00000000000E+00 0. -1.
         21    1    1    2  506  501 -0.35956361837E+02  0.79111524850E+01  0.19585536189E+03  0.19928564692E+03  0.00000000000E+00 0.  1.
<scales pt_clust_3="14000.00000" pt_clust_4="72.27658" pt_clust_5="58.68397" pt_clust_6="36.81639"></scales>
<clustering>
<clus scale="   36.816">  1  6  2 -1</clus>
<clus scale="   58.684">  1  5  2 -1</clus>
<clus scale="   72.277">  1  4  2 -1</clus>
<clus scale="   36.816">  1  3  2 -1</clus>
</clustering>
</event>
<event>
 6    0  0.2666600E+002  0.1321671E+03  0.7546771E-02  0.1224275E+00
         21   -1    0    0  504  501  0.00000000000E+00  0.00000000000E+00  0.10127252443E+03  0.10127252443E+03  0.00000000000E+00 0.  1.
         21   -1    0    0  501  502 -0.00000000000E+00 -0.00000000000E+00 -0.38053259632E+03  0.38053259632E+03  0.00000000000E+00 0.  1.
         21    1    1    2  503  505  0.71535431689E+01  0.90606363501E+02 -0.24268145799E+03  0.25914277211E+03  0.00000000000E+00 0.  1.
         21    1    1    2  504  506  0.37234034139E+02 -0.23614311795E+02  0.21471409491E+02  0.49041109749E+02  0.00000000000E+00 0. -1.
         21    1    1    2  505  502 -0.25105195116E+02  0.33635111818E+02 -0.57466356993E+02  0.71161603094E+02  0.00000000000E+00 0.  1.
         21    1    1    2  506  503 -0.19282382192E+02 -0.10062716352E+03 -0.58366640279E+00  0.10245963580E+03  0.00000000000E+00 0.  1.
<scales pt_clust_3="38.76460" pt_clust_4="44.09092" pt_clust_5="38.76460" pt_clust_6="119.22280"></scales>
<clustering>
<clus scale="   38.765">  3  5 -1 -1</clus>
<clus scale="   44.091">  1  4  2 -1</clus>
<clus scale="  119.223">  1  6  2 -1</clus>
<clus scale="   44.091">  1  3  2 -1</clus>
</clustering>
</event>
<event>
 6    0  0.2666600E+002  0.8468066E+02  0.7546771E-02  0.1316270E+00
         21   -1    0    0  504  501  0.00000000000E+00  0.00000000000E+00  0.18760969458E+03  0.18760969458E+03  0.00000000000E+00 0. -1.
         21   -1    0    0  503  502 -0.00000000000E+00 -0.00000000000E+00 -0.15193049377E+04  0.15193049377E+04  0.00000000000E+00 0. -1.
         21    1    1    2  503  506 -0.37523863017E+02  0.30526695964E+02 -0.31356274578E+03  0.31727198900E+03  0.00000000000E+00 0. -1.
         21    1    1    2  504  505  0.10393499270E+03  0.44538176812E+02  0.13370381973E+03  0.17510809036E+03  0.00000000000E+00 0. -1.
         21    1    1    2  505  502 -0.47625198227E+02 -0.17601263118E+02 -0.11529504328E+04  0.11540678769E+04  0.00000000000E+00 0. -1.
         21    1    1    2  506  501 -0.18785931452E+02 -0.57463609659E+02  0.11141157367E+01  0.60466676024E+02  0.00000000000E+00 0. -1.
<scales pt_clust_3="48.37271" pt_clust_4="14000.00000" pt_clust_5="84.68066" pt_clust_6="60.03891"></scales>
<clustering>
<clus scale="   48.373">  2  3  1 -1</clus>
<clus scale="   60.039">  1  6  2 -1</clus>
<clus scale="   84.681">  2  5  1 -1</clus>
<clus scale="   60.039">  1  3  2 -1</clus>
</clustering>
</event>
<event>
 6    0  0.2666600E+002  0.7900193E+02  0.7546771E-02  0.1331908E+00
         21   -1    0    0  506  501  0.00000000000E+00  0.00000000000E+00  0.90096840678E+03  0.90096840678E+03  0.00000000000E+00 0.  1.
         21   -1    0    0  505  502 -0.00000000000E+00 -0.00000000000E+00 -0.12191607390E+03  0.12191607390E+03  0.00000000000E+00 0.  1.
         21    1    1    2  503  504  0.48750895756E+02 -0.11308311324E+03  0.29284672847E+03  0.31768482291E+03  0.00000000000E+00 0.  1.
         21    1    1    2  504  501  0.88041367132E+01  0.72568235929E+02  0.56755993419E+03  0.57224814599E+03  0.00000000000E+00 0.  1.
         21    1    1    2  505  503  0.90413696105E+01  0.28776333069E+02 -0.43594195288E+01  0.30476683677E+02  0.00000000000E+00 0. -1.
         21    1    1    2  506  502 -0.66596402079E+02  0.11738544237E+02 -0.76994910246E+02  0.10247482810E+03  0.00000000000E+00 0.  1.
<scales pt_clust_3="14000.00000" pt_clust_4="79.00193" pt_clust_5="30.16328" pt_clust_6="69.20845"></scales>
<clustering>
<clus scale="   30.163">  2  5  1 -1</clus>
<clus scale="   69.208">  2  6  1 -1</clus>
<clus scale="   79.002">  1  4  2 -1</clus>
<clus scale="   79.002">  1  3  2 -1</clus>
</clustering>
</event>
<event>
 6    0  0.2666600E+002  0.1038926E+03  0.7546771E-02  0.1272317E+00
         21   -1    0    0  504  501  0.00000000000E+00  0.00000000000E+00  0.24727226413E+03  0.24727226413E+03  0.00000000000E+00 0.  1.
         21   -1    0    0  505  502 -0.00000000000E+00 -0.00000000000E+00 -0.24630041521E+03  0.24630041521E+03  0.00000000000E+00 0.  1.
         21    1    1    2  503  506 -0.39294489165E+02 -0.60698945799E+02  0.15330581808E+03  0.16950248599E+03  0.00000000000E+00 0.  1.
         21    1    1    2  504  502 -0.30967327259E+02  0.58386464229E+02  0.70924728111E+00  0.66094308336E+02  0.00000000000E+00 0. -1.
         21    1    1    2  505  503  0.98386308660E+02  0.44459827023E+02 -0.17266390591E+03  0.20364028667E+03  0.00000000000E+00 0.  1.
         21    1    1    2  506  501 -0.28124492236E+02 -0.42147345453E+02  0.19620689461E+02  0.54335598342E+02  0.00000000000E+00 0. -1.
<scales pt_clust_3="103.89263" pt_clust_4="62.67111" pt_clust_5="14000.00000" pt_clust_6="50.66938"></scales>
<clustering>
<clus scale="   50.669">  1  6  2 -1</clus>
<clus scale="   62.671">  1  4  2 -1</clus>
<clus scale="  103.893">  1  3  2 -1</clus>
<clus scale="   50.669">  1  3  2 -1</clus>
</clustering>
</event>
<event>
 6    0  0.2666600E+002  0.8370288E+02  0.7546771E-02  0.1318860E+00
         21   -1    0    0  504  501  0.00000000000E+00  0.00000000000E+00  0.39759840750E+03  0.39759840750E+03  0.00000000000E+00 0.  1.
         21   -1    0    0  505  502 -0.00000000000E+00 -0.00000000000E+00 -0.21021012069E+03  0.21021012069E+03  0.00000000000E+00 0.  1.
         21    1    1    2  503  501  0.55121785932E+02  0.42043783115E+02  0.31103324052E+03  0.31866560481E+03  0.00000000000E+00 0.  1.
         21    1    1    2  504  506 -0.13900475552E+02  0.33291106070E+02  0.30780553085E+02  0.47423237048E+02  0.00000000000E+00 0. -1.
         21    1    1    2  505  503 -0.10446245403E+03 -0.38778325409E+02 -0.10793971661E+03  0.15513589283E+03  0.00000000000E+00 0.  1.
         21    1    1    2  506  502  0.63241143653E+02 -0.36556563775E+02 -0.46485790189E+02  0.86583793490E+02  0.00000000000E+00 0.  1.
<scales pt_clust_3="83.70288" pt_clust_4="36.07660" pt_clust_5="14000.00000" pt_clust_6="71.45241"></scales>
<clustering>
<clus scale="   36.077">  1  4  2 -1</clus>
<clus scale="   71.452">  2  6  1 -1</clus>
<clus scale="   83.703">  1  3  2 -1</clus>
<clus scale="   36.077">  1  3  2 -1</clus>
</clustering>
</event>
<event>
 6    0  0.2666600E+002  0.8080931E+02  0.7546771E-02  0.1326770E+00
         21   -1    0    0  506  501  0.00000000000E+00  0.00000000000E+00  0.71416702703E+03  0.71416702703E+03  0.00000000000E+00 0. -1.
         21   -1    0    0  503  502 -0.00000000000E+00 -0.00000000000E+00 -0.24767278994E+03  0.24767278994E+03  0.00000000000E+00 0. -1.
         21    1    1    2  503  504  0.72788724144E+02 -0.64279483184E+02 -0.10292952400E+03  0.14150808186E+03  0.00000000000E+00 0.  1.
         21    1    1    2  504  501 -0.40620416155E+02  0.10088589486E+03  0.63524386903E+03  0.64448642742E+03  0.00000000000E+00 0. -1.
         21    1    1    2  505  502 -0.37714070917E+02 -0.67613471012E+01 -0.11323715499E+03  0.11954380046E+03  0.00000000000E+00 0. -1.
         21    1    1    2  506  505  0.55457629276E+01 -0.29845064574E+02  0.47417047047E+02  0.56301507232E+02  0.00000000000E+00 0. -1.
<scales pt_clust_3="14000.00000" pt_clust_4="80.80931" pt_clust_5="38.31472" pt_clust_6="30.35594"></scales>
<clustering>
<clus scale="   30.356">  1  6  2 -1</clus>
<clus scale="   38.315">  2  5  1 -1</clus>
<clus scale="   80.809">  1  4  2 -1</clus>
<clus scale="   30.356">  1  3  2 -1</clus>
</clustering>
</event>
<event>
 6    0  0.2666600E+002  0.1027741E+03  0.7546771E-02  0.1274568E+00
         21   -1    0    0  504  501  0.00000000000E+00  0.00000000000E+00  0.58777167641E+03  0.58777167641E+03  0.00000000000E+00 0. -1.
         21   -1    0    0  505  502 -0.00000000000E+00 -0.00000000000E+00 -0.93411944629E+02  0.93411944629E+02  0.00000000000E+00 0. -1.
         21    1    1    2  503  502  0.58908979713E+02 -0.44822799489E+02 -0.48958629961E+02  0.88748513748E+02  0.00000000000E+00 0. -1.
         21    1    1    2  504  503  0.72452732230E+02 -0.59796722705E+01  0.11157476386E+03  0.13316937643E+03  0.00000000000E+00 0. -1.
         21    1    1    2  505  506 -0.67086871953E+02  0.23407584012E+02  0.11720552979E+03  0.13706093386E+03  0.00000000000E+00 0. -1.
         21    1    1    2  506  501 -0.64274839990E+02  0.27394887748E+02  0.31453806810E+03  0.32220479700E+03  0.00000000000E+00 0. -1.
<scales pt_clust_3="76.66050" pt_clust_4="72.69907" pt_clust_5="67.87944" pt_clust_6="67.87944"></scales>
<clustering>
<clus scale="   67.879">  5  6 -1 -1</clus>
<clus scale="   72.699">  1  4  2 -1</clus>
<clus scale="   76.660">  2  3  1 -1</clus>
<clus scale="   72.699">  1  3  2 -1</clus>
</clustering>
</event>
<event>
 6    0  0.2666600E+002  0.1665754E+03  0.7546771E-02  0.1181467E+00
         21   -1    0    0  505  501  0.00000000000E+00  0.00000000000E+00  0.13111899726E+03  0.13111899726E+03  0.00000000000E+00 0.  1.
         21   -1    0    0  503  502 -0.00000000000E+00 -0.00000000000E+00 -0.35747235411E+03  0.35747235411E+03  0.00000000000E+00 0.  1.
         21    1    1    2  503  506  0.41583610860E+02  0.36551759412E+02 -0.51902873512E+02  0.75888972104E+02  0.00000000000E+00 0.  1.
         21    1    1    2  504  501  0.19040577229E+01 -0.34631528991E+02  0.96393947694E+01  0.35998418959E+02  0.00000000000E+00 0. -1.
         21    1    1    2  505  502 -0.15036501411E+03  0.41965053124E-01  0.14612293986E+02  0.15107335425E+03  0.00000000000E+00 0.  1.
         21    1    1    2  506  504  0.10687734552E+03 -0.19621954744E+01 -0.19870217209E+03  0.22563060606E+03  0.00000000000E+00 0.  1.
<scales pt_clust_3="49.10261" pt_clust_4="34.68383" pt_clust_5="151.23921" pt_clust_6="49.10261"></scales>
<clustering>
<clus scale="   34.684">  1  4  2 -1</clus>
<clus scale="   49.103">  3  6 -1 -1</clus>
<clus scale="  151.239">  1  5  2 -1</clus>
<clus scale="   34.684">  1  3  2 -1</clus>
</clustering>
</event>
<event>
 6    0  0.2666600E+002  0.1764841E+03  0.7546771E-02  0.1171250E+00
         21   -1    0    0  505  501  0.00000000000E+00  0.00000000000E+00  0.13509551526E+03  0.13509551526E+03  0.00000000000E+00 0.  1.
         21   -1    0    0  504  502 -0.00000000000E+00 -0.00000000000E+00 -0.46544675730E+03  0.46544675730E+03  0.00000000000E+00 0.  1.
         21    1    1    2  503  501 -0.85599009667E+02 -0.10253711165E+03  0.21985191640E+02  0.13536764153E+03  0.00000000000E+00 0.  1.
         21    1    1    2  504  506  0.79379693245E+02  0.13213834235E+03 -0.31796403070E+03  0.35335931011E+03  0.00000000000E+00 0.  1.
         21    1    1    2  505  502  0.64904955489E+01  0.37944973730E+02 -0.16919913427E+02  0.42050339287E+02  0.00000000000E+00 0.  1.
         21    1    1    2  506  503 -0.27117912655E+00 -0.67546204435E+02 -0.17452489555E+02  0.69764981641E+02  0.00000000000E+00 0.  1.
<scales pt_clust_3="55.06577" pt_clust_4="159.34180" pt_clust_5="38.49607" pt_clust_6="55.06577"></scales>
<clustering>
<clus scale="   38.496">  1  5  2 -1</clus>
<clus scale="   55.066">  3  6 -1 -1</clus>
<clus scale="  159.342">  2  4  1 -1</clus>
<clus scale="   38.496">  1  3  2 -1</clus>
</clustering>
</event>
<event>
 6    0  0.2666600E+002  0.2587531E+03  0.7546771E-02  0.1107895E+00
         21   -1    0    0  506  501  0.00000000000E+00  0.00000000000E+00  0.56094793636E+03  0.56094793636E+03  0.00000000000E+00 0.  1.
         21   -1    0    0  504  502 -0.00000000000E+00 -0.00000000000E+00 -0.45837653264E+03  0.45837653264E+03  0.00000000000E+00 0. -1.
         21    1    1    2  503  502  0.49809898796E+02 -0.60672780150E+01 -0.53194160320E+02  0.73126305614E+02  0.00000000000E+00 0. -1.
         21    1    1    2  504  501  0.92045343034E+02  0.22808591143E+03 -0.31305025098E+03  0.39811554580E+03  0.00000000000E+00 0. -1.
         21    1    1    2  505  503 -0.10766859161E+03 -0.21883612740E+03  0.36712778626E+03  0.44075456630E+03  0.00000000000E+00 0.  1.
         21    1    1    2  506  505 -0.34186650224E+02 -0.31825060122E+01  0.10168802877E+03  0.10732805129E+03  0.00000000000E+00 0.  1.
<scales pt_clust_3="49.44575" pt_clust_4="258.75311" pt_clust_5="14000.00000" pt_clust_6="34.33446"></scales>
<clustering>
<clus scale="   34.334">  1  6  2 -1</clus>
<clus scale="   49.446">  2  3  1 -1</clus>
<clus scale="  258.753">  2  4  1 -1</clus>
<clus scale="   34.334">  1  3  2 -1</clus>
</clustering>
</event>
<event>
 6    0  0.2666600E+002  0.1342550E+03  0.7546771E-02  0.1221275E+00
         21   -1    0    0  505  501  0.00000000000E+00  0.00000000000E+00  0.89202691709E+03  0.89202691709E+03  0.00000000000E+00 0. -1.
         21   -1    0    0  503  502 -0.00000000000E+00 -0.00000000000E+00 -0.26413699124E+03  0.26413699124E+03  0.00000000000E+00 0. -1.
         21    1    1    2  503  504  0.77374454928E+02 -0.12119082711E+03 -0.21118316968E+03  0.25548454749E+03  0.00000000000E+00 0. -1.
         21    1    1    2  504  506 -0.56789351349E+02  0.83565116844E+02  0.62160106492E+03  0.62975871815E+03  0.00000000000E+00 0. -1.
         21    1    1    2  505  502 -0.31807401536E+02  0.70369312132E+01 -0.15221360118E+02  0.35957182832E+02  0.00000000000E+00 0. -1.
         21    1    1    2  506  501  0.11222297957E+02  0.30588779052E+02  0.23269339073E+03  0.23496345985E+03  0.00000000000E+00 0. -1.
<scales pt_clust_3="123.31442" pt_clust_4="30.14548" pt_clust_5="32.57651" pt_clust_6="30.14548"></scales>
<clustering>
<clus scale="   30.145">  4  6 -1 -1</clus>
<clus scale="   32.577">  2  5  1 -1</clus>
<clus scale="  123.314">  2  3  1 -1</clus>
<clus scale="  134.255">  1  3  2 -1</clus>
</clustering>
</event>
<event>
 6    0  0.2666600E+002  0.3289262E+03  0.7546771E-02  0.1071613E+00
         21   -1    0    0  503  501  0.00000000000E+00  0.00000000000E+00  0.14048718953E+03  0.14048718953E+03  0.00000000000E+00 0.  1.
         21   -1    0    0  505  502 -0.00000000000E+00 -0.00000000000E+00 -0.22075901852E+04  0.22075901852E+04  0.00000000000E+00 0.  1.
         21    1    1    2  503  504  0.70164589440E+02 -0.14754988786E+03 -0.66723053742E+02  0.17648230767E+03  0.00000000000E+00 0.  1.
         21    1    1    2  504  506  0.11072024743E+03 -0.12645356741E+03 -0.34861371373E+02  0.17165311857E+03  0.00000000000E+00 0.  1.
         21    1    1    2  505  501 -0.32562393459E+02  0.13077439373E+02 -0.63597381798E+03  0.63694114802E+03  0.00000000000E+00 0.  1.
         21    1    1    2  506  502 -0.14832244341E+03  0.26092601589E+03 -0.13295447526E+04  0.13630008005E+04  0.00000000000E+00 0.  1.
<scales pt_clust_3="54.73395" pt_clust_4="54.73395" pt_clust_5="35.09030" pt_clust_6="324.20797"></scales>
<clustering>
<clus scale="   35.090">  2  5  1 -1</clus>
<clus scale="   54.734">  3  4 -1 -1</clus>
<clus scale="  324.208">  2  6  1 -1</clus>
<clus scale="  328.926">  1  3  2 -1</clus>
</clustering>
</event>
<event>
 6    0  0.2666600E+002  0.7326942E+02  0.7546771E-02  0.1349315E+00
         21   -1    0    0  505  501  0.00000000000E+00  0.00000000000E+00  0.90391057479E+02  0.90391057479E+02  0.00000000000E+00 0.  1.
         21   -1    0    0  506  502 -0.00000000000E+00 -0.00000000000E+00 -0.32912029787E+03  0.32912029787E+03  0.00000000000E+00 0.  1.
         21    1    1    2  503  501  0.36311366324E+02  0.45991518525E+02  0.34255305944E+02  0.67876071527E+02  0.00000000000E+00 0.  1.
         21    1    1    2  504  503 -0.79060620750E+02  0.21906044309E+02 -0.36567250818E+02  0.89819932994E+02  0.00000000000E+00 0.  1.
         21    1    1    2  505  502 -0.19775630140E+02 -0.37233133750E+02 -0.10356812527E+03  0.11182011611E+03  0.00000000000E+00 0.  1.
         21    1    1    2  506  504  0.62524884565E+02 -0.30664429085E+02 -0.13284917025E+03  0.14999523472E+03  0.00000000000E+00 0.  1.
<scales pt_clust_3="55.45214" pt_clust_4="73.26942" pt_clust_5="42.15901" pt_clust_6="14000.00000"></scales>
<clustering>
<clus scale="   42.159">  2  5  1 -1</clus>
<clus scale="   55.452">  1  3  2 -1</clus>
<clus scale="   73.269">  1  4  2 -1</clus>
<clus scale="   55.452">  1  3  2 -1</clus>
</clustering>
</event>
<event>
 6    0  0.2666600E+002  0.4084886E+03  0.7546771E-02  0.1040879E+00
         21   -1    0    0  504  501  0.00000000000E+00  0.00000000000E+00  0.33586955901E+03  0.33586955901E+03  0.00000000000E+00 0.  1.
         21   -1    0    0  505  502 -0.00000000000E+00 -0.00000000000E+00 -0.14642144649E+04  0.14642144649E+04  0.00000000000E+00 0. -1.
         21    1    1    2  503  502  0.86466385823E+02  0.14336328583E+02 -0.24649065173E+03  0.26160964734E+03  0.00000000000E+00 0.  1.
         21    1    1    2  504  503  0.15208790658E+03 -0.42276683672E+03 -0.87224445072E+03  0.98115896336E+03  0.00000000000E+00 0. -1.
         21    1    1    2  505  506 -0.55252040873E+02  0.50392422936E+02 -0.11893458295E+03  0.14049063787E+03  0.00000000000E+00 0. -1.
         21    1    1    2  506  501 -0.18330225153E+03  0.35803808520E+03  0.10932477955E+03  0.41682477529E+03  0.00000000000E+00 0.  1.
<scales pt_clust_3="79.62867" pt_clust_4="14000.00000" pt_clust_5="74.78091" pt_clust_6="408.48860"></scales>
<clustering>
<clus scale="   74.781">  2  5  1 -1</clus>
<clus scale="   79.629">  2  3  1 -1</clus>
<clus scale="  408.489">  1  6  2 -1</clus>
<clus scale="  408.489">  1  3  2 -1</clus>
</clustering>
</event>
<event>
 6    0  0.2666600E+002  0.1467261E+03  0.7546771E-02  0.1204555E+00
         21   -1    0    0  503  501  0.00000000000E+00  0.00000000000E+00  0.23969558620E+03  0.23969558620E+03  0.00000000000E+00 0. -1.
         21   -1    0    0  501  502 -0.00000000000E+00 -0.00000000000E+00 -0.26518569643E+03  0.26518569643E+03  0.00000000000E+00 0.  1.
         21    1    1    2  503  504 -0.26295445592E+02  0.55823713715E+02  0.34828630969E+02  0.70857399099E+02  0.00000000000E+00 0. -1.
         21    1    1    2  504  505 -0.99241725221E+02  0.27051421231E+02  0.14485033049E+03  0.17765786687E+03  0.00000000000E+00 0. -1.
         21    1    1    2  505  506  0.56581993347E+02 -0.56281072266E+02 -0.10542881288E+03  0.13222827100E+03  0.00000000000E+00 0.  1.
         21    1    1    2  506  502  0.68955177465E+02 -0.26594062680E+02 -0.99740258819E+02  0.12413774566E+03  0.00000000000E+00 0.  1.
<scales pt_clust_3="61.70687" pt_clust_4="143.27331" pt_clust_5="30.45130" pt_clust_6="30.45130"></scales>
<clustering>
<clus scale="   30.451">  5  6 -1 -1</clus>
<clus scale="   61.707">  1  3  2 -1</clus>
<clus scale="  143.273">  1  4  2 -1</clus>
<clus scale="   61.707">  1  3  2 -1</clus>
</clustering>
</event>
<event>
 6    0  0.2666600E+002  0.1703002E+03  0.7546771E-02  0.1177535E+00
         21   -1    0    0  504  501  0.00000000000E+00  0.00000000000E+00  0.17342725370E+03  0.17342725370E+03  0.00000000000E+00 0.  1.
         21   -1    0    0  505  502 -0.00000000000E+00 -0.00000000000E+00 -0.17732802249E+03  0.17732802249E+03  0.00000000000E+00 0.  1.
         21    1    1    2  503  502  0.85062190562E+02 -0.53227034747E+02 -0.10959927857E+02  0.10093965281E+03  0.00000000000E+00 0.  1.
         21    1    1    2  504  503  0.62352014728E+02 -0.70502155954E+01 -0.38381995030E+02  0.73557167041E+02  0.00000000000E+00 0.  1.
         21    1    1    2  505  506 -0.10101810728E+03  0.94782362184E+01  0.25189624550E+02  0.10454191573E+03  0.00000000000E+00 0.  1.
         21    1    1    2  506  501 -0.46396098012E+02  0.50799014124E+02  0.20251529546E+02  0.71716540600E+02  0.00000000000E+00 0.  1.
<scales pt_clust_3="167.37537" pt_clust_4="40.71011" pt_clust_5="49.66591" pt_clust_6="49.66591"></scales>
<clustering>
<clus scale="   40.710">  3  4 -1 -1</clus>
<clus scale="   49.666">  5  6 -1 -1</clus>
<clus scale="  167.375">  2  3  1 -1</clus>
<clus scale="  170.300">  1  3  2 -1</clus>
</clustering>
</event>
<event>
 6    0  0.2666600E+002  0.7284836E+02  0.7546771E-02  0.1350666E+00
         21   -1    0    0  504  501  0.00000000000E+00  0.00000000000E+00  0.70162686102E+03  0.70162686102E+03  0.00000000000E+00 0.  1.
         21   -1    0    0  503  502 -0.00000000000E+00 -0.00000000000E+00 -0.13301592017E+03  0.13301592017E+03  0.00000000000E+00 0.  1.
         21    1    1    2  503  506  0.57910601998E+02 -0.13467589791E+02  0.31963973988E+02  0.67503403111E+02  0.00000000000E+00 0.  1.
         21    1    1    2  504  505  0.43816088350E+02 -0.72083144621E+02  0.38458860395E+03  0.39373115654E+03  0.00000000000E+00 0.  1.
         21    1    1    2  505  502 -0.39159944358E+02  0.58264577201E+02 -0.94417204201E+02  0.11765572934E+03  0.00000000000E+00 0.  1.
         21    1    1    2  506  501 -0.62566745990E+02  0.27286157211E+02  0.24647556711E+03  0.25575249219E+03  0.00000000000E+00 0.  1.
<scales pt_clust_3="59.45598" pt_clust_4="14000.00000" pt_clust_5="47.99799" pt_clust_6="72.84836"></scales>
<clustering>
<clus scale="   59.456">  2  3  1 -1</clus>
<clus scale="   47.998">  2  5  1 -1</clus>
<clus scale="   72.848">  2  6  1 -1</clus>
<clus scale="   72.848">  1  3  2 -1</clus>
</clustering>
</event>
<event>
 6    0  0.2666600E+002  0.1211996E+03  0.7546771E-02  0.1241131E+00
         21   -1    0    0  504  501  0.00000000000E+00  0.00000000000E+00  0.31527502650E+03  0.31527502650E+03  0.00000000000E+00 0.  1.
         21   -1    0    0  506  502 -0.00000000000E+00 -0.00000000000E+00 -0.11107615484E+03  0.11107615484E+03  0.00000000000E+00 0.  1.
         21    1    1    2  503  502  0.12626283372E+03 -0.82644423192E+02  0.93591102308E+02  0.17757167087E+03  0.00000000000E+00 0.  1.
         21    1    1    2  504  503 -0.11252743074E+03 -0.24069406116E+01  0.10274452516E+03  0.15239636965E+03  0.00000000000E+00 0.  1.
         21    1    1    2  505  501  0.30306094182E+01  0.51766009355E+02  0.22258763790E+02  0.56430106180E+02  0.00000000000E+00 0.  1.
         21    1    1    2  506  505 -0.16766012398E+02  0.33285354449E+02 -0.14395519593E+02  0.39953034639E+02  0.00000000000E+00 0.  1.
<scales pt_clust_3="121.19958" pt_clust_4="14000.00000" pt_clust_5="96.06185" pt_clust_6="36.02297"></scales>
<clustering>
<clus scale="   36.023">  5  6 -1 -1</clus>
<clus scale="   96.062">  2  5  1 -1</clus>
<clus scale="  121.200">  2  3  1 -1</clus>
<clus scale="  121.200">  1  3  2 -1</clus>
</clustering>
</event>
<event>
 6    0  0.2666600E+002  0.8148654E+02  0.7546771E-02  0.1324885E+00
         21   -1    0    0  505  501  0.00000000000E+00  0.00000000000E+00  0.13605743647E+03  0.13605743647E+03  0.00000000000E+00 0.  1.
         21   -1    0    0  506  502 -0.00000000000E+00 -0.00000000000E+00 -0.14303233807E+04  0.14303233807E+04  0.00000000000E+00 0. -1.
         21    1    1    2  503  502 -0.18074482619E+02  0.25113979061E+02 -0.94274156252E+02  0.99222050993E+02  0.00000000000E+00 0. -1.
         21    1    1    2  504  501  0.27716538080E+02  0.18001306341E+02  0.11210175150E+02  0.34898732642E+02  0.00000000000E+00 0.  1.
         21    1    1    2  505  503 -0.10175810092E+03  0.12667484607E+02  0.84019951842E+02  0.13256895782E+03  0.00000000000E+00 0.  1.
         21    1    1    2  506  504  0.92116045463E+02 -0.55782770010E+02 -0.12952219150E+04  0.12996910758E+04  0.00000000000E+00 0. -1.
<scales pt_clust_3="30.94186" pt_clust_4="33.03726" pt_clust_5="14000.00000" pt_clust_6="81.48654"></scales>
<clustering>
<clus scale="   30.942">  2  3  1 -1</clus>
<clus scale="   33.037">  1  4  2 -1</clus>
<clus scale="   81.487">  2  6  1 -1</clus>
<clus scale="   33.037">  1  3  2 -1</clus>
</clustering>
</event>
<event>
 6    0  0.2666600E+002  0.1807175E+03  0.7546771E-02  0.1167110E+00
         21   -1    0    0  505  501  0.00000000000E+00  0.00000000000E+00  0.65744602724E+03  0.65744602724E+03  0.00000000000E+00 0. -1.
         21   -1    0    0  506  502 -0.00000000000E+00 -0.00000000000E+00 -0.62194686311E+02  0.62194686311E+02  0.00000000000E+00 0. -1.
         21    1    1    2  503  501  0.18052410320E+02  0.52646310703E+02  0.98774700061E+02  0.11337532766E+03  0.00000000000E+00 0. -1.
         21    1    1    2  504  502  0.25620532848E+01 -0.54067003854E+02  0.33582523198E+02  0.63699222029E+02  0.00000000000E+00 0. -1.
         21    1    1    2  505  504 -0.93251222217E+02 -0.85237654565E+02  0.96086994336E+02  0.15872604916E+03  0.00000000000E+00 0. -1.
         21    1    1    2  506  503  0.72636758613E+02  0.86658347715E+02  0.36680712333E+03  0.38384011471E+03  0.00000000000E+00 0. -1.
<scales pt_clust_3="37.29860" pt_clust_4="46.41543" pt_clust_5="46.41543" pt_clust_6="174.51866"></scales>
<clustering>
<clus scale="   37.299">  3  6 -1 -1</clus>
<clus scale="   46.415">  4  5 -1 -1</clus>
<clus scale="  174.519">  1  3  2 -1</clus>
<clus scale="  174.519">  1  3  2 -1</clus>
</clustering>
</event>
<event>
 6    0  0.2666600E+002  0.6937301E+02  0.7546771E-02  0.1362238E+00
         21   -1    0    0  506  501  0.00000000000E+00  0.00000000000E+00  0.10704692059E+03  0.10704692059E+03  0.00000000000E+00 0. -1.
         21   -1    0    0  504  502 -0.00000000000E+00 -0.00000000000E+00 -0.75040643976E+03  0.75040643976E+03  0.00000000000E+00 0. -1.
         21    1    1    2  503  502 -0.41734758446E+02  0.44796621880E+02 -0.16613597952E+03  0.17705843974E+03  0.00000000000E+00 0. -1.
         21    1    1    2  504  505 -0.42921182476E+01 -0.10407565247E+03 -0.54927361218E+03  0.55906320283E+03  0.00000000000E+00 0. -1.
         21    1    1    2  505  501  0.48646545240E+02  0.15038330992E+02  0.25099606595E+02  0.56768195445E+02  0.00000000000E+00 0. -1.
         21    1    1    2  506  503 -0.26196685470E+01  0.44240699597E+02  0.46950465932E+02  0.64563522328E+02  0.00000000000E+00 0. -1.
<scales pt_clust_3="64.93166" pt_clust_4="14000.00000" pt_clust_5="69.37301" pt_clust_6="44.31819"></scales>
<clustering>
<clus scale="   44.318">  1  6  2 -1</clus>
<clus scale="   64.932">  2  3  1 -1</clus>
<clus scale="   69.373">  1  5  2 -1</clus>
<clus scale="   44.318">  1  3  2 -1</clus>
</clustering>
</event>
<event>
 6    0  0.2666600E+002  0.1589535E+03  0.7546771E-02  0.1189883E+00
         21   -1    0    0  505  501  0.00000000000E+00  0.00000000000E+00  0.11180697602E+03  0.11180697602E+03  0.00000000000E+00 0. -1.
         21   -1    0    0  506  502 -0.00000000000E+00 -0.00000000000E+00 -0.77110935307E+03  0.77110935307E+03  0.00000000000E+00 0. -1.
         21    1    1    2  503  504 -0.10882447365E+03 -0.12158677031E+03 -0.10530862385E+03  0.19420611483E+03  0.00000000000E+00 0. -1.
         21    1    1    2  504  501  0.34381512099E+01 -0.33956926096E+02  0.38567185238E+02  0.51500694081E+02  0.00000000000E+00 0. -1.
         21    1    1    2  505  502  0.27912417460E+02  0.17038579153E+02 -0.11184512176E+02  0.34561677341E+02  0.00000000000E+00 0.  1.
         21    1    1    2  506  503  0.77473904976E+02  0.13850511725E+03 -0.58137642626E+03  0.60264784283E+03  0.00000000000E+00 0. -1.
<scales pt_clust_3="14000.00000" pt_clust_4="30.77501" pt_clust_5="32.70193" pt_clust_6="158.95355"></scales>
<clustering>
<clus scale="   32.702">  1  5  2 -1</clus>
<clus scale="   30.775">  1  4  2 -1</clus>
<clus scale="  158.954">  2  6  1 -1</clus>
<clus scale="   32.702">  1  3  2 -1</clus>
</clustering>
</event>
<event>
 6    0  0.2666600E+002  0.9032266E+02  0.7546771E-02  0.1302072E+00
         21   -1    0    0  503  501  0.00000000000E+00  0.00000000000E+00  0.64662708018E+03  0.64662708018E+03  0.00000000000E+00 0.  1.
         21   -1    0    0  505  502 -0.00000000000E+00 -0.00000000000E+00 -0.28084617853E+03  0.28084617853E+03  0.00000000000E+00 0.  1.
         21    1    1    2  503  506 -0.62001645067E+02  0.15972082263E+02  0.12607274162E+03  0.14139889526E+03  0.00000000000E+00 0.  1.
         21    1    1    2  504  501 -0.11353599513E+02 -0.75314599831E+02  0.47981209676E+03  0.48581976223E+03  0.00000000000E+00 0.  1.
         21    1    1    2  505  504  0.90268653633E+02  0.19112235147E+02 -0.49481082386E+02  0.10469997553E+03  0.00000000000E+00 0.  1.
         21    1    1    2  506  502 -0.16913409053E+02  0.40230282421E+02 -0.19062285435E+03  0.19555462569E+03  0.00000000000E+00 0.  1.
<scales pt_clust_3="66.40175" pt_clust_4="14000.00000" pt_clust_5="90.32266" pt_clust_6="43.64102"></scales>
<clustering>
<clus scale="   43.641">  2  6  1 -1</clus>
<clus scale="   66.402">  1  3  2 -1</clus>
<clus scale="   90.323">  2  5  1 -1</clus>
<clus scale="   66.402">  1  3  2 -1</clus>
</clustering>
</event>
<event>
 6    0  0.2666600E+002  0.1190332E+03  0.7546771E-02  0.1244700E+00
         21   -1    0    0  504  501  0.00000000000E+00  0.00000000000E+00  0.87838559133E+02  0.87838559133E+02  0.00000000000E+00 0.  1.
         21   -1    0    0  506  502 -0.00000000000E+00 -0.00000000000E+00 -0.70040239129E+03  0.70040239129E+03  0.00000000000E+00 0.  1.
         21    1    1    2  503  505 -0.54848421604E+02  0.46909758945E+02 -0.12396121995E+03  0.14344078530E+03  0.00000000000E+00 0.  1.
         21    1    1    2  504  503 -0.80433301490E+02 -0.86589918336E+02  0.87542874119E+01  0.11850724659E+03  0.00000000000E+00 0.  1.
         21    1    1    2  505  502  0.19564583748E+02 -0.24070939079E+02 -0.42358893889E+02  0.52501989837E+02  0.00000000000E+00 0. -1.
         21    1    1    2  506  501  0.11571713935E+03  0.63751098469E+02 -0.45499800573E+03  0.47379092869E+03  0.00000000000E+00 0.  1.
<scales pt_clust_3="65.93452" pt_clust_4="119.03323" pt_clust_5="31.01908" pt_clust_6="14000.00000"></scales>
<clustering>
<clus scale="   31.019">  2  5  1 -1</clus>
<clus scale="   65.935">  2  3  1 -1</clus>
<clus scale="  119.033">  1  4  2 -1</clus>
<clus scale="  119.033">  1  3  2 -1</clus>
</clustering>
</event>
<event>
 6    0  0.3529605E+002  0.1470118E+03  0.7546771E-02  0.1204194E+00
         21   -1    0    0  505  501  0.00000000000E+00  0.00000000000E+00  0.38763701860E+03  0.38763701860E+03  0.00000000000E+00 0.  1.
         21   -1    0    0  506  502 -0.00000000000E+00 -0.00000000000E+00 -0.10630127928E+04  0.10630127928E+04  0.00000000000E+00 0. -1.
         21    1    1    2  503  504 -0.10991030486E+03  0.74149376175E+02 -0.66938422282E+03  0.68238819074E+03  0.00000000000E+00 0. -1.
         21    1    1    2  504  501  0.75377973608E+02 -0.91503375521E+02  0.34920652738E+03  0.36878165004E+03  0.00000000000E+00 0.  1.
         21    1    1    2  505  502  0.30091904022E+02 -0.12785241710E+02  0.90780099976E+01  0.33932217121E+02  0.00000000000E+00 0. -1.
         21    1    1    2  506  503  0.44404272322E+01  0.30139241056E+02 -0.36427608880E+03  0.36554775354E+03  0.00000000000E+00 0. -1.
<scales pt_clust_3="14000.00000" pt_clust_4="147.01184" pt_clust_5="32.56252" pt_clust_6="30.46459"></scales>
<clustering>
<clus scale="   30.465">  2  6  1 -1</clus>
<clus scale="   32.563">  1  5  2 -1</clus>
<clus scale="  147.012">  1  4  2 -1</clus>
<clus scale="   32.563">  1  3  2 -1</clus>
</clustering>
</event>
<event>
 6    0  0.2666600E+002  0.1955435E+03  0.7546771E-02  0.1153554E+00
         21   -1    0    0  504  501  0.00000000000E+00  0.00000000000E+00  0.53039392843E+03  0.53039392843E+03  0.00000000000E+00 0.  1.
         21   -1    0    0  506  502 -0.00000000000E+00 -0.00000000000E+00 -0.66211613302E+03  0.66211613302E+03  0.00000000000E+00 0. -1.
         21    1    1    2  503  501  0.11813012795E+03  0.85945343398E+02  0.24552611379E+03  0.28569984552E+03  0.00000000000E+00 0.  1.
         21    1    1    2  504  502 -0.43559566489E+01  0.57962345430E+02  0.24609658160E+03  0.25286782184E+03  0.00000000000E+00 0.  1.
         21    1    1    2  505  503 -0.11541956370E+03 -0.10431156917E+03 -0.45026666294E+03  0.47638497762E+03  0.00000000000E+00 0. -1.
         21    1    1    2  506  505  0.16453923985E+01 -0.39596119662E+02 -0.17307823703E+03  0.17755741647E+03  0.00000000000E+00 0. -1.
<scales pt_clust_3="181.13377" pt_clust_4="58.12579" pt_clust_5="37.18436" pt_clust_6="37.18436"></scales>
<clustering>
<clus scale="   37.184">  5  6 -1 -1</clus>
<clus scale="   58.126">  1  4  2 -1</clus>
<clus scale="  181.134">  1  3  2 -1</clus>
<clus scale="   58.126">  1  3  2 -1</clus>
</clustering>
</event>
<event>
 6    0  0.2666600E+002  0.1778077E+03  0.7546771E-02  0.1169942E+00
         21   -1    0    0  506  501  0.00000000000E+00  0.00000000000E+00  0.25847238591E+03  0.25847238591E+03  0.00000000000E+00 0.  1.
         21   -1    0    0  505  502 -0.00000000000E+00 -0.00000000000E+00 -0.93062997389E+03  0.93062997389E+03  0.00000000000E+00 0.  1.
         21    1    1    2  503  502 -0.62943984602E+02 -0.15736094763E+02 -0.16565373025E+03  0.17790651540E+03  0.00000000000E+00 0.  1.
         21    1    1    2  504  501  0.14063861911E+03  0.17927676322E+03  0.10953067008E+03  0.25281682441E+03  0.00000000000E+00 0.  1.
         21    1    1    2  505  504  0.59168262901E+02 -0.12800965066E+03 -0.59967771633E+03  0.61603629557E+03  0.00000000000E+00 0.  1.
         21    1    1    2  506  503 -0.13686289741E+03 -0.35531017794E+02 -0.16356811486E+02  0.14234272442E+03  0.00000000000E+00 0.  1.
<scales pt_clust_3="64.88120" pt_clust_4="177.80769" pt_clust_5="140.88653" pt_clust_6="14000.00000"></scales>
<clustering>
<clus scale="   64.881">  2  3  1 -1</clus>
<clus scale="  140.887">  2  5  1 -1</clus>
<clus scale="  177.808">  1  4  2 -1</clus>
<clus scale="  177.808">  1  3  2 -1</clus>
</clustering>
</event>
<event>
 6    0  0.2666600E+002  0.8293517E+02  0.7546771E-02  0.1320922E+00
         21   -1    0    0  503  501  0.00000000000E+00  0.00000000000E+00  0.28678891525E+03  0.28678891525E+03  0.00000000000E+00 0.  1.
         21   -1    0    0  505  502 -0.00000000000E+00 -0.00000000000E+00 -0.98562254553E+03  0.98562254553E+03  0.00000000000E+00 0. -1.
         21    1    1    2  503  504 -0.78121737014E+02 -0.16223315410E+02  0.25859768268E+02  0.83874485822E+02  0.00000000000E+00 0.  1.
         21    1    1    2  504  502 -0.57436652912E+02 -0.18517822940E+02 -0.72290436112E+02  0.94168922780E+02  0.00000000000E+00 0.  1.
         21    1    1    2  505  506  0.93755090978E+02 -0.47219753076E+02 -0.86047878118E+03  0.86685838233E+03  0.00000000000E+00 0. -1.
         21    1    1    2  506  501  0.41803298949E+02  0.81960891426E+02  0.20807581875E+03  0.22750966984E+03  0.00000000000E+00 0.  1.
<scales pt_clust_3="14000.00000" pt_clust_4="60.34798" pt_clust_5="75.64206" pt_clust_6="82.93517"></scales>
<clustering>
<clus scale="   60.348">  2  4  1 -1</clus>
<clus scale="   75.642">  2  5  1 -1</clus>
<clus scale="   82.935">  1  6  2 -1</clus>
<clus scale="   82.935">  1  3  2 -1</clus>
</clustering>
</event>
<event>
 6    0  0.2666600E+002  0.1253658E+03  0.7546771E-02  0.1234499E+00
         21   -1    0    0  506  501  0.00000000000E+00  0.00000000000E+00  0.28557400893E+03  0.28557400893E+03  0.00000000000E+00 0. -1.
         21   -1    0    0  505  502 -0.00000000000E+00 -0.00000000000E+00 -0.65487790805E+03  0.65487790805E+03  0.00000000000E+00 0.  1.
         21    1    1    2  503  501  0.68465945149E+02  0.22242679044E+01  0.10747878055E+03  0.12745281982E+03  0.00000000000E+00 0. -1.
         21    1    1    2  504  503  0.33843457183E+01 -0.34974064165E+02 -0.98707965293E+02  0.10477548078E+03  0.00000000000E+00 0.  1.
         21    1    1    2  505  504  0.49459142426E+02 -0.65447431042E+02 -0.50217147267E+03  0.50882783038E+03  0.00000000000E+00 0.  1.
         21    1    1    2  506  502 -0.12130943329E+03  0.98197227302E+02  0.12409675830E+03  0.19939578601E+03  0.00000000000E+00 0. -1.
<scales pt_clust_3="68.50207" pt_clust_4="33.21714" pt_clust_5="33.21714" pt_clust_6="114.63230"></scales>
<clustering>
<clus scale="   33.217">  4  5 -1 -1</clus>
<clus scale="   68.502">  1  3  2 -1</clus>
<clus scale="  114.632">  1  6  2 -1</clus>
<clus scale="   68.502">  1  3  2 -1</clus>
</clustering>
</event>
<event>
 6    0  0.2666600E+002  0.1418879E+03  0.7546771E-02  0.1210811E+00
         21   -1    0    0  505  501  0.00000000000E+00  0.00000000000E+00  0.29796379250E+03  0.29796379250E+03  0.00000000000E+00 0. -1.
         21   -1    0    0  506  502 -0.00000000000E+00 -0.00000000000E+00 -0.32097866927E+03  0.32097866927E+03  0.00000000000E+00 0.  1.
         21    1    1    2  503  504  0.11732159523E+03  0.49813753944E+02 -0.25012116927E+03  0.28072471588E+03  0.00000000000E+00 0.  1.
         21    1    1    2  504  502  0.30515594706E+02 -0.11955416932E+02 -0.18749091570E+02  0.37757938887E+02  0.00000000000E+00 0.  1.
         21    1    1    2  505  503 -0.97383097704E+02 -0.50695077636E+02  0.11199675713E+03  0.15683345378E+03  0.00000000000E+00 0. -1.
         21    1    1    2  506  501 -0.50454092236E+02  0.12836740625E+02  0.13385862694E+03  0.14362635322E+03  0.00000000000E+00 0. -1.
<scales pt_clust_3="14000.00000" pt_clust_4="32.77398" pt_clust_5="141.88789" pt_clust_6="51.51893"></scales>
<clustering>
<clus scale="   32.774">  2  4  1 -1</clus>
<clus scale="   51.519">  1  6  2 -1</clus>
<clus scale="  141.888">  1  5  2 -1</clus>
<clus scale="   51.519">  1  3  2 -1</clus>
</clustering>
</event>
<event>
 6    0  0.2666600E+002  0.1829513E+03  0.7546771E-02  0.1164977E+00
         21   -1    0    0  506  501  0.00000000000E+00  0.00000000000E+00  0.19221509802E+04  0.19221509802E+04  0.00000000000E+00 0. -1.
         21   -1    0    0  504  502 -0.00000000000E+00 -0.00000000000E+00 -0.12199230044E+03  0.12199230044E+03  0.00000000000E+00 0. -1.
         21    1    1    2  503  502 -0.95140151186E+02  0.23611135609E+02 -0.15954552659E+02  0.99316070417E+02  0.00000000000E+00 0. -1.
         21    1    1    2  504  505  0.58559977144E+02 -0.18718704761E+01  0.33435192715E+03  0.33944658786E+03  0.00000000000E+00 0. -1.
         21    1    1    2  505  501  0.10838119294E+03  0.13650520612E+02  0.15148348293E+04  0.15187683759E+04  0.00000000000E+00 0. -1.
         21    1    1    2  506  503 -0.71801018893E+02 -0.35389785745E+02 -0.33073523981E+02  0.86612246465E+02  0.00000000000E+00 0. -1.
<scales pt_clust_3="179.34767" pt_clust_4="54.13089" pt_clust_5="54.13089" pt_clust_6="58.26698"></scales>
<clustering>
<clus scale="   54.131">  4  5 -1 -1</clus>
<clus scale="   58.267">  3  6 -1 -1</clus>
<clus scale="  179.348">  2  3  1 -1</clus>
<clus scale="  182.951">  1  3  2 -1</clus>
</clustering>
</event>
<event>
 6    0  0.2666600E+002  0.1477977E+03  0.7546771E-02  0.1203206E+00
         21   -1    0    0  506  501  0.00000000000E+00  0.00000000000E+00  0.55659354000E+03  0.55659354000E+03  0.00000000000E+00 0. -1.
         21   -1    0    0  504  502 -0.00000000000E+00 -0.00000000000E+00 -0.90591457723E+02  0.90591457723E+02  0.00000000000E+00 0. -1.
         21    1    1    2  503  502 -0.12404799128E+03  0.42122483273E+02 -0.60407814477E+01  0.13114380953E+03  0.00000000000E+00 0. -1.
         21    1    1    2  504  505  0.74177857715E+02 -0.68070296718E+02  0.23588009706E+03  0.25646703503E+03  0.00000000000E+00 0. -1.
         21    1    1    2  505  501  0.69354187652E+02 -0.54784571356E+00  0.19449203899E+03  0.20648839365E+03  0.00000000000E+00 0. -1.
         21    1    1    2  506  503 -0.19484054083E+02  0.26495659158E+02  0.41670727675E+02  0.53085759510E+02  0.00000000000E+00 0. -1.
<scales pt_clust_3="134.33732" pt_clust_4="52.78930" pt_clust_5="52.78930" pt_clust_6="32.88842"></scales>
<clustering>
<clus scale="   32.888">  1  6  2 -1</clus>
<clus scale="   52.789">  4  5 -1 -1</clus>
<clus scale="  134.337">  2  3  1 -1</clus>
<clus scale="   32.888">  1  3  2 -1</clus>
</clustering>
</event>
<event>
 6    0  0.2666600E+002  0.9127901E+02  0.7546771E-02  0.1299784E+00
         21   -1    0    0  502  501  0.00000000000E+00  0.00000000000E+00  0.22790298520E+04  0.22790298520E+04  0.00000000000E+00 0. -1.
         21   -1    0    0  503  502 -0.00000000000E+00 -0.00000000000E+00 -0.32131767416E+03  0.32131767416E+03  0.00000000000E+00 0. -1.
         21    1    1    2  503  506  0.89247708397E+02  0.86032590820E+01 -0.24984710918E+03  0.26544820114E+03  0.00000000000E+00 0. -1.
         21    1    1    2  504  505  0.43086579714E+02 -0.45747935544E+02  0.11766703973E+04  0.11783473813E+04  0.00000000000E+00 0. -1.
         21    1    1    2  505  501 -0.26852198635E+02 -0.13774781186E+02  0.10387226888E+04  0.10391610123E+04  0.00000000000E+00 0. -1.
         21    1    1    2  506  504 -0.10548208948E+03  0.50919457648E+02 -0.78337991937E+01  0.11739093141E+03  0.00000000000E+00 0.  1.
<scales pt_clust_3="91.27901" pt_clust_4="61.40093" pt_clust_5="30.17922" pt_clust_6="14000.00000"></scales>
<clustering>
<clus scale="   30.179">  1  5  2 -1</clus>
<clus scale="   61.401">  1  4  2 -1</clus>
<clus scale="   91.279">  2  3  1 -1</clus>
<clus scale="   30.179">  1  3  2 -1</clus>
</clustering>
</event>
<event>
 6    0  0.2666600E+002  0.1566896E+03  0.7546771E-02  0.1192486E+00
         21   -1    0    0  505  501  0.00000000000E+00  0.00000000000E+00  0.10400101451E+04  0.10400101451E+04  0.00000000000E+00 0.  1.
         21   -1    0    0  504  502 -0.00000000000E+00 -0.00000000000E+00 -0.34155746811E+03  0.34155746811E+03  0.00000000000E+00 0. -1.
         21    1    1    2  503  506 -0.18130550641E+02 -0.82841740988E+02 -0.12469168200E+03  0.15079617527E+03  0.00000000000E+00 0. -1.
         21    1    1    2  504  503  0.34913233051E+02 -0.56671074269E+02 -0.19006754853E+03  0.20138574305E+03  0.00000000000E+00 0. -1.
         21    1    1    2  505  502 -0.21442680291E+02  0.71564187968E+02  0.83921550185E+03  0.84253420114E+03  0.00000000000E+00 0.  1.
         21    1    1    2  506  501  0.46599978812E+01  0.67948627289E+02  0.17399640566E+03  0.18685149374E+03  0.00000000000E+00 0.  1.
<scales pt_clust_3="63.96818" pt_clust_4="63.96818" pt_clust_5="139.06251" pt_clust_6="68.10823"></scales>
<clustering>
<clus scale="   63.968">  3  4 -1 -1</clus>
<clus scale="   68.108">  1  6  2 -1</clus>
<clus scale="  139.063">  1  5  2 -1</clus>
<clus scale="   68.108">  1  3  2 -1</clus>
</clustering>
</event>
<event>
 6    0  0.2666600E+002  0.1371337E+03  0.7546771E-02  0.1217239E+00
         21   -1    0    0  503  501  0.00000000000E+00  0.00000000000E+00  0.47659563130E+03  0.47659563130E+03  0.00000000000E+00 0. -1.
         21   -1    0    0  504  502 -0.00000000000E+00 -0.00000000000E+00 -0.55630488127E+03  0.55630488127E+03  0.00000000000E+00 0. -1.
         21    1    1    2  503  505 -0.40823219546E+02 -0.10827017157E+02  0.29543767916E+03  0.29844125355E+03  0.00000000000E+00 0. -1.
         21    1    1    2  504  501 -0.69181574819E+02 -0.54224458684E+02  0.15946043015E+03  0.18208242913E+03  0.00000000000E+00 0. -1.
         21    1    1    2  505  506  0.62393004441E+02  0.31552713535E+02 -0.39463755142E+03  0.40078330519E+03  0.00000000000E+00 0. -1.
         21    1    1    2  506  502  0.47611789924E+02  0.33498762307E+02 -0.13996980786E+03  0.15159352469E+03  0.00000000000E+00 0. -1.
<scales pt_clust_3="42.23458" pt_clust_4="125.79061" pt_clust_5="49.53216" pt_clust_6="49.53216"></scales>
<clustering>
<clus scale="   42.235">  1  3  2 -1</clus>
<clus scale="   49.532">  5  6 -1 -1</clus>
<clus scale="  125.791">  1  4  2 -1</clus>
<clus scale="   42.235">  1  3  2 -1</clus>
</clustering>
</event>
<event>
 6    0  0.2666600E+002  0.1455091E+03  0.7546771E-02  0.1206102E+00
         21   -1    0    0  502  501  0.00000000000E+00  0.00000000000E+00  0.69336151249E+03  0.69336151249E+03  0.00000000000E+00 0.  1.
         21   -1    0    0  503  502 -0.00000000000E+00 -0.00000000000E+00 -0.21161059863E+03  0.21161059863E+03  0.00000000000E+00 0.  1.
         21    1    1    2  503  505 -0.49564519816E+02  0.52163347521E+02 -0.10449393470E+03  0.12687252988E+03  0.00000000000E+00 0.  1.
         21    1    1    2  504  506  0.53580085517E+02 -0.67270915968E+02  0.55432044195E+03  0.56095218518E+03  0.00000000000E+00 0.  1.
         21    1    1    2  505  504 -0.23805166496E+02  0.70089571160E+02 -0.68568252516E+02  0.10090014465E+03  0.00000000000E+00 0.  1.
         21    1    1    2  506  501  0.19789600795E+02 -0.54982002713E+02  0.10049265913E+03  0.11624725141E+03  0.00000000000E+00 0.  1.
<scales pt_clust_3="39.44998" pt_clust_4="139.89969" pt_clust_5="39.44998" pt_clust_6="58.43500"></scales>
<clustering>
<clus scale="   39.450">  3  5 -1 -1</clus>
<clus scale="   58.435">  1  6  2 -1</clus>
<clus scale="  139.900">  1  4  2 -1</clus>
<clus scale="   58.435">  1  3  2 -1</clus>
</clustering>
</event>
<event>
 6    0  0.2666600E+002  0.1043642E+03  0.7546771E-02  0.1271377E+00
         21   -1    0    0  503  501  0.00000000000E+00  0.00000000000E+00  0.36559780311E+03  0.36559780311E+03  0.00000000000E+00 0.  1.
         21   -1    0    0  505  502 -0.00000000000E+00 -0.00000000000E+00 -0.60221943633E+03  0.60221943633E+03  0.00000000000E+00 0.  1.
         21    1    1    2  503  504 -0.11501052167E+03  0.43538446044E+02  0.27567392236E+03  0.30185945048E+03  0.00000000000E+00 0.  1.
         21    1    1    2  504  502  0.96231136980E+02 -0.33614154930E+02 -0.40245325656E+03  0.41516137447E+03  0.00000000000E+00 0.  1.
         21    1    1    2  505  506 -0.26704047420E+02  0.55674524490E+02 -0.14943691454E+03  0.16169152808E+03  0.00000000000E+00 0.  1.
         21    1    1    2  506  501  0.45483432107E+02 -0.65598815605E+02  0.39594615515E+02  0.89104886414E+02  0.00000000000E+00 0.  1.
<scales pt_clust_3="104.36416" pt_clust_4="73.85498" pt_clust_5="61.74754" pt_clust_6="14000.00000"></scales>
<clustering>
<clus scale="   61.748">  2  5  1 -1</clus>
<clus scale="   73.855">  2  4  1 -1</clus>
<clus scale="  104.364">  1  3  2 -1</clus>
<clus scale="  104.364">  1  3  2 -1</clus>
</clustering>
</event>
<event>
 6    0  0.2666600E+002  0.1902398E+03  0.7546771E-02  0.1158245E+00
         21   -1    0    0  506  501  0.00000000000E+00  0.00000000000E+00  0.14257235920E+03  0.14257235920E+03  0.00000000000E+00 0.  1.
         21   -1    0    0  505  502 -0.00000000000E+00 -0.00000000000E+00 -0.56634390012E+03  0.56634390012E+03  0.00000000000E+00 0.  1.
         21    1    1    2  503  501 -0.16391098423E+03 -0.72898940660E+02 -0.45535137684E+02  0.18507975325E+03  0.00000000000E+00 0.  1.
         21    1    1    2  504  502 -0.22861120893E+02  0.60193570707E+02 -0.50511859350E+01  0.64586463615E+02  0.00000000000E+00 0.  1.
         21    1    1    2  505  503  0.17970803789E+03  0.73990086148E+02 -0.33319737505E+03  0.38573307153E+03  0.00000000000E+00 0.  1.
         21    1    1    2  506  504  0.70640672253E+01 -0.61284716195E+02 -0.39987842250E+02  0.73516970916E+02  0.00000000000E+00 0.  1.
<scales pt_clust_3="190.23985" pt_clust_4="50.36706" pt_clust_5="14000.00000" pt_clust_6="61.69050"></scales>
<clustering>
<clus scale="   61.690">  1  6  2 -1</clus>
<clus scale="   50.367">  1  4  2 -1</clus>
<clus scale="  190.240">  1  3  2 -1</clus>
<clus scale="   61.690">  1  3  2 -1</clus>
</clustering>
</event>
<event>
 6    0  0.2666600E+002  0.1398029E+03  0.7546771E-02  0.1213594E+00
         21   -1    0    0  505  501  0.00000000000E+00  0.00000000000E+00  0.32289777091E+03  0.32289777091E+03  0.00000000000E+00 0.  1.
         21   -1    0    0  503  502 -0.00000000000E+00 -0.00000000000E+00 -0.19305561060E+03  0.19305561060E+03  0.00000000000E+00 0.  1.
         21    1    1    2  503  506 -0.14276171798E+03 -0.10859484143E+03 -0.49681527599E+02  0.18612361992E+03  0.00000000000E+00 0.  1.
         21    1    1    2  504  502  0.53101428056E+02  0.23785943406E+02 -0.75078909941E+01  0.58667718487E+02  0.00000000000E+00 0.  1.
         21    1    1    2  505  504  0.70264444023E+02  0.12545158885E+03  0.17086150724E+03  0.22331334016E+03  0.00000000000E+00 0.  1.
         21    1    1    2  506  501  0.19395845901E+02 -0.40642690816E+02  0.16170071661E+02  0.47848702935E+02  0.00000000000E+00 0.  1.
<scales pt_clust_3="139.80292" pt_clust_4="58.41519" pt_clust_5="14000.00000" pt_clust_6="45.03362"></scales>
<clustering>
<clus scale="   45.034">  1  6  2 -1</clus>
<clus scale="   58.415">  2  4  1 -1</clus>
<clus scale="  139.803">  2  3  1 -1</clus>
<clus scale="   45.034">  1  3  2 -1</clus>
</clustering>
</event>
<event>
 6    0  0.2666600E+002  0.1184251E+03  0.7546771E-02  0.1245718E+00
         21   -1    0    0  504  501  0.00000000000E+00  0.00000000000E+00  0.15194353469E+04  0.15194353469E+04  0.00000000000E+00 0. -1.
         21   -1    0    0  506  502 -0.00000000000E+00 -0.00000000000E+00 -0.75587620189E+03  0.75587620189E+03  0.00000000000E+00 0. -1.
         21    1    1    2  503  502  0.86427320634E+02  0.32283722449E+02 -0.20275393768E+03  0.22275789488E+03  0.00000000000E+00 0.  1.
         21    1    1    2  504  503 -0.46847660189E+02 -0.15933617922E+03  0.11801057212E+04  0.11917349682E+04  0.00000000000E+00 0. -1.
         21    1    1    2  505  501  0.50416188286E+02  0.41137915588E+02  0.31291803747E+03  0.31961198087E+03  0.00000000000E+00 0. -1.
         21    1    1    2  506  505 -0.89995848731E+02  0.85914541185E+02 -0.52671067598E+03  0.54120670484E+03  0.00000000000E+00 0. -1.
<scales pt_clust_3="92.77251" pt_clust_4="118.42506" pt_clust_5="65.07012" pt_clust_6="14000.00000"></scales>
<clustering>
<clus scale="   65.070">  1  5  2 -1</clus>
<clus scale="   92.773">  2  3  1 -1</clus>
<clus scale="  118.425">  1  4  2 -1</clus>
<clus scale="   65.070">  1  3  2 -1</clus>
</clustering>
</event>
<event>
 6    0  0.2666600E+002  0.1494114E+03  0.7546771E-02  0.1201198E+00
         21   -1    0    0  503  501  0.00000000000E+00  0.00000000000E+00  0.12354625127E+04  0.12354625127E+04  0.00000000000E+00 0. -1.
         21   -1    0    0  505  502 -0.00000000000E+00 -0.00000000000E+00 -0.46968778860E+02  0.46968778860E+02  0.00000000000E+00 0. -1.
         21    1    1    2  503  502  0.28109042618E+02 -0.17976641433E+02  0.54603353798E+02  0.63990656818E+02  0.00000000000E+00 0. -1.
         21    1    1    2  504  506 -0.43971344787E+02 -0.62827130169E+02  0.41017230991E+03  0.41727934440E+03  0.00000000000E+00 0. -1.
         21    1    1    2  505  504  0.60773041968E+02  0.13201154801E+03  0.10644427618E+03  0.18014104299E+03  0.00000000000E+00 0. -1.
         21    1    1    2  506  501 -0.44910739798E+02 -0.51207776412E+02  0.61727379398E+03  0.62102024737E+03  0.00000000000E+00 0. -1.
<scales pt_clust_3="33.36582" pt_clust_4="36.66140" pt_clust_5="144.24702" pt_clust_6="36.66140"></scales>
<clustering>
<clus scale="   33.366">  2  3  1 -1</clus>
<clus scale="   36.661">  4  6 -1 -1</clus>
<clus scale="  144.247">  2  5  1 -1</clus>
<clus scale="  149.411">  1  3  2 -1</clus>
</clustering>
</event>
<event>
 6    0  0.2666600E+002  0.1217894E+03  0.7546771E-02  0.1240174E+00
         21   -1    0    0  506  501  0.00000000000E+00  0.00000000000E+00  0.48965514629E+03  0.48965514629E+03  0.00000000000E+00 0.  1.
         21   -1    0    0  504  502 -0.00000000000E+00 -0.00000000000E+00 -0.69839685073E+03  0.69839685073E+03  0.00000000000E+00 0.  1.
         21    1    1    2  503  505  0.36602945881E+02  0.77051647170E+02  0.30990843690E+03  0.32143424092E+03  0.00000000000E+00 0.  1.
         21    1    1    2  504  501  0.54867983474E+02 -0.19866408938E+02 -0.95098428189E+02  0.11157455292E+03  0.00000000000E+00 0.  1.
         21    1    1    2  505  502 -0.72195937261E+02 -0.87830934928E+02 -0.58174965037E+03  0.59275558385E+03  0.00000000000E+00 0.  1.
         21    1    1    2  506  503 -0.19274992093E+02  0.30645696696E+02  0.15819793722E+03  0.16228761933E+03  0.00000000000E+00 0. -1.
<scales pt_clust_3="35.46912" pt_clust_4="58.35383" pt_clust_5="108.94203" pt_clust_6="35.46912"></scales>
<clustering>
<clus scale="   35.469">  3  6 -1 -1</clus>
<clus scale="   58.354">  2  4  1 -1</clus>
<clus scale="  108.942">  2  5  1 -1</clus>
<clus scale="  121.789">  1  3  2 -1</clus>
</clustering>
</event>
<event>
 6    0  0.2666600E+002  0.1670779E+03  0.7546771E-02  0.1180930E+00
         21   -1    0    0  505  501  0.00000000000E+00  0.00000000000E+00  0.29246627501E+03  0.29246627501E+03  0.00000000000E+00 0.  1.
         21   -1    0    0  503  502 -0.00000000000E+00 -0.00000000000E+00 -0.10139346796E+04  0.10139346796E+04  0.00000000000E+00 0.  1.
         21    1    1    2  503  504 -0.96897788633E+02  0.60456349440E+01  0.13355231323E+03  0.16511193632E+03  0.00000000000E+00 0.  1.
         21    1    1    2  504  501 -0.55158939620E+02 -0.40952691231E+02  0.12745714060E+03  0.14479279758E+03  0.00000000000E+00 0.  1.
         21    1    1    2  505  506  0.69328865170E+02 -0.12014582797E+02 -0.47498277522E+03  0.48016609470E+03  0.00000000000E+00 0.  1.
         21    1    1    2  506  502  0.82727863084E+02  0.46921639084E+02 -0.50749508321E+03  0.51633012602E+03  0.00000000000E+00 0.  1.
<scales pt_clust_3="50.29814" pt_clust_4="50.29814" pt_clust_5="50.16983" pt_clust_6="166.55923"></scales>
<clustering>
<clus scale="   50.170">  5  6 -1 -1</clus>
<clus scale="   50.298">  3  4 -1 -1</clus>
<clus scale="  166.559">  2  5  1 -1</clus>
<clus scale="  167.078">  1  3  2 -1</clus>
</clustering>
</event>
<event>
 6    0  0.2666600E+002  0.1294589E+03  0.7546771E-02  0.1228261E+00
         21   -1    0    0  503  501  0.00000000000E+00  0.00000000000E+00  0.40834819712E+02  0.40834819712E+02  0.00000000000E+00 0.  1.
         21   -1    0    0  505  502 -0.00000000000E+00 -0.00000000000E+00 -0.12396258274E+04  0.12396258274E+04  0.00000000000E+00 0. -1.
         21    1    1    2  503  506  0.50196591695E+01  0.72871231916E+02 -0.45469186493E+02  0.86039876449E+02  0.00000000000E+00 0.  1.
         21    1    1    2  504  501 -0.40840798838E+02 -0.64001488620E+02 -0.60689567991E+03  0.61162613392E+03  0.00000000000E+00 0. -1.
         21    1    1    2  505  504  0.14472845490E+01 -0.52897560746E+02 -0.51692327847E+03  0.51962479000E+03  0.00000000000E+00 0. -1.
         21    1    1    2  506  502  0.34373855119E+02  0.44027817450E+02 -0.29502862848E+02  0.63169846774E+02  0.00000000000E+00 0.  1.
<scales pt_clust_3="129.00672" pt_clust_4="32.78752" pt_clust_5="32.78752" pt_clust_6="33.01643"></scales>
<clustering>
<clus scale="   32.788">  4  5 -1 -1</clus>
<clus scale="   33.016">  3  6 -1 -1</clus>
<clus scale="  129.007">  1  3  2 -1</clus>
<clus scale="  129.007">  1  3  2 -1</clus>
</clustering>
</event>
<event>
 6    0  0.2666600E+002  0.2476045E+03  0.7546771E-02  0.1114828E+00
         21   -1    0    0  504  501  0.00000000000E+00  0.00000000000E+00  0.44848829061E+03  0.44848829061E+03  0.00000000000E+00 0. -1.
         21   -1    0    0  501  502 -0.00000000000E+00 -0.00000000000E+00 -0.54748846344E+03  0.54748846344E+03  0.00000000000E+00 0. -1.
         21    1    1    2  503  505 -0.17404142802E+03 -0.56281179018E+02  0.31283675825E+03  0.36238767514E+03  0.00000000000E+00 0. -1.
         21    1    1    2  504  503 -0.32636027526E+02 -0.53021482192E+02  0.71570359559E+02  0.94861500272E+02  0.00000000000E+00 0.  1.
         21    1    1    2  505  506  0.12466594995E+03  0.53517982121E+02 -0.23661662949E+03  0.27275117385E+03  0.00000000000E+00 0. -1.
         21    1    1    2  506  502  0.82011505595E+02  0.55784679088E+02 -0.24679066115E+03  0.26597640478E+03  0.00000000000E+00 0. -1.
<scales pt_clust_3="47.55982" pt_clust_4="47.55982" pt_clust_5="237.79150" pt_clust_6="37.09485"></scales>
<clustering>
<clus scale="   37.095">  5  6 -1 -1</clus>
<clus scale="   47.560">  3  4 -1 -1</clus>
<clus scale="  237.791">  2  5  1 -1</clus>
<clus scale="  247.604">  1  3  2 -1</clus>
</clustering>
</event>
<event>
 6    0  0.2666600E+002  0.1250579E+03  0.7546771E-02  0.1234979E+00
         21   -1    0    0  506  501  0.00000000000E+00  0.00000000000E+00  0.14117165231E+04  0.14117165231E+04  0.00000000000E+00 0.  1.
         21   -1    0    0  503  502 -0.00000000000E+00 -0.00000000000E+00 -0.33744485780E+03  0.33744485780E+03  0.00000000000E+00 0.  1.
         21    1    1    2  503  504  0.68333999010E+02  0.21014791389E+00  0.70268880206E+02  0.98016810335E+02  0.00000000000E+00 0.  1.
         21    1    1    2  504  501 -0.98292692489E+02  0.78809819780E+02  0.13134800597E+04  0.13195083586E+04  0.00000000000E+00 0.  1.
         21    1    1    2  505  502 -0.23130349605E+02 -0.22955916757E+02 -0.16119262749E+03  0.16445379395E+03  0.00000000000E+00 0.  1.
         21    1    1    2  506  505  0.53089043084E+02 -0.56064050937E+02 -0.14828464716E+03  0.16718241800E+03  0.00000000000E+00 0.  1.
<scales pt_clust_3="66.51583" pt_clust_4="14000.00000" pt_clust_5="32.58814" pt_clust_6="125.05795"></scales>
<clustering>
<clus scale="   32.588">  2  5  1 -1</clus>
<clus scale="   66.516">  2  3  1 -1</clus>
<clus scale="  125.058">  2  6  1 -1</clus>
<clus scale="  125.058">  1  3  2 -1</clus>
</clustering>
</event>
<event>
 6    0  0.2666600E+002  0.5151981E+03  0.7546771E-02  0.1009886E+00
         21   -1    0    0  503  501  0.00000000000E+00  0.00000000000E+00  0.34851346708E+03  0.34851346708E+03  0.00000000000E+00 0.  1.
         21   -1    0    0  506  502 -0.00000000000E+00 -0.00000000000E+00 -0.11759235230E+04  0.11759235230E+04  0.00000000000E+00 0.  1.
         21    1    1    2  503  505  0.43340344666E+01 -0.66634717471E+02  0.10967596070E+02  0.67670211990E+02  0.00000000000E+00 0.  1.
         21    1    1    2  504  501 -0.45706640804E+01  0.80104603950E+02 -0.22734707382E+03  0.24108988058E+03  0.00000000000E+00 0. -1.
         21    1    1    2  505  502 -0.17079607596E+03 -0.40203939722E+03  0.39794667843E+02  0.43862351974E+03  0.00000000000E+00 0.  1.
         21    1    1    2  506  504  0.17103270558E+03  0.38856951074E+03 -0.65082524604E+03  0.77705337779E+03  0.00000000000E+00 0.  1.
<scales pt_clust_3="31.25802" pt_clust_4="58.42883" pt_clust_5="503.74253" pt_clust_6="58.42883"></scales>
<clustering>
<clus scale="   31.258">  3  5 -1 -1</clus>
<clus scale="   58.429">  4  6 -1 -1</clus>
<clus scale="  503.743">  1  3  2 -1</clus>
<clus scale="  503.743">  1  3  2 -1</clus>
</clustering>
</event>
<event>
 6    0  0.2666600E+002  0.1750693E+03  0.7546771E-02  0.1172662E+00
         21   -1    0    0  502  501  0.00000000000E+00  0.00000000000E+00  0.40577801852E+03  0.40577801852E+03  0.00000000000E+00 0. -1.
         21   -1    0    0  506  502 -0.00000000000E+00 -0.00000000000E+00 -0.24063273347E+03  0.24063273347E+03  0.00000000000E+00 0. -1.
         21    1    1    2  503  505  0.59495278575E+02  0.63762140800E+02  0.12162013020E+03  0.14965545376E+03  0.00000000000E+00 0. -1.
         21    1    1    2  504  503 -0.32076545854E+02 -0.61403549508E+02 -0.51994849828E+02  0.86618503189E+02  0.00000000000E+00 0. -1.
         21    1    1    2  505  501  0.45655082504E+02  0.64266286549E+02  0.23004467679E+03  0.24317708664E+03  0.00000000000E+00 0. -1.
         21    1    1    2  506  504 -0.73073815225E+02 -0.66624877841E+02 -0.13452467211E+03  0.16695970839E+03  0.00000000000E+00 0. -1.
<scales pt_clust_3="53.79509" pt_clust_4="38.03051" pt_clust_5="53.79509" pt_clust_6="171.79167"></scales>
<clustering>
<clus scale="   38.031">  4  6 -1 -1</clus>
<clus scale="   53.795">  3  5 -1 -1</clus>
<clus scale="  171.792">  2  4  1 -1</clus>
<clus scale="  175.069">  1  3  2 -1</clus>
</clustering>
</event>
<event>
 6    0  0.2666600E+002  0.2046929E+03  0.7546771E-02  0.1145839E+00
         21   -1    0    0  504  501  0.00000000000E+00  0.00000000000E+00  0.59749489284E+03  0.59749489284E+03  0.00000000000E+00 0. -1.
         21   -1    0    0  503  502 -0.00000000000E+00 -0.00000000000E+00 -0.57979708653E+03  0.57979708653E+03  0.00000000000E+00 0. -1.
         21    1    1    2  503  505 -0.32587709297E+02 -0.10096156210E+03 -0.29598118992E+03  0.31442019751E+03  0.00000000000E+00 0. -1.
         21    1    1    2  504  506  0.70384187614E+02  0.89701191085E+02  0.44082898864E+03  0.45533551891E+03  0.00000000000E+00 0. -1.
         21    1    1    2  505  501 -0.77766586374E+02 -0.52739319971E+02 -0.24792168229E+03  0.26513060626E+03  0.00000000000E+00 0. -1.
         21    1    1    2  506  502  0.39970108056E+02  0.63999690984E+02  0.12077168987E+03  0.14240565669E+03  0.00000000000E+00 0. -1.
<scales pt_clust_3="200.12196" pt_clust_4="63.52170" pt_clust_5="61.32956" pt_clust_6="63.52170"></scales>
<clustering>
<clus scale="   61.330">  3  5 -1 -1</clus>
<clus scale="   63.522">  4  6 -1 -1</clus>
<clus scale="  200.122">  2  3  1 -1</clus>
<clus scale="  204.693">  1  3  2 -1</clus>
</clustering>
</event>
<event>
 6    0  0.2666600E+002  0.1569400E+03  0.7546771E-02  0.1192195E+00
         21   -1    0    0  505  501  0.00000000000E+00  0.00000000000E+00  0.42904899472E+03  0.42904899472E+03  0.00000000000E+00 0. -1.
         21   -1    0    0  504  502 -0.00000000000E+00 -0.00000000000E+00 -0.11015230464E+03  0.11015230464E+03  0.00000000000E+00 0. -1.
         21    1    1    2  503  502  0.13398394624E+02  0.10038422051E+03 -0.24664197935E+02  0.10423450180E+03  0.00000000000E+00 0. -1.
         21    1    1    2  504  501  0.49259779608E+02  0.62010774497E+02  0.55986375268E+02  0.96986268391E+02  0.00000000000E+00 0. -1.
         21    1    1    2  505  506 -0.42479032013E+02 -0.84885100191E+02  0.18409821542E+03  0.20712822434E+03  0.00000000000E+00 0. -1.
         21    1    1    2  506  503 -0.20179142220E+02 -0.77509894813E+02  0.10347629732E+03  0.13085230484E+03  0.00000000000E+00 0. -1.
<scales pt_clust_3="152.95945" pt_clust_4="79.19509" pt_clust_5="32.26248" pt_clust_6="32.26248"></scales>
<clustering>
<clus scale="   32.262">  5  6 -1 -1</clus>
<clus scale="   79.195">  2  4  1 -1</clus>
<clus scale="  152.959">  2  3  1 -1</clus>
<clus scale="  156.940">  1  3  2 -1</clus>
</clustering>
</event>
<event>
 6    0  0.2666600E+002  0.1323664E+03  0.7546771E-02  0.1223986E+00
         21   -1    0    0  503  501  0.00000000000E+00  0.00000000000E+00  0.25203426646E+03  0.25203426646E+03  0.00000000000E+00 0. -1.
         21   -1    0    0  505  502 -0.00000000000E+00 -0.00000000000E+00 -0.29343241409E+03  0.29343241409E+03  0.00000000000E+00 0. -1.
         21    1    1    2  503  506  0.71361670782E+02  0.10146028786E+03  0.17947841703E+03  0.21817236362E+03  0.00000000000E+00 0. -1.
         21    1    1    2  504  501  0.40854243610E+02 -0.50235032854E+01  0.12251086291E+01  0.41180161453E+02  0.00000000000E+00 0. -1.
         21    1    1    2  505  504 -0.90472173479E+02 -0.24744019995E+02 -0.17223382568E+03  0.19611723894E+03  0.00000000000E+00 0. -1.
         21    1    1    2  506  502 -0.21743740913E+02 -0.71692764577E+02 -0.49867847612E+02  0.89996916542E+02  0.00000000000E+00 0.  1.
<scales pt_clust_3="132.36644" pt_clust_4="41.16193" pt_clust_5="14000.00000" pt_clust_6="74.38833"></scales>
<clustering>
<clus scale="   41.162">  1  4  2 -1</clus>
<clus scale="   74.388">  2  6  1 -1</clus>
<clus scale="  132.366">  1  3  2 -1</clus>
<clus scale="   41.162">  1  3  2 -1</clus>
</clustering>
</event>
<event>
 6    0  0.2666600E+002  0.9490845E+02  0.7546771E-02  0.1291382E+00
         21   -1    0    0  503  501  0.00000000000E+00  0.00000000000E+00  0.83930418155E+03  0.83930418155E+03  0.00000000000E+00 0.  1.
         21   -1    0    0  504  502 -0.00000000000E+00 -0.00000000000E+00 -0.77235778184E+02  0.77235778184E+02  0.00000000000E+00 0.  1.
         21    1    1    2  503  505 -0.98220584784E+01 -0.56389814208E+02  0.54377410605E+03  0.54677834850E+03  0.00000000000E+00 0.  1.
         21    1    1    2  504  501  0.79882603453E+02 -0.19308810116E+02  0.22195808434E+03  0.23668428695E+03  0.00000000000E+00 0.  1.
         21    1    1    2  505  506 -0.85918258791E+02  0.44451142698E+02 -0.10735484807E+02  0.97329861373E+02  0.00000000000E+00 0.  1.
         21    1    1    2  506  502  0.15857713817E+02  0.31247481626E+02  0.70716977837E+01  0.35747462917E+02  0.00000000000E+00 0.  1.
<scales pt_clust_3="56.43920" pt_clust_4="94.90845" pt_clust_5="14000.00000" pt_clust_6="35.04101"></scales>
<clustering>
<clus scale="   35.041">  2  6  1 -1</clus>
<clus scale="   56.439">  1  3  2 -1</clus>
<clus scale="   94.908">  1  4  2 -1</clus>
<clus scale="   56.439">  1  3  2 -1</clus>
</clustering>
</event>
<event>
 6    0  0.2666600E+002  0.1339392E+03  0.7546771E-02  0.1221725E+00
         21   -1    0    0  505  501  0.00000000000E+00  0.00000000000E+00  0.72645677533E+03  0.72645677533E+03  0.00000000000E+00 0. -1.
         21   -1    0    0  501  502 -0.00000000000E+00 -0.00000000000E+00 -0.32459976896E+02  0.32459976896E+02  0.00000000000E+00 0.  1.
         21    1    1    2  503  504  0.69486593117E+01  0.62761573140E+02  0.11115351814E+03  0.12783741050E+03  0.00000000000E+00 0.  1.
         21    1    1    2  504  502 -0.12437001521E+02  0.63121723035E+02  0.48559519298E+02  0.80604328917E+02  0.00000000000E+00 0.  1.
         21    1    1    2  505  506 -0.15766830167E+02 -0.82015083627E+02  0.32031651259E+03  0.33102527866E+03  0.00000000000E+00 0. -1.
         21    1    1    2  506  503  0.21255172377E+02 -0.43868212547E+02  0.21396724841E+03  0.21944973414E+03  0.00000000000E+00 0. -1.
<scales pt_clust_3="44.99791" pt_clust_4="44.99791" pt_clust_5="132.52774" pt_clust_6="31.37801"></scales>
<clustering>
<clus scale="   31.378">  5  6 -1 -1</clus>
<clus scale="   44.998">  3  4 -1 -1</clus>
<clus scale="  132.528">  1  5  2 -1</clus>
<clus scale="  132.528">  1  3  2 -1</clus>
</clustering>
</event>
<event>
 6    0  0.2666600E+002  0.1171154E+03  0.7546771E-02  0.1247933E+00
         21   -1    0    0  503  501  0.00000000000E+00  0.00000000000E+00  0.11479391203E+04  0.11479391203E+04  0.00000000000E+00 0. -1.
         21   -1    0    0  505  502 -0.00000000000E+00 -0.00000000000E+00 -0.48608971688E+03  0.48608971688E+03  0.00000000000E+00 0. -1.
         21    1    1    2  503  504 -0.41708259207E+02  0.66321511237E+02  0.97834001079E+03  0.98147200595E+03  0.00000000000E+00 0. -1.
         21    1    1    2  504  502  0.43424392070E+02 -0.74089126716E+02 -0.40748004997E+03  0.41643110793E+03  0.00000000000E+00 0. -1.
         21    1    1    2  505  506  0.42397433376E+02 -0.72238958411E+01 -0.62417200626E+02  0.75799960172E+02  0.00000000000E+00 0. -1.
         21    1    1    2  506  501 -0.44113566240E+02  0.14991511321E+02  0.15340664328E+03  0.16032576318E+03  0.00000000000E+00 0.  1.
<scales pt_clust_3="117.11541" pt_clust_4="14000.00000" pt_clust_5="43.00845" pt_clust_6="46.23903"></scales>
<clustering>
<clus scale="   43.008">  2  5  1 -1</clus>
<clus scale="   46.239">  1  6  2 -1</clus>
<clus scale="  117.115">  1  3  2 -1</clus>
<clus scale="   46.239">  1  3  2 -1</clus>
</clustering>
</event>
<event>
 6    0  0.2666600E+002  0.9016331E+02  0.7546771E-02  0.1302457E+00
         21   -1    0    0  505  501  0.00000000000E+00  0.00000000000E+00  0.43647611807E+03  0.43647611807E+03  0.00000000000E+00 0.  1.
         21   -1    0    0  504  502 -0.00000000000E+00 -0.00000000000E+00 -0.49228034584E+03  0.49228034584E+03  0.00000000000E+00 0.  1.
         21    1    1    2  503  502  0.44084866845E+02  0.79597224941E+02 -0.35318612845E+03  0.36471856963E+03  0.00000000000E+00 0.  1.
         21    1    1    2  504  501  0.73638680219E+01  0.31659529083E+02  0.17710206879E+02  0.37016263476E+02  0.00000000000E+00 0.  1.
         21    1    1    2  505  506  0.27564142253E+02 -0.57820296361E+02  0.38188191955E+03  0.38721669526E+03  0.00000000000E+00 0.  1.
         21    1    1    2  506  503 -0.79012877120E+02 -0.53436457664E+02 -0.10221022574E+03  0.13980493555E+03  0.00000000000E+00 0.  1.
<scales pt_clust_3="90.16331" pt_clust_4="32.50465" pt_clust_5="44.46045" pt_clust_6="14000.00000"></scales>
<clustering>
<clus scale="   32.505">  1  4  2 -1</clus>
<clus scale="   44.460">  1  5  2 -1</clus>
<clus scale="   90.163">  2  3  1 -1</clus>
<clus scale="   32.505">  1  3  2 -1</clus>
</clustering>
</event>
<event>
 6    0  0.2666600E+002  0.1607044E+03  0.7546771E-02  0.1187904E+00
         21   -1    0    0  503  501  0.00000000000E+00  0.00000000000E+00  0.31319113949E+03  0.31319113949E+03  0.00000000000E+00 0. -1.
         21   -1    0    0  504  502 -0.00000000000E+00 -0.00000000000E+00 -0.15078619385E+03  0.15078619385E+03  0.00000000000E+00 0. -1.
         21    1    1    2  503  506  0.74774319856E+02  0.62188762819E+02 -0.55711643949E+02  0.11208223946E+03  0.00000000000E+00 0. -1.
         21    1    1    2  504  505 -0.58410683075E+02 -0.83800951412E+02  0.10771030807E+03  0.14844499931E+03  0.00000000000E+00 0. -1.
         21    1    1    2  505  501 -0.33862288369E+02 -0.31288863953E+02  0.13491709478E+03  0.14257724238E+03  0.00000000000E+00 0. -1.
         21    1    1    2  506  502  0.17498651588E+02  0.52901052546E+02 -0.24510813261E+02  0.60872852197E+02  0.00000000000E+00 0. -1.
<scales pt_clust_3="153.22474" pt_clust_4="42.83861" pt_clust_5="42.83861" pt_clust_6="31.37197"></scales>
<clustering>
<clus scale="   31.372">  3  6 -1 -1</clus>
<clus scale="   42.839">  4  5 -1 -1</clus>
<clus scale="  153.225">  2  3  1 -1</clus>
<clus scale="  160.704">  1  3  2 -1</clus>
</clustering>
</event>
<event>
 6    0  0.2666600E+002  0.2581494E+03  0.7546771E-02  0.1108260E+00
         21   -1    0    0  504  501  0.00000000000E+00  0.00000000000E+00  0.87720646562E+03  0.87720646562E+03  0.00000000000E+00 0.  1.
         21   -1    0    0  503  502 -0.00000000000E+00 -0.00000000000E+00 -0.18734916305E+03  0.18734916305E+03  0.00000000000E+00 0.  1.
         21    1    1    2  503  505  0.19883315629E+03  0.42511274849E+02 -0.39982584122E+02  0.20722075080E+03  0.00000000000E+00 0.  1.
         21    1    1    2  504  502 -0.18359616378E+03 -0.17247218583E+03  0.53871382251E+03  0.59469890600E+03  0.00000000000E+00 0.  1.
         21    1    1    2  505  506  0.44758261801E+02  0.20011329230E+02  0.26354464945E+02  0.55662492933E+02  0.00000000000E+00 0.  1.
         21    1    1    2  506  501 -0.59995254315E+02  0.10994958175E+03  0.16477159924E+03  0.20697347893E+03  0.00000000000E+00 0.  1.
<scales pt_clust_3="36.99534" pt_clust_4="246.91111" pt_clust_5="36.99534" pt_clust_6="125.25311"></scales>
<clustering>
<clus scale="   36.995">  3  5 -1 -1</clus>
<clus scale="  125.253">  1  6  2 -1</clus>
<clus scale="  246.911">  1  4  2 -1</clus>
<clus scale="  125.253">  1  3  2 -1</clus>
</clustering>
</event>
<event>
 6    0  0.2666600E+002  0.1406289E+03  0.7546771E-02  0.1212485E+00
         21   -1    0    0  502  501  0.00000000000E+00  0.00000000000E+00  0.19641001848E+03  0.19641001848E+03  0.00000000000E+00 0. -1.
         21   -1    0    0  504  502 -0.00000000000E+00 -0.00000000000E+00 -0.52678753807E+03  0.52678753807E+03  0.00000000000E+00 0.  1.
         21    1    1    2  503  506  0.44797653677E+02 -0.84359840967E+02 -0.43669171880E+03  0.44701573777E+03  0.00000000000E+00 0.  1.
         21    1    1    2  504  503  0.73198959461E+01 -0.33170081094E+02 -0.52730196981E+02  0.62724068986E+02  0.00000000000E+00 0. -1.
         21    1    1    2  505  501 -0.15478176441E+02  0.93665589181E+02  0.84801553581E+02  0.12729540460E+03  0.00000000000E+00 0. -1.
         21    1    1    2  506  505 -0.36639373182E+02  0.23864332881E+02  0.74242842611E+02  0.86162345198E+02  0.00000000000E+00 0.  1.
<scales pt_clust_3="126.63690" pt_clust_4="33.96815" pt_clust_5="41.69446" pt_clust_6="41.69446"></scales>
<clustering>
<clus scale="   33.968">  2  4  1 -1</clus>
<clus scale="   41.694">  5  6 -1 -1</clus>
<clus scale="  126.637">  2  3  1 -1</clus>
<clus scale="  140.629">  1  3  2 -1</clus>
</clustering>
</event>
<event>
 6    0  0.2666600E+002  0.1563844E+03  0.7546771E-02  0.1192840E+00
         21   -1    0    0  504  501  0.00000000000E+00  0.00000000000E+00  0.30881474176E+03  0.30881474176E+03  0.00000000000E+00 0. -1.
         21   -1    0    0  503  502 -0.00000000000E+00 -0.00000000000E+00 -0.93544019428E+03  0.93544019428E+03  0.00000000000E+00 0.  1.
         21    1    1    2  503  506  0.17388236713E+03  0.10176100388E+03 -0.52339020942E+03  0.56082768372E+03  0.00000000000E+00 0.  1.
         21    1    1    2  504  505 -0.56041424568E+02 -0.39306901042E+02  0.74828128950E+01  0.68859757667E+02  0.00000000000E+00 0. -1.
         21    1    1    2  505  502 -0.30463836818E+02 -0.37449891924E+02 -0.35274802877E+03  0.35603610991E+03  0.00000000000E+00 0.  1.
         21    1    1    2  506  501 -0.87377105746E+02 -0.25004210918E+02  0.24202997277E+03  0.25853138474E+03  0.00000000000E+00 0. -1.
<scales pt_clust_3="14000.00000" pt_clust_4="70.90844" pt_clust_5="48.27566" pt_clust_6="156.38442"></scales>
<clustering>
<clus scale="   48.276">  2  5  1 -1</clus>
<clus scale="   70.908">  1  4  2 -1</clus>
<clus scale="  156.384">  1  6  2 -1</clus>
<clus scale="   70.908">  1  3  2 -1</clus>
</clustering>
</event>
<event>
 6    0  0.2666600E+002  0.1276891E+03  0.7546771E-02  0.1230926E+00
         21   -1    0    0  506  501  0.00000000000E+00  0.00000000000E+00  0.10469014654E+04  0.10469014654E+04  0.00000000000E+00 0.  1.
         21   -1    0    0  504  502 -0.00000000000E+00 -0.00000000000E+00 -0.10015830828E+03  0.10015830828E+03  0.00000000000E+00 0. -1.
         21    1    1    2  503  505 -0.35768053633E+02 -0.47832383337E+02  0.34515330532E+03  0.35028287816E+03  0.00000000000E+00 0.  1.
         21    1    1    2  504  503  0.49561838313E+01  0.80469271409E+02 -0.64095984178E+02  0.10299593481E+03  0.00000000000E+00 0. -1.
         21    1    1    2  505  501 -0.25520361596E+01 -0.65791517242E+02  0.63320742438E+03  0.63662129945E+03  0.00000000000E+00 0.  1.
         21    1    1    2  506  502  0.33363905961E+02  0.33154629170E+02  0.32478411630E+02  0.57159661286E+02  0.00000000000E+00 0.  1.
<scales pt_clust_3="46.76960" pt_clust_4="117.86934" pt_clust_5="46.76960" pt_clust_6="47.03594"></scales>
<clustering>
<clus scale="   46.770">  3  5 -1 -1</clus>
<clus scale="   47.036">  2  6  1 -1</clus>
<clus scale="  117.869">  2  4  1 -1</clus>
<clus scale="  127.689">  1  3  2 -1</clus>
</clustering>
</event>
<event>
 6    0  0.2666600E+002  0.1215984E+03  0.7546771E-02  0.1240483E+00
         21   -1    0    0  505  501  0.00000000000E+00  0.00000000000E+00  0.75557502321E+03  0.75557502321E+03  0.00000000000E+00 0. -1.
         21   -1    0    0  504  502 -0.00000000000E+00 -0.00000000000E+00 -0.89666560787E+02  0.89666560787E+02  0.00000000000E+00 0. -1.
         21    1    1    2  503  502  0.69052168891E+02 -0.82766874798E+02 -0.12323689044E+02  0.10849161675E+03  0.00000000000E+00 0. -1.
         21    1    1    2  504  506 -0.72612180634E+02 -0.53486122218E+02  0.81330775914E+02  0.12144129922E+03  0.00000000000E+00 0. -1.
         21    1    1    2  505  503  0.10487684450E+02  0.10350534823E+03  0.53416026409E+03  0.54419714844E+03  0.00000000000E+00 0. -1.
         21    1    1    2  506  501 -0.69276727069E+01  0.32747648791E+02  0.62741111461E+02  0.71111519586E+02  0.00000000000E+00 0.  1.
<scales pt_clust_3="121.59842" pt_clust_4="88.26073" pt_clust_5="14000.00000" pt_clust_6="33.47239"></scales>
<clustering>
<clus scale="   33.472">  1  6  2 -1</clus>
<clus scale="   88.261">  2  4  1 -1</clus>
<clus scale="  121.598">  2  3  1 -1</clus>
<clus scale="   33.472">  1  3  2 -1</clus>
</clustering>
</event>
<event>
 6    0  0.2666600E+002  0.2281333E+03  0.7546771E-02  0.1127961E+00
         21   -1    0    0  503  501  0.00000000000E+00  0.00000000000E+00  0.15671443981E+03  0.15671443981E+03  0.00000000000E+00 0.  1.
         21   -1    0    0  505  502 -0.00000000000E+00 -0.00000000000E+00 -0.32840738548E+03  0.32840738548E+03  0.00000000000E+00 0.  1.
         21    1    1    2  503  504  0.88529250108E+02 -0.11411804335E+03 -0.85115181359E+01  0.14468172615E+03  0.00000000000E+00 0.  1.
         21    1    1    2  504  502  0.50154805478E+02 -0.45669124571E+02 -0.57910582836E+02  0.89189736270E+02  0.00000000000E+00 0. -1.
         21    1    1    2  505  506 -0.13562422110E+03  0.10058932500E+03 -0.77587106171E+02  0.18582761016E+03  0.00000000000E+00 0.  1.
         21    1    1    2  506  501 -0.30598344883E+01  0.59197842917E+02 -0.27683738534E+02  0.65422752711E+02  0.00000000000E+00 0. -1.
<scales pt_clust_3="224.24086" pt_clust_4="50.91051" pt_clust_5="50.55203" pt_clust_6="50.55203"></scales>
<clustering>
<clus scale="   50.552">  5  6 -1 -1</clus>
<clus scale="   50.911">  3  4 -1 -1</clus>
<clus scale="  224.241">  1  3  2 -1</clus>
<clus scale="  224.241">  1  3  2 -1</clus>
</clustering>
</event>
<event>
 6    0  0.2666600E+002  0.1463234E+03  0.7546771E-02  0.1205065E+00
         21   -1    0    0  506  501  0.00000000000E+00  0.00000000000E+00  0.11471707502E+03  0.11471707502E+03  0.00000000000E+00 0. -1.
         21   -1    0    0  503  502 -0.00000000000E+00 -0.00000000000E+00 -0.97970589692E+03  0.97970589692E+03  0.00000000000E+00 0.  1.
         21    1    1    2  503  505  0.70677298368E+02 -0.27967043148E+02 -0.44691083184E+03  0.45332849858E+03  0.00000000000E+00 0. -1.
         21    1    1    2  504  502 -0.10711842476E+03  0.19177486781E+01  0.28002505173E+02  0.11073470540E+03  0.00000000000E+00 0. -1.
         21    1    1    2  505  501  0.62122147689E+02  0.26577853558E+01 -0.47869191036E+03  0.48271334154E+03  0.00000000000E+00 0.  1.
         21    1    1    2  506  504 -0.25681021296E+02  0.23391509114E+02  0.32611415136E+02  0.47646426421E+02  0.00000000000E+00 0. -1.
<scales pt_clust_3="139.40549" pt_clust_4="31.87866" pt_clust_5="30.77333" pt_clust_6="31.87866"></scales>
<clustering>
<clus scale="   30.773">  3  5 -1 -1</clus>
<clus scale="   31.879">  4  6 -1 -1</clus>
<clus scale="  139.405">  2  3  1 -1</clus>
<clus scale="  146.323">  1  3  2 -1</clus>
</clustering>
</event>
<event>
 6    0  0.2666600E+002  0.2256351E+03  0.7546771E-02  0.1129750E+00
         21   -1    0    0  506  501  0.00000000000E+00  0.00000000000E+00  0.13539346174E+04  0.13539346174E+04  0.00000000000E+00 0.  1.
         21   -1    0    0  503  502 -0.00000000000E+00 -0.00000000000E+00 -0.31248946326E+03  0.31248946326E+03  0.00000000000E+00 0.  1.
         21    1    1    2  503  504  0.21182940507E+03 -0.93554408641E+02 -0.20572906579E+03  0.30975566619E+03  0.00000000000E+00 0.  1.
         21    1    1    2  504  505 -0.15335607267E+03  0.14557213242E+03  0.16091498991E+03  0.26571218403E+03  0.00000000000E+00 0. -1.
         21    1    1    2  505  501 -0.49864552042E+02 -0.44219979848E+01  0.67710328115E+03  0.67895130971E+03  0.00000000000E+00 0.  1.
         21    1    1    2  506  502 -0.86087803564E+01 -0.47595725799E+02  0.40915594887E+03  0.41200492073E+03  0.00000000000E+00 0.  1.
<scales pt_clust_3="225.63508" pt_clust_4="14000.00000" pt_clust_5="68.07484" pt_clust_6="48.36801"></scales>
<clustering>
<clus scale="   48.368">  1  6  2 -1</clus>
<clus scale="   68.075">  1  5  2 -1</clus>
<clus scale="  225.635">  2  3  1 -1</clus>
<clus scale="   48.368">  1  3  2 -1</clus>
</clustering>
</event>
<event>
 6    0  0.2666600E+002  0.1736027E+03  0.7546771E-02  0.1174142E+00
         21   -1    0    0  502  501  0.00000000000E+00  0.00000000000E+00  0.23404200777E+03  0.23404200777E+03  0.00000000000E+00 0. -1.
         21   -1    0    0  504  502 -0.00000000000E+00 -0.00000000000E+00 -0.29821076605E+03  0.29821076605E+03  0.00000000000E+00 0.  1.
         21    1    1    2  503  501 -0.95582920923E+02 -0.18378428680E+02  0.71155700865E+02  0.12056946205E+03  0.00000000000E+00 0. -1.
         21    1    1    2  504  505  0.87316278242E+02 -0.54154010353E+02 -0.95168040610E+02  0.14004908153E+03  0.00000000000E+00 0.  1.
         21    1    1    2  505  506  0.10739939661E+03  0.57497642290E+02 -0.97583294926E+02  0.15608686271E+03  0.00000000000E+00 0.  1.
         21    1    1    2  506  503 -0.99132753927E+02  0.15034796743E+02  0.57426876392E+02  0.11554736754E+03  0.00000000000E+00 0. -1.
<scales pt_clust_3="35.41901" pt_clust_4="102.74624" pt_clust_5="169.83993" pt_clust_6="35.41901"></scales>
<clustering>
<clus scale="   35.419">  3  6 -1 -1</clus>
<clus scale="  102.746">  2  4  1 -1</clus>
<clus scale="  169.840">  2  5  1 -1</clus>
<clus scale="  173.603">  1  3  2 -1</clus>
</clustering>
</event>
<event>
 6    0  0.2666600E+002  0.1567548E+03  0.7546771E-02  0.1192410E+00
         21   -1    0    0  502  501  0.00000000000E+00  0.00000000000E+00  0.11820223043E+03  0.11820223043E+03  0.00000000000E+00 0.  1.
         21   -1    0    0  505  502 -0.00000000000E+00 -0.00000000000E+00 -0.41398786937E+03  0.41398786937E+03  0.00000000000E+00 0.  1.
         21    1    1    2  503  504  0.71899812324E+02  0.99372166932E+02  0.26599441927E+02  0.12550673641E+03  0.00000000000E+00 0.  1.
         21    1    1    2  504  501  0.40212991978E+02  0.77681719264E+01  0.16122685309E+00  0.40956748076E+02  0.00000000000E+00 0.  1.
         21    1    1    2  505  506 -0.34666780308E+02 -0.91929294341E+01 -0.14027116243E+03  0.14478361309E+03  0.00000000000E+00 0.  1.
         21    1    1    2  506  503 -0.77446023994E+02 -0.97947409424E+02 -0.18227514528E+03  0.22094300223E+03  0.00000000000E+00 0.  1.
<scales pt_clust_3="31.36216" pt_clust_4="31.36216" pt_clust_5="35.86496" pt_clust_6="147.05934"></scales>
<clustering>
<clus scale="   31.362">  3  4 -1 -1</clus>
<clus scale="   35.865">  2  5  1 -1</clus>
<clus scale="  147.059">  2  6  1 -1</clus>
<clus scale="  156.755">  1  3  2 -1</clus>
</clustering>
</event>
<event>
 6    0  0.2666600E+002  0.1162120E+03  0.7546771E-02  0.1249480E+00
         21   -1    0    0  506  501  0.00000000000E+00  0.00000000000E+00  0.23885624484E+03  0.23885624484E+03  0.00000000000E+00 0.  1.
         21   -1    0    0  504  502 -0.00000000000E+00 -0.00000000000E+00 -0.10024614786E+03  0.10024614786E+03  0.00000000000E+00 0.  1.
         21    1    1    2  503  501 -0.46439057867E+02 -0.27146261751E+02 -0.25729404559E+02  0.59628079640E+02  0.00000000000E+00 0.  1.
         21    1    1    2  504  503 -0.58996041908E+02  0.82794794963E+01 -0.19813051954E+01  0.59607116285E+02  0.00000000000E+00 0.  1.
         21    1    1    2  505  502  0.11094939311E+03 -0.12243935497E+02  0.12103417048E+03  0.16464796449E+03  0.00000000000E+00 0.  1.
         21    1    1    2  506  505 -0.55142933368E+01  0.31110717752E+02  0.45286636264E+02  0.55219232285E+02  0.00000000000E+00 0.  1.
<scales pt_clust_3="41.31120" pt_clust_4="41.31120" pt_clust_5="107.37127" pt_clust_6="31.59564"></scales>
<clustering>
<clus scale="   31.596">  1  6  2 -1</clus>
<clus scale="   41.311">  3  4 -1 -1</clus>
<clus scale="  107.371">  1  5  2 -1</clus>
<clus scale="   31.596">  1  3  2 -1</clus>
</clustering>
</event>
<event>
 6    0  0.2666600E+002  0.1723184E+03  0.7546771E-02  0.1175451E+00
         21   -1    0    0  505  501  0.00000000000E+00  0.00000000000E+00  0.48489601087E+03  0.48489601087E+03  0.00000000000E+00 0.  1.
         21   -1    0    0  504  502 -0.00000000000E+00 -0.00000000000E+00 -0.18670280324E+03  0.18670280324E+03  0.00000000000E+00 0. -1.
         21    1    1    2  503  501  0.40853413688E+02  0.15893716287E+03  0.18639244589E+03  0.24833881500E+03  0.00000000000E+00 0.  1.
         21    1    1    2  504  506 -0.15210668908E+02 -0.64563236372E+02  0.27276052179E+02  0.71720003917E+02  0.00000000000E+00 0. -1.
         21    1    1    2  505  502 -0.54968862625E+02  0.42006497568E+02  0.17302097449E+03  0.18633941964E+03  0.00000000000E+00 0. -1.
         21    1    1    2  506  503  0.29326117845E+02 -0.13638042407E+03 -0.88496264932E+02  0.16520057555E+03  0.00000000000E+00 0. -1.
<scales pt_clust_3="14000.00000" pt_clust_4="66.33081" pt_clust_5="68.12806" pt_clust_6="172.31839"></scales>
<clustering>
<clus scale="   66.331">  2  4  1 -1</clus>
<clus scale="   68.128">  1  5  2 -1</clus>
<clus scale="  172.318">  2  6  1 -1</clus>
<clus scale="   68.128">  1  3  2 -1</clus>
</clustering>
</event>
<event>
 6    0  0.2666600E+002  0.9506942E+02  0.7546771E-02  0.1291020E+00
         21   -1    0    0  506  501  0.00000000000E+00  0.00000000000E+00  0.34352691706E+03  0.34352691706E+03  0.00000000000E+00 0. -1.
         21   -1    0    0  503  502 -0.00000000000E+00 -0.00000000000E+00 -0.95249623208E+03  0.95249623208E+03  0.00000000000E+00 0.  1.
         21    1    1    2  503  504 -0.10063938415E+03 -0.96131883837E+01 -0.44103649889E+03  0.45247529478E+03  0.00000000000E+00 0.  1.
         21    1    1    2  504  505  0.48256681638E+02 -0.33304111121E+02  0.16524748974E+03  0.17534139274E+03  0.00000000000E+00 0. -1.
         21    1    1    2  505  501 -0.13433667446E+02 -0.39230013343E+02  0.15929699597E+03  0.16460555973E+03  0.00000000000E+00 0. -1.
         21    1    1    2  506  502  0.65816369963E+02  0.82147312847E+02 -0.49247730184E+03  0.50360090190E+03  0.00000000000E+00 0.  1.
<scales pt_clust_3="95.06942" pt_clust_4="78.64494" pt_clust_5="41.46634" pt_clust_6="14000.00000"></scales>
<clustering>
<clus scale="   41.466">  1  5  2 -1</clus>
<clus scale="   78.645">  1  4  2 -1</clus>
<clus scale="   95.069">  1  3  2 -1</clus>
<clus scale="   41.466">  1  3  2 -1</clus>
</clustering>
</event>
<event>
 6    0  0.2666600E+002  0.1033837E+03  0.7546771E-02  0.1273337E+00
         21   -1    0    0  505  501  0.00000000000E+00  0.00000000000E+00  0.78512457585E+02  0.78512457585E+02  0.00000000000E+00 0.  1.
         21   -1    0    0  506  502 -0.00000000000E+00 -0.00000000000E+00 -0.50208058962E+03  0.50208058962E+03  0.00000000000E+00 0.  1.
         21    1    1    2  503  504  0.26831214401E+02  0.16567100560E+02 -0.17614852644E+03  0.17894883697E+03  0.00000000000E+00 0.  1.
         21    1    1    2  504  502  0.25669938535E+01  0.32951754320E+02 -0.12752132848E+03  0.13173494900E+03  0.00000000000E+00 0.  1.
         21    1    1    2  505  503 -0.11111157686E+03 -0.12845013488E+02  0.98113950894E+01  0.11228107747E+03  0.00000000000E+00 0.  1.
         21    1    1    2  506  501  0.81713368610E+02 -0.36673841392E+02 -0.12970967220E+03  0.15762818376E+03  0.00000000000E+00 0.  1.
<scales pt_clust_3="30.77464" pt_clust_4="65.64323" pt_clust_5="14000.00000" pt_clust_6="103.38374"></scales>
<clustering>
<clus scale="   30.775">  3  4 -1 -1</clus>
<clus scale="   65.643">  2  3  1 -1</clus>
<clus scale="  103.384">  2  6  1 -1</clus>
<clus scale="  103.384">  1  3  2 -1</clus>
</clustering>
</event>
<event>
 6    0  0.2666600E+002  0.1743326E+03  0.7546771E-02  0.1173404E+00
         21   -1    0    0  506  501  0.00000000000E+00  0.00000000000E+00  0.27458362779E+03  0.27458362779E+03  0.00000000000E+00 0. -1.
         21   -1    0    0  505  502 -0.00000000000E+00 -0.00000000000E+00 -0.21885464970E+03  0.21885464970E+03  0.00000000000E+00 0.  1.
         21    1    1    2  503  501  0.43193395511E+02  0.60290163507E+02  0.11849442428E+03  0.13979092180E+03  0.00000000000E+00 0. -1.
         21    1    1    2  504  502 -0.53583646014E+02 -0.15655710154E+02 -0.87064357780E+02  0.10342393715E+03  0.00000000000E+00 0. -1.
         21    1    1    2  505  503  0.94206225118E+02  0.18521611119E+02  0.85648363277E+02  0.12866042539E+03  0.00000000000E+00 0. -1.
         21    1    1    2  506  504 -0.83815974615E+02 -0.63156064472E+02 -0.61349451693E+02  0.12156299315E+03  0.00000000000E+00 0.  1.
<scales pt_clust_3="63.99706" pt_clust_4="43.16337" pt_clust_5="63.99706" pt_clust_6="169.09305"></scales>
<clustering>
<clus scale="   43.163">  4  6 -1 -1</clus>
<clus scale="   63.997">  3  5 -1 -1</clus>
<clus scale="  169.093">  2  4  1 -1</clus>
<clus scale="  174.333">  1  3  2 -1</clus>
</clustering>
</event>
<event>
 6    0  0.2666600E+002  0.1264665E+03  0.7546771E-02  0.1232795E+00
         21   -1    0    0  506  501  0.00000000000E+00  0.00000000000E+00  0.12480765613E+04  0.12480765613E+04  0.00000000000E+00 0.  1.
         21   -1    0    0  504  502 -0.00000000000E+00 -0.00000000000E+00 -0.55133955258E+02  0.55133955258E+02  0.00000000000E+00 0.  1.
         21    1    1    2  503  501 -0.57717243728E+02 -0.11081249283E+02  0.53176734046E+03  0.53500521371E+03  0.00000000000E+00 0.  1.
         21    1    1    2  504  503 -0.42833998158E+02 -0.51282329892E+02  0.53050736836E+03  0.53469869706E+03  0.00000000000E+00 0.  1.
         21    1    1    2  505  502  0.25043866099E+02 -0.51287193756E+02  0.38233200238E+02  0.68697518681E+02  0.00000000000E+00 0.  1.
         21    1    1    2  506  505  0.75507375788E+02  0.11365077293E+03  0.92434696972E+02  0.16480908710E+03  0.00000000000E+00 0.  1.
<scales pt_clust_3="40.22008" pt_clust_4="40.22008" pt_clust_5="57.07514" pt_clust_6="118.97334"></scales>
<clustering>
<clus scale="   40.220">  3  4 -1 -1</clus>
<clus scale="   57.075">  2  5  1 -1</clus>
<clus scale="  118.973">  2  6  1 -1</clus>
<clus scale="  126.467">  1  3  2 -1</clus>
</clustering>
</event>
<event>
 6    0  0.2666600E+002  0.1346973E+03  0.7546771E-02  0.1220648E+00
         21   -1    0    0  506  501  0.00000000000E+00  0.00000000000E+00  0.12434189625E+03  0.12434189625E+03  0.00000000000E+00 0.  1.
         21   -1    0    0  505  502 -0.00000000000E+00 -0.00000000000E+00 -0.44754955438E+03  0.44754955438E+03  0.00000000000E+00 0. -1.
         21    1    1    2  503  502 -0.81173753205E+02 -0.74942715633E+01 -0.60650440985E+02  0.10160619227E+03  0.00000000000E+00 0. -1.
         21    1    1    2  504  501 -0.97492455653E+00  0.37400889127E+02  0.16621366875E+02  0.40939550830E+02  0.00000000000E+00 0.  1.
         21    1    1    2  505  504  0.85992465369E+02  0.58935715664E+02  0.29313058619E+02  0.10829301957E+03  0.00000000000E+00 0.  1.
         21    1    1    2  506  503 -0.38437876082E+01 -0.88842333228E+02 -0.30849164263E+03  0.32105268797E+03  0.00000000000E+00 0. -1.
<scales pt_clust_3="81.51897" pt_clust_4="36.20108" pt_clust_5="36.20108" pt_clust_6="120.38149"></scales>
<clustering>
<clus scale="   36.201">  4  5 -1 -1</clus>
<clus scale="   81.519">  2  3  1 -1</clus>
<clus scale="  120.381">  2  6  1 -1</clus>
<clus scale="  134.697">  1  3  2 -1</clus>
</clustering>
</event>
<event>
 6    0  0.2666600E+002  0.7476521E+02  0.7546771E-02  0.1344600E+00
         21   -1    0    0  505  501  0.00000000000E+00  0.00000000000E+00  0.15142849790E+03  0.15142849790E+03  0.00000000000E+00 0. -1.
         21   -1    0    0  504  502 -0.00000000000E+00 -0.00000000000E+00 -0.12534474546E+03  0.12534474546E+03  0.00000000000E+00 0. -1.
         21    1    1    2  503  501  0.14555183817E+02 -0.36075439416E+02  0.24050460059E+02  0.45735274505E+02  0.00000000000E+00 0. -1.
         21    1    1    2  504  503  0.54508099830E+02 -0.61866827206E+02 -0.37519813058E+02  0.90589037016E+02  0.00000000000E+00 0. -1.
         21    1    1    2  505  506 -0.35142050056E+02  0.88642580106E+02  0.43962283127E+02  0.10500072870E+03  0.00000000000E+00 0. -1.
         21    1    1    2  506  502 -0.33921233591E+02  0.92996865163E+01 -0.44091776984E+01  0.35448203137E+02  0.00000000000E+00 0. -1.
<scales pt_clust_3="36.82121" pt_clust_4="14000.00000" pt_clust_5="74.76521" pt_clust_6="35.17292"></scales>
<clustering>
<clus scale="   35.173">  2  6  1 -1</clus>
<clus scale="   36.821">  1  3  2 -1</clus>
<clus scale="   74.765">  1  5  2 -1</clus>
<clus scale="   36.821">  1  3  2 -1</clus>
</clustering>
</event>
<event>
 6    0  0.2666600E+002  0.1955673E+03  0.7546771E-02  0.1153534E+00
         21   -1    0    0  506  501  0.00000000000E+00  0.00000000000E+00  0.10860563841E+04  0.10860563841E+04  0.00000000000E+00 0. -1.
         21   -1    0    0  505  502 -0.00000000000E+00 -0.00000000000E+00 -0.51124391895E+02  0.51124391895E+02  0.00000000000E+00 0. -1.
         21    1    1    2  503  501 -0.55763833397E+00 -0.47088141068E+02  0.87197396240E+02  0.99100907669E+02  0.00000000000E+00 0. -1.
         21    1    1    2  504  502  0.12927595938E+02  0.80902118347E+02  0.23861246612E+03  0.25228591811E+03  0.00000000000E+00 0. -1.
         21    1    1    2  505  503 -0.57019181585E+01 -0.13649516088E+03  0.10324038666E+03  0.17123673161E+03  0.00000000000E+00 0. -1.
         21    1    1    2  506  504 -0.66680394456E+01  0.10268118360E+03  0.60588174320E+03  0.61455721862E+03  0.00000000000E+00 0. -1.
<scales pt_clust_3="32.55116" pt_clust_4="59.88809" pt_clust_5="191.87467" pt_clust_6="59.88809"></scales>
<clustering>
<clus scale="   32.551">  3  5 -1 -1</clus>
<clus scale="   59.888">  4  6 -1 -1</clus>
<clus scale="  191.875">  2  3  1 -1</clus>
<clus scale="  195.567">  1  3  2 -1</clus>
</clustering>
</event>
<event>
 6    0  0.2666600E+002  0.8678099E+02  0.7546771E-02  0.1310840E+00
         21   -1    0    0  504  501  0.00000000000E+00  0.00000000000E+00  0.71635266572E+03  0.71635266572E+03  0.00000000000E+00 0. -1.
         21   -1    0    0  505  502 -0.00000000000E+00 -0.00000000000E+00 -0.20834752406E+03  0.20834752406E+03  0.00000000000E+00 0.  1.
         21    1    1    2  503  501  0.10180782857E+03 -0.48157682353E+02  0.31463394568E+03  0.33418335701E+03  0.00000000000E+00 0. -1.
         21    1    1    2  504  506 -0.75171538396E+02  0.14850618189E+02  0.34681137215E+03  0.35517520873E+03  0.00000000000E+00 0. -1.
         21    1    1    2  505  503  0.27411962563E+02  0.82037772759E+02 -0.13489244250E+03  0.16024226313E+03  0.00000000000E+00 0.  1.
         21    1    1    2  506  502 -0.54048252742E+02 -0.48730708595E+02 -0.18547733669E+02  0.75099360909E+02  0.00000000000E+00 0. -1.
<scales pt_clust_3="86.78099" pt_clust_4="14000.00000" pt_clust_5="43.47517" pt_clust_6="72.77290"></scales>
<clustering>
<clus scale="   72.773">  2  6  1 -1</clus>
<clus scale="   43.475">  2  5  1 -1</clus>
<clus scale="   86.781">  2  3  1 -1</clus>
<clus scale="   86.781">  1  3  2 -1</clus>
</clustering>
</event>
<event>
 6    0  0.2666600E+002  0.1042833E+03  0.7546771E-02  0.1271538E+00
         21   -1    0    0  506  501  0.00000000000E+00  0.00000000000E+00  0.13356649327E+04  0.13356649327E+04  0.00000000000E+00 0. -1.
         21   -1    0    0  505  502 -0.00000000000E+00 -0.00000000000E+00 -0.19859317087E+03  0.19859317087E+03  0.00000000000E+00 0. -1.
         21    1    1    2  503  501 -0.42334308881E+02  0.29955215600E+02  0.61981390982E+03  0.62197973556E+03  0.00000000000E+00 0.  1.
         21    1    1    2  504  502  0.10257684383E+03  0.12513971490E+02 -0.15138359570E+03  0.18329102930E+03  0.00000000000E+00 0. -1.
         21    1    1    2  505  503 -0.14003972590E+03 -0.16479099328E+02  0.61128380343E+03  0.62733609324E+03  0.00000000000E+00 0. -1.
         21    1    1    2  506  504  0.79797190958E+02 -0.25990087761E+02  0.57357644281E+02  0.10165124546E+03  0.00000000000E+00 0. -1.
<scales pt_clust_3="51.86047" pt_clust_4="104.28331" pt_clust_5="14000.00000" pt_clust_6="78.43242"></scales>
<clustering>
<clus scale="   51.860">  1  3  2 -1</clus>
<clus scale="   78.432">  1  6  2 -1</clus>
<clus scale="  104.283">  2  4  1 -1</clus>
<clus scale="   51.860">  1  3  2 -1</clus>
</clustering>
</event>
<event>
 6    0  0.2666600E+002  0.8774931E+02  0.7546771E-02  0.1308395E+00
         21   -1    0    0  504  501  0.00000000000E+00  0.00000000000E+00  0.12892930361E+04  0.12892930361E+04  0.00000000000E+00 0. -1.
         21   -1    0    0  505  502 -0.00000000000E+00 -0.00000000000E+00 -0.17498369331E+02  0.17498369331E+02  0.00000000000E+00 0. -1.
         21    1    1    2  503  501  0.85385019414E+02 -0.49931297364E+02  0.65277361075E+03  0.66022505473E+03  0.00000000000E+00 0. -1.
         21    1    1    2  504  506 -0.50722661799E+02 -0.46215930313E+02  0.18829689898E+03  0.20041063544E+03  0.00000000000E+00 0. -1.
         21    1    1    2  505  503 -0.45523308477E+02  0.64358252272E+02  0.34908384215E+03  0.35787411907E+03  0.00000000000E+00 0. -1.
         21    1    1    2  506  502  0.10860950861E+02  0.31788975404E+02  0.81640314942E+02  0.88281596240E+02  0.00000000000E+00 0. -1.
<scales pt_clust_3="87.74931" pt_clust_4="56.46846" pt_clust_5="14000.00000" pt_clust_6="33.59314"></scales>
<clustering>
<clus scale="   33.593">  2  6  1 -1</clus>
<clus scale="   56.468">  2  4  1 -1</clus>
<clus scale="   87.749">  1  3  2 -1</clus>
<clus scale="   87.749">  1  3  2 -1</clus>
</clustering>
</event>
<event>
 6    0  0.2666600E+002  0.1285724E+03  0.7546771E-02  0.1229589E+00
         21   -1    0    0  504  501  0.00000000000E+00  0.00000000000E+00  0.27608042327E+03  0.27608042327E+03  0.00000000000E+00 0.  1.
         21   -1    0    0  506  502 -0.00000000000E+00 -0.00000000000E+00 -0.25457335087E+03  0.25457335087E+03  0.00000000000E+00 0.  1.
         21    1    1    2  503  505 -0.42829909996E+02 -0.33979955756E+02 -0.49100240237E+02  0.73483822538E+02  0.00000000000E+00 0. -1.
         21    1    1    2  504  502  0.95669682594E+02  0.87880854522E+02  0.22709171635E+03  0.26162259152E+03  0.00000000000E+00 0.  1.
         21    1    1    2  505  501 -0.13330367176E+02 -0.33165440223E+02 -0.31844249094E+01  0.35885730816E+02  0.00000000000E+00 0.  1.
         21    1    1    2  506  503 -0.39509405422E+02 -0.20735458543E+02 -0.15329997881E+03  0.15966162927E+03  0.00000000000E+00 0.  1.
<scales pt_clust_3="31.99268" pt_clust_4="122.33291" pt_clust_5="31.99268" pt_clust_6="44.62009"></scales>
<clustering>
<clus scale="   31.993">  3  5 -1 -1</clus>
<clus scale="   44.620">  2  6  1 -1</clus>
<clus scale="  122.333">  1  4  2 -1</clus>
<clus scale="  122.333">  1  3  2 -1</clus>
</clustering>
</event>
<event>
 6    0  0.2666600E+002  0.1454428E+03  0.7546771E-02  0.1206187E+00
         21   -1    0    0  505  501  0.00000000000E+00  0.00000000000E+00  0.24049955869E+03  0.24049955869E+03  0.00000000000E+00 0.  1.
         21   -1    0    0  504  502 -0.00000000000E+00 -0.00000000000E+00 -0.14314029141E+03  0.14314029141E+03  0.00000000000E+00 0.  1.
         21    1    1    2  503  506  0.56481048145E+02  0.28064410071E+02  0.64840521087E+00  0.63072500676E+02  0.00000000000E+00 0.  1.
         21    1    1    2  504  503  0.78584553346E+02 -0.13256773466E+02 -0.42752584221E+02  0.90438141980E+02  0.00000000000E+00 0.  1.
         21    1    1    2  505  502 -0.49429936000E+01 -0.45666962686E+02  0.56247744211E+02  0.72620337341E+02  0.00000000000E+00 0.  1.
         21    1    1    2  506  501 -0.13012260789E+03  0.30859326081E+02  0.83215702077E+02  0.15750887011E+03  0.00000000000E+00 0.  1.
<scales pt_clust_3="49.47195" pt_clust_4="49.47195" pt_clust_5="45.93370" pt_clust_6="133.50223"></scales>
<clustering>
<clus scale="   45.934">  1  5  2 -1</clus>
<clus scale="   49.472">  3  4 -1 -1</clus>
<clus scale="  133.502">  1  6  2 -1</clus>
<clus scale="   45.934">  1  3  2 -1</clus>
</clustering>
</event>
<event>
 6    0  0.2666600E+002  0.1474771E+03  0.7546771E-02  0.1203608E+00
         21   -1    0    0  504  501  0.00000000000E+00  0.00000000000E+00  0.16441424928E+03  0.16441424928E+03  0.00000000000E+00 0. -1.
         21   -1    0    0  506  502 -0.00000000000E+00 -0.00000000000E+00 -0.22507418247E+04  0.22507418247E+04  0.00000000000E+00 0.  1.
         21    1    1    2  503  502  0.45916009979E+02 -0.13830211642E+02 -0.18750499318E+03  0.19353985944E+03  0.00000000000E+00 0.  1.
         21    1    1    2  504  505  0.28762160628E+02  0.84703076902E+02  0.44170050248E+02  0.99764053945E+02  0.00000000000E+00 0. -1.
         21    1    1    2  505  503 -0.92164509756E+02  0.54071947460E+02  0.54794440543E+02  0.12008539909E+03  0.00000000000E+00 0. -1.
         21    1    1    2  506  501  0.17486339149E+02 -0.12494481272E+03 -0.19977870730E+04  0.20017667615E+04  0.00000000000E+00 0.  1.
<scales pt_clust_3="47.95367" pt_clust_4="89.47803" pt_clust_5="14000.00000" pt_clust_6="147.47709"></scales>
<clustering>
<clus scale="   47.954">  2  3  1 -1</clus>
<clus scale="   89.478">  1  4  2 -1</clus>
<clus scale="  147.477">  2  6  1 -1</clus>
<clus scale="   89.478">  1  3  2 -1</clus>
</clustering>
</event>
<event>
 6    0  0.2666600E+002  0.1049853E+03  0.7546771E-02  0.1270149E+00
         21   -1    0    0  504  501  0.00000000000E+00  0.00000000000E+00  0.10129730684E+03  0.10129730684E+03  0.00000000000E+00 0. -1.
         21   -1    0    0  506  502 -0.00000000000E+00 -0.00000000000E+00 -0.27133783253E+03  0.27133783253E+03  0.00000000000E+00 0.  1.
         21    1    1    2  503  505  0.16629297491E+02  0.10812918663E+03 -0.73715430748E+02  0.13191822947E+03  0.00000000000E+00 0. -1.
         21    1    1    2  504  502 -0.89882590744E+02 -0.74046346625E+02 -0.64904041059E+02  0.13332020144E+03  0.00000000000E+00 0.  1.
         21    1    1    2  505  501  0.34236461558E+02 -0.42771636062E+02  0.26836411210E+01  0.54852074537E+02  0.00000000000E+00 0.  1.
         21    1    1    2  506  503  0.39016831696E+02  0.86887960539E+01 -0.34104695004E+02  0.52544633920E+02  0.00000000000E+00 0. -1.
<scales pt_clust_3="14000.00000" pt_clust_4="104.98527" pt_clust_5="56.94783" pt_clust_6="39.97259"></scales>
<clustering>
<clus scale="   39.973">  2  6  1 -1</clus>
<clus scale="   56.948">  1  5  2 -1</clus>
<clus scale="  104.985">  2  4  1 -1</clus>
<clus scale="   56.948">  1  3  2 -1</clus>
</clustering>
</event>
<event>
 6    0  0.2666600E+002  0.8569042E+02  0.7546771E-02  0.1313637E+00
         21   -1    0    0  504  501  0.00000000000E+00  0.00000000000E+00  0.11198934772E+04  0.11198934772E+04  0.00000000000E+00 0. -1.
         21   -1    0    0  505  502 -0.00000000000E+00 -0.00000000000E+00 -0.23103238367E+03  0.23103238367E+03  0.00000000000E+00 0.  1.
         21    1    1    2  503  502  0.67816785204E+02 -0.53675484253E+02 -0.20849921170E+03  0.22572570799E+03  0.00000000000E+00 0.  1.
         21    1    1    2  504  503 -0.21022734447E+02 -0.32508207307E+02  0.69206352648E+03  0.69314548516E+03  0.00000000000E+00 0. -1.
         21    1    1    2  505  506 -0.69993500018E+02  0.27740157192E+02  0.13535125888E+03  0.15488243815E+03  0.00000000000E+00 0. -1.
         21    1    1    2  506  501  0.23199449260E+02  0.58443534368E+02  0.26994551988E+03  0.27717222960E+03  0.00000000000E+00 0. -1.
<scales pt_clust_3="85.69042" pt_clust_4="38.71355" pt_clust_5="14000.00000" pt_clust_6="38.87127"></scales>
<clustering>
<clus scale="   38.714">  1  4  2 -1</clus>
<clus scale="   38.871">  1  6  2 -1</clus>
<clus scale="   85.690">  2  3  1 -1</clus>
<clus scale="   38.714">  1  3  2 -1</clus>
</clustering>
</event>
<event>
 6    0  0.2666600E+002  0.1532454E+03  0.7546771E-02  0.1196541E+00
         21   -1    0    0  504  501  0.00000000000E+00  0.00000000000E+00  0.14632896748E+04  0.14632896748E+04  0.00000000000E+00 0. -1.
         21   -1    0    0  506  502 -0.00000000000E+00 -0.00000000000E+00 -0.37622205292E+03  0.37622205292E+03  0.00000000000E+00 0.  1.
         21    1    1    2  503  502 -0.39747897431E+02  0.15341747369E+03 -0.33407678173E+03  0.36976223803E+03  0.00000000000E+00 0.  1.
         21    1    1    2  504  503  0.31890020120E+02  0.18366451471E+02  0.52425124558E+02  0.64052272464E+02  0.00000000000E+00 0.  1.
         21    1    1    2  505  501 -0.64183153511E+02 -0.89593575577E+02  0.11975507876E+04  0.12026114813E+04  0.00000000000E+00 0. -1.
         21    1    1    2  506  505  0.72041030822E+02 -0.82190349587E+02  0.17116849145E+03  0.20308573597E+03  0.00000000000E+00 0. -1.
<scales pt_clust_3="153.24539" pt_clust_4="36.80081" pt_clust_5="82.62635" pt_clust_6="14000.00000"></scales>
<clustering>
<clus scale="   36.801">  1  4  2 -1</clus>
<clus scale="   82.626">  1  5  2 -1</clus>
<clus scale="  153.245">  2  3  1 -1</clus>
<clus scale="   36.801">  1  3  2 -1</clus>
</clustering>
</event>
<event>
 6    0  0.2666600E+002  0.1138497E+03  0.7546771E-02  0.1253602E+00
         21   -1    0    0  504  501  0.00000000000E+00  0.00000000000E+00  0.24965949036E+03  0.24965949036E+03  0.00000000000E+00 0.  1.
         21   -1    0    0  506  502 -0.00000000000E+00 -0.00000000000E+00 -0.59564075404E+03  0.59564075404E+03  0.00000000000E+00 0.  1.
         21    1    1    2  503  505  0.13293301315E+03 -0.10649341851E+02 -0.27100768033E+03  0.30204264147E+03  0.00000000000E+00 0.  1.
         21    1    1    2  504  503 -0.23550994855E+02  0.31216855441E+02  0.18828816947E+02  0.43401218530E+02  0.00000000000E+00 0. -1.
         21    1    1    2  505  502 -0.23907744903E+02  0.43852412124E+02 -0.28036104268E+03  0.28477522464E+03  0.00000000000E+00 0.  1.
         21    1    1    2  506  501 -0.85474273397E+02 -0.64419925714E+02  0.18655864238E+03  0.21508115977E+03  0.00000000000E+00 0.  1.
<scales pt_clust_3="14000.00000" pt_clust_4="39.10424" pt_clust_5="50.33679" pt_clust_6="113.84970"></scales>
<clustering>
<clus scale="   39.104">  1  4  2 -1</clus>
<clus scale="   50.337">  2  5  1 -1</clus>
<clus scale="  113.850">  1  6  2 -1</clus>
<clus scale="   39.104">  1  3  2 -1</clus>
</clustering>
</event>
<event>
 6    0  0.2666600E+002  0.2296695E+03  0.7546771E-02  0.1126873E+00
         21   -1    0    0  505  501  0.00000000000E+00  0.00000000000E+00  0.78916148618E+03  0.78916148618E+03  0.00000000000E+00 0. -1.
         21   -1    0    0  503  502 -0.00000000000E+00 -0.00000000000E+00 -0.44418559190E+03  0.44418559190E+03  0.00000000000E+00 0. -1.
         21    1    1    2  503  506  0.18335017345E+03  0.11843891937E+03 -0.37190979959E+03  0.43123307243E+03  0.00000000000E+00 0. -1.
         21    1    1    2  504  501 -0.14417057682E+03 -0.46153783812E+02  0.31432957325E+03  0.34888165271E+03  0.00000000000E+00 0. -1.
         21    1    1    2  505  502  0.56620354293E+02 -0.52681164336E+01  0.33273687882E+02  0.65884412999E+02  0.00000000000E+00 0. -1.
         21    1    1    2  506  504 -0.95799950923E+02 -0.67017019125E+02  0.36928243274E+03  0.38734793995E+03  0.00000000000E+00 0.  1.
<scales pt_clust_3="220.07481" pt_clust_4="56.99061" pt_clust_5="56.86491" pt_clust_6="56.99061"></scales>
<clustering>
<clus scale="   56.865">  1  5  2 -1</clus>
<clus scale="   56.991">  4  6 -1 -1</clus>
<clus scale="  220.075">  2  3  1 -1</clus>
<clus scale="   56.865">  1  3  2 -1</clus>
</clustering>
</event>
<event>
 6    0  0.2666600E+002  0.1860921E+03  0.7546771E-02  0.1162034E+00
         21   -1    0    0  505  501  0.00000000000E+00  0.00000000000E+00  0.21241721150E+04  0.21241721150E+04  0.00000000000E+00 0.  1.
         21   -1    0    0  506  502 -0.00000000000E+00 -0.00000000000E+00 -0.77976916265E+02  0.77976916265E+02  0.00000000000E+00 0.  1.
         21    1    1    2  503  501  0.38739700867E+01 -0.98972867511E+02  0.13048767916E+04  0.13086306116E+04  0.00000000000E+00 0.  1.
         21    1    1    2  504  502 -0.34689204041E+02  0.34645794660E+02  0.51706644385E+01  0.49299165666E+02  0.00000000000E+00 0.  1.
         21    1    1    2  505  504 -0.14580601533E+02  0.13342471215E+03  0.35668110627E+02  0.13887750671E+03  0.00000000000E+00 0.  1.
         21    1    1    2  506  503  0.45395835488E+02 -0.69097639303E+02  0.70047963203E+03  0.70534174733E+03  0.00000000000E+00 0.  1.
<scales pt_clust_3="57.45681" pt_clust_4="33.47343" pt_clust_5="183.69174" pt_clust_6="57.45681"></scales>
<clustering>
<clus scale="   33.473">  4  5 -1 -1</clus>
<clus scale="   57.457">  3  6 -1 -1</clus>
<clus scale="  183.692">  2  4  1 -1</clus>
<clus scale="  186.092">  1  3  2 -1</clus>
</clustering>
</event>
<event>
 6    0  0.2666600E+002  0.6758934E+02  0.7546771E-02  0.1368488E+00
         21   -1    0    0  506  501  0.00000000000E+00  0.00000000000E+00  0.10967830927E+04  0.10967830927E+04  0.00000000000E+00 0. -1.
         21   -1    0    0  504  502 -0.00000000000E+00 -0.00000000000E+00 -0.14868863266E+03  0.14868863266E+03  0.00000000000E+00 0.  1.
         21    1    1    2  503  505 -0.24989206348E+02  0.63155460087E+02  0.51904488900E+03  0.52346983616E+03  0.00000000000E+00 0. -1.
         21    1    1    2  504  501 -0.57799699236E+02 -0.77245368057E+02 -0.87879418648E+02  0.13050074460E+03  0.00000000000E+00 0.  1.
         21    1    1    2  505  502  0.32676264102E+02  0.14532518561E+02 -0.27286458136E+02  0.44983142720E+02  0.00000000000E+00 0.  1.
         21    1    1    2  506  503  0.50112641483E+02 -0.44261059064E+00  0.54421544779E+03  0.54651800186E+03  0.00000000000E+00 0. -1.
<scales pt_clust_3="14000.00000" pt_clust_4="67.58934" pt_clust_5="35.76216" pt_clust_6="50.44773"></scales>
<clustering>
<clus scale="   35.762">  2  5  1 -1</clus>
<clus scale="   50.448">  1  6  2 -1</clus>
<clus scale="   67.589">  2  4  1 -1</clus>
<clus scale="   50.448">  1  3  2 -1</clus>
</clustering>
</event>
<event>
 6    0  0.2666600E+002  0.1355189E+03  0.7546771E-02  0.1219489E+00
         21   -1    0    0  505  501  0.00000000000E+00  0.00000000000E+00  0.74009333205E+03  0.74009333205E+03  0.00000000000E+00 0. -1.
         21   -1    0    0  501  502 -0.00000000000E+00 -0.00000000000E+00 -0.15802301387E+03  0.15802301387E+03  0.00000000000E+00 0. -1.
         21    1    1    2  503  504  0.28675384529E+02  0.50072640786E+02 -0.35336986869E+02  0.67662764310E+02  0.00000000000E+00 0. -1.
         21    1    1    2  504  502  0.60762980051E+02  0.31645107425E+02 -0.88351573358E+02  0.11180140019E+03  0.00000000000E+00 0. -1.
         21    1    1    2  505  506 -0.67471946361E+02 -0.37865493949E+02  0.54828440592E+03  0.55371657818E+03  0.00000000000E+00 0. -1.
         21    1    1    2  506  503 -0.21966418218E+02 -0.43852254261E+02  0.15747447249E+03  0.16493560325E+03  0.00000000000E+00 0.  1.
<scales pt_clust_3="43.35316" pt_clust_4="130.03279" pt_clust_5="48.35380" pt_clust_6="48.35380"></scales>
<clustering>
<clus scale="   43.353">  3  4 -1 -1</clus>
<clus scale="   48.354">  5  6 -1 -1</clus>
<clus scale="  130.033">  2  3  1 -1</clus>
<clus scale="  135.519">  1  3  2 -1</clus>
</clustering>
</event>
<event>
 6    0  0.2666600E+002  0.1787165E+03  0.7546771E-02  0.1169051E+00
         21   -1    0    0  503  501  0.00000000000E+00  0.00000000000E+00  0.64191532834E+03  0.64191532834E+03  0.00000000000E+00 0. -1.
         21   -1    0    0  506  502 -0.00000000000E+00 -0.00000000000E+00 -0.13080352909E+03  0.13080352909E+03  0.00000000000E+00 0.  1.
         21    1    1    2  503  505  0.45809968679E+02  0.32630550472E+02  0.53281991851E+02  0.77474361631E+02  0.00000000000E+00 0.  1.
         21    1    1    2  504  501 -0.12617581697E+03 -0.41423396066E+02  0.33795858316E+03  0.36311463543E+03  0.00000000000E+00 0. -1.
         21    1    1    2  505  502  0.14762665415E+03  0.65837428547E+02 -0.23964265613E+02  0.16340894112E+03  0.00000000000E+00 0.  1.
         21    1    1    2  506  504 -0.67260805854E+02 -0.57044582954E+02  0.14383548985E+03  0.16872091924E+03  0.00000000000E+00 0. -1.
<scales pt_clust_3="56.24328" pt_clust_4="48.96232" pt_clust_5="168.31443" pt_clust_6="48.96232"></scales>
<clustering>
<clus scale="   48.962">  4  6 -1 -1</clus>
<clus scale="   56.243">  1  3  2 -1</clus>
<clus scale="  168.314">  2  5  1 -1</clus>
<clus scale="   56.243">  1  3  2 -1</clus>
</clustering>
</event>
<event>
 6    0  0.2666600E+002  0.9065502E+02  0.7546771E-02  0.1301273E+00
         21   -1    0    0  505  501  0.00000000000E+00  0.00000000000E+00  0.25232311241E+03  0.25232311241E+03  0.00000000000E+00 0. -1.
         21   -1    0    0  503  502 -0.00000000000E+00 -0.00000000000E+00 -0.65951729113E+03  0.65951729113E+03  0.00000000000E+00 0.  1.
         21    1    1    2  503  506 -0.85824843805E+02 -0.36096101745E+02 -0.56047111975E+03  0.56815201174E+03  0.00000000000E+00 0.  1.
         21    1    1    2  504  502  0.29719034060E+02  0.26411710308E+02  0.54437542983E+02  0.67411019225E+02  0.00000000000E+00 0. -1.
         21    1    1    2  505  504 -0.29615600768E+02  0.18581535623E+02  0.16434723268E+03  0.16802490936E+03  0.00000000000E+00 0. -1.
         21    1    1    2  506  501  0.85721410512E+02 -0.88971441861E+01 -0.65507834627E+02  0.10825246322E+03  0.00000000000E+00 0.  1.
<scales pt_clust_3="90.65502" pt_clust_4="40.51536" pt_clust_5="34.96223" pt_clust_6="14000.00000"></scales>
<clustering>
<clus scale="   34.962">  1  5  2 -1</clus>
<clus scale="   40.515">  1  4  2 -1</clus>
<clus scale="   90.655">  2  3  1 -1</clus>
<clus scale="   34.962">  1  3  2 -1</clus>
</clustering>
</event>
<event>
 6    0  0.2666600E+002  0.7919651E+02  0.7546771E-02  0.1331347E+00
         21   -1    0    0  503  501  0.00000000000E+00  0.00000000000E+00  0.53986515399E+03  0.53986515399E+03  0.00000000000E+00 0. -1.
         21   -1    0    0  504  502 -0.00000000000E+00 -0.00000000000E+00 -0.31265013309E+03  0.31265013309E+03  0.00000000000E+00 0. -1.
         21    1    1    2  503  506 -0.16318711598E+02  0.60825935289E+02  0.15083490902E+03  0.16345416645E+03  0.00000000000E+00 0. -1.
         21    1    1    2  504  501 -0.63357271711E+02 -0.67208171150E+02  0.36466761405E+03  0.37618286894E+03  0.00000000000E+00 0. -1.
         21    1    1    2  505  502  0.11256484971E+02 -0.38238438046E+02 -0.98405041201E+02  0.10617174168E+03  0.00000000000E+00 0. -1.
         21    1    1    2  506  505  0.68419498337E+02  0.44620673907E+02 -0.18988246097E+03  0.20670651000E+03  0.00000000000E+00 0. -1.
<scales pt_clust_3="61.78170" pt_clust_4="79.19651" pt_clust_5="39.86084" pt_clust_6="14000.00000"></scales>
<clustering>
<clus scale="   39.861">  2  5  1 -1</clus>
<clus scale="   61.782">  1  3  2 -1</clus>
<clus scale="   79.197">  1  4  2 -1</clus>
<clus scale="   61.782">  1  3  2 -1</clus>
</clustering>
</event>
<event>
 6    0  0.2666600E+002  0.1288692E+03  0.7546771E-02  0.1229143E+00
         21   -1    0    0  504  501  0.00000000000E+00  0.00000000000E+00  0.58882549143E+03  0.58882549143E+03  0.00000000000E+00 0.  1.
         21   -1    0    0  506  502 -0.00000000000E+00 -0.00000000000E+00 -0.88593532866E+03  0.88593532866E+03  0.00000000000E+00 0. -1.
         21    1    1    2  503  501 -0.23373400740E+02  0.20951931403E+02  0.15683129707E+03  0.15994172386E+03  0.00000000000E+00 0.  1.
         21    1    1    2  504  502 -0.11032885823E+03 -0.69197962143E+02 -0.63951393952E+03  0.65263994190E+03  0.00000000000E+00 0. -1.
         21    1    1    2  505  503 -0.36784124054E+01  0.40579863623E+02  0.40290091344E+03  0.40495604959E+03  0.00000000000E+00 0.  1.
         21    1    1    2  506  505  0.13738067137E+03  0.76661671165E+01 -0.21732810823E+03  0.25722310474E+03  0.00000000000E+00 0.  1.
<scales pt_clust_3="31.38948" pt_clust_4="14000.00000" pt_clust_5="65.46000" pt_clust_6="128.86922"></scales>
<clustering>
<clus scale="   31.389">  1  3  2 -1</clus>
<clus scale="   65.460">  1  5  2 -1</clus>
<clus scale="  128.869">  1  6  2 -1</clus>
<clus scale="   31.389">  1  3  2 -1</clus>
</clustering>
</event>
<event>
 6    0  0.2666600E+002  0.2033275E+03  0.7546771E-02  0.1146962E+00
         21   -1    0    0  502  501  0.00000000000E+00  0.00000000000E+00  0.10058110630E+04  0.10058110630E+04  0.00000000000E+00 0.  1.
         21   -1    0    0  503  502 -0.00000000000E+00 -0.00000000000E+00 -0.18906678821E+03  0.18906678821E+03  0.00000000000E+00 0.  1.
         21    1    1    2  503  505  0.22113771346E+03  0.15435730363E+02 -0.56550596976E+02  0.22877526113E+03  0.00000000000E+00 0.  1.
         21    1    1    2  504  501 -0.31985882483E+02  0.81365768488E+01  0.81513095162E+02  0.87941373903E+02  0.00000000000E+00 0.  1.
         21    1    1    2  505  506 -0.16332522200E+03 -0.47282171980E+02  0.12642670650E+03  0.21188309051E+03  0.00000000000E+00 0. -1.
         21    1    1    2  506  504 -0.25826608986E+02  0.23709864769E+02  0.66535507006E+03  0.66627812562E+03  0.00000000000E+00 0.  1.
<scales pt_clust_3="14000.00000" pt_clust_4="33.00455" pt_clust_5="203.32747" pt_clust_6="57.19757"></scales>
<clustering>
<clus scale="   33.005">  1  4  2 -1</clus>
<clus scale="   57.198">  1  6  2 -1</clus>
<clus scale="  203.327">  1  5  2 -1</clus>
<clus scale="   33.005">  1  3  2 -1</clus>
</clustering>
</event>
<event>
 6    0  0.2666600E+002  0.1746777E+03  0.7546771E-02  0.1173056E+00
         21   -1    0    0  503  501  0.00000000000E+00  0.00000000000E+00  0.29600377660E+03  0.29600377660E+03  0.00000000000E+00 0.  1.
         21   -1    0    0  506  502 -0.00000000000E+00 -0.00000000000E+00 -0.49038237629E+03  0.49038237629E+03  0.00000000000E+00 0. -1.
         21    1    1    2  503  504  0.75354284505E+02  0.18522256889E+02  0.12602975454E+03  0.14800284194E+03  0.00000000000E+00 0.  1.
         21    1    1    2  504  505  0.78240649207E+02  0.59199648021E+02  0.12157914527E+03  0.15622959412E+03  0.00000000000E+00 0.  1.
         21    1    1    2  505  502 -0.13335539901E+03 -0.43297222138E+02 -0.40153864219E+03  0.42531352326E+03  0.00000000000E+00 0. -1.
         21    1    1    2  506  501 -0.20239534701E+02 -0.34424682772E+02 -0.40448857297E+02  0.56840193574E+02  0.00000000000E+00 0.  1.
<scales pt_clust_3="35.74050" pt_clust_4="35.74050" pt_clust_5="169.99178" pt_clust_6="39.93366"></scales>
<clustering>
<clus scale="   35.741">  3  4 -1 -1</clus>
<clus scale="   39.934">  2  6  1 -1</clus>
<clus scale="  169.992">  2  5  1 -1</clus>
<clus scale="  174.678">  1  3  2 -1</clus>
</clustering>
</event>
<event>
 6    0  0.2666600E+002  0.1535718E+03  0.7546771E-02  0.1196151E+00
         21   -1    0    0  503  501  0.00000000000E+00  0.00000000000E+00  0.34094351661E+03  0.34094351661E+03  0.00000000000E+00 0. -1.
         21   -1    0    0  506  502 -0.00000000000E+00 -0.00000000000E+00 -0.29805461776E+03  0.29805461776E+03  0.00000000000E+00 0. -1.
         21    1    1    2  503  504 -0.88558305778E+02  0.12502299463E+02  0.23165146251E+03  0.24831689652E+03  0.00000000000E+00 0. -1.
         21    1    1    2  504  502 -0.49722316405E+02  0.17052116762E+02  0.71346786520E+02  0.88619678297E+02  0.00000000000E+00 0. -1.
         21    1    1    2  505  501  0.35193766142E+02 -0.35573661655E+02 -0.76687266565E+02  0.91569773572E+02  0.00000000000E+00 0. -1.
         21    1    1    2  506  505  0.10308685604E+03  0.60192454291E+01 -0.18342208362E+03  0.21049178598E+03  0.00000000000E+00 0. -1.
<scales pt_clust_3="147.37136" pt_clust_4="31.82544" pt_clust_5="41.70586" pt_clust_6="41.70586"></scales>
<clustering>
<clus scale="   31.825">  3  4 -1 -1</clus>
<clus scale="   41.706">  5  6 -1 -1</clus>
<clus scale="  147.371">  1  3  2 -1</clus>
<clus scale="  147.371">  1  3  2 -1</clus>
</clustering>
</event>
<event>
 6    0  0.2666600E+002  0.6414092E+02  0.7546771E-02  0.1381232E+00
         21   -1    0    0  504  501  0.00000000000E+00  0.00000000000E+00  0.30920662996E+03  0.30920662996E+03  0.00000000000E+00 0.  1.
         21   -1    0    0  505  502 -0.00000000000E+00 -0.00000000000E+00 -0.70292687965E+02  0.70292687965E+02  0.00000000000E+00 0.  1.
         21    1    1    2  503  502  0.46713809622E+02  0.12666843339E+02  0.30961864908E+02  0.57456644595E+02  0.00000000000E+00 0.  1.
         21    1    1    2  504  503  0.57204300739E+02  0.26931189788E+02  0.14246468586E+03  0.15586470968E+03  0.00000000000E+00 0.  1.
         21    1    1    2  505  506 -0.25296642731E+02 -0.61608739103E+02  0.97206201586E+01  0.67305626241E+02  0.00000000000E+00 0.  1.
         21    1    1    2  506  501 -0.78621467630E+02  0.22010705977E+02  0.55766771072E+02  0.98872337414E+02  0.00000000000E+00 0.  1.
<scales pt_clust_3="48.40071" pt_clust_4="14000.00000" pt_clust_5="55.24214" pt_clust_6="64.14092"></scales>
<clustering>
<clus scale="   48.401">  2  3  1 -1</clus>
<clus scale="   55.242">  2  5  1 -1</clus>
<clus scale="   64.141">  2  6  1 -1</clus>
<clus scale="   64.141">  1  3  2 -1</clus>
</clustering>
</event>
<event>
 6    0  0.2666600E+002  0.1010527E+03  0.7546771E-02  0.1278098E+00
         21   -1    0    0  505  501  0.00000000000E+00  0.00000000000E+00  0.89157067652E+03  0.89157067652E+03  0.00000000000E+00 0.  1.
         21   -1    0    0  503  502 -0.00000000000E+00 -0.00000000000E+00 -0.35853213901E+02  0.35853213901E+02  0.00000000000E+00 0.  1.
         21    1    1    2  503  504 -0.60424764073E+02  0.17523468610E+02  0.89962528633E+02  0.10977923585E+03  0.00000000000E+00 0.  1.
         21    1    1    2  504  501  0.18906882011E+02  0.90041532493E+02  0.10452211904E+03  0.13924733796E+03  0.00000000000E+00 0.  1.
         21    1    1    2  505  506  0.43328472565E+02 -0.36536196921E+01  0.27545593578E+03  0.27886677469E+03  0.00000000000E+00 0.  1.
         21    1    1    2  506  502 -0.18105905033E+01 -0.10391138141E+03  0.38577687916E+03  0.39953054191E+03  0.00000000000E+00 0.  1.
<scales pt_clust_3="56.00204" pt_clust_4="14000.00000" pt_clust_5="43.48224" pt_clust_6="101.05269"></scales>
<clustering>
<clus scale="   43.482">  1  5  2 -1</clus>
<clus scale="   56.002">  2  3  1 -1</clus>
<clus scale="  101.053">  1  6  2 -1</clus>
<clus scale="   43.482">  1  3  2 -1</clus>
</clustering>
</event>
<event>
 6    0  0.2666600E+002  0.7784395E+02  0.7546771E-02  0.1335284E+00
         21   -1    0    0  504  501  0.00000000000E+00  0.00000000000E+00  0.45207734575E+03  0.45207734575E+03  0.00000000000E+00 0.  1.
         21   -1    0    0  505  502 -0.00000000000E+00 -0.00000000000E+00 -0.47810126577E+03  0.47810126577E+03  0.00000000000E+00 0.  1.
         21    1    1    2  503  502  0.21343247618E+02 -0.43603769340E+02 -0.11044939531E+03  0.12064780083E+03  0.00000000000E+00 0. -1.
         21    1    1    2  504  503 -0.38225472536E+02 -0.21375552343E+02  0.21475618819E+03  0.21917646168E+03  0.00000000000E+00 0.  1.
         21    1    1    2  505  506 -0.80368784142E+02  0.90562526428E+02 -0.33831819388E+03  0.35933259380E+03  0.00000000000E+00 0.  1.
         21    1    1    2  506  501  0.97251009060E+02 -0.25583204745E+02  0.20798748099E+03  0.23102175520E+03  0.00000000000E+00 0.  1.
<scales pt_clust_3="48.60829" pt_clust_4="43.79613" pt_clust_5="14000.00000" pt_clust_6="77.84395"></scales>
<clustering>
<clus scale="   43.796">  1  4  2 -1</clus>
<clus scale="   48.608">  2  3  1 -1</clus>
<clus scale="   77.844">  1  6  2 -1</clus>
<clus scale="   43.796">  1  3  2 -1</clus>
</clustering>
</event>
<event>
 6    0  0.2666600E+002  0.9407911E+02  0.7546771E-02  0.1293264E+00
         21   -1    0    0  506  501  0.00000000000E+00  0.00000000000E+00  0.49440978296E+03  0.49440978296E+03  0.00000000000E+00 0.  1.
         21   -1    0    0  504  502 -0.00000000000E+00 -0.00000000000E+00 -0.16780933028E+03  0.16780933028E+03  0.00000000000E+00 0.  1.
         21    1    1    2  503  501  0.67964612668E+02 -0.62715350843E+02  0.32776143239E+03  0.34055830685E+03  0.00000000000E+00 0.  1.
         21    1    1    2  504  503  0.20264905023E+02  0.67831184466E+02 -0.10198896338E+03  0.12415105563E+03  0.00000000000E+00 0.  1.
         21    1    1    2  505  502  0.36933824412E+02 -0.10537001416E+02  0.29372149283E+01  0.38519644548E+02  0.00000000000E+00 0.  1.
         21    1    1    2  506  505 -0.12516334210E+03  0.54211677929E+01  0.97890768751E+02  0.15899010621E+03  0.00000000000E+00 0.  1.
<scales pt_clust_3="14000.00000" pt_clust_4="76.81512" pt_clust_5="38.40750" pt_clust_6="94.07911"></scales>
<clustering>
<clus scale="   38.407">  2  5  1 -1</clus>
<clus scale="   76.815">  2  4  1 -1</clus>
<clus scale="   94.079">  2  6  1 -1</clus>
<clus scale="   94.079">  1  3  2 -1</clus>
</clustering>
</event>
<event>
 6    0  0.2666600E+002  0.8019485E+02  0.7546771E-02  0.1328499E+00
         21   -1    0    0  506  501  0.00000000000E+00  0.00000000000E+00  0.10063423619E+03  0.10063423619E+03  0.00000000000E+00 0. -1.
         21   -1    0    0  503  502 -0.00000000000E+00 -0.00000000000E+00 -0.20929291169E+04  0.20929291169E+04  0.00000000000E+00 0. -1.
         21    1    1    2  503  505 -0.43399421985E+02  0.41090145616E+02 -0.83733736535E+02  0.10287491691E+03  0.00000000000E+00 0.  1.
         21    1    1    2  504  502 -0.41165369648E+02  0.15422884225E+02 -0.13376897410E+04  0.13384118560E+04  0.00000000000E+00 0. -1.
         21    1    1    2  505  501  0.79374841745E+02  0.20997210319E+02  0.69279976156E+02  0.10742887619E+03  0.00000000000E+00 0. -1.
         21    1    1    2  506  504  0.51899498881E+01 -0.77510240160E+02 -0.64015137928E+03  0.64484770396E+03  0.00000000000E+00 0. -1.
<scales pt_clust_3="64.80536" pt_clust_4="43.95967" pt_clust_5="80.19485" pt_clust_6="14000.00000"></scales>
<clustering>
<clus scale="   43.960">  2  4  1 -1</clus>
<clus scale="   64.805">  2  3  1 -1</clus>
<clus scale="   80.195">  1  5  2 -1</clus>
<clus scale="   80.195">  1  3  2 -1</clus>
</clustering>
</event>
<event>
 6    0  0.2666600E+002  0.1649085E+03  0.7546771E-02  0.1183264E+00
         21   -1    0    0  506  501  0.00000000000E+00  0.00000000000E+00  0.35104808270E+03  0.35104808270E+03  0.00000000000E+00 0. -1.
         21   -1    0    0  503  502 -0.00000000000E+00 -0.00000000000E+00 -0.36220761058E+03  0.36220761058E+03  0.00000000000E+00 0. -1.
         21    1    1    2  503  505  0.28382117656E+02 -0.49225119926E+02 -0.15787977492E+03  0.16779356472E+03  0.00000000000E+00 0. -1.
         21    1    1    2  504  501 -0.69558177004E+02  0.12498491328E+03  0.11094210985E+03  0.18101856334E+03  0.00000000000E+00 0. -1.
         21    1    1    2  505  504  0.68144770158E+01 -0.10326267644E+03 -0.14513589954E+03  0.17825276092E+03  0.00000000000E+00 0. -1.
         21    1    1    2  506  502  0.34361582332E+02  0.27502883090E+02  0.18091403672E+03  0.18619080429E+03  0.00000000000E+00 0. -1.
<scales pt_clust_3="43.44898" pt_clust_4="154.13166" pt_clust_5="43.44898" pt_clust_6="44.01280"></scales>
<clustering>
<clus scale="   43.449">  3  5 -1 -1</clus>
<clus scale="   44.013">  1  6  2 -1</clus>
<clus scale="  154.132">  1  4  2 -1</clus>
<clus scale="   44.013">  1  3  2 -1</clus>
</clustering>
</event>
<event>
 6    0  0.2666600E+002  0.1671812E+03  0.7546771E-02  0.1180820E+00
         21   -1    0    0  503  501  0.00000000000E+00  0.00000000000E+00  0.13336168075E+03  0.13336168075E+03  0.00000000000E+00 0. -1.
         21   -1    0    0  505  502 -0.00000000000E+00 -0.00000000000E+00 -0.58210140556E+03  0.58210140556E+03  0.00000000000E+00 0. -1.
         21    1    1    2  503  506  0.14623968916E+01 -0.86043287465E+02  0.58609109293E+02  0.10411826744E+03  0.00000000000E+00 0. -1.
         21    1    1    2  504  501 -0.13443076936E+02  0.10117614305E+03 -0.29848892958E+03  0.31545676300E+03  0.00000000000E+00 0. -1.
         21    1    1    2  505  504  0.50255848117E+02  0.40841673071E+02 -0.21804579053E+03  0.22745913764E+03  0.00000000000E+00 0. -1.
         21    1    1    2  506  502 -0.38275168072E+02 -0.55974528653E+02  0.91858860058E+01  0.68428918233E+02  0.00000000000E+00 0. -1.
<scales pt_clust_3="158.67063" pt_clust_4="63.84948" pt_clust_5="63.84948" pt_clust_6="53.64493"></scales>
<clustering>
<clus scale="   53.645">  3  6 -1 -1</clus>
<clus scale="   63.849">  4  5 -1 -1</clus>
<clus scale="  158.671">  1  3  2 -1</clus>
<clus scale="  158.671">  1  3  2 -1</clus>
</clustering>
</event>
<event>
 6    0  0.2666600E+002  0.2048897E+03  0.7546771E-02  0.1145678E+00
         21   -1    0    0  504  501  0.00000000000E+00  0.00000000000E+00  0.34351696010E+03  0.34351696010E+03  0.00000000000E+00 0.  1.
         21   -1    0    0  506  502 -0.00000000000E+00 -0.00000000000E+00 -0.55587514810E+03  0.55587514810E+03  0.00000000000E+00 0. -1.
         21    1    1    2  503  505 -0.50566054359E+02  0.81336524440E+00 -0.58212934304E+02  0.77112470695E+02  0.00000000000E+00 0.  1.
         21    1    1    2  504  502  0.15565983352E+03  0.14798775013E+02  0.13772749441E+03  0.20836950407E+03  0.00000000000E+00 0.  1.
         21    1    1    2  505  501  0.31668497666E+02  0.30777426999E+02  0.14615970374E+03  0.15268530628E+03  0.00000000000E+00 0.  1.
         21    1    1    2  506  503 -0.13676227682E+03 -0.46389567256E+02 -0.43803245184E+03  0.46122482715E+03  0.00000000000E+00 0. -1.
<scales pt_clust_3="46.94645" pt_clust_4="188.68308" pt_clust_5="44.16043" pt_clust_6="46.94645"></scales>
<clustering>
<clus scale="   44.160">  1  5  2 -1</clus>
<clus scale="   46.946">  3  6 -1 -1</clus>
<clus scale="  188.683">  1  4  2 -1</clus>
<clus scale="   44.160">  1  3  2 -1</clus>
</clustering>
</event>
<event>
 6    0  0.2666600E+002  0.1177064E+03  0.7546771E-02  0.1246929E+00
         21   -1    0    0  506  501  0.00000000000E+00  0.00000000000E+00  0.90462904450E+02  0.90462904450E+02  0.00000000000E+00 0.  1.
         21   -1    0    0  505  502 -0.00000000000E+00 -0.00000000000E+00 -0.47931578356E+03  0.47931578356E+03  0.00000000000E+00 0.  1.
         21    1    1    2  503  504  0.12193015083E+03 -0.51755374686E+02 -0.12536600129E+03  0.18237931563E+03  0.00000000000E+00 0.  1.
         21    1    1    2  504  502 -0.54129454615E+02  0.10798600156E+03 -0.23290534116E+03  0.26236591304E+03  0.00000000000E+00 0.  1.
         21    1    1    2  505  501 -0.77797460557E+02 -0.15985610351E+02 -0.24540400794E+02  0.83127708247E+02  0.00000000000E+00 0.  1.
         21    1    1    2  506  503  0.99967643443E+01 -0.40245016518E+02 -0.60411358748E+01  0.41905751092E+02  0.00000000000E+00 0.  1.
<scales pt_clust_3="14000.00000" pt_clust_4="117.70637" pt_clust_5="80.49805" pt_clust_6="41.46802"></scales>
<clustering>
<clus scale="   41.468">  1  6  2 -1</clus>
<clus scale="   80.498">  1  5  2 -1</clus>
<clus scale="  117.706">  2  4  1 -1</clus>
<clus scale="   41.468">  1  3  2 -1</clus>
</clustering>
</event>
<event>
 6    0  0.2666600E+002  0.1793363E+03  0.7546771E-02  0.1168447E+00
         21   -1    0    0  506  501  0.00000000000E+00  0.00000000000E+00  0.16267817906E+04  0.16267817906E+04  0.00000000000E+00 0. -1.
         21   -1    0    0  505  502 -0.00000000000E+00 -0.00000000000E+00 -0.25017594801E+03  0.25017594801E+03  0.00000000000E+00 0. -1.
         21    1    1    2  503  504 -0.57603229107E+02  0.47737860855E+02  0.51638048864E+03  0.52177183175E+03  0.00000000000E+00 0. -1.
         21    1    1    2  504  502  0.13318132135E+03  0.49917268173E+02 -0.53875144960E+02  0.15209052982E+03  0.00000000000E+00 0. -1.
         21    1    1    2  505  501  0.28391722354E+02 -0.96346938742E+02 -0.12412613848E+03  0.15967504739E+03  0.00000000000E+00 0. -1.
         21    1    1    2  506  503 -0.10396981459E+03 -0.13081902867E+01  0.10382266374E+04  0.10434203296E+04  0.00000000000E+00 0. -1.
<scales pt_clust_3="58.53238" pt_clust_4="165.52912" pt_clust_5="100.44313" pt_clust_6="58.53238"></scales>
<clustering>
<clus scale="   58.532">  3  6 -1 -1</clus>
<clus scale="  100.443">  2  5  1 -1</clus>
<clus scale="  165.529">  2  4  1 -1</clus>
<clus scale="  179.336">  1  3  2 -1</clus>
</clustering>
</event>
<event>
 6    0  0.2666600E+002  0.9005521E+02  0.7546771E-02  0.1302718E+00
         21   -1    0    0  504  501  0.00000000000E+00  0.00000000000E+00  0.15791920343E+03  0.15791920343E+03  0.00000000000E+00 0.  1.
         21   -1    0    0  506  502 -0.00000000000E+00 -0.00000000000E+00 -0.75708766266E+03  0.75708766266E+03  0.00000000000E+00 0. -1.
         21    1    1    2  503  501  0.52615546055E+02  0.48898399912E+02  0.22753472536E+02  0.75346995382E+02  0.00000000000E+00 0. -1.
         21    1    1    2  504  505 -0.74882562051E+02 -0.14251462888E+03  0.40961976718E+02  0.16611953853E+03  0.00000000000E+00 0.  1.
         21    1    1    2  505  502  0.73289226636E+01  0.39219429869E+02 -0.49138561225E+03  0.49300273499E+03  0.00000000000E+00 0. -1.
         21    1    1    2  506  503  0.14938093332E+02  0.54396799099E+02 -0.17149829624E+03  0.18053759719E+03  0.00000000000E+00 0. -1.
<scales pt_clust_3="75.04975" pt_clust_4="90.05521" pt_clust_5="39.89833" pt_clust_6="14000.00000"></scales>
<clustering>
<clus scale="   39.898">  2  5  1 -1</clus>
<clus scale="   75.050">  1  3  2 -1</clus>
<clus scale="   90.055">  1  4  2 -1</clus>
<clus scale="   75.050">  1  3  2 -1</clus>
</clustering>
</event>
<event>
 6    0  0.2666600E+002  0.1197834E+03  0.7546771E-02  0.1243455E+00
         21   -1    0    0  506  501  0.00000000000E+00  0.00000000000E+00  0.96848391106E+02  0.96848391106E+02  0.00000000000E+00 0. -1.
         21   -1    0    0  503  502 -0.00000000000E+00 -0.00000000000E+00 -0.31648510222E+03  0.31648510222E+03  0.00000000000E+00 0. -1.
         21    1    1    2  503  505  0.25948468090E+02 -0.69095215037E+02 -0.10541028606E+03  0.12868100149E+03  0.00000000000E+00 0. -1.
         21    1    1    2  504  502 -0.34032634539E+02  0.56370631837E+02 -0.41467699036E+02  0.77816697506E+02  0.00000000000E+00 0. -1.
         21    1    1    2  505  501 -0.35715279914E+02 -0.70859652993E+02 -0.79378467090E+02  0.11223908713E+03  0.00000000000E+00 0. -1.
         21    1    1    2  506  504  0.43799446363E+02  0.83584236193E+02  0.66197410724E+01  0.94596707202E+02  0.00000000000E+00 0. -1.
<scales pt_clust_3="62.59779" pt_clust_4="65.84731" pt_clust_5="62.59779" pt_clust_6="100.67384"></scales>
<clustering>
<clus scale="   62.598">  3  5 -1 -1</clus>
<clus scale="   65.847">  2  4  1 -1</clus>
<clus scale="  100.674">  1  6  2 -1</clus>
<clus scale="  100.674">  1  3  2 -1</clus>
</clustering>
</event>
<event>
 6    0  0.2666600E+002  0.1251332E+03  0.7546771E-02  0.1234861E+00
         21   -1    0    0  506  501  0.00000000000E+00  0.00000000000E+00  0.10772347602E+04  0.10772347602E+04  0.00000000000E+00 0. -1.
         21   -1    0    0  503  502 -0.00000000000E+00 -0.00000000000E+00 -0.70906211381E+02  0.70906211381E+02  0.00000000000E+00 0. -1.
         21    1    1    2  503  501  0.79348802419E+02 -0.77849832900E+02  0.13342196163E+03  0.17366130477E+03  0.00000000000E+00 0. -1.
         21    1    1    2  504  502  0.32788549164E+02  0.60236656146E+02  0.84787991506E+00  0.68587627166E+02  0.00000000000E+00 0. -1.
         21    1    1    2  505  504  0.59372283651E+01  0.48074905331E+02  0.34419400890E+02  0.59423415931E+02  0.00000000000E+00 0. -1.
         21    1    1    2  506  505 -0.11807457995E+03 -0.30461728577E+02  0.83763930640E+03  0.84646862373E+03  0.00000000000E+00 0. -1.
<scales pt_clust_3="111.16127" pt_clust_4="36.74823" pt_clust_5="36.74823" pt_clust_6="117.24480"></scales>
<clustering>
<clus scale="   36.748">  4  5 -1 -1</clus>
<clus scale="  111.161">  2  3  1 -1</clus>
<clus scale="  117.245">  1  6  2 -1</clus>
<clus scale="  117.245">  1  3  2 -1</clus>
</clustering>
</event>
<event>
 6    0  0.2666600E+002  0.2045734E+03  0.7546771E-02  0.1145937E+00
         21   -1    0    0  503  501  0.00000000000E+00  0.00000000000E+00  0.27350500361E+03  0.27350500361E+03  0.00000000000E+00 0. -1.
         21   -1    0    0  506  502 -0.00000000000E+00 -0.00000000000E+00 -0.12605723914E+04  0.12605723914E+04  0.00000000000E+00 0. -1.
         21    1    1    2  503  502  0.51264616205E+02 -0.19218247242E+03 -0.11098144746E+04  0.11274973754E+04  0.00000000000E+00 0. -1.
         21    1    1    2  504  505  0.28099920512E+00  0.67502953336E+02  0.73228815040E+02  0.99595115451E+02  0.00000000000E+00 0. -1.
         21    1    1    2  505  501 -0.82413160644E+02  0.10949056504E+03  0.14857439838E+03  0.20212487411E+03  0.00000000000E+00 0. -1.
         21    1    1    2  506  504  0.30867545234E+02  0.15188954047E+02 -0.99056126603E+02  0.10486003000E+03  0.00000000000E+00 0.  1.
<scales pt_clust_3="195.15216" pt_clust_4="43.14866" pt_clust_5="43.14866" pt_clust_6="34.40218"></scales>
<clustering>
<clus scale="   34.402">  2  6  1 -1</clus>
<clus scale="   43.149">  4  5 -1 -1</clus>
<clus scale="  195.152">  2  3  1 -1</clus>
<clus scale="  204.573">  1  3  2 -1</clus>
</clustering>
</event>
<event>
 6    0  0.2666600E+002  0.1218280E+03  0.7546771E-02  0.1240111E+00
         21   -1    0    0  505  501  0.00000000000E+00  0.00000000000E+00  0.29247609308E+03  0.29247609308E+03  0.00000000000E+00 0.  1.
         21   -1    0    0  506  502 -0.00000000000E+00 -0.00000000000E+00 -0.11517307039E+03  0.11517307039E+03  0.00000000000E+00 0.  1.
         21    1    1    2  503  501  0.89281657325E+02 -0.15444306303E+02  0.94038106395E+01  0.91094306004E+02  0.00000000000E+00 0.  1.
         21    1    1    2  504  502 -0.59769722215E+02  0.16442203572E+02  0.11305246174E+02  0.63012493547E+02  0.00000000000E+00 0.  1.
         21    1    1    2  505  504 -0.83508291031E+02 -0.45340429176E+02  0.15717862105E+03  0.18366956227E+03  0.00000000000E+00 0.  1.
         21    1    1    2  506  503  0.53996355920E+02  0.44342531908E+02 -0.58465516691E+00  0.69872801649E+02  0.00000000000E+00 0.  1.
<scales pt_clust_3="58.70379" pt_clust_4="61.99005" pt_clust_5="101.84858" pt_clust_6="58.70379"></scales>
<clustering>
<clus scale="   58.704">  3  6 -1 -1</clus>
<clus scale="   61.990">  2  4  1 -1</clus>
<clus scale="  101.849">  1  5  2 -1</clus>
<clus scale="  101.849">  1  3  2 -1</clus>
</clustering>
</event>
<event>
 6    0  0.2666600E+002  0.1107205E+03  0.7546771E-02  0.1259241E+00
         21   -1    0    0  503  501  0.00000000000E+00  0.00000000000E+00  0.52133010755E+02  0.52133010755E+02  0.00000000000E+00 0.  1.
         21   -1    0    0  504  502 -0.00000000000E+00 -0.00000000000E+00 -0.73822626401E+03  0.73822626401E+03  0.00000000000E+00 0.  1.
         21    1    1    2  503  506 -0.27481756905E+02  0.37084132381E+02 -0.58188072659E+02  0.74272011127E+02  0.00000000000E+00 0.  1.
         21    1    1    2  504  501 -0.74103095682E+02 -0.91826515565E+02 -0.61945637570E+02  0.13326905029E+03  0.00000000000E+00 0.  1.
         21    1    1    2  505  502  0.31251857016E+02 -0.19493861038E+02 -0.15806679539E+03  0.16230157421E+03  0.00000000000E+00 0.  1.
         21    1    1    2  506  505  0.70332995571E+02  0.74236244222E+02 -0.40789274763E+03  0.42051663914E+03  0.00000000000E+00 0.  1.
<scales pt_clust_3="42.25900" pt_clust_4="14000.00000" pt_clust_5="36.83326" pt_clust_6="110.72047"></scales>
<clustering>
<clus scale="   36.833">  2  5  1 -1</clus>
<clus scale="   42.259">  1  3  2 -1</clus>
<clus scale="  110.720">  2  6  1 -1</clus>
<clus scale="   42.259">  1  3  2 -1</clus>
</clustering>
</event>
<event>
 6    0  0.2666600E+002  0.1034331E+03  0.7546771E-02  0.1273238E+00
         21   -1    0    0  505  501  0.00000000000E+00  0.00000000000E+00  0.42178075514E+03  0.42178075514E+03  0.00000000000E+00 0. -1.
         21   -1    0    0  504  502 -0.00000000000E+00 -0.00000000000E+00 -0.74583144877E+02  0.74583144877E+02  0.00000000000E+00 0. -1.
         21    1    1    2  503  506 -0.20207499351E+02  0.88829105679E+02  0.85940326189E+02  0.12523854323E+03  0.00000000000E+00 0. -1.
         21    1    1    2  504  503  0.19811311971E+01  0.35185559799E+02 -0.64607912178E+01  0.35828624344E+02  0.00000000000E+00 0. -1.
         21    1    1    2  505  502  0.75730585128E+02 -0.98724466343E+02  0.11209257507E+03  0.16747055611E+03  0.00000000000E+00 0. -1.
         21    1    1    2  506  501 -0.57504216974E+02 -0.25290199136E+02  0.15562550022E+03  0.16782617632E+03  0.00000000000E+00 0. -1.
<scales pt_clust_3="103.43306" pt_clust_4="35.24129" pt_clust_5="14000.00000" pt_clust_6="61.10106"></scales>
<clustering>
<clus scale="   35.241">  2  4  1 -1</clus>
<clus scale="   61.101">  1  6  2 -1</clus>
<clus scale="  103.433">  1  3  2 -1</clus>
<clus scale="   61.101">  1  3  2 -1</clus>
</clustering>
</event>
<event>
 6    0  0.2666600E+002  0.2032928E+03  0.7546771E-02  0.1146990E+00
         21   -1    0    0  504  501  0.00000000000E+00  0.00000000000E+00  0.94202517300E+03  0.94202517300E+03  0.00000000000E+00 0.  1.
         21   -1    0    0  505  502 -0.00000000000E+00 -0.00000000000E+00 -0.11997293113E+04  0.11997293113E+04  0.00000000000E+00 0.  1.
         21    1    1    2  503  506  0.17936473883E+03 -0.17661081856E+02  0.84126063031E+03  0.86035055149E+03  0.00000000000E+00 0.  1.
         21    1    1    2  504  503  0.27266079338E+02  0.24164823951E+02  0.72313410437E+02  0.80972878966E+02  0.00000000000E+00 0.  1.
         21    1    1    2  505  501 -0.68278595761E+02 -0.28046156400E+02 -0.80378113274E+03  0.80716334337E+03  0.00000000000E+00 0.  1.
         21    1    1    2  506  502 -0.13835222241E+03  0.21542414306E+02 -0.36749704635E+03  0.39326771052E+03  0.00000000000E+00 0.  1.
<scales pt_clust_3="14000.00000" pt_clust_4="36.43320" pt_clust_5="73.74709" pt_clust_6="203.29278"></scales>
<clustering>
<clus scale="   36.433">  1  4  2 -1</clus>
<clus scale="   73.747">  2  5  1 -1</clus>
<clus scale="  203.293">  2  6  1 -1</clus>
<clus scale="   36.433">  1  3  2 -1</clus>
</clustering>
</event>
<event>
 6    0  0.2666600E+002  0.1335866E+03  0.7546771E-02  0.1222229E+00
         21   -1    0    0  505  501  0.00000000000E+00  0.00000000000E+00  0.22767692949E+03  0.22767692949E+03  0.00000000000E+00 0.  1.
         21   -1    0    0  506  502 -0.00000000000E+00 -0.00000000000E+00 -0.17471929699E+03  0.17471929699E+03  0.00000000000E+00 0.  1.
         21    1    1    2  503  501  0.78514359799E+01  0.92599378531E+02 -0.49179848770E+02  0.10514251032E+03  0.00000000000E+00 0.  1.
         21    1    1    2  504  503 -0.27030204781E+02  0.39988021241E+02 -0.36857017512E+02  0.60729840714E+02  0.00000000000E+00 0.  1.
         21    1    1    2  505  502 -0.26562837432E+02 -0.12206290340E+03  0.14244419834E+03  0.18946051398E+03  0.00000000000E+00 0.  1.
         21    1    1    2  506  504  0.45741606233E+02 -0.10524496375E+02 -0.34496995579E+01  0.47063361458E+02  0.00000000000E+00 0.  1.
<scales pt_clust_3="33.52553" pt_clust_4="33.52553" pt_clust_5="125.22515" pt_clust_6="46.93676"></scales>
<clustering>
<clus scale="   33.526">  3  4 -1 -1</clus>
<clus scale="   46.937">  2  6  1 -1</clus>
<clus scale="  125.225">  1  5  2 -1</clus>
<clus scale="  125.225">  1  3  2 -1</clus>
</clustering>
</event>
<event>
 6    0  0.2666600E+002  0.1240620E+03  0.7546771E-02  0.1236543E+00
         21   -1    0    0  506  501  0.00000000000E+00  0.00000000000E+00  0.88879960206E+02  0.88879960206E+02  0.00000000000E+00 0.  1.
         21   -1    0    0  503  502 -0.00000000000E+00 -0.00000000000E+00 -0.10111709379E+04  0.10111709379E+04  0.00000000000E+00 0. -1.
         21    1    1    2  503  501 -0.11195155761E+02 -0.74102935447E+02  0.32073824968E+02  0.81518751232E+02  0.00000000000E+00 0.  1.
         21    1    1    2  504  505  0.73640572746E+02  0.21128637188E+02 -0.43770099207E+03  0.44435516394E+03  0.00000000000E+00 0. -1.
         21    1    1    2  505  502  0.33233411869E+02  0.37374162405E+02 -0.45830170818E+03  0.46102249771E+03  0.00000000000E+00 0. -1.
         21    1    1    2  506  504 -0.95678828855E+02  0.15600135855E+02 -0.58362102443E+02  0.11315448525E+03  0.00000000000E+00 0.  1.
<scales pt_clust_3="74.94382" pt_clust_4="36.52192" pt_clust_5="36.52192" pt_clust_6="115.53412"></scales>
<clustering>
<clus scale="   36.522">  4  5 -1 -1</clus>
<clus scale="   74.944">  1  3  2 -1</clus>
<clus scale="  115.534">  1  6  2 -1</clus>
<clus scale="   74.944">  1  3  2 -1</clus>
</clustering>
</event>
<event>
 6    0  0.2666600E+002  0.1551964E+03  0.7546771E-02  0.1194229E+00
         21   -1    0    0  505  501  0.00000000000E+00  0.00000000000E+00  0.10306037245E+04  0.10306037245E+04  0.00000000000E+00 0.  1.
         21   -1    0    0  503  502 -0.00000000000E+00 -0.00000000000E+00 -0.36102449755E+03  0.36102449755E+03  0.00000000000E+00 0. -1.
         21    1    1    2  503  506 -0.56088097696E+02  0.65983466850E+02 -0.13881373544E+03  0.16361218092E+03  0.00000000000E+00 0. -1.
         21    1    1    2  504  501  0.10649845039E+03 -0.89963306419E+02  0.96009834154E+03  0.97016706905E+03  0.00000000000E+00 0.  1.
         21    1    1    2  505  502 -0.55758009336E+02 -0.35773942240E+02  0.25329951994E+02  0.70924868815E+02  0.00000000000E+00 0.  1.
         21    1    1    2  506  504  0.53476566448E+01  0.59753781809E+02 -0.17703533119E+03  0.18692410321E+03  0.00000000000E+00 0. -1.
<scales pt_clust_3="57.24616" pt_clust_4="139.12341" pt_clust_5="66.24749" pt_clust_6="57.24616"></scales>
<clustering>
<clus scale="   57.246">  3  6 -1 -1</clus>
<clus scale="   66.247">  2  5  1 -1</clus>
<clus scale="  139.123">  1  4  2 -1</clus>
<clus scale="  139.123">  1  3  2 -1</clus>
</clustering>
</event>
<event>
 6    0  0.2792452E+002  0.1610066E+03  0.7546771E-02  0.1187565E+00
         21   -1    0    0  504  501  0.00000000000E+00  0.00000000000E+00  0.63325380492E+03  0.63325380492E+03  0.00000000000E+00 0.  1.
         21   -1    0    0  505  502 -0.00000000000E+00 -0.00000000000E+00 -0.82798913042E+03  0.82798913042E+03  0.00000000000E+00 0. -1.
         21    1    1    2  503  501  0.36062390582E+02  0.75048805765E+02  0.31881107313E+02  0.89158422287E+02  0.00000000000E+00 0. -1.
         21    1    1    2  504  506  0.12068221705E+03 -0.25128643531E+02  0.55438099168E+03  0.56792070765E+03  0.00000000000E+00 0.  1.
         21    1    1    2  505  503 -0.11935924794E+03 -0.28001309538E+02 -0.71346602019E+03  0.72392296923E+03  0.00000000000E+00 0. -1.
         21    1    1    2  506  502 -0.37385359685E+02 -0.21918852696E+02 -0.67531404305E+02  0.80240836173E+02  0.00000000000E+00 0. -1.
<scales pt_clust_3="81.90350" pt_clust_4="161.00657" pt_clust_5="14000.00000" pt_clust_6="43.33707"></scales>
<clustering>
<clus scale="   43.337">  2  6  1 -1</clus>
<clus scale="   81.903">  1  3  2 -1</clus>
<clus scale="  161.007">  1  4  2 -1</clus>
<clus scale="   81.903">  1  3  2 -1</clus>
</clustering>
</event>
<event>
 6    0  0.2666600E+002  0.1245173E+03  0.7546771E-02  0.1235826E+00
         21   -1    0    0  504  501  0.00000000000E+00  0.00000000000E+00  0.37026953942E+03  0.37026953942E+03  0.00000000000E+00 0. -1.
         21   -1    0    0  505  502 -0.00000000000E+00 -0.00000000000E+00 -0.12000942426E+03  0.12000942426E+03  0.00000000000E+00 0. -1.
         21    1    1    2  503  502 -0.32725459610E+02 -0.83733497918E+02 -0.52692848903E+00  0.89902903368E+02  0.00000000000E+00 0. -1.
         21    1    1    2  504  506  0.46361430275E+02  0.52671619155E+02  0.22315107420E+03  0.23392324296E+03  0.00000000000E+00 0. -1.
         21    1    1    2  505  501 -0.36470372886E+02 -0.18759045782E+02 -0.54195718070E+02  0.67964444780E+02  0.00000000000E+00 0.  1.
         21    1    1    2  506  503  0.22834402222E+02  0.49820924546E+02  0.81831687524E+02  0.98488372565E+02  0.00000000000E+00 0. -1.
<scales pt_clust_3="115.38786" pt_clust_4="40.67295" pt_clust_5="41.01207" pt_clust_6="40.67295"></scales>
<clustering>
<clus scale="   41.012">  2  5  1 -1</clus>
<clus scale="   40.673">  4  6 -1 -1</clus>
<clus scale="  115.388">  2  3  1 -1</clus>
<clus scale="  124.517">  1  3  2 -1</clus>
</clustering>
</event>
<event>
 6    0  0.2666600E+002  0.2333598E+03  0.7546771E-02  0.1124297E+00
         21   -1    0    0  502  501  0.00000000000E+00  0.00000000000E+00  0.47296998299E+03  0.47296998299E+03  0.00000000000E+00 0.  1.
         21   -1    0    0  505  502 -0.00000000000E+00 -0.00000000000E+00 -0.22364571612E+03  0.22364571612E+03  0.00000000000E+00 0.  1.
         21    1    1    2  503  506 -0.11473630980E+03 -0.13905403934E+03  0.76078627651E+02  0.19567422986E+03  0.00000000000E+00 0.  1.
         21    1    1    2  504  503  0.11311299252E+03  0.98571253511E+02  0.11860997842E+02  0.15050423371E+03  0.00000000000E+00 0.  1.
         21    1    1    2  505  504  0.10195220683E+03  0.83417174588E+02 -0.25355670804E+02  0.13414763336E+03  0.00000000000E+00 0.  1.
         21    1    1    2  506  501 -0.10032888955E+03 -0.42934388755E+02  0.18674031218E+03  0.21628960217E+03  0.00000000000E+00 0.  1.
<scales pt_clust_3="230.18480" pt_clust_4="35.94686" pt_clust_5="35.94686" pt_clust_6="109.12950"></scales>
<clustering>
<clus scale="   35.947">  4  5 -1 -1</clus>
<clus scale="  109.130">  1  6  2 -1</clus>
<clus scale="  230.185">  1  3  2 -1</clus>
<clus scale="  109.130">  1  3  2 -1</clus>
</clustering>
</event>
<event>
 6    0  0.2666600E+002  0.1696506E+03  0.7546771E-02  0.1178213E+00
         21   -1    0    0  504  501  0.00000000000E+00  0.00000000000E+00  0.10215267831E+04  0.10215267831E+04  0.00000000000E+00 0.  1.
         21   -1    0    0  503  502 -0.00000000000E+00 -0.00000000000E+00 -0.10491804566E+04  0.10491804566E+04  0.00000000000E+00 0.  1.
         21    1    1    2  503  506  0.44989850521E+02 -0.13365992502E+03 -0.13848562307E+03  0.19765457243E+03  0.00000000000E+00 0.  1.
         21    1    1    2  504  502 -0.28643881934E+02  0.18588774149E+03 -0.78557842317E+03  0.80777978643E+03  0.00000000000E+00 0.  1.
         21    1    1    2  505  501  0.11307884201E+02  0.16408802032E+03  0.81668084295E+03  0.83307883535E+03  0.00000000000E+00 0.  1.
         21    1    1    2  506  505 -0.27653852787E+02 -0.21631583679E+03  0.79729529819E+02  0.23219404546E+03  0.00000000000E+00 0.  1.
<scales pt_clust_3="141.02859" pt_clust_4="66.13976" pt_clust_5="169.65058" pt_clust_6="14000.00000"></scales>
<clustering>
<clus scale="  141.029">  2  3  1 -1</clus>
<clus scale="   66.140">  2  4  1 -1</clus>
<clus scale="  169.651">  1  5  2 -1</clus>
<clus scale="  169.651">  1  3  2 -1</clus>
</clustering>
</event>
<event>
 6    0  0.2666600E+002  0.1236502E+03  0.7546771E-02  0.1237194E+00
         21   -1    0    0  505  501  0.00000000000E+00  0.00000000000E+00  0.28239346018E+03  0.28239346018E+03  0.00000000000E+00 0. -1.
         21   -1    0    0  503  502 -0.00000000000E+00 -0.00000000000E+00 -0.16552576202E+03  0.16552576202E+03  0.00000000000E+00 0. -1.
         21    1    1    2  503  501  0.78936258813E+01  0.54895543502E+02 -0.21292305910E+02  0.59407005621E+02  0.00000000000E+00 0. -1.
         21    1    1    2  504  506 -0.49214044818E+02 -0.41142637842E+02  0.89466626557E+02  0.11008640299E+03  0.00000000000E+00 0. -1.
         21    1    1    2  505  504 -0.29859590102E+02 -0.55378992769E+02  0.14115202635E+03  0.15453906466E+03  0.00000000000E+00 0. -1.
         21    1    1    2  506  502  0.71180009039E+02  0.41626087109E+02 -0.92458648841E+02  0.12388674893E+03  0.00000000000E+00 0. -1.
<scales pt_clust_3="55.46017" pt_clust_4="35.32993" pt_clust_5="35.32993" pt_clust_6="118.39242"></scales>
<clustering>
<clus scale="   35.330">  4  5 -1 -1</clus>
<clus scale="   55.460">  2  3  1 -1</clus>
<clus scale="  118.392">  2  6  1 -1</clus>
<clus scale="  123.650">  1  3  2 -1</clus>
</clustering>
</event>
<event>
 6    0  0.2666600E+002  0.4969275E+03  0.7546771E-02  0.1014584E+00
         21   -1    0    0  504  501  0.00000000000E+00  0.00000000000E+00  0.39414599867E+03  0.39414599867E+03  0.00000000000E+00 0.  1.
         21   -1    0    0  503  502 -0.00000000000E+00 -0.00000000000E+00 -0.64958603016E+03  0.64958603016E+03  0.00000000000E+00 0. -1.
         21    1    1    2  503  505  0.21536709992E+03 -0.13614792402E+03  0.78704494008E+01  0.25491408144E+03  0.00000000000E+00 0.  1.
         21    1    1    2  504  506 -0.11929045400E+03  0.72246178903E+02 -0.38111448191E+02  0.14457594982E+03  0.00000000000E+00 0. -1.
         21    1    1    2  505  501  0.22791472514E+03 -0.76230103510E+02 -0.33789601074E+02  0.24268887028E+03  0.00000000000E+00 0. -1.
         21    1    1    2  506  502 -0.32399137106E+03  0.14013184863E+03 -0.19140943162E+03  0.40155312729E+03  0.00000000000E+00 0. -1.
<scales pt_clust_3="70.92840" pt_clust_4="39.62348" pt_clust_5="70.92840" pt_clust_6="495.55740"></scales>
<clustering>
<clus scale="   39.623">  4  6 -1 -1</clus>
<clus scale="   70.928">  3  5 -1 -1</clus>
<clus scale="  495.557">  2  4  1 -1</clus>
<clus scale="  496.927">  1  3  2 -1</clus>
</clustering>
</event>
<event>
 6    0  0.2666600E+002  0.8914881E+02  0.7546771E-02  0.1304926E+00
         21   -1    0    0  504  501  0.00000000000E+00  0.00000000000E+00  0.11882955244E+04  0.11882955244E+04  0.00000000000E+00 0.  1.
         21   -1    0    0  503  502 -0.00000000000E+00 -0.00000000000E+00 -0.10541990385E+04  0.10541990385E+04  0.00000000000E+00 0. -1.
         21    1    1    2  503  506  0.10629571797E+03  0.14390473857E+02 -0.98280166073E+03  0.98863793662E+03  0.00000000000E+00 0. -1.
         21    1    1    2  504  505 -0.10354677618E+03 -0.52642903290E+02  0.86720191599E+03  0.87494706882E+03  0.00000000000E+00 0.  1.
         21    1    1    2  505  502 -0.50142935005E+02 -0.76538956325E+01 -0.50483038803E+02  0.71564189760E+02  0.00000000000E+00 0. -1.
         21    1    1    2  506  501  0.47393993218E+02  0.45906325065E+02  0.30017926940E+03  0.30734536771E+03  0.00000000000E+00 0.  1.
<scales pt_clust_3="56.93601" pt_clust_4="89.14881" pt_clust_5="50.72372" pt_clust_6="14000.00000"></scales>
<clustering>
<clus scale="   50.724">  2  5  1 -1</clus>
<clus scale="   56.936">  2  3  1 -1</clus>
<clus scale="   89.149">  2  4  1 -1</clus>
<clus scale="   89.149">  1  3  2 -1</clus>
</clustering>
</event>
<event>
 6    0  0.2666600E+002  0.7130605E+02  0.7546771E-02  0.1355707E+00
         21   -1    0    0  505  501  0.00000000000E+00  0.00000000000E+00  0.26674967575E+04  0.26674967575E+04  0.00000000000E+00 0. -1.
         21   -1    0    0  503  502 -0.00000000000E+00 -0.00000000000E+00 -0.70410140243E+02  0.70410140243E+02  0.00000000000E+00 0. -1.
         21    1    1    2  503  501  0.36687513625E+02  0.60484311469E+01  0.46842575369E+03  0.46989918482E+03  0.00000000000E+00 0. -1.
         21    1    1    2  504  502  0.69498628021E+02  0.50233828419E+02 -0.14262744628E+02  0.86930562512E+02  0.00000000000E+00 0. -1.
         21    1    1    2  505  506 -0.73482932004E+02 -0.10614494924E+02  0.21185442231E+04  0.21198448136E+04  0.00000000000E+00 0. -1.
         21    1    1    2  506  504 -0.32703209641E+02 -0.45667764642E+02  0.24379385131E+02  0.61232336780E+02  0.00000000000E+00 0. -1.
<scales pt_clust_3="37.18275" pt_clust_4="71.30605" pt_clust_5="38.41519" pt_clust_6="14000.00000"></scales>
<clustering>
<clus scale="   37.183">  1  3  2 -1</clus>
<clus scale="   38.415">  1  5  2 -1</clus>
<clus scale="   71.306">  2  4  1 -1</clus>
<clus scale="   37.183">  1  3  2 -1</clus>
</clustering>
</event>
<event>
 6    0  0.2666600E+002  0.8985053E+02  0.7546771E-02  0.1303214E+00
         21   -1    0    0  504  501  0.00000000000E+00  0.00000000000E+00  0.48107605093E+03  0.48107605093E+03  0.00000000000E+00 0. -1.
         21   -1    0    0  503  502 -0.00000000000E+00 -0.00000000000E+00 -0.13216242625E+03  0.13216242625E+03  0.00000000000E+00 0. -1.
         21    1    1    2  503  506  0.18535116036E+02  0.92629826437E+02 -0.89312002232E+02  0.13000180389E+03  0.00000000000E+00 0. -1.
         21    1    1    2  504  502 -0.15091432946E+02  0.34259759071E+02  0.45962568109E+02  0.59279339631E+02  0.00000000000E+00 0. -1.
         21    1    1    2  505  501 -0.13122870151E+02 -0.56207112162E+02  0.30884770972E+03  0.31419477554E+03  0.00000000000E+00 0. -1.
         21    1    1    2  506  505  0.96791870608E+01 -0.70682473346E+02  0.83415349088E+02  0.10976255811E+03  0.00000000000E+00 0. -1.
<scales pt_clust_3="89.85053" pt_clust_4="37.43638" pt_clust_5="39.49848" pt_clust_6="14000.00000"></scales>
<clustering>
<clus scale="   37.436">  1  4  2 -1</clus>
<clus scale="   39.498">  1  5  2 -1</clus>
<clus scale="   89.851">  2  3  1 -1</clus>
<clus scale="   37.436">  1  3  2 -1</clus>
</clustering>
</event>
<event>
 6    0  0.2666600E+002  0.2034428E+03  0.7546771E-02  0.1146866E+00
         21   -1    0    0  504  501  0.00000000000E+00  0.00000000000E+00  0.52732843849E+03  0.52732843849E+03  0.00000000000E+00 0. -1.
         21   -1    0    0  503  502 -0.00000000000E+00 -0.00000000000E+00 -0.14465977102E+04  0.14465977102E+04  0.00000000000E+00 0.  1.
         21    1    1    2  503  506  0.82889500066E+02  0.11537955137E+02 -0.75773656451E+03  0.76234407903E+03  0.00000000000E+00 0.  1.
         21    1    1    2  504  502 -0.16232452980E+03 -0.29871263598E+02  0.45386747971E+03  0.48294640956E+03  0.00000000000E+00 0. -1.
         21    1    1    2  505  501 -0.35075507585E+02  0.30615778917E+02  0.41104232439E+02  0.62106159722E+02  0.00000000000E+00 0. -1.
         21    1    1    2  506  505  0.11451053732E+03 -0.12282470455E+02 -0.65650441936E+03  0.66652950038E+03  0.00000000000E+00 0.  1.
<scales pt_clust_3="43.75662" pt_clust_4="196.86079" pt_clust_5="46.55768" pt_clust_6="43.75662"></scales>
<clustering>
<clus scale="   43.757">  3  6 -1 -1</clus>
<clus scale="   46.558">  1  5  2 -1</clus>
<clus scale="  196.861">  1  4  2 -1</clus>
<clus scale="   46.558">  1  3  2 -1</clus>
</clustering>
</event>
<event>
 6    0  0.2666600E+002  0.1001118E+03  0.7546771E-02  0.1280061E+00
         21   -1    0    0  504  501  0.00000000000E+00  0.00000000000E+00  0.93292276722E+02  0.93292276722E+02  0.00000000000E+00 0.  1.
         21   -1    0    0  503  502 -0.00000000000E+00 -0.00000000000E+00 -0.27385694981E+03  0.27385694981E+03  0.00000000000E+00 0.  1.
         21    1    1    2  503  505  0.16422185460E+02 -0.25494442544E+02 -0.20500482324E+02  0.36604979872E+02  0.00000000000E+00 0.  1.
         21    1    1    2  504  506 -0.37560646540E+02  0.22166267556E+02  0.70747690712E+01  0.44183684130E+02  0.00000000000E+00 0.  1.
         21    1    1    2  505  501  0.62668267300E+02  0.83075990791E+02 -0.90040091332E+01  0.10445096530E+03  0.00000000000E+00 0.  1.
         21    1    1    2  506  502 -0.41529806220E+02 -0.79747815803E+02 -0.15813495070E+03  0.18190959723E+03  0.00000000000E+00 0.  1.
<scales pt_clust_3="30.32581" pt_clust_4="41.57651" pt_clust_5="100.11176" pt_clust_6="14000.00000"></scales>
<clustering>
<clus scale="   30.326">  2  3  1 -1</clus>
<clus scale="   41.577">  1  4  2 -1</clus>
<clus scale="  100.112">  1  5  2 -1</clus>
<clus scale="   41.577">  1  3  2 -1</clus>
</clustering>
</event>
<event>
 6    0  0.2666600E+002  0.1484919E+03  0.7546771E-02  0.1202338E+00
         21   -1    0    0  504  501  0.00000000000E+00  0.00000000000E+00  0.96147541903E+02  0.96147541903E+02  0.00000000000E+00 0.  1.
         21   -1    0    0  506  502 -0.00000000000E+00 -0.00000000000E+00 -0.55903743702E+03  0.55903743702E+03  0.00000000000E+00 0. -1.
         21    1    1    2  503  505 -0.78818116938E+02  0.25985790261E+02 -0.18220678781E+02  0.84967935060E+02  0.00000000000E+00 0.  1.
         21    1    1    2  504  503 -0.38079035909E+02  0.46526258601E+02  0.28415438372E+02  0.66499194379E+02  0.00000000000E+00 0.  1.
         21    1    1    2  505  502 -0.61569623454E+01 -0.46327437238E+02 -0.11276467845E+03  0.12206560667E+03  0.00000000000E+00 0.  1.
         21    1    1    2  506  501  0.12305411519E+03 -0.26184611624E+02 -0.36031997626E+03  0.38165224281E+03  0.00000000000E+00 0. -1.
<scales pt_clust_3="52.92053" pt_clust_4="52.92053" pt_clust_5="46.73478" pt_clust_6="134.66416"></scales>
<clustering>
<clus scale="   46.735">  2  5  1 -1</clus>
<clus scale="   52.921">  3  4 -1 -1</clus>
<clus scale="  134.664">  2  6  1 -1</clus>
<clus scale="  148.492">  1  3  2 -1</clus>
</clustering>
</event>
<event>
 6    0  0.2666600E+002  0.1293879E+03  0.7546771E-02  0.1228367E+00
         21   -1    0    0  503  501  0.00000000000E+00  0.00000000000E+00  0.22873358172E+03  0.22873358172E+03  0.00000000000E+00 0.  1.
         21   -1    0    0  504  502 -0.00000000000E+00 -0.00000000000E+00 -0.66289741565E+03  0.66289741565E+03  0.00000000000E+00 0.  1.
         21    1    1    2  503  502  0.18834674704E+02 -0.48868779320E+02  0.88897415892E+01  0.53121841731E+02  0.00000000000E+00 0.  1.
         21    1    1    2  504  506 -0.61410851092E+02  0.58802575856E+01 -0.20648919783E+03  0.21550790909E+03  0.00000000000E+00 0.  1.
         21    1    1    2  505  501  0.94659402160E+02  0.11985193652E+03  0.15676548416E+03  0.21886138565E+03  0.00000000000E+00 0.  1.
         21    1    1    2  506  505 -0.52083225772E+02 -0.76863414787E+02 -0.39332986185E+03  0.40413986090E+03  0.00000000000E+00 0.  1.
<scales pt_clust_3="52.37273" pt_clust_4="61.16725" pt_clust_5="14000.00000" pt_clust_6="129.38793"></scales>
<clustering>
<clus scale="   52.373">  1  3  2 -1</clus>
<clus scale="   61.167">  2  4  1 -1</clus>
<clus scale="  129.388">  2  6  1 -1</clus>
<clus scale="   52.373">  1  3  2 -1</clus>
</clustering>
</event>
<event>
 6    0  0.2666600E+002  0.1464533E+03  0.7546771E-02  0.1204900E+00
         21   -1    0    0  505  501  0.00000000000E+00  0.00000000000E+00  0.10422771301E+04  0.10422771301E+04  0.00000000000E+00 0. -1.
         21   -1    0    0  506  502 -0.00000000000E+00 -0.00000000000E+00 -0.26026641317E+03  0.26026641317E+03  0.00000000000E+00 0. -1.
         21    1    1    2  503  501  0.48066772751E+01 -0.18802068731E+03  0.56078256954E+03  0.59148285969E+03  0.00000000000E+00 0. -1.
         21    1    1    2  504  503  0.65581421741E+02  0.59492593403E+02 -0.10654790566E+03  0.13853789282E+03  0.00000000000E+00 0. -1.
         21    1    1    2  505  502 -0.71430243058E+02  0.75046896528E+02  0.43795613523E+03  0.45004432302E+03  0.00000000000E+00 0. -1.
         21    1    1    2  506  504  0.10421440425E+01  0.53481197380E+02 -0.11018008221E+03  0.12247846771E+03  0.00000000000E+00 0. -1.
<scales pt_clust_3="132.25663" pt_clust_4="48.89086" pt_clust_5="103.60655" pt_clust_6="48.89086"></scales>
<clustering>
<clus scale="   48.891">  4  6 -1 -1</clus>
<clus scale="  103.607">  1  5  2 -1</clus>
<clus scale="  132.257">  1  3  2 -1</clus>
<clus scale="  103.607">  1  3  2 -1</clus>
</clustering>
</event>
<event>
 6    0  0.2666600E+002  0.1347586E+03  0.7546771E-02  0.1220561E+00
         21   -1    0    0  503  501  0.00000000000E+00  0.00000000000E+00  0.21689955412E+03  0.21689955412E+03  0.00000000000E+00 0. -1.
         21   -1    0    0  505  502 -0.00000000000E+00 -0.00000000000E+00 -0.10903410197E+03  0.10903410197E+03  0.00000000000E+00 0. -1.
         21    1    1    2  503  504  0.17198551760E+02  0.26670977950E+02  0.34445118483E+02  0.46835856294E+02  0.00000000000E+00 0. -1.
         21    1    1    2  504  502  0.11094185440E+03 -0.63192397551E+02  0.15160912668E+02  0.12857382097E+03  0.00000000000E+00 0. -1.
         21    1    1    2  505  506 -0.65122612518E+02  0.38313712811E+02  0.35691850432E+02  0.83563170343E+02  0.00000000000E+00 0. -1.
         21    1    1    2  506  501 -0.63017793646E+02 -0.17922932104E+01  0.22567570559E+02  0.66960808477E+02  0.00000000000E+00 0.  1.
<scales pt_clust_3="31.73533" pt_clust_4="129.03629" pt_clust_5="34.21936" pt_clust_6="34.21936"></scales>
<clustering>
<clus scale="   31.735">  1  3  2 -1</clus>
<clus scale="   34.219">  5  6 -1 -1</clus>
<clus scale="  129.036">  2  4  1 -1</clus>
<clus scale="   31.735">  1  3  2 -1</clus>
</clustering>
</event>
<event>
 6    0  0.2666600E+002  0.9290872E+02  0.7546771E-02  0.1295957E+00
         21   -1    0    0  503  501  0.00000000000E+00  0.00000000000E+00  0.33670216815E+02  0.33670216815E+02  0.00000000000E+00 0.  1.
         21   -1    0    0  506  502 -0.00000000000E+00 -0.00000000000E+00 -0.10260043700E+04  0.10260043700E+04  0.00000000000E+00 0.  1.
         21    1    1    2  503  502  0.13807875425E+02 -0.27622266017E+02 -0.79985137376E+02  0.85739542830E+02  0.00000000000E+00 0.  1.
         21    1    1    2  504  505  0.32109255325E+02  0.12247286709E+03 -0.15137180368E+03  0.19734241916E+03  0.00000000000E+00 0.  1.
         21    1    1    2  505  501 -0.36342950978E+02 -0.64506075553E+01 -0.63326915272E+02  0.73298830969E+02  0.00000000000E+00 0.  1.
         21    1    1    2  506  504 -0.95741797719E+01 -0.88399993515E+02 -0.69765029691E+03  0.70329379391E+03  0.00000000000E+00 0.  1.
<scales pt_clust_3="30.88118" pt_clust_4="14000.00000" pt_clust_5="35.81364" pt_clust_6="92.90872"></scales>
<clustering>
<clus scale="   30.881">  1  3  2 -1</clus>
<clus scale="   35.814">  1  5  2 -1</clus>
<clus scale="   92.909">  2  6  1 -1</clus>
<clus scale="   30.881">  1  3  2 -1</clus>
</clustering>
</event>
<event>
 6    0  0.2666600E+002  0.1591027E+03  0.7546771E-02  0.1189714E+00
         21   -1    0    0  503  501  0.00000000000E+00  0.00000000000E+00  0.23706809191E+04  0.23706809191E+04  0.00000000000E+00 0. -1.
         21   -1    0    0  505  502 -0.00000000000E+00 -0.00000000000E+00 -0.10434317415E+04  0.10434317415E+04  0.00000000000E+00 0. -1.
         21    1    1    2  503  506  0.25024858615E+02  0.34390945112E+02  0.27741902518E+02  0.50779856338E+02  0.00000000000E+00 0. -1.
         21    1    1    2  504  501  0.10139150084E+03 -0.13031284931E+03  0.23155613690E+04  0.23214405288E+04  0.00000000000E+00 0. -1.
         21    1    1    2  505  504  0.37413142846E+02  0.14798110897E+02 -0.30806470214E+03  0.31068084596E+03  0.00000000000E+00 0.  1.
         21    1    1    2  506  502 -0.16382950230E+03  0.81123793302E+02 -0.70798939182E+03  0.73121142948E+03  0.00000000000E+00 0. -1.
<scales pt_clust_3="43.06664" pt_clust_4="14000.00000" pt_clust_5="40.23341" pt_clust_6="159.10270"></scales>
<clustering>
<clus scale="   40.233">  2  5  1 -1</clus>
<clus scale="   43.067">  1  3  2 -1</clus>
<clus scale="  159.103">  2  6  1 -1</clus>
<clus scale="   43.067">  1  3  2 -1</clus>
</clustering>
</event>
<event>
 6    0  0.2666600E+002  0.2990788E+03  0.7546771E-02  0.1085702E+00
         21   -1    0    0  506  501  0.00000000000E+00  0.00000000000E+00  0.16528354017E+03  0.16528354017E+03  0.00000000000E+00 0.  1.
         21   -1    0    0  503  502 -0.00000000000E+00 -0.00000000000E+00 -0.12715100796E+04  0.12715100796E+04  0.00000000000E+00 0.  1.
         21    1    1    2  503  505 -0.81587147118E+02  0.22685239421E+03 -0.33428587503E+03  0.41214744641E+03  0.00000000000E+00 0.  1.
         21    1    1    2  504  502  0.26469366731E+03 -0.21895540169E+03 -0.53549963081E+03  0.63621070412E+03  0.00000000000E+00 0.  1.
         21    1    1    2  505  501 -0.23539246233E+03 -0.11155762280E+01 -0.12821138700E+03  0.26804666681E+03  0.00000000000E+00 0.  1.
         21    1    1    2  506  504  0.52285942140E+02 -0.67814162867E+01 -0.10822964661E+03  0.12038880246E+03  0.00000000000E+00 0. -1.
<scales pt_clust_3="287.79489" pt_clust_4="31.88100" pt_clust_5="235.39511" pt_clust_6="31.88100"></scales>
<clustering>
<clus scale="   31.881">  4  6 -1 -1</clus>
<clus scale="  235.395">  1  5  2 -1</clus>
<clus scale="  287.795">  2  3  1 -1</clus>
<clus scale="  235.395">  1  3  2 -1</clus>
</clustering>
</event>
<event>
 6    0  0.2666600E+002  0.1386704E+03  0.7546771E-02  0.1215129E+00
         21   -1    0    0  505  501  0.00000000000E+00  0.00000000000E+00  0.41979333080E+02  0.41979333080E+02  0.00000000000E+00 0. -1.
         21   -1    0    0  501  502 -0.00000000000E+00 -0.00000000000E+00 -0.10191480987E+04  0.10191480987E+04  0.00000000000E+00 0.  1.
         21    1    1    2  503  506 -0.23458719983E+02  0.36400361891E+02 -0.55542395992E+02  0.70429082356E+02  0.00000000000E+00 0. -1.
         21    1    1    2  504  502  0.39058867950E+02 -0.25278675262E+02 -0.37475260044E+03  0.37762960441E+03  0.00000000000E+00 0.  1.
         21    1    1    2  505  503 -0.21882695539E+02  0.79064384880E+02 -0.28462836872E+02  0.86834108525E+02  0.00000000000E+00 0. -1.
         21    1    1    2  506  504  0.62825475715E+01 -0.90186071509E+02 -0.51841093235E+03  0.52623463652E+03  0.00000000000E+00 0.  1.
<scales pt_clust_3="34.74442" pt_clust_4="44.46321" pt_clust_5="132.94673" pt_clust_6="44.46321"></scales>
<clustering>
<clus scale="   34.744">  3  5 -1 -1</clus>
<clus scale="   44.463">  4  6 -1 -1</clus>
<clus scale="  132.947">  1  3  2 -1</clus>
<clus scale="  132.947">  1  3  2 -1</clus>
</clustering>
</event>
<event>
 6    0  0.2666600E+002  0.9024229E+02  0.7546771E-02  0.1302266E+00
         21   -1    0    0  504  501  0.00000000000E+00  0.00000000000E+00  0.70769760318E+02  0.70769760318E+02  0.00000000000E+00 0. -1.
         21   -1    0    0  506  502 -0.00000000000E+00 -0.00000000000E+00 -0.20366831872E+04  0.20366831872E+04  0.00000000000E+00 0. -1.
         21    1    1    2  503  502  0.49740545374E+02 -0.91122953410E+01 -0.72252143383E+03  0.72428887754E+03  0.00000000000E+00 0.  1.
         21    1    1    2  504  505 -0.96124272619E+01 -0.39682343004E+02  0.36296349182E+02  0.54630687970E+02  0.00000000000E+00 0. -1.
         21    1    1    2  505  503  0.57233221636E+02 -0.38866009948E+02 -0.36046423172E+02  0.78009954568E+02  0.00000000000E+00 0. -1.
         21    1    1    2  506  501 -0.97361339749E+02  0.87660648293E+02 -0.12436419191E+04  0.12505234275E+04  0.00000000000E+00 0. -1.
<scales pt_clust_3="50.50792" pt_clust_4="40.82998" pt_clust_5="14000.00000" pt_clust_6="90.24229"></scales>
<clustering>
<clus scale="   40.830">  1  4  2 -1</clus>
<clus scale="   50.508">  2  3  1 -1</clus>
<clus scale="   90.242">  2  6  1 -1</clus>
<clus scale="   40.830">  1  3  2 -1</clus>
</clustering>
</event>
<event>
 6    0  0.2666600E+002  0.1434632E+03  0.7546771E-02  0.1208743E+00
         21   -1    0    0  506  501  0.00000000000E+00  0.00000000000E+00  0.30299501843E+04  0.30299501843E+04  0.00000000000E+00 0. -1.
         21   -1    0    0  504  502 -0.00000000000E+00 -0.00000000000E+00 -0.87493353773E+02  0.87493353773E+02  0.00000000000E+00 0.  1.
         21    1    1    2  503  505 -0.96945882928E+02 -0.22194436414E+02  0.18376625477E+04  0.18403517969E+04  0.00000000000E+00 0. -1.
         21    1    1    2  504  503 -0.11543043114E+03  0.65974224672E+02  0.40393560984E+02  0.13895474992E+03  0.00000000000E+00 0.  1.
         21    1    1    2  505  501 -0.13399589071E+02 -0.38532452921E+02  0.74958907423E+03  0.75069839424E+03  0.00000000000E+00 0. -1.
         21    1    1    2  506  502  0.22577590314E+03 -0.52473353363E+01  0.31481164764E+03  0.38743859701E+03  0.00000000000E+00 0.  1.
<scales pt_clust_3="39.51354" pt_clust_4="132.95406" pt_clust_5="39.51354" pt_clust_6="129.52004"></scales>
<clustering>
<clus scale="   39.514">  3  5 -1 -1</clus>
<clus scale="  132.954">  2  4  1 -1</clus>
<clus scale="  129.520">  2  6  1 -1</clus>
<clus scale="  143.463">  1  3  2 -1</clus>
</clustering>
</event>
<event>
 6    0  0.2666600E+002  0.1016700E+03  0.7546771E-02  0.1276823E+00
         21   -1    0    0  505  501  0.00000000000E+00  0.00000000000E+00  0.13576022289E+04  0.13576022289E+04  0.00000000000E+00 0. -1.
         21   -1    0    0  503  502 -0.00000000000E+00 -0.00000000000E+00 -0.18325136052E+02  0.18325136052E+02  0.00000000000E+00 0. -1.
         21    1    1    2  503  506 -0.60787843600E+02  0.64035523331E+02  0.15122663529E+03  0.17511483489E+03  0.00000000000E+00 0. -1.
         21    1    1    2  504  502  0.48331703579E+02 -0.39336840086E+02  0.37121895932E+03  0.37641314578E+03  0.00000000000E+00 0. -1.
         21    1    1    2  505  504  0.28302561981E+02 -0.61574258721E+02  0.60636059920E+03  0.61013572311E+03  0.00000000000E+00 0. -1.
         21    1    1    2  506  501 -0.15846421959E+02  0.36875575476E+02  0.21047089900E+03  0.21426366113E+03  0.00000000000E+00 0.  1.
<scales pt_clust_3="93.67914" pt_clust_4="37.88739" pt_clust_5="37.88739" pt_clust_6="40.13623"></scales>
<clustering>
<clus scale="   37.887">  4  5 -1 -1</clus>
<clus scale="   40.136">  1  6  2 -1</clus>
<clus scale="   93.679">  2  3  1 -1</clus>
<clus scale="   40.136">  1  3  2 -1</clus>
</clustering>
</event>
<event>
 6    0  0.2666600E+002  0.3091416E+03  0.7546771E-02  0.1080758E+00
         21   -1    0    0  505  501  0.00000000000E+00  0.00000000000E+00  0.23469410316E+03  0.23469410316E+03  0.00000000000E+00 0.  1.
         21   -1    0    0  506  502 -0.00000000000E+00 -0.00000000000E+00 -0.85958888097E+03  0.85958888097E+03  0.00000000000E+00 0. -1.
         21    1    1    2  503  504  0.12022912278E+03  0.20521827946E+03  0.59200342868E+02  0.24510051976E+03  0.00000000000E+00 0.  1.
         21    1    1    2  504  501  0.53090489523E+02  0.28018917704E+02 -0.26062880278E+02  0.65444125447E+02  0.00000000000E+00 0. -1.
         21    1    1    2  505  502  0.39136437471E+02 -0.33318387684E+02  0.12149969465E+02  0.52814746556E+02  0.00000000000E+00 0.  1.
         21    1    1    2  506  503 -0.21245604977E+03 -0.19991880948E+03 -0.67018220986E+03  0.73092359237E+03  0.00000000000E+00 0. -1.
<scales pt_clust_3="53.74364" pt_clust_4="53.74364" pt_clust_5="51.39821" pt_clust_6="290.97752"></scales>
<clustering>
<clus scale="   51.398">  1  5  2 -1</clus>
<clus scale="   53.744">  3  4 -1 -1</clus>
<clus scale="  290.978">  2  6  1 -1</clus>
<clus scale="   51.398">  1  3  2 -1</clus>
</clustering>
</event>
<event>
 6    0  0.2666600E+002  0.1789051E+03  0.7546771E-02  0.1168867E+00
         21   -1    0    0  506  501  0.00000000000E+00  0.00000000000E+00  0.24437165434E+03  0.24437165434E+03  0.00000000000E+00 0. -1.
         21   -1    0    0  504  502 -0.00000000000E+00 -0.00000000000E+00 -0.20036594659E+03  0.20036594659E+03  0.00000000000E+00 0. -1.
         21    1    1    2  503  502 -0.43064205739E+02  0.51862307638E+02  0.50382764062E+02  0.84158467690E+02  0.00000000000E+00 0.  1.
         21    1    1    2  504  505  0.57400992639E+02 -0.88548418381E+02 -0.60937656707E+02  0.12185686012E+03  0.00000000000E+00 0. -1.
         21    1    1    2  505  501  0.97276705882E+01 -0.71768653014E+02 -0.48518127857E+02  0.87174399117E+02  0.00000000000E+00 0. -1.
         21    1    1    2  506  503 -0.24064457489E+02  0.10845476376E+03  0.10307872825E+03  0.15154787400E+03  0.00000000000E+00 0. -1.
<scales pt_clust_3="33.04197" pt_clust_4="178.08284" pt_clust_5="32.14627" pt_clust_6="33.04197"></scales>
<clustering>
<clus scale="   32.146">  4  5 -1 -1</clus>
<clus scale="   33.042">  3  6 -1 -1</clus>
<clus scale="  178.083">  2  4  1 -1</clus>
<clus scale="  178.905">  1  3  2 -1</clus>
</clustering>
</event>
<event>
 6    0  0.2666600E+002  0.1532176E+03  0.7546771E-02  0.1196574E+00
         21   -1    0    0  503  501  0.00000000000E+00  0.00000000000E+00  0.21915600232E+03  0.21915600232E+03  0.00000000000E+00 0.  1.
         21   -1    0    0  504  502 -0.00000000000E+00 -0.00000000000E+00 -0.23463543897E+04  0.23463543897E+04  0.00000000000E+00 0. -1.
         21    1    1    2  503  502 -0.15332295625E+03 -0.33733642229E+02 -0.11433123358E+04  0.11540402873E+04  0.00000000000E+00 0. -1.
         21    1    1    2  504  506  0.11783887253E+03  0.10905962427E+03 -0.11786931609E+04  0.11895787359E+04  0.00000000000E+00 0. -1.
         21    1    1    2  505  501  0.18848465569E+00 -0.37819171306E+02  0.27295019780E+02  0.46640576213E+02  0.00000000000E+00 0. -1.
         21    1    1    2  506  505  0.35295599069E+02 -0.37506810733E+02  0.16751208950E+03  0.17525079257E+03  0.00000000000E+00 0.  1.
<scales pt_clust_3="14000.00000" pt_clust_4="153.21756" pt_clust_5="37.81964" pt_clust_6="81.23672"></scales>
<clustering>
<clus scale="   37.820">  1  5  2 -1</clus>
<clus scale="   81.237">  1  6  2 -1</clus>
<clus scale="  153.218">  1  4  2 -1</clus>
<clus scale="   37.820">  1  3  2 -1</clus>
</clustering>
</event>
<event>
 6    0  0.2666600E+002  0.2390846E+03  0.7546771E-02  0.1120404E+00
         21   -1    0    0  506  501  0.00000000000E+00  0.00000000000E+00  0.71693501554E+03  0.71693501554E+03  0.00000000000E+00 0.  1.
         21   -1    0    0  505  502 -0.00000000000E+00 -0.00000000000E+00 -0.90671763537E+02  0.90671763537E+02  0.00000000000E+00 0. -1.
         21    1    1    2  503  502  0.80092340339E+02 -0.20100755793E+03  0.36313367321E+03  0.42271135062E+03  0.00000000000E+00 0.  1.
         21    1    1    2  504  501 -0.40814018794E+01  0.17141120242E+03  0.15318748574E+03  0.22992360458E+03  0.00000000000E+00 0. -1.
         21    1    1    2  505  504 -0.51725058799E+02  0.50973228299E+02  0.54562954660E+02  0.90834287206E+02  0.00000000000E+00 0. -1.
         21    1    1    2  506  503 -0.24285879660E+02 -0.21376872781E+02  0.55379138391E+02  0.64137536666E+02  0.00000000000E+00 0. -1.
<scales pt_clust_3="223.61860" pt_clust_4="56.15839" pt_clust_5="56.15839" pt_clust_6="32.35390"></scales>
<clustering>
<clus scale="   32.354">  1  6  2 -1</clus>
<clus scale="   56.158">  4  5 -1 -1</clus>
<clus scale="  223.619">  1  3  2 -1</clus>
<clus scale="   32.354">  1  3  2 -1</clus>
</clustering>
</event>
<event>
 6    0  0.2666600E+002  0.1219062E+03  0.7546771E-02  0.1239985E+00
         21   -1    0    0  503  501  0.00000000000E+00  0.00000000000E+00  0.67277887833E+03  0.67277887833E+03  0.00000000000E+00 0.  1.
         21   -1    0    0  506  502 -0.00000000000E+00 -0.00000000000E+00 -0.94352625795E+03  0.94352625795E+03  0.00000000000E+00 0.  1.
         21    1    1    2  503  502 -0.13630478401E+03  0.65920051176E+02 -0.85945096197E+03  0.87268574144E+03  0.00000000000E+00 0.  1.
         21    1    1    2  504  505  0.62275779055E+02 -0.17304830801E+02  0.23857039442E+03  0.24717112072E+03  0.00000000000E+00 0.  1.
         21    1    1    2  505  501  0.42934313130E+02 -0.18483776656E+02  0.41545650270E+03  0.41807787657E+03  0.00000000000E+00 0.  1.
         21    1    1    2  506  504  0.31094691828E+02 -0.30131443719E+02 -0.65323314766E+02  0.78370397552E+02  0.00000000000E+00 0.  1.
<scales pt_clust_3="111.38252" pt_clust_4="42.13655" pt_clust_5="42.13655" pt_clust_6="43.29877"></scales>
<clustering>
<clus scale="   42.137">  4  5 -1 -1</clus>
<clus scale="   43.299">  2  6  1 -1</clus>
<clus scale="  111.383">  2  3  1 -1</clus>
<clus scale="  121.906">  1  3  2 -1</clus>
</clustering>
</event>
<event>
 6    0  0.2666600E+002  0.1184624E+03  0.7546771E-02  0.1245655E+00
         21   -1    0    0  506  501  0.00000000000E+00  0.00000000000E+00  0.59644078525E+03  0.59644078525E+03  0.00000000000E+00 0.  1.
         21   -1    0    0  505  502 -0.00000000000E+00 -0.00000000000E+00 -0.43577682374E+02  0.43577682374E+02  0.00000000000E+00 0.  1.
         21    1    1    2  503  502 -0.37381494294E+02  0.35994559525E+01  0.35113383289E+02  0.51412857193E+02  0.00000000000E+00 0.  1.
         21    1    1    2  504  501  0.35768668630E+02 -0.11814890267E+03  0.26831751830E+03  0.29535208055E+03  0.00000000000E+00 0.  1.
         21    1    1    2  505  504  0.31708139013E+02  0.50547500244E+01  0.21621520043E+02  0.38709775335E+02  0.00000000000E+00 0.  1.
         21    1    1    2  506  503 -0.30095313349E+02  0.10949469669E+03  0.22781068125E+03  0.25454375455E+03  0.00000000000E+00 0.  1.
<scales pt_clust_3="30.38296" pt_clust_4="14000.00000" pt_clust_5="32.10851" pt_clust_6="118.46243"></scales>
<clustering>
<clus scale="   32.109">  2  5  1 -1</clus>
<clus scale="   30.383">  2  3  1 -1</clus>
<clus scale="  118.462">  1  6  2 -1</clus>
<clus scale="  118.462">  1  3  2 -1</clus>
</clustering>
</event>
<event>
 6    0  0.2666600E+002  0.1395554E+03  0.7546771E-02  0.1213928E+00
         21   -1    0    0  506  501  0.00000000000E+00  0.00000000000E+00  0.47320448642E+02  0.47320448642E+02  0.00000000000E+00 0.  1.
         21   -1    0    0  501  502 -0.00000000000E+00 -0.00000000000E+00 -0.80204853065E+03  0.80204853065E+03  0.00000000000E+00 0. -1.
         21    1    1    2  503  505 -0.23059964579E+02  0.55045835321E+02 -0.34117012587E+03  0.34635077701E+03  0.00000000000E+00 0. -1.
         21    1    1    2  504  503  0.90527252365E+02 -0.74506140253E+02 -0.86458109967E+02  0.14567550630E+03  0.00000000000E+00 0.  1.
         21    1    1    2  505  502 -0.30159536615E+02  0.71663104648E+02 -0.20803373202E+03  0.22208834250E+03  0.00000000000E+00 0.  1.
         21    1    1    2  506  504 -0.37307751171E+02 -0.52202799716E+02 -0.11906611415E+03  0.13525435348E+03  0.00000000000E+00 0.  1.
<scales pt_clust_3="44.76536" pt_clust_4="129.86542" pt_clust_5="44.76536" pt_clust_6="64.16386"></scales>
<clustering>
<clus scale="   44.765">  3  5 -1 -1</clus>
<clus scale="   64.164">  1  6  2 -1</clus>
<clus scale="  129.865">  1  4  2 -1</clus>
<clus scale="   64.164">  1  3  2 -1</clus>
</clustering>
</event>
<event>
 6    0  0.2666600E+002  0.1193644E+03  0.7546771E-02  0.1244149E+00
         21   -1    0    0  506  501  0.00000000000E+00  0.00000000000E+00  0.10332199979E+03  0.10332199979E+03  0.00000000000E+00 0. -1.
         21   -1    0    0  504  502 -0.00000000000E+00 -0.00000000000E+00 -0.37242493392E+03  0.37242493392E+03  0.00000000000E+00 0. -1.
         21    1    1    2  503  501  0.56893742272E+02  0.29448827559E+02 -0.55621421340E+01  0.64304500460E+02  0.00000000000E+00 0. -1.
         21    1    1    2  504  503 -0.32576010300E+02  0.12767875203E+03 -0.13547838390E+03  0.18899061530E+03  0.00000000000E+00 0. -1.
         21    1    1    2  505  502 -0.49658335847E+02 -0.11063581080E+03 -0.11669254008E+03  0.16829551943E+03  0.00000000000E+00 0. -1.
         21    1    1    2  506  505  0.25340603874E+02 -0.46491768789E+02 -0.11369868009E+02  0.54156298511E+02  0.00000000000E+00 0. -1.
<scales pt_clust_3="67.20493" pt_clust_4="119.36441" pt_clust_5="14000.00000" pt_clust_6="52.94932"></scales>
<clustering>
<clus scale="   52.949">  1  6  2 -1</clus>
<clus scale="   67.205">  1  3  2 -1</clus>
<clus scale="  119.364">  1  4  2 -1</clus>
<clus scale="   52.949">  1  3  2 -1</clus>
</clustering>
</event>
<event>
 6    0  0.2666600E+002  0.1088504E+03  0.7546771E-02  0.1262714E+00
         21   -1    0    0  504  501  0.00000000000E+00  0.00000000000E+00  0.12506176437E+03  0.12506176437E+03  0.00000000000E+00 0.  1.
         21   -1    0    0  503  502 -0.00000000000E+00 -0.00000000000E+00 -0.29301868058E+03  0.29301868058E+03  0.00000000000E+00 0.  1.
         21    1    1    2  503  505  0.29431860155E+02 -0.54968526568E+02 -0.37845004738E+02  0.72938451374E+02  0.00000000000E+00 0.  1.
         21    1    1    2  504  506 -0.10308679207E+02  0.74481181163E+02 -0.57376773929E+02  0.94582289045E+02  0.00000000000E+00 0.  1.
         21    1    1    2  505  501 -0.21963012314E+02 -0.88660400253E+02  0.54037057198E+02  0.10612748953E+03  0.00000000000E+00 0.  1.
         21    1    1    2  506  502  0.28398313656E+01  0.69147745658E+02 -0.12677219474E+03  0.14443221500E+03  0.00000000000E+00 0.  1.
<scales pt_clust_3="62.35201" pt_clust_4="48.27515" pt_clust_5="96.52138" pt_clust_6="48.27515"></scales>
<clustering>
<clus scale="   48.275">  4  6 -1 -1</clus>
<clus scale="   62.352">  2  3  1 -1</clus>
<clus scale="   96.521">  1  5  2 -1</clus>
<clus scale="   96.521">  1  3  2 -1</clus>
</clustering>
</event>
<event>
 6    0  0.2666600E+002  0.1652616E+03  0.7546771E-02  0.1182881E+00
         21   -1    0    0  503  501  0.00000000000E+00  0.00000000000E+00  0.12559937408E+04  0.12559937408E+04  0.00000000000E+00 0.  1.
         21   -1    0    0  501  502 -0.00000000000E+00 -0.00000000000E+00 -0.95982267664E+02  0.95982267664E+02  0.00000000000E+00 0. -1.
         21    1    1    2  503  505 -0.16659876301E+02  0.30693369615E+02  0.50633198105E+03  0.50753493422E+03  0.00000000000E+00 0.  1.
         21    1    1    2  504  506  0.48788691194E+02 -0.33012515174E+02 -0.23556909696E+02  0.63443601261E+02  0.00000000000E+00 0. -1.
         21    1    1    2  505  504 -0.13153986009E+03  0.32086469684E+02  0.66248820732E+03  0.67618259455E+03  0.00000000000E+00 0.  1.
         21    1    1    2  506  502  0.99411045200E+02 -0.29767324125E+02  0.14748194412E+02  0.10481487839E+03  0.00000000000E+00 0. -1.
<scales pt_clust_3="34.92326" pt_clust_4="36.44981" pt_clust_5="158.05867" pt_clust_6="36.44981"></scales>
<clustering>
<clus scale="   34.923">  1  3  2 -1</clus>
<clus scale="   36.450">  4  6 -1 -1</clus>
<clus scale="  158.059">  1  5  2 -1</clus>
<clus scale="   34.923">  1  3  2 -1</clus>
</clustering>
</event>
<event>
 6    0  0.2666600E+002  0.1453770E+03  0.7546771E-02  0.1206272E+00
         21   -1    0    0  504  501  0.00000000000E+00  0.00000000000E+00  0.68170598841E+03  0.68170598841E+03  0.00000000000E+00 0.  1.
         21   -1    0    0  503  502 -0.00000000000E+00 -0.00000000000E+00 -0.58783512653E+02  0.58783512653E+02  0.00000000000E+00 0.  1.
         21    1    1    2  503  505  0.40020759354E+00  0.68420585626E+02  0.38825773775E+02  0.78670054104E+02  0.00000000000E+00 0.  1.
         21    1    1    2  504  506  0.12022675935E+00 -0.34762894180E+02  0.23733142127E+03  0.23986387137E+03  0.00000000000E+00 0.  1.
         21    1    1    2  505  501  0.45306675394E+02  0.73019286718E+02  0.41646063173E+02  0.95492961237E+02  0.00000000000E+00 0.  1.
         21    1    1    2  506  502 -0.45827109747E+02 -0.10667697816E+03  0.30511921754E+03  0.32646261435E+03  0.00000000000E+00 0.  1.
<scales pt_clust_3="37.16816" pt_clust_4="34.76310" pt_clust_5="37.16816" pt_clust_6="139.18254"></scales>
<clustering>
<clus scale="   34.763">  1  4  2 -1</clus>
<clus scale="   37.168">  3  5 -1 -1</clus>
<clus scale="  139.183">  1  6  2 -1</clus>
<clus scale="   34.763">  1  3  2 -1</clus>
</clustering>
</event>
<event>
 6    0  0.2666600E+002  0.1481686E+03  0.7546771E-02  0.1202742E+00
         21   -1    0    0  504  501  0.00000000000E+00  0.00000000000E+00  0.19350563126E+03  0.19350563126E+03  0.00000000000E+00 0. -1.
         21   -1    0    0  505  502 -0.00000000000E+00 -0.00000000000E+00 -0.94773199158E+03  0.94773199158E+03  0.00000000000E+00 0.  1.
         21    1    1    2  503  502 -0.64222150044E+01  0.93636307031E+02 -0.71969499549E+03  0.72578914939E+03  0.00000000000E+00 0.  1.
         21    1    1    2  504  506  0.57947568920E+02 -0.14210215601E+03  0.12509357141E+03  0.19798824484E+03  0.00000000000E+00 0. -1.
         21    1    1    2  505  501 -0.49448401948E+02  0.31810459927E+01  0.20072547443E+01  0.49591255080E+02  0.00000000000E+00 0.  1.
         21    1    1    2  506  503 -0.20769519681E+01  0.45284802985E+02 -0.16163219099E+03  0.16786897353E+03  0.00000000000E+00 0.  1.
<scales pt_clust_3="34.85950" pt_clust_4="139.42031" pt_clust_5="49.55062" pt_clust_6="34.85950"></scales>
<clustering>
<clus scale="   34.859">  3  6 -1 -1</clus>
<clus scale="   49.551">  1  5  2 -1</clus>
<clus scale="  139.420">  1  4  2 -1</clus>
<clus scale="   49.551">  1  3  2 -1</clus>
</clustering>
</event>
<event>
 6    0  0.2666600E+002  0.9554169E+02  0.7546771E-02  0.1289961E+00
         21   -1    0    0  505  501  0.00000000000E+00  0.00000000000E+00  0.64552365983E+03  0.64552365983E+03  0.00000000000E+00 0.  1.
         21   -1    0    0  504  502 -0.00000000000E+00 -0.00000000000E+00 -0.26619247053E+03  0.26619247053E+03  0.00000000000E+00 0. -1.
         21    1    1    2  503  502  0.14660229916E+02  0.27315262469E+02 -0.39514437646E+02  0.50223865716E+02  0.00000000000E+00 0. -1.
         21    1    1    2  504  506 -0.65291463595E+02 -0.10619251282E+03 -0.18983479482E+03  0.22710586589E+03  0.00000000000E+00 0. -1.
         21    1    1    2  505  503  0.12848073389E+02  0.10468477260E+03  0.54976182802E+03  0.55978749732E+03  0.00000000000E+00 0.  1.
         21    1    1    2  506  501  0.37783160290E+02 -0.25807522251E+02  0.58918593751E+02  0.74598901439E+02  0.00000000000E+00 0.  1.
<scales pt_clust_3="31.00074" pt_clust_4="95.54169" pt_clust_5="14000.00000" pt_clust_6="45.65196"></scales>
<clustering>
<clus scale="   31.001">  2  3  1 -1</clus>
<clus scale="   45.652">  1  6  2 -1</clus>
<clus scale="   95.542">  2  4  1 -1</clus>
<clus scale="   45.652">  1  3  2 -1</clus>
</clustering>
</event>
<event>
 6    0  0.2666600E+002  0.5338200E+03  0.7546771E-02  0.1005310E+00
         21   -1    0    0  503  501  0.00000000000E+00  0.00000000000E+00  0.61374580398E+03  0.61374580398E+03  0.00000000000E+00 0.  1.
         21   -1    0    0  505  502 -0.00000000000E+00 -0.00000000000E+00 -0.11144899163E+04  0.11144899163E+04  0.00000000000E+00 0. -1.
         21    1    1    2  503  502 -0.70627065245E+01  0.53081643882E+03 -0.84243023402E+03  0.99574327652E+03  0.00000000000E+00 0. -1.
         21    1    1    2  504  501 -0.60391796639E+02 -0.14409080673E+03  0.11961734787E+03  0.19676798418E+03  0.00000000000E+00 0.  1.
         21    1    1    2  505  506  0.51496691185E+02 -0.10341743970E+02 -0.48828236253E+02  0.71715113658E+02  0.00000000000E+00 0.  1.
         21    1    1    2  506  504  0.15957811978E+02 -0.37638388812E+03  0.27089701010E+03  0.46400934590E+03  0.00000000000E+00 0.  1.
<scales pt_clust_3="523.17006" pt_clust_4="68.13968" pt_clust_5="52.52486" pt_clust_6="68.13968"></scales>
<clustering>
<clus scale="   52.525">  2  5  1 -1</clus>
<clus scale="   68.140">  4  6 -1 -1</clus>
<clus scale="  523.170">  2  3  1 -1</clus>
<clus scale="  533.820">  1  3  2 -1</clus>
</clustering>
</event>
<event>
 6    0  0.2666600E+002  0.2705498E+03  0.7546771E-02  0.1100965E+00
         21   -1    0    0  503  501  0.00000000000E+00  0.00000000000E+00  0.58789287116E+03  0.58789287116E+03  0.00000000000E+00 0. -1.
         21   -1    0    0  506  502 -0.00000000000E+00 -0.00000000000E+00 -0.19651983386E+04  0.19651983386E+04  0.00000000000E+00 0.  1.
         21    1    1    2  503  504  0.16284798694E+03 -0.15971048874E+03  0.48831293321E+03  0.53895865129E+03  0.00000000000E+00 0. -1.
         21    1    1    2  504  502 -0.19460516737E+03 -0.82082638603E+02 -0.33234765128E+03  0.39378127436E+03  0.00000000000E+00 0. -1.
         21    1    1    2  505  501 -0.12903052316E+01 -0.65009291576E+02 -0.95751772841E+01  0.65723336029E+02  0.00000000000E+00 0. -1.
         21    1    1    2  506  505  0.33047485667E+02  0.30680241891E+03 -0.15236955721E+04  0.15546279481E+04  0.00000000000E+00 0.  1.
<scales pt_clust_3="14000.00000" pt_clust_4="212.68426" pt_clust_5="65.02210" pt_clust_6="270.54980"></scales>
<clustering>
<clus scale="   65.022">  1  5  2 -1</clus>
<clus scale="  212.684">  2  4  1 -1</clus>
<clus scale="  270.550">  2  6  1 -1</clus>
<clus scale="   65.022">  1  3  2 -1</clus>
</clustering>
</event>
<event>
 6    0  0.2666600E+002  0.1559538E+03  0.7546771E-02  0.1193342E+00
         21   -1    0    0  505  501  0.00000000000E+00  0.00000000000E+00  0.62337302900E+03  0.62337302900E+03  0.00000000000E+00 0. -1.
         21   -1    0    0  506  502 -0.00000000000E+00 -0.00000000000E+00 -0.81748892716E+02  0.81748892716E+02  0.00000000000E+00 0. -1.
         21    1    1    2  503  501  0.21216747524E+02  0.42439374228E+02  0.11331360590E+03  0.12284634363E+03  0.00000000000E+00 0.  1.
         21    1    1    2  504  502 -0.10259574687E+03 -0.58008124786E+02  0.74549765818E+01  0.11809490460E+03  0.00000000000E+00 0. -1.
         21    1    1    2  505  504 -0.38211554371E+02  0.15168734714E+02  0.19718979722E+02  0.45596617874E+02  0.00000000000E+00 0. -1.
         21    1    1    2  506  503  0.11959055371E+03  0.40001584379E+00  0.40113657408E+03  0.41858405562E+03  0.00000000000E+00 0. -1.
<scales pt_clust_3="47.44735" pt_clust_4="39.15273" pt_clust_5="39.15273" pt_clust_6="141.16303"></scales>
<clustering>
<clus scale="   39.153">  4  5 -1 -1</clus>
<clus scale="   47.447">  1  3  2 -1</clus>
<clus scale="  141.163">  1  6  2 -1</clus>
<clus scale="   47.447">  1  3  2 -1</clus>
</clustering>
</event>
<event>
 6    0  0.2666600E+002  0.2489774E+03  0.7546771E-02  0.1113953E+00
         21   -1    0    0  506  501  0.00000000000E+00  0.00000000000E+00  0.11511287832E+04  0.11511287832E+04  0.00000000000E+00 0.  1.
         21   -1    0    0  504  502 -0.00000000000E+00 -0.00000000000E+00 -0.29230334530E+03  0.29230334530E+03  0.00000000000E+00 0.  1.
         21    1    1    2  503  505 -0.48266254072E+02 -0.12242214701E+03 -0.92160068490E+02  0.16065581715E+03  0.00000000000E+00 0.  1.
         21    1    1    2  504  501  0.36578495727E+02 -0.22508515990E+02  0.51959403164E+02  0.67412159280E+02  0.00000000000E+00 0.  1.
         21    1    1    2  505  502  0.31496051222E+02 -0.10991338822E+03 -0.11942024702E+03  0.16533042536E+03  0.00000000000E+00 0.  1.
         21    1    1    2  506  503 -0.19808292876E+02  0.25484405122E+03  0.10184463503E+04  0.10500337268E+04  0.00000000000E+00 0.  1.
<scales pt_clust_3="79.47022" pt_clust_4="42.94904" pt_clust_5="79.47022" pt_clust_6="233.98712"></scales>
<clustering>
<clus scale="   42.949">  1  4  2 -1</clus>
<clus scale="   79.470">  3  5 -1 -1</clus>
<clus scale="  233.987">  1  6  2 -1</clus>
<clus scale="   42.949">  1  3  2 -1</clus>
</clustering>
</event>
<event>
 6    0  0.2666600E+002  0.2313181E+03  0.7546771E-02  0.1125715E+00
         21   -1    0    0  505  501  0.00000000000E+00  0.00000000000E+00  0.45511155027E+03  0.45511155027E+03  0.00000000000E+00 0.  1.
         21   -1    0    0  504  502 -0.00000000000E+00 -0.00000000000E+00 -0.66457360608E+03  0.66457360608E+03  0.00000000000E+00 0. -1.
         21    1    1    2  503  501  0.12196766614E+03  0.88715845917E+02 -0.44625109664E+03  0.47104846263E+03  0.00000000000E+00 0. -1.
         21    1    1    2  504  503  0.18993602354E+02  0.57806792904E+02 -0.17006441775E+03  0.18062194889E+03  0.00000000000E+00 0. -1.
         21    1    1    2  505  506 -0.11698416939E+03 -0.43300337633E+02  0.23677611092E+03  0.26762500225E+03  0.00000000000E+00 0.  1.
         21    1    1    2  506  502 -0.23977099102E+02 -0.10322230119E+03  0.17007734765E+03  0.20038974257E+03  0.00000000000E+00 0.  1.
<scales pt_clust_3="211.72981" pt_clust_4="37.52650" pt_clust_5="101.67585" pt_clust_6="101.67585"></scales>
<clustering>
<clus scale="   37.526">  3  4 -1 -1</clus>
<clus scale="  101.676">  5  6 -1 -1</clus>
<clus scale="  211.730">  2  3  1 -1</clus>
<clus scale="  231.318">  1  3  2 -1</clus>
</clustering>
</event>
<event>
 6    0  0.2666600E+002  0.1632865E+03  0.7546771E-02  0.1185036E+00
         21   -1    0    0  504  501  0.00000000000E+00  0.00000000000E+00  0.34612403921E+03  0.34612403921E+03  0.00000000000E+00 0. -1.
         21   -1    0    0  506  502 -0.00000000000E+00 -0.00000000000E+00 -0.10395874671E+03  0.10395874671E+03  0.00000000000E+00 0. -1.
         21    1    1    2  503  501  0.44118655847E+02  0.23711471155E+02  0.46257574969E+02  0.68179563654E+02  0.00000000000E+00 0.  1.
         21    1    1    2  504  502 -0.20359670894E+02 -0.27467134626E+02  0.64831237535E+02  0.73294263375E+02  0.00000000000E+00 0. -1.
         21    1    1    2  505  503  0.11816577151E+03 -0.35350689441E+02  0.98472151831E+02  0.15782770823E+03  0.00000000000E+00 0. -1.
         21    1    1    2  506  505 -0.14192475646E+03  0.39106352911E+02  0.32604328158E+02  0.15078125066E+03  0.00000000000E+00 0. -1.
<scales pt_clust_3="36.72458" pt_clust_4="34.19005" pt_clust_5="36.72458" pt_clust_6="151.66272"></scales>
<clustering>
<clus scale="   34.190">  1  4  2 -1</clus>
<clus scale="   36.725">  3  5 -1 -1</clus>
<clus scale="  151.663">  2  6  1 -1</clus>
<clus scale="   34.190">  1  3  2 -1</clus>
</clustering>
</event>
<event>
 6    0  0.2666600E+002  0.1203803E+03  0.7546771E-02  0.1242471E+00
         21   -1    0    0  503  501  0.00000000000E+00  0.00000000000E+00  0.10803164709E+04  0.10803164709E+04  0.00000000000E+00 0. -1.
         21   -1    0    0  505  502 -0.00000000000E+00 -0.00000000000E+00 -0.47769934380E+02  0.47769934380E+02  0.00000000000E+00 0. -1.
         21    1    1    2  503  504 -0.33879018688E+02  0.38603571140E+02  0.53381407606E+03  0.53627930354E+03  0.00000000000E+00 0. -1.
         21    1    1    2  504  506 -0.97496752756E+02  0.25262326636E+02  0.35611152345E+03  0.37008001713E+03  0.00000000000E+00 0. -1.
         21    1    1    2  505  501  0.44069478036E+02 -0.51551649781E+01  0.97747134176E+02  0.10734615438E+03  0.00000000000E+00 0. -1.
         21    1    1    2  506  502  0.87306293408E+02 -0.58710732798E+02  0.44873802804E+02  0.11438093020E+03  0.00000000000E+00 0. -1.
<scales pt_clust_3="50.42391" pt_clust_4="120.38028" pt_clust_5="44.36997" pt_clust_6="14000.00000"></scales>
<clustering>
<clus scale="   44.370">  2  5  1 -1</clus>
<clus scale="   50.424">  1  3  2 -1</clus>
<clus scale="  120.380">  1  4  2 -1</clus>
<clus scale="   50.424">  1  3  2 -1</clus>
</clustering>
</event>
<event>
 6    0  0.2666600E+002  0.8360022E+03  0.7546771E-02  0.9509319E-01
         21   -1    0    0  506  501  0.00000000000E+00  0.00000000000E+00  0.13828430544E+04  0.13828430544E+04  0.00000000000E+00 0.  1.
         21   -1    0    0  504  502 -0.00000000000E+00 -0.00000000000E+00 -0.70617878050E+03  0.70617878050E+03  0.00000000000E+00 0.  1.
         21    1    1    2  503  501  0.55264013244E+03 -0.42481220091E+03 -0.95612040119E+02  0.70357528683E+03  0.00000000000E+00 0.  1.
         21    1    1    2  504  503  0.81866449976E+02 -0.41383565876E+02 -0.11340812029E+03  0.14586335011E+03  0.00000000000E+00 0.  1.
         21    1    1    2  505  502 -0.10198910138E+02 -0.41561822298E+02 -0.16187060663E+00  0.42795198830E+02  0.00000000000E+00 0. -1.
         21    1    1    2  506  505 -0.62430767228E+03  0.50775758908E+03  0.88584630491E+03  0.11967879991E+04  0.00000000000E+00 0.  1.
<scales pt_clust_3="87.67313" pt_clust_4="87.67313" pt_clust_5="42.79489" pt_clust_6="800.61239"></scales>
<clustering>
<clus scale="   42.795">  2  5  1 -1</clus>
<clus scale="   87.673">  3  4 -1 -1</clus>
<clus scale="  800.612">  1  6  2 -1</clus>
<clus scale="  800.612">  1  3  2 -1</clus>
</clustering>
</event>
<event>
 6    0  0.2666600E+002  0.9881018E+02  0.7546771E-02  0.1282818E+00
         21   -1    0    0  503  501  0.00000000000E+00  0.00000000000E+00  0.13278822581E+04  0.13278822581E+04  0.00000000000E+00 0.  1.
         21   -1    0    0  504  502 -0.00000000000E+00 -0.00000000000E+00 -0.21820663213E+03  0.21820663213E+03  0.00000000000E+00 0. -1.
         21    1    1    2  503  506 -0.49485848571E+02 -0.40636908788E+02  0.48085614206E+03  0.48510085232E+03  0.00000000000E+00 0.  1.
         21    1    1    2  504  501  0.58817899038E+02 -0.60933429246E+02  0.80573178468E+03  0.81017043694E+03  0.00000000000E+00 0.  1.
         21    1    1    2  505  502  0.66057715355E+02  0.38051244872E+02 -0.10021309882E+03  0.12591339948E+03  0.00000000000E+00 0. -1.
         21    1    1    2  506  505 -0.75389765823E+02  0.63519093162E+02 -0.76699201906E+02  0.12490420153E+03  0.00000000000E+00 0. -1.
<scales pt_clust_3="64.03286" pt_clust_4="98.81018" pt_clust_5="75.27283" pt_clust_6="14000.00000"></scales>
<clustering>
<clus scale="   64.033">  1  3  2 -1</clus>
<clus scale="   75.273">  2  5  1 -1</clus>
<clus scale="   98.810">  1  4  2 -1</clus>
<clus scale="   64.033">  1  3  2 -1</clus>
</clustering>
</event>
<event>
 6    0  0.2666600E+002  0.2043547E+03  0.7546771E-02  0.1146116E+00
         21   -1    0    0  506  501  0.00000000000E+00  0.00000000000E+00  0.25866474688E+03  0.25866474688E+03  0.00000000000E+00 0.  1.
         21   -1    0    0  505  502 -0.00000000000E+00 -0.00000000000E+00 -0.62317483192E+03  0.62317483192E+03  0.00000000000E+00 0.  1.
         21    1    1    2  503  502  0.31538908706E+02 -0.15643913086E+03 -0.52784968227E+03  0.55144645389E+03  0.00000000000E+00 0.  1.
         21    1    1    2  504  503 -0.18421193492E+02  0.97710306871E+02  0.61128175065E+02  0.11671888547E+03  0.00000000000E+00 0.  1.
         21    1    1    2  505  501  0.57642952922E+01 -0.42284338166E+02 -0.25529957443E+02  0.49728976275E+02  0.00000000000E+00 0. -1.
         21    1    1    2  506  504 -0.18882010506E+02  0.10101316216E+03  0.12774137961E+03  0.16394526317E+03  0.00000000000E+00 0.  1.
<scales pt_clust_3="198.85353" pt_clust_4="46.15029" pt_clust_5="42.67543" pt_clust_6="46.15029"></scales>
<clustering>
<clus scale="   42.675">  2  5  1 -1</clus>
<clus scale="   46.150">  4  6 -1 -1</clus>
<clus scale="  198.854">  2  3  1 -1</clus>
<clus scale="  204.355">  1  3  2 -1</clus>
</clustering>
</event>
<event>
 6    0  0.2666600E+002  0.9112199E+02  0.7546771E-02  0.1300157E+00
         21   -1    0    0  506  501  0.00000000000E+00  0.00000000000E+00  0.30327205860E+03  0.30327205860E+03  0.00000000000E+00 0.  1.
         21   -1    0    0  505  502 -0.00000000000E+00 -0.00000000000E+00 -0.37375505070E+04  0.37375505070E+04  0.00000000000E+00 0.  1.
         21    1    1    2  503  502 -0.87260648549E+02 -0.84747853753E+02 -0.23693332901E+04  0.23724537633E+04  0.00000000000E+00 0.  1.
         21    1    1    2  504  501  0.45545743446E+02  0.40370026640E+02  0.25167385935E+03  0.25892834004E+03  0.00000000000E+00 0.  1.
         21    1    1    2  505  504  0.68628529979E+02  0.28015580581E+02 -0.13565548067E+04  0.13585785555E+04  0.00000000000E+00 0.  1.
         21    1    1    2  506  503 -0.26913624877E+02  0.16362246533E+02  0.39935789031E+02  0.50861906778E+02  0.00000000000E+00 0.  1.
<scales pt_clust_3="14000.00000" pt_clust_4="59.64303" pt_clust_5="91.12199" pt_clust_6="31.49708"></scales>
<clustering>
<clus scale="   31.497">  1  6  2 -1</clus>
<clus scale="   59.643">  1  4  2 -1</clus>
<clus scale="   91.122">  2  5  1 -1</clus>
<clus scale="   31.497">  1  3  2 -1</clus>
</clustering>
</event>
<event>
 6    0  0.2666600E+002  0.1343177E+03  0.7546771E-02  0.1221186E+00
         21   -1    0    0  505  501  0.00000000000E+00  0.00000000000E+00  0.85537924175E+02  0.85537924175E+02  0.00000000000E+00 0.  1.
         21   -1    0    0  504  502 -0.00000000000E+00 -0.00000000000E+00 -0.21841941199E+03  0.21841941199E+03  0.00000000000E+00 0.  1.
         21    1    1    2  503  501  0.32414336139E+02 -0.78586674726E+02 -0.48771449020E+01  0.85148935250E+02  0.00000000000E+00 0.  1.
         21    1    1    2  504  503  0.38325476226E+02 -0.19553641921E+02 -0.27696109375E+02  0.51168950691E+02  0.00000000000E+00 0.  1.
         21    1    1    2  505  506 -0.59592466748E+02  0.51513368492E+02 -0.33951431638E+02  0.85776389157E+02  0.00000000000E+00 0.  1.
         21    1    1    2  506  502 -0.11147345617E+02  0.46626948155E+02 -0.66356801897E+02  0.81863061063E+02  0.00000000000E+00 0.  1.
<scales pt_clust_3="132.36899" pt_clust_4="38.21826" pt_clust_5="45.52676" pt_clust_6="45.52676"></scales>
<clustering>
<clus scale="   38.218">  3  4 -1 -1</clus>
<clus scale="   45.527">  5  6 -1 -1</clus>
<clus scale="  132.369">  1  3  2 -1</clus>
<clus scale="  132.369">  1  3  2 -1</clus>
</clustering>
</event>
<event>
 6    0  0.2666600E+002  0.3572510E+03  0.7546771E-02  0.1059678E+00
         21   -1    0    0  504  501  0.00000000000E+00  0.00000000000E+00  0.38423543152E+03  0.38423543152E+03  0.00000000000E+00 0.  1.
         21   -1    0    0  503  502 -0.00000000000E+00 -0.00000000000E+00 -0.14411718215E+04  0.14411718215E+04  0.00000000000E+00 0.  1.
         21    1    1    2  503  501 -0.28096100364E+03  0.21804841077E+03  0.25682661775E+03  0.43868451830E+03  0.00000000000E+00 0.  1.
         21    1    1    2  504  505 -0.22438081891E+02 -0.36427124430E+02 -0.25434759688E+02  0.49772782859E+02  0.00000000000E+00 0. -1.
         21    1    1    2  505  506  0.11995524743E+03 -0.93926019657E+02 -0.49022199027E+03  0.51335071667E+03  0.00000000000E+00 0.  1.
         21    1    1    2  506  502  0.18344383810E+03 -0.87695266686E+02 -0.79810625781E+03  0.82359923524E+03  0.00000000000E+00 0. -1.
<scales pt_clust_3="353.58175" pt_clust_4="42.78321" pt_clust_5="44.24643" pt_clust_6="44.24643"></scales>
<clustering>
<clus scale="   42.783">  1  4  2 -1</clus>
<clus scale="   44.246">  5  6 -1 -1</clus>
<clus scale="  353.582">  1  3  2 -1</clus>
<clus scale="   42.783">  1  3  2 -1</clus>
</clustering>
</event>
<event>
 6    0  0.2666600E+002  0.1575482E+03  0.7546771E-02  0.1191493E+00
         21   -1    0    0  503  501  0.00000000000E+00  0.00000000000E+00  0.84286015585E+03  0.84286015585E+03  0.00000000000E+00 0.  1.
         21   -1    0    0  506  502 -0.00000000000E+00 -0.00000000000E+00 -0.10586279518E+03  0.10586279518E+03  0.00000000000E+00 0. -1.
         21    1    1    2  503  504  0.86166254502E+01  0.39003913465E+02  0.18064358122E+03  0.18500717536E+03  0.00000000000E+00 0. -1.
         21    1    1    2  504  502  0.11744349691E+03  0.42867021796E+02  0.56796248850E+03  0.58155992371E+03  0.00000000000E+00 0.  1.
         21    1    1    2  505  501 -0.58249405589E+02 -0.90690555369E+02  0.14909748293E+02  0.10881208884E+03  0.00000000000E+00 0. -1.
         21    1    1    2  506  505 -0.67810716776E+02  0.88196201081E+01 -0.26518457340E+02  0.73343763118E+02  0.00000000000E+00 0. -1.
<scales pt_clust_3="38.42007" pt_clust_4="38.42007" pt_clust_5="142.13158" pt_clust_6="68.38186"></scales>
<clustering>
<clus scale="   38.420">  3  4 -1 -1</clus>
<clus scale="   68.382">  2  6  1 -1</clus>
<clus scale="  142.132">  2  5  1 -1</clus>
<clus scale="  157.548">  1  3  2 -1</clus>
</clustering>
</event>
<event>
 6    0  0.2666600E+002  0.1789165E+03  0.7546771E-02  0.1168856E+00
         21   -1    0    0  503  501  0.00000000000E+00  0.00000000000E+00  0.77336827398E+02  0.77336827398E+02  0.00000000000E+00 0. -1.
         21   -1    0    0  504  502 -0.00000000000E+00 -0.00000000000E+00 -0.40177406777E+03  0.40177406777E+03  0.00000000000E+00 0. -1.
         21    1    1    2  503  506 -0.21616874888E+02  0.30733370011E+02 -0.75526067192E+01  0.38325855247E+02  0.00000000000E+00 0. -1.
         21    1    1    2  504  505  0.40030672102E+02 -0.64952160800E+02 -0.69005263828E+02  0.10287353565E+03  0.00000000000E+00 0. -1.
         21    1    1    2  505  501  0.39589740636E+01 -0.96702651461E+02 -0.10105038193E+03  0.13992232118E+03  0.00000000000E+00 0. -1.
         21    1    1    2  506  502 -0.22372771277E+02  0.13092144225E+03 -0.14682898789E+03  0.19798918309E+03  0.00000000000E+00 0. -1.
<scales pt_clust_3="33.40180" pt_clust_4="39.34345" pt_clust_5="173.29427" pt_clust_6="33.40180"></scales>
<clustering>
<clus scale="   33.402">  3  6 -1 -1</clus>
<clus scale="   39.343">  4  5 -1 -1</clus>
<clus scale="  173.294">  2  4  1 -1</clus>
<clus scale="  178.917">  1  3  2 -1</clus>
</clustering>
</event>
<event>
 6    0  0.2666600E+002  0.6879881E+02  0.7546771E-02  0.1364226E+00
         21   -1    0    0  503  501  0.00000000000E+00  0.00000000000E+00  0.10097133708E+04  0.10097133708E+04  0.00000000000E+00 0. -1.
         21   -1    0    0  506  502 -0.00000000000E+00 -0.00000000000E+00 -0.77094148423E+02  0.77094148423E+02  0.00000000000E+00 0. -1.
         21    1    1    2  503  505  0.86452468886E+02 -0.45643629949E+02  0.80378252110E+03  0.80970594141E+03  0.00000000000E+00 0. -1.
         21    1    1    2  504  501 -0.24229973728E+02  0.38451196913E+02  0.12198627844E+03  0.13017771814E+03  0.00000000000E+00 0.  1.
         21    1    1    2  505  502  0.38732170356E+02 -0.14600644063E+02  0.13206093558E+02  0.43448368607E+02  0.00000000000E+00 0. -1.
         21    1    1    2  506  504 -0.10095466551E+03  0.21793077100E+02 -0.63556707355E+01  0.10347549106E+03  0.00000000000E+00 0. -1.
<scales pt_clust_3="14000.00000" pt_clust_4="43.29916" pt_clust_5="41.39275" pt_clust_6="68.79881"></scales>
<clustering>
<clus scale="   41.393">  2  5  1 -1</clus>
<clus scale="   43.299">  1  4  2 -1</clus>
<clus scale="   68.799">  2  6  1 -1</clus>
<clus scale="   43.299">  1  3  2 -1</clus>
</clustering>
</event>
<event>
 6    0  0.2666600E+002  0.1002944E+03  0.7546771E-02  0.1279678E+00
         21   -1    0    0  505  501  0.00000000000E+00  0.00000000000E+00  0.22312919020E+03  0.22312919020E+03  0.00000000000E+00 0. -1.
         21   -1    0    0  503  502 -0.00000000000E+00 -0.00000000000E+00 -0.10782120728E+04  0.10782120728E+04  0.00000000000E+00 0.  1.
         21    1    1    2  503  506 -0.28434446237E+02 -0.22617198961E+02 -0.86347664007E+03  0.86424068602E+03  0.00000000000E+00 0.  1.
         21    1    1    2  504  501  0.26544292802E+02  0.11554499383E+03  0.17853529492E+03  0.21431308082E+03  0.00000000000E+00 0. -1.
         21    1    1    2  505  502  0.12998431463E+02 -0.32790758236E+02 -0.15610821385E+03  0.16004364242E+03  0.00000000000E+00 0. -1.
         21    1    1    2  506  504 -0.11108278029E+02 -0.60137036631E+02 -0.14033323626E+02  0.62743853783E+02  0.00000000000E+00 0.  1.
<scales pt_clust_3="55.81454" pt_clust_4="100.29438" pt_clust_5="35.27312" pt_clust_6="14000.00000"></scales>
<clustering>
<clus scale="   35.273">  2  5  1 -1</clus>
<clus scale="   55.815">  2  3  1 -1</clus>
<clus scale="  100.294">  1  4  2 -1</clus>
<clus scale="  100.294">  1  3  2 -1</clus>
</clustering>
</event>
<event>
 6    0  0.2666600E+002  0.1071264E+03  0.7546771E-02  0.1265986E+00
         21   -1    0    0  504  501  0.00000000000E+00  0.00000000000E+00  0.37937122852E+04  0.37937122852E+04  0.00000000000E+00 0.  1.
         21   -1    0    0  503  502 -0.00000000000E+00 -0.00000000000E+00 -0.38084371937E+02  0.38084371937E+02  0.00000000000E+00 0.  1.
         21    1    1    2  503  505 -0.16546330327E+02 -0.56981993834E+02  0.68779458439E+00  0.59339714610E+02  0.00000000000E+00 0.  1.
         21    1    1    2  504  506  0.31302199916E+02  0.56985499856E+02  0.10502459181E+04  0.10522564628E+04  0.00000000000E+00 0.  1.
         21    1    1    2  505  501 -0.52599306364E+02 -0.50111767111E+02  0.17181376161E+03  0.18654180473E+03  0.00000000000E+00 0.  1.
         21    1    1    2  506  502  0.37843436774E+02  0.50108261089E+02  0.25328804389E+04  0.25336586750E+04  0.00000000000E+00 0.  1.
<scales pt_clust_3="59.33573" pt_clust_4="58.38887" pt_clust_5="107.12642" pt_clust_6="14000.00000"></scales>
<clustering>
<clus scale="   59.336">  2  3  1 -1</clus>
<clus scale="   58.389">  1  4  2 -1</clus>
<clus scale="  107.126">  2  5  1 -1</clus>
<clus scale="   58.389">  1  3  2 -1</clus>
</clustering>
</event>
<event>
 6    0  0.2666600E+002  0.1256727E+03  0.7546771E-02  0.1234022E+00
         21   -1    0    0  504  501  0.00000000000E+00  0.00000000000E+00  0.11115324421E+03  0.11115324421E+03  0.00000000000E+00 0.  1.
         21   -1    0    0  506  502 -0.00000000000E+00 -0.00000000000E+00 -0.65520845500E+03  0.65520845500E+03  0.00000000000E+00 0. -1.
         21    1    1    2  503  502 -0.19745587460E+02  0.43130141158E+02 -0.18871161752E+03  0.19458204410E+03  0.00000000000E+00 0. -1.
         21    1    1    2  504  503  0.34537857514E+02  0.96509983078E+02 -0.37885467389E+03  0.39247662906E+03  0.00000000000E+00 0. -1.
         21    1    1    2  505  501 -0.23236223763E+02 -0.11015097644E+03  0.63231067055E+02  0.12911749512E+03  0.00000000000E+00 0.  1.
         21    1    1    2  506  505  0.84439537095E+01 -0.29489147797E+02 -0.39719986436E+02  0.50185530928E+02  0.00000000000E+00 0.  1.
<scales pt_clust_3="34.77180" pt_clust_4="34.77180" pt_clust_5="114.04130" pt_clust_6="30.67426"></scales>
<clustering>
<clus scale="   30.674">  2  6  1 -1</clus>
<clus scale="   34.772">  3  4 -1 -1</clus>
<clus scale="  114.041">  1  5  2 -1</clus>
<clus scale="  114.041">  1  3  2 -1</clus>
</clustering>
</event>
<event>
 6    0  0.2666600E+002  0.1006824E+03  0.7546771E-02  0.1278868E+00
         21   -1    0    0  504  501  0.00000000000E+00  0.00000000000E+00  0.14654382950E+03  0.14654382950E+03  0.00000000000E+00 0.  1.
         21   -1    0    0  503  502 -0.00000000000E+00 -0.00000000000E+00 -0.12467944677E+04  0.12467944677E+04  0.00000000000E+00 0.  1.
         21    1    1    2  503  501  0.89614645964E+02  0.35267212177E-01 -0.59447419017E+03  0.60119077570E+03  0.00000000000E+00 0.  1.
         21    1    1    2  504  506 -0.49634271039E+02 -0.22377612870E+02  0.26804565415E+02  0.60686103404E+02  0.00000000000E+00 0.  1.
         21    1    1    2  505  502  0.51598383574E+01 -0.42446869078E+02 -0.61548569292E+03  0.61696920411E+03  0.00000000000E+00 0.  1.
         21    1    1    2  506  505 -0.45140213283E+02  0.64789214736E+02  0.82904679426E+02  0.11449221402E+03  0.00000000000E+00 0.  1.
<scales pt_clust_3="14000.00000" pt_clust_4="54.79886" pt_clust_5="42.75933" pt_clust_6="100.68238"></scales>
<clustering>
<clus scale="   42.759">  2  5  1 -1</clus>
<clus scale="   54.799">  1  4  2 -1</clus>
<clus scale="  100.682">  1  6  2 -1</clus>
<clus scale="   54.799">  1  3  2 -1</clus>
</clustering>
</event>
<event>
 6    0  0.2666600E+002  0.1244237E+03  0.7546771E-02  0.1235973E+00
         21   -1    0    0  503  501  0.00000000000E+00  0.00000000000E+00  0.99179558147E+03  0.99179558147E+03  0.00000000000E+00 0.  1.
         21   -1    0    0  506  502 -0.00000000000E+00 -0.00000000000E+00 -0.26674773428E+03  0.26674773428E+03  0.00000000000E+00 0. -1.
         21    1    1    2  503  505  0.12023717287E+03 -0.47332211088E+02  0.82562817062E+03  0.83567888095E+03  0.00000000000E+00 0.  1.
         21    1    1    2  504  501 -0.86401578505E+02  0.65047516454E+02  0.12228807812E+03  0.16325068519E+03  0.00000000000E+00 0.  1.
         21    1    1    2  505  502  0.32198387849E+02 -0.15224195965E+02 -0.10395731776E+02  0.37102339037E+02  0.00000000000E+00 0.  1.
         21    1    1    2  506  504 -0.66033982212E+02 -0.24911094006E+01 -0.21247266977E+03  0.22251141057E+03  0.00000000000E+00 0. -1.
<scales pt_clust_3="14000.00000" pt_clust_4="124.42372" pt_clust_5="35.61618" pt_clust_6="40.55549"></scales>
<clustering>
<clus scale="   35.616">  2  5  1 -1</clus>
<clus scale="   40.555">  2  6  1 -1</clus>
<clus scale="  124.424">  2  4  1 -1</clus>
<clus scale="  124.424">  1  3  2 -1</clus>
</clustering>
</event>
<event>
 6    0  0.2666600E+002  0.8362764E+02  0.7546771E-02  0.1319061E+00
         21   -1    0    0  504  501  0.00000000000E+00  0.00000000000E+00  0.68715383290E+03  0.68715383290E+03  0.00000000000E+00 0.  1.
         21   -1    0    0  506  502 -0.00000000000E+00 -0.00000000000E+00 -0.19241648075E+03  0.19241648075E+03  0.00000000000E+00 0. -1.
         21    1    1    2  503  502  0.60479277501E+02  0.83033892074E+02  0.13371532723E-01  0.10272473129E+03  0.00000000000E+00 0. -1.
         21    1    1    2  504  503 -0.16394760578E+02 -0.58256497722E+02  0.53289480021E+03  0.53632031081E+03  0.00000000000E+00 0.  1.
         21    1    1    2  505  501  0.17683634826E+02 -0.28163893140E+02  0.91227813726E+02  0.97100102033E+02  0.00000000000E+00 0.  1.
         21    1    1    2  506  505 -0.61768151749E+02  0.33864987875E+01 -0.12939863332E+03  0.14342516951E+03  0.00000000000E+00 0. -1.
<scales pt_clust_3="83.62764" pt_clust_4="14000.00000" pt_clust_5="33.25531" pt_clust_6="61.63469"></scales>
<clustering>
<clus scale="   33.255">  1  5  2 -1</clus>
<clus scale="   61.635">  2  6  1 -1</clus>
<clus scale="   83.628">  2  3  1 -1</clus>
<clus scale="   33.255">  1  3  2 -1</clus>
</clustering>
</event>
<event>
 6    0  0.2666600E+002  0.1428440E+03  0.7546771E-02  0.1209553E+00
         21   -1    0    0  505  501  0.00000000000E+00  0.00000000000E+00  0.36273760097E+02  0.36273760097E+02  0.00000000000E+00 0.  1.
         21   -1    0    0  504  502 -0.00000000000E+00 -0.00000000000E+00 -0.57451675041E+03  0.57451675041E+03  0.00000000000E+00 0.  1.
         21    1    1    2  503  501  0.13700602780E+02 -0.77447645062E+02 -0.86476498164E+02  0.11689323752E+03  0.00000000000E+00 0.  1.
         21    1    1    2  504  503 -0.24910093520E+02 -0.50562558309E+02 -0.11423743787E+03  0.12738633079E+03  0.00000000000E+00 0.  1.
         21    1    1    2  505  506  0.31026677954E+02  0.48016728424E+02 -0.10128619532E+03  0.11630629525E+03  0.00000000000E+00 0.  1.
         21    1    1    2  506  502 -0.19817187213E+02  0.79993474947E+02 -0.23624285896E+03  0.25020464695E+03  0.00000000000E+00 0.  1.
<scales pt_clust_3="139.23514" pt_clust_4="45.38505" pt_clust_5="51.96122" pt_clust_6="51.96122"></scales>
<clustering>
<clus scale="   45.385">  3  4 -1 -1</clus>
<clus scale="   51.961">  5  6 -1 -1</clus>
<clus scale="  139.235">  1  3  2 -1</clus>
<clus scale="  139.235">  1  3  2 -1</clus>
</clustering>
</event>
<event>
 6    0  0.2666600E+002  0.2334655E+03  0.7546771E-02  0.1124224E+00
         21   -1    0    0  505  501  0.00000000000E+00  0.00000000000E+00  0.10667586876E+03  0.10667586876E+03  0.00000000000E+00 0. -1.
         21   -1    0    0  506  502 -0.00000000000E+00 -0.00000000000E+00 -0.14327797727E+04  0.14327797727E+04  0.00000000000E+00 0. -1.
         21    1    1    2  503  501 -0.97506326663E+02  0.52898455671E+02  0.10149149107E+02  0.11139450426E+03  0.00000000000E+00 0. -1.
         21    1    1    2  504  503 -0.10116635025E+03  0.54379431969E+02 -0.77556147038E+02  0.13858827146E+03  0.00000000000E+00 0.  1.
         21    1    1    2  505  502  0.12774754647E+03 -0.10445539826E+03 -0.11343759110E+04  0.11463154336E+04  0.00000000000E+00 0. -1.
         21    1    1    2  506  504  0.70925130444E+02 -0.28224893766E+01 -0.12432099494E+03  0.14315743207E+03  0.00000000000E+00 0.  1.
<scales pt_clust_3="83.04821" pt_clust_4="83.04821" pt_clust_5="218.03168" pt_clust_6="70.98127"></scales>
<clustering>
<clus scale="   70.981">  2  6  1 -1</clus>
<clus scale="   83.048">  3  4 -1 -1</clus>
<clus scale="  218.032">  2  5  1 -1</clus>
<clus scale="  233.465">  1  3  2 -1</clus>
</clustering>
</event>
<event>
 6    0  0.2666600E+002  0.2265902E+03  0.7546771E-02  0.1129063E+00
         21   -1    0    0  504  501  0.00000000000E+00  0.00000000000E+00  0.18230636156E+03  0.18230636156E+03  0.00000000000E+00 0. -1.
         21   -1    0    0  503  502 -0.00000000000E+00 -0.00000000000E+00 -0.49906176447E+03  0.49906176447E+03  0.00000000000E+00 0. -1.
         21    1    1    2  503  505  0.98771196423E+02 -0.85136851627E+02 -0.25363418032E+03  0.28519174283E+03  0.00000000000E+00 0. -1.
         21    1    1    2  504  506 -0.12166479079E+03  0.48928513788E+02  0.66682669346E+02  0.14711525812E+03  0.00000000000E+00 0. -1.
         21    1    1    2  505  501  0.93605724375E+02 -0.10902839169E+02 -0.13419480822E+03  0.16397911480E+03  0.00000000000E+00 0. -1.
         21    1    1    2  506  502 -0.70712130009E+02  0.47111177008E+02  0.43909162818E+01  0.85082010292E+02  0.00000000000E+00 0. -1.
<scales pt_clust_3="60.77342" pt_clust_4="221.05229" pt_clust_5="60.77342" pt_clust_6="41.29349"></scales>
<clustering>
<clus scale="   41.293">  4  6 -1 -1</clus>
<clus scale="   60.773">  3  5 -1 -1</clus>
<clus scale="  221.052">  1  4  2 -1</clus>
<clus scale="  221.052">  1  3  2 -1</clus>
</clustering>
</event>
<event>
 6    0  0.2666600E+002  0.7369399E+02  0.7546771E-02  0.1347964E+00
         21   -1    0    0  503  501  0.00000000000E+00  0.00000000000E+00  0.92078398921E+02  0.92078398921E+02  0.00000000000E+00 0. -1.
         21   -1    0    0  501  502 -0.00000000000E+00 -0.00000000000E+00 -0.11943694522E+04  0.11943694522E+04  0.00000000000E+00 0. -1.
         21    1    1    2  503  505  0.37553693122E+02 -0.41321767456E+02  0.51681245963E+02  0.76083635015E+02  0.00000000000E+00 0. -1.
         21    1    1    2  504  502 -0.57230418297E+01 -0.36978979452E+02 -0.71557855177E+03  0.71655625172E+03  0.00000000000E+00 0. -1.
         21    1    1    2  505  506  0.52124436826E+01  0.10878847394E+03 -0.87660517755E+02  0.13980868358E+03  0.00000000000E+00 0. -1.
         21    1    1    2  506  504 -0.37043094975E+02 -0.30487727028E+02 -0.35073322976E+03  0.35399928085E+03  0.00000000000E+00 0. -1.
<scales pt_clust_3="56.44177" pt_clust_4="37.41922" pt_clust_5="73.69399" pt_clust_6="14000.00000"></scales>
<clustering>
<clus scale="   37.419">  2  4  1 -1</clus>
<clus scale="   56.442">  1  3  2 -1</clus>
<clus scale="   73.694">  1  5  2 -1</clus>
<clus scale="   56.442">  1  3  2 -1</clus>
</clustering>
</event>
<event>
 6    0  0.2666600E+002  0.1250292E+03  0.7546771E-02  0.1235024E+00
         21   -1    0    0  505  501  0.00000000000E+00  0.00000000000E+00  0.50323436981E+03  0.50323436981E+03  0.00000000000E+00 0. -1.
         21   -1    0    0  506  502 -0.00000000000E+00 -0.00000000000E+00 -0.26134839069E+03  0.26134839069E+03  0.00000000000E+00 0. -1.
         21    1    1    2  503  502 -0.35550834165E+02  0.39199392728E+02 -0.20750672808E+03  0.21414830468E+03  0.00000000000E+00 0. -1.
         21    1    1    2  504  501  0.12034757465E+02 -0.74212606571E+02  0.30695450450E+03  0.31602755290E+03  0.00000000000E+00 0. -1.
         21    1    1    2  505  503 -0.23703605462E+02  0.65384973770E+02 -0.11551327155E+02  0.70501694064E+02  0.00000000000E+00 0. -1.
         21    1    1    2  506  504  0.47219682161E+02 -0.30371759927E+02  0.15398952986E+03  0.16390520886E+03  0.00000000000E+00 0. -1.
<scales pt_clust_3="52.91932" pt_clust_4="50.51513" pt_clust_5="110.52254" pt_clust_6="50.51513"></scales>
<clustering>
<clus scale="   50.515">  4  6 -1 -1</clus>
<clus scale="   52.919">  2  3  1 -1</clus>
<clus scale="  110.523">  2  5  1 -1</clus>
<clus scale="  125.029">  1  3  2 -1</clus>
</clustering>
</event>
<event>
 6    0  0.2666600E+002  0.1275432E+03  0.7546771E-02  0.1231147E+00
         21   -1    0    0  503  501  0.00000000000E+00  0.00000000000E+00  0.53841482423E+03  0.53841482423E+03  0.00000000000E+00 0.  1.
         21   -1    0    0  506  502 -0.00000000000E+00 -0.00000000000E+00 -0.16029399128E+03  0.16029399128E+03  0.00000000000E+00 0.  1.
         21    1    1    2  503  505 -0.89295750389E+02 -0.30893894864E+02  0.37070771853E+03  0.38256029113E+03  0.00000000000E+00 0.  1.
         21    1    1    2  504  502  0.72383002693E+02 -0.26979682226E+01 -0.10972534207E+03  0.13147710373E+03  0.00000000000E+00 0.  1.
         21    1    1    2  505  504 -0.30497468947E+02  0.18877436566E+02  0.12878168014E+03  0.13368311173E+03  0.00000000000E+00 0.  1.
         21    1    1    2  506  501  0.47410216643E+02  0.14714426521E+02 -0.11643223640E+02  0.50988308922E+02  0.00000000000E+00 0.  1.
<scales pt_clust_3="30.94552" pt_clust_4="117.23691" pt_clust_5="30.94552" pt_clust_6="49.64114"></scales>
<clustering>
<clus scale="   30.946">  3  5 -1 -1</clus>
<clus scale="   49.641">  2  6  1 -1</clus>
<clus scale="  117.237">  2  4  1 -1</clus>
<clus scale="  127.543">  1  3  2 -1</clus>
</clustering>
</event>
<event>
 6    0  0.2666600E+002  0.1355955E+03  0.7546771E-02  0.1219381E+00
         21   -1    0    0  506  501  0.00000000000E+00  0.00000000000E+00  0.41549232972E+03  0.41549232972E+03  0.00000000000E+00 0. -1.
         21   -1    0    0  503  502 -0.00000000000E+00 -0.00000000000E+00 -0.97575283207E+03  0.97575283207E+03  0.00000000000E+00 0.  1.
         21    1    1    2  503  501 -0.52149996901E+02  0.16594382792E+02  0.44199123269E+02  0.70345989330E+02  0.00000000000E+00 0. -1.
         21    1    1    2  504  505  0.11234333852E+03  0.13547346123E+01 -0.86040062448E+03  0.86770507411E+03  0.00000000000E+00 0.  1.
         21    1    1    2  505  502  0.22696807022E+02  0.23489457688E+02 -0.89638861510E+02  0.95404534297E+02  0.00000000000E+00 0.  1.
         21    1    1    2  506  504 -0.82890148643E+02 -0.41438575093E+02  0.34557986038E+03  0.35778956406E+03  0.00000000000E+00 0. -1.
<scales pt_clust_3="54.51356" pt_clust_4="14000.00000" pt_clust_5="32.66343" pt_clust_6="135.59554"></scales>
<clustering>
<clus scale="   32.663">  2  5  1 -1</clus>
<clus scale="   54.514">  1  3  2 -1</clus>
<clus scale="  135.596">  1  6  2 -1</clus>
<clus scale="   54.514">  1  3  2 -1</clus>
</clustering>
</event>
<event>
 6    0  0.2666600E+002  0.2433268E+03  0.7546771E-02  0.1117596E+00
         21   -1    0    0  504  501  0.00000000000E+00  0.00000000000E+00  0.15287794137E+03  0.15287794137E+03  0.00000000000E+00 0. -1.
         21   -1    0    0  505  502 -0.00000000000E+00 -0.00000000000E+00 -0.57433682425E+03  0.57433682425E+03  0.00000000000E+00 0. -1.
         21    1    1    2  503  501  0.21784995462E+03 -0.35448368806E+02 -0.34868894425E+03  0.41267319930E+03  0.00000000000E+00 0. -1.
         21    1    1    2  504  506 -0.55615798451E+02  0.31540542382E+02 -0.16340048536E+02  0.65991817957E+02  0.00000000000E+00 0. -1.
         21    1    1    2  505  503  0.18275001594E+02  0.25704523919E+02 -0.58788338572E+02  0.66714068870E+02  0.00000000000E+00 0. -1.
         21    1    1    2  506  502 -0.18050915776E+03 -0.21796697495E+02  0.23584484793E+01  0.18183567949E+03  0.00000000000E+00 0. -1.
<scales pt_clust_3="232.02349" pt_clust_4="43.84194" pt_clust_5="31.53884" pt_clust_6="43.84194"></scales>
<clustering>
<clus scale="   31.539">  2  5  1 -1</clus>
<clus scale="   43.842">  4  6 -1 -1</clus>
<clus scale="  232.023">  2  3  1 -1</clus>
<clus scale="  243.327">  1  3  2 -1</clus>
</clustering>
</event>
<event>
 6    0  0.2666600E+002  0.7045443E+02  0.7546771E-02  0.1358555E+00
         21   -1    0    0  505  501  0.00000000000E+00  0.00000000000E+00  0.29155648700E+03  0.29155648700E+03  0.00000000000E+00 0. -1.
         21   -1    0    0  506  502 -0.00000000000E+00 -0.00000000000E+00 -0.23329163105E+03  0.23329163105E+03  0.00000000000E+00 0. -1.
         21    1    1    2  503  502  0.40936395443E+02 -0.45132963691E+00 -0.12527308973E+02  0.42812680837E+02  0.00000000000E+00 0.  1.
         21    1    1    2  504  501 -0.40504994229E+02 -0.56146416799E+02  0.20883191803E+03  0.22000873770E+03  0.00000000000E+00 0. -1.
         21    1    1    2  505  503 -0.68643014958E+02 -0.26847769026E+02  0.14632397982E+02  0.75145014971E+02  0.00000000000E+00 0. -1.
         21    1    1    2  506  504  0.68211613744E+02  0.83445515462E+02 -0.15267215109E+03  0.18688168454E+03  0.00000000000E+00 0. -1.
<scales pt_clust_3="40.93888" pt_clust_4="70.45443" pt_clust_5="68.15837" pt_clust_6="14000.00000"></scales>
<clustering>
<clus scale="   40.939">  2  3  1 -1</clus>
<clus scale="   68.158">  2  5  1 -1</clus>
<clus scale="   70.454">  1  4  2 -1</clus>
<clus scale="   70.454">  1  3  2 -1</clus>
</clustering>
</event>
<event>
 6    0  0.2666600E+002  0.1571586E+03  0.7546771E-02  0.1191943E+00
         21   -1    0    0  503  501  0.00000000000E+00  0.00000000000E+00  0.13369656185E+03  0.13369656185E+03  0.00000000000E+00 0.  1.
         21   -1    0    0  505  502 -0.00000000000E+00 -0.00000000000E+00 -0.12039521011E+04  0.12039521011E+04  0.00000000000E+00 0.  1.
         21    1    1    2  503  504  0.14591519950E+03  0.90639549824E+02  0.26577323349E+02  0.17381923816E+03  0.00000000000E+00 0.  1.
         21    1    1    2  504  502  0.17667893910E+02 -0.71681150740E+02 -0.22505071837E+03  0.23685051759E+03  0.00000000000E+00 0.  1.
         21    1    1    2  505  506 -0.13360465254E+03 -0.36962504201E+02 -0.88016853994E+03  0.89101800689E+03  0.00000000000E+00 0.  1.
         21    1    1    2  506  501 -0.29978440873E+02  0.18004105117E+02  0.83863957111E+01  0.35960900312E+02  0.00000000000E+00 0.  1.
<scales pt_clust_3="157.15858" pt_clust_4="72.53396" pt_clust_5="14000.00000" pt_clust_6="34.96934"></scales>
<clustering>
<clus scale="   34.969">  1  6  2 -1</clus>
<clus scale="   72.534">  2  4  1 -1</clus>
<clus scale="  157.159">  1  3  2 -1</clus>
<clus scale="   34.969">  1  3  2 -1</clus>
</clustering>
</event>
<event>
 6    0  0.2666600E+002  0.9939419E+02  0.7546771E-02  0.1281575E+00
         21   -1    0    0  505  501  0.00000000000E+00  0.00000000000E+00  0.13780453005E+03  0.13780453005E+03  0.00000000000E+00 0.  1.
         21   -1    0    0  504  502 -0.00000000000E+00 -0.00000000000E+00 -0.22020741147E+03  0.22020741147E+03  0.00000000000E+00 0. -1.
         21    1    1    2  503  502 -0.53938444349E+01 -0.30267102605E+02 -0.33007939849E+02  0.45107816961E+02  0.00000000000E+00 0.  1.
         21    1    1    2  504  501 -0.60526885485E+01  0.86639463923E+02  0.18168915339E+01  0.86869631301E+02  0.00000000000E+00 0. -1.
         21    1    1    2  505  506 -0.12252077588E+02 -0.11127683388E+03  0.38356242293E+02  0.11833785737E+03  0.00000000000E+00 0.  1.
         21    1    1    2  506  503  0.23698610572E+02  0.54904472564E+02 -0.89568075404E+02  0.10769663589E+03  0.00000000000E+00 0. -1.
<scales pt_clust_3="30.74396" pt_clust_4="99.39419" pt_clust_5="14000.00000" pt_clust_6="43.67497"></scales>
<clustering>
<clus scale="   30.744">  2  3  1 -1</clus>
<clus scale="   43.675">  2  6  1 -1</clus>
<clus scale="   99.394">  2  4  1 -1</clus>
<clus scale="   99.394">  1  3  2 -1</clus>
</clustering>
</event>
<event>
 6    0  0.2666600E+002  0.1095485E+03  0.7546771E-02  0.1261408E+00
         21   -1    0    0  504  501  0.00000000000E+00  0.00000000000E+00  0.49174622050E+03  0.49174622050E+03  0.00000000000E+00 0. -1.
         21   -1    0    0  505  502 -0.00000000000E+00 -0.00000000000E+00 -0.37198215282E+03  0.37198215282E+03  0.00000000000E+00 0.  1.
         21    1    1    2  503  506 -0.77532378703E+02 -0.85721289470E+01 -0.28880552674E+03  0.29915444743E+03  0.00000000000E+00 0.  1.
         21    1    1    2  504  503  0.64013783211E+02 -0.40370310600E+02  0.74327392764E+02  0.10607585839E+03  0.00000000000E+00 0. -1.
         21    1    1    2  505  501  0.43708370801E+02  0.78349124119E+02  0.38339439545E+03  0.39375153256E+03  0.00000000000E+00 0. -1.
         21    1    1    2  506  502 -0.30189775308E+02 -0.29406684572E+02 -0.49152193799E+02  0.64746534934E+02  0.00000000000E+00 0. -1.
<scales pt_clust_3="109.54846" pt_clust_4="75.21247" pt_clust_5="14000.00000" pt_clust_6="42.14470"></scales>
<clustering>
<clus scale="   42.145">  2  6  1 -1</clus>
<clus scale="   75.212">  1  4  2 -1</clus>
<clus scale="  109.548">  2  3  1 -1</clus>
<clus scale="   75.212">  1  3  2 -1</clus>
</clustering>
</event>
<event>
 6    0  0.2666600E+002  0.1583321E+03  0.7546771E-02  0.1190593E+00
         21   -1    0    0  503  501  0.00000000000E+00  0.00000000000E+00  0.20858763777E+03  0.20858763777E+03  0.00000000000E+00 0. -1.
         21   -1    0    0  504  502 -0.00000000000E+00 -0.00000000000E+00 -0.32903845888E+03  0.32903845888E+03  0.00000000000E+00 0.  1.
         21    1    1    2  503  505  0.15992376422E+03  0.63719050866E+02  0.10803414183E+03  0.20324149086E+03  0.00000000000E+00 0. -1.
         21    1    1    2  504  506 -0.13667925588E+02 -0.40139816509E+02 -0.14356861841E+02  0.44767583598E+02  0.00000000000E+00 0.  1.
         21    1    1    2  505  502 -0.84103819885E+02 -0.60272163800E+02 -0.18462938651E+03  0.21164639522E+03  0.00000000000E+00 0.  1.
         21    1    1    2  506  501 -0.62152018751E+02  0.36692929443E+02 -0.29498714593E+02  0.77970626960E+02  0.00000000000E+00 0.  1.
<scales pt_clust_3="158.33215" pt_clust_4="42.40303" pt_clust_5="14000.00000" pt_clust_6="71.01714"></scales>
<clustering>
<clus scale="   42.403">  2  4  1 -1</clus>
<clus scale="   71.017">  2  6  1 -1</clus>
<clus scale="  158.332">  1  3  2 -1</clus>
<clus scale="  158.332">  1  3  2 -1</clus>
</clustering>
</event>
<event>
 6    0  0.2666600E+002  0.1647584E+03  0.7546771E-02  0.1183427E+00
         21   -1    0    0  503  501  0.00000000000E+00  0.00000000000E+00  0.21628760415E+03  0.21628760415E+03  0.00000000000E+00 0.  1.
         21   -1    0    0  504  502 -0.00000000000E+00 -0.00000000000E+00 -0.63740609937E+03  0.63740609937E+03  0.00000000000E+00 0. -1.
         21    1    1    2  503  505  0.60379971327E+02 -0.13656239773E+02  0.80382669004E+02  0.10145741618E+03  0.00000000000E+00 0.  1.
         21    1    1    2  504  506 -0.29454286066E+02 -0.25510766295E+02 -0.11678798493E+03  0.12311696711E+03  0.00000000000E+00 0. -1.
         21    1    1    2  505  502  0.93446850194E+02  0.26894094255E+02  0.93467287010E+02  0.13487675803E+03  0.00000000000E+00 0.  1.
         21    1    1    2  506  501 -0.12437253545E+03  0.12272911813E+02 -0.47818046630E+03  0.49424256220E+03  0.00000000000E+00 0. -1.
<scales pt_clust_3="33.77708" pt_clust_4="32.11236" pt_clust_5="160.09383" pt_clust_6="32.11236"></scales>
<clustering>
<clus scale="   32.112">  4  6 -1 -1</clus>
<clus scale="   33.777">  3  5 -1 -1</clus>
<clus scale="  160.094">  1  3  2 -1</clus>
<clus scale="  160.094">  1  3  2 -1</clus>
</clustering>
</event>
<event>
 6    0  0.2666600E+002  0.1066726E+03  0.7546771E-02  0.1266859E+00
         21   -1    0    0  503  501  0.00000000000E+00  0.00000000000E+00  0.56908920467E+03  0.56908920467E+03  0.00000000000E+00 0.  1.
         21   -1    0    0  506  502 -0.00000000000E+00 -0.00000000000E+00 -0.50583458955E+02  0.50583458955E+02  0.00000000000E+00 0.  1.
         21    1    1    2  503  504 -0.66830482526E+01  0.33244125956E+02  0.19322436287E+02  0.39028087175E+02  0.00000000000E+00 0. -1.
         21    1    1    2  504  502 -0.59018904955E+02  0.34890257544E+02  0.12392939292E+02  0.69671702705E+02  0.00000000000E+00 0.  1.
         21    1    1    2  505  501 -0.36493840101E+02 -0.10407913811E+02  0.12164417766E+03  0.12742617861E+03  0.00000000000E+00 0. -1.
         21    1    1    2  506  505  0.10219579331E+03 -0.57726469689E+02  0.36514619247E+03  0.38354669513E+03  0.00000000000E+00 0.  1.
<scales pt_clust_3="30.25478" pt_clust_4="30.25478" pt_clust_5="37.94898" pt_clust_6="97.61305"></scales>
<clustering>
<clus scale="   30.255">  3  4 -1 -1</clus>
<clus scale="   37.949">  1  5  2 -1</clus>
<clus scale="   97.613">  1  6  2 -1</clus>
<clus scale="   37.949">  1  3  2 -1</clus>
</clustering>
</event>
<event>
 6    0  0.2666600E+002  0.1233460E+03  0.7546771E-02  0.1237677E+00
         21   -1    0    0  503  501  0.00000000000E+00  0.00000000000E+00  0.17256001845E+04  0.17256001845E+04  0.00000000000E+00 0.  1.
         21   -1    0    0  506  502 -0.00000000000E+00 -0.00000000000E+00 -0.30875427521E+03  0.30875427521E+03  0.00000000000E+00 0. -1.
         21    1    1    2  503  505  0.42833151518E+02  0.30321994312E+02  0.68914941873E+03  0.69114471968E+03  0.00000000000E+00 0.  1.
         21    1    1    2  504  501 -0.72305779934E+02  0.90784655781E+02  0.98109808293E+03  0.98793897983E+03  0.00000000000E+00 0.  1.
         21    1    1    2  505  502 -0.61455930138E+02 -0.36455636728E+02  0.17556878601E+01  0.71476760127E+02  0.00000000000E+00 0. -1.
         21    1    1    2  506  504  0.90928558554E+02 -0.84651013364E+02 -0.25515728023E+03  0.28379400007E+03  0.00000000000E+00 0. -1.
<scales pt_clust_3="52.47954" pt_clust_4="14000.00000" pt_clust_5="69.60557" pt_clust_6="123.34603"></scales>
<clustering>
<clus scale="   52.480">  1  3  2 -1</clus>
<clus scale="   69.606">  2  5  1 -1</clus>
<clus scale="  123.346">  2  6  1 -1</clus>
<clus scale="   52.480">  1  3  2 -1</clus>
</clustering>
</event>
<event>
 6    0  0.2666600E+002  0.1680820E+03  0.7546771E-02  0.1179863E+00
         21   -1    0    0  504  501  0.00000000000E+00  0.00000000000E+00  0.44563204180E+03  0.44563204180E+03  0.00000000000E+00 0.  1.
         21   -1    0    0  505  502 -0.00000000000E+00 -0.00000000000E+00 -0.76870973435E+03  0.76870973435E+03  0.00000000000E+00 0.  1.
         21    1    1    2  503  501 -0.81358804368E+02 -0.55599890654E+02  0.32260539539E+03  0.33732009135E+03  0.00000000000E+00 0.  1.
         21    1    1    2  504  502  0.10084644916E+03  0.11434241346E+03 -0.29362895512E+03  0.33085065680E+03  0.00000000000E+00 0.  1.
         21    1    1    2  505  506  0.73418849869E+02 -0.11235580705E+02 -0.41680137599E+03  0.42336739697E+03  0.00000000000E+00 0.  1.
         21    1    1    2  506  503 -0.92906494658E+02 -0.47506942098E+02  0.64747243161E+02  0.12280363103E+03  0.00000000000E+00 0.  1.
<scales pt_clust_3="97.40282" pt_clust_4="14000.00000" pt_clust_5="74.27359" pt_clust_6="168.08201"></scales>
<clustering>
<clus scale="   74.274">  2  5  1 -1</clus>
<clus scale="   97.403">  1  3  2 -1</clus>
<clus scale="  168.082">  1  6  2 -1</clus>
<clus scale="   97.403">  1  3  2 -1</clus>
</clustering>
</event>
<event>
 6    0  0.2666600E+002  0.1032222E+03  0.7546771E-02  0.1273662E+00
         21   -1    0    0  503  501  0.00000000000E+00  0.00000000000E+00  0.42575796278E+03  0.42575796278E+03  0.00000000000E+00 0. -1.
         21   -1    0    0  504  502 -0.00000000000E+00 -0.00000000000E+00 -0.55166551174E+02  0.55166551174E+02  0.00000000000E+00 0. -1.
         21    1    1    2  503  502 -0.33079866998E+02 -0.91467282480E+02  0.14126215680E+03  0.17150958664E+03  0.00000000000E+00 0. -1.
         21    1    1    2  504  506 -0.62470213153E+02  0.60086843061E+02  0.59359117055E+02  0.10505456210E+03  0.00000000000E+00 0. -1.
         21    1    1    2  505  501  0.57172776715E+02  0.44779993290E+02  0.11455282765E+03  0.13563305099E+03  0.00000000000E+00 0. -1.
         21    1    1    2  506  505  0.38377303436E+02 -0.13399553871E+02  0.55417310098E+02  0.68727314231E+02  0.00000000000E+00 0.  1.
<scales pt_clust_3="88.85980" pt_clust_4="86.67731" pt_clust_5="39.29607" pt_clust_6="39.29607"></scales>
<clustering>
<clus scale="   39.296">  5  6 -1 -1</clus>
<clus scale="   86.677">  2  4  1 -1</clus>
<clus scale="   88.860">  2  3  1 -1</clus>
<clus scale="  103.222">  1  3  2 -1</clus>
</clustering>
</event>
<event>
 6    0  0.2666600E+002  0.1483121E+03  0.7546771E-02  0.1202563E+00
         21   -1    0    0  505  501  0.00000000000E+00  0.00000000000E+00  0.62352072922E+03  0.62352072922E+03  0.00000000000E+00 0. -1.
         21   -1    0    0  506  502 -0.00000000000E+00 -0.00000000000E+00 -0.20714369505E+03  0.20714369505E+03  0.00000000000E+00 0. -1.
         21    1    1    2  503  502  0.10097304339E+03 -0.43753541347E+02 -0.16633634035E+03  0.19944349073E+03  0.00000000000E+00 0. -1.
         21    1    1    2  504  503 -0.95740346476E+02  0.29157384485E+02  0.36343078109E+03  0.37695928117E+03  0.00000000000E+00 0. -1.
         21    1    1    2  505  504 -0.12803757149E+02  0.47002689792E+02  0.21530285586E+03  0.22074534828E+03  0.00000000000E+00 0. -1.
         21    1    1    2  506  501  0.75710602316E+01 -0.32406532930E+02  0.39797375693E+01  0.33516304102E+02  0.00000000000E+00 0.  1.
<scales pt_clust_3="131.37900" pt_clust_4="47.92041" pt_clust_5="47.92041" pt_clust_6="33.27919"></scales>
<clustering>
<clus scale="   33.279">  2  6  1 -1</clus>
<clus scale="   47.920">  4  5 -1 -1</clus>
<clus scale="  131.379">  2  3  1 -1</clus>
<clus scale="  148.312">  1  3  2 -1</clus>
</clustering>
</event>
<event>
 6    0  0.2666600E+002  0.9676512E+02  0.7546771E-02  0.1287249E+00
         21   -1    0    0  504  501  0.00000000000E+00  0.00000000000E+00  0.70543487442E+03  0.70543487442E+03  0.00000000000E+00 0. -1.
         21   -1    0    0  506  502 -0.00000000000E+00 -0.00000000000E+00 -0.11160433429E+04  0.11160433429E+04  0.00000000000E+00 0.  1.
         21    1    1    2  503  501 -0.58110948183E+02 -0.46202029935E+02  0.59849987144E+03  0.60308673172E+03  0.00000000000E+00 0. -1.
         21    1    1    2  504  505  0.40025126667E+02 -0.50429116124E+02  0.89834262877E+02  0.11052285422E+03  0.00000000000E+00 0.  1.
         21    1    1    2  505  502  0.48216765228E+02  0.26653881312E+02 -0.66587358681E+03  0.66814887522E+03  0.00000000000E+00 0.  1.
         21    1    1    2  506  503 -0.30130943713E+02  0.69977264746E+02 -0.43306901595E+03  0.43971975613E+03  0.00000000000E+00 0.  1.
<scales pt_clust_3="96.76512" pt_clust_4="64.60422" pt_clust_5="55.09343" pt_clust_6="14000.00000"></scales>
<clustering>
<clus scale="   55.093">  2  5  1 -1</clus>
<clus scale="   64.604">  1  4  2 -1</clus>
<clus scale="   96.765">  1  3  2 -1</clus>
<clus scale="   64.604">  1  3  2 -1</clus>
</clustering>
</event>
<event>
 6    0  0.2666600E+002  0.2751932E+03  0.7546771E-02  0.1098344E+00
         21   -1    0    0  504  501  0.00000000000E+00  0.00000000000E+00  0.31098566116E+03  0.31098566116E+03  0.00000000000E+00 0.  1.
         21   -1    0    0  505  502 -0.00000000000E+00 -0.00000000000E+00 -0.77301947634E+03  0.77301947634E+03  0.00000000000E+00 0.  1.
         21    1    1    2  503  502  0.13998636863E+03 -0.31831755171E+01 -0.44129927927E+03  0.46298096061E+03  0.00000000000E+00 0.  1.
         21    1    1    2  504  506 -0.25223707455E+02 -0.17078929887E+02  0.19913086443E+02  0.36393080050E+02  0.00000000000E+00 0. -1.
         21    1    1    2  505  501 -0.27880370966E+03  0.13797270696E+03  0.11294650770E+03  0.33094544865E+03  0.00000000000E+00 0.  1.
         21    1    1    2  506  503  0.16404104848E+03 -0.11771060155E+03 -0.15359413006E+03  0.25368564818E+03  0.00000000000E+00 0.  1.
<scales pt_clust_3="139.07252" pt_clust_4="30.46187" pt_clust_5="275.19324" pt_clust_6="14000.00000"></scales>
<clustering>
<clus scale="   30.462">  1  4  2 -1</clus>
<clus scale="  139.073">  2  3  1 -1</clus>
<clus scale="  275.193">  1  5  2 -1</clus>
<clus scale="   30.462">  1  3  2 -1</clus>
</clustering>
</event>
<event>
 6    0  0.2666600E+002  0.1497770E+03  0.7546771E-02  0.1200747E+00
         21   -1    0    0  504  501  0.00000000000E+00  0.00000000000E+00  0.44525776000E+02  0.44525776000E+02  0.00000000000E+00 0.  1.
         21   -1    0    0  503  502 -0.00000000000E+00 -0.00000000000E+00 -0.95237700201E+03  0.95237700201E+03  0.00000000000E+00 0.  1.
         21    1    1    2  503  506 -0.83425190144E+01 -0.82115083610E+02 -0.57014327655E+03  0.57608666048E+03  0.00000000000E+00 0.  1.
         21    1    1    2  504  505  0.23476667873E+02  0.32886157526E+02 -0.62032096095E+02  0.74031305791E+02  0.00000000000E+00 0. -1.
         21    1    1    2  505  502  0.39547679969E+01  0.10053150368E+03 -0.45911061593E+02  0.11058955194E+03  0.00000000000E+00 0.  1.
         21    1    1    2  506  501 -0.19088916856E+02 -0.51302577598E+02 -0.22976479177E+03  0.23619525980E+03  0.00000000000E+00 0.  1.
<scales pt_clust_3="141.24093" pt_clust_4="39.47677" pt_clust_5="39.47677" pt_clust_6="30.43001"></scales>
<clustering>
<clus scale="   30.430">  3  6 -1 -1</clus>
<clus scale="   39.477">  4  5 -1 -1</clus>
<clus scale="  141.241">  2  3  1 -1</clus>
<clus scale="  149.777">  1  3  2 -1</clus>
</clustering>
</event>
<event>
 6    0  0.2666600E+002  0.1394188E+03  0.7546771E-02  0.1214113E+00
         21   -1    0    0  506  501  0.00000000000E+00  0.00000000000E+00  0.21992649817E+03  0.21992649817E+03  0.00000000000E+00 0. -1.
         21   -1    0    0  503  502 -0.00000000000E+00 -0.00000000000E+00 -0.74418130425E+03  0.74418130425E+03  0.00000000000E+00 0.  1.
         21    1    1    2  503  501 -0.62546842067E+01  0.22394278947E+03  0.10652587900E+03  0.24806704119E+03  0.00000000000E+00 0. -1.
         21    1    1    2  504  505  0.58387732943E+02 -0.86871989134E+02 -0.46284408328E+03  0.47453189069E+03  0.00000000000E+00 0.  1.
         21    1    1    2  505  502 -0.55760724735E+02 -0.54627668909E+02 -0.12777336529E+03  0.14973133777E+03  0.00000000000E+00 0.  1.
         21    1    1    2  506  504  0.36276759984E+01 -0.82443131426E+02 -0.40163236511E+02  0.91777532760E+02  0.00000000000E+00 0.  1.
<scales pt_clust_3="14000.00000" pt_clust_4="139.41882" pt_clust_5="78.06049" pt_clust_6="88.42952"></scales>
<clustering>
<clus scale="   78.060">  2  5  1 -1</clus>
<clus scale="   88.430">  1  6  2 -1</clus>
<clus scale="  139.419">  2  4  1 -1</clus>
<clus scale="   88.430">  1  3  2 -1</clus>
</clustering>
</event>
<event>
 6    0  0.2666600E+002  0.1046644E+03  0.7546771E-02  0.1270782E+00
         21   -1    0    0  505  501  0.00000000000E+00  0.00000000000E+00  0.92287634853E+02  0.92287634853E+02  0.00000000000E+00 0.  1.
         21   -1    0    0  503  502 -0.00000000000E+00 -0.00000000000E+00 -0.65167142955E+03  0.65167142955E+03  0.00000000000E+00 0.  1.
         21    1    1    2  503  506  0.10566404610E+03 -0.20843282119E+02 -0.43886410518E+03  0.45188608726E+03  0.00000000000E+00 0.  1.
         21    1    1    2  504  501  0.17430622835E+02 -0.40022959757E+02  0.38937989070E+02  0.58496417949E+02  0.00000000000E+00 0.  1.
         21    1    1    2  505  502 -0.78576326518E+02  0.76071771680E+02 -0.14992563482E+03  0.18557707162E+03  0.00000000000E+00 0.  1.
         21    1    1    2  506  504 -0.44518342415E+02 -0.15205529804E+02 -0.95320437608E+01  0.47999487563E+02  0.00000000000E+00 0.  1.
<scales pt_clust_3="104.66437" pt_clust_4="43.65391" pt_clust_5="14000.00000" pt_clust_6="49.36235"></scales>
<clustering>
<clus scale="   43.654">  1  4  2 -1</clus>
<clus scale="   49.362">  1  6  2 -1</clus>
<clus scale="  104.664">  2  3  1 -1</clus>
<clus scale="   43.654">  1  3  2 -1</clus>
</clustering>
</event>
<event>
 6    0  0.2666600E+002  0.1231773E+03  0.7546771E-02  0.1237946E+00
         21   -1    0    0  504  501  0.00000000000E+00  0.00000000000E+00  0.15331165900E+03  0.15331165900E+03  0.00000000000E+00 0.  1.
         21   -1    0    0  506  502 -0.00000000000E+00 -0.00000000000E+00 -0.43040264751E+03  0.43040264751E+03  0.00000000000E+00 0.  1.
         21    1    1    2  503  502  0.94920324489E+02  0.83702240409E+02 -0.16342789329E+03  0.20669932113E+03  0.00000000000E+00 0.  1.
         21    1    1    2  504  503  0.57398326949E+02  0.73713120696E+02  0.23720749072E+02  0.96389138577E+02  0.00000000000E+00 0.  1.
         21    1    1    2  505  501 -0.11080835349E+03 -0.36261312987E+02 -0.67948085600E+02  0.13494560518E+03  0.00000000000E+00 0.  1.
         21    1    1    2  506  505 -0.41510297951E+02 -0.12115404812E+03 -0.69435758690E+02  0.14568024161E+03  0.00000000000E+00 0.  1.
<scales pt_clust_3="123.17732" pt_clust_4="93.42479" pt_clust_5="90.71930" pt_clust_6="14000.00000"></scales>
<clustering>
<clus scale="   93.425">  1  4  2 -1</clus>
<clus scale="   90.719">  1  5  2 -1</clus>
<clus scale="  123.177">  2  3  1 -1</clus>
<clus scale="   93.425">  1  3  2 -1</clus>
</clustering>
</event>
<event>
 6    0  0.2666600E+002  0.9157896E+02  0.7546771E-02  0.1299072E+00
         21   -1    0    0  504  501  0.00000000000E+00  0.00000000000E+00  0.10631083183E+04  0.10631083183E+04  0.00000000000E+00 0.  1.
         21   -1    0    0  506  502 -0.00000000000E+00 -0.00000000000E+00 -0.67158209640E+02  0.67158209640E+02  0.00000000000E+00 0.  1.
         21    1    1    2  503  501 -0.68840598057E+01  0.93005358282E+02  0.87675262389E+03  0.88169867327E+03  0.00000000000E+00 0.  1.
         21    1    1    2  504  502  0.51403222891E+02 -0.43974626822E+02  0.11009754177E+03  0.12921891437E+03  0.00000000000E+00 0.  1.
         21    1    1    2  505  503 -0.69951110069E+01 -0.60711089338E+02 -0.26229096758E+02  0.66503634963E+02  0.00000000000E+00 0.  1.
         21    1    1    2  506  505 -0.37524052079E+02  0.11680357878E+02  0.35329039727E+02  0.52845305303E+02  0.00000000000E+00 0.  1.
<scales pt_clust_3="14000.00000" pt_clust_4="61.78778" pt_clust_5="91.57896" pt_clust_6="39.29994"></scales>
<clustering>
<clus scale="   39.300">  2  6  1 -1</clus>
<clus scale="   61.788">  2  4  1 -1</clus>
<clus scale="   91.579">  2  5  1 -1</clus>
<clus scale="   91.579">  1  3  2 -1</clus>
</clustering>
</event>
<event>
 6    0  0.2666600E+002  0.8081518E+02  0.7546771E-02  0.1326754E+00
         21   -1    0    0  505  501  0.00000000000E+00  0.00000000000E+00  0.48861767391E+03  0.48861767391E+03  0.00000000000E+00 0. -1.
         21   -1    0    0  506  502 -0.00000000000E+00 -0.00000000000E+00 -0.55737648799E+03  0.55737648799E+03  0.00000000000E+00 0. -1.
         21    1    1    2  503  501  0.14968439545E+02 -0.67843441158E+02  0.13368088166E+03  0.15065644630E+03  0.00000000000E+00 0. -1.
         21    1    1    2  504  502 -0.29844911907E+02 -0.64050627308E+02 -0.81096202596E+02  0.10756298481E+03  0.00000000000E+00 0. -1.
         21    1    1    2  505  504 -0.67908574768E+02  0.98053230771E+02  0.31788967855E+03  0.33952887700E+03  0.00000000000E+00 0. -1.
         21    1    1    2  506  503  0.82785047130E+02  0.33840837695E+02 -0.43923317169E+03  0.44824585379E+03  0.00000000000E+00 0. -1.
<scales pt_clust_3="69.47508" pt_clust_4="14000.00000" pt_clust_5="63.39548" pt_clust_6="80.81518"></scales>
<clustering>
<clus scale="   69.475">  1  3  2 -1</clus>
<clus scale="   63.395">  1  5  2 -1</clus>
<clus scale="   80.815">  2  6  1 -1</clus>
<clus scale="   69.475">  1  3  2 -1</clus>
</clustering>
</event>
<event>
 6    0  0.2666600E+002  0.1125677E+03  0.7546771E-02  0.1255887E+00
         21   -1    0    0  504  501  0.00000000000E+00  0.00000000000E+00  0.11726542624E+03  0.11726542624E+03  0.00000000000E+00 0.  1.
         21   -1    0    0  503  502 -0.00000000000E+00 -0.00000000000E+00 -0.23961340090E+03  0.23961340090E+03  0.00000000000E+00 0.  1.
         21    1    1    2  503  506  0.28105715674E+02  0.68817120103E+02 -0.35426422881E+02  0.82345362413E+02  0.00000000000E+00 0.  1.
         21    1    1    2  504  505 -0.54144796244E+02 -0.61597053680E+02 -0.10265542056E+03  0.13139250874E+03  0.00000000000E+00 0.  1.
         21    1    1    2  505  502 -0.30252849961E+02 -0.51035090735E+02 -0.20961225621E+02  0.62922081947E+02  0.00000000000E+00 0.  1.
         21    1    1    2  506  501  0.56291930531E+02  0.43815024312E+02  0.36695094409E+02  0.80218874039E+02  0.00000000000E+00 0.  1.
<scales pt_clust_3="100.01681" pt_clust_4="43.93351" pt_clust_5="43.93351" pt_clust_6="71.33399"></scales>
<clustering>
<clus scale="   43.934">  4  5 -1 -1</clus>
<clus scale="   71.334">  1  6  2 -1</clus>
<clus scale="  100.017">  2  3  1 -1</clus>
<clus scale="   71.334">  1  3  2 -1</clus>
</clustering>
</event>
<event>
 6    0  0.2666600E+002  0.1706265E+03  0.7546771E-02  0.1177196E+00
         21   -1    0    0  506  501  0.00000000000E+00  0.00000000000E+00  0.47287149612E+03  0.47287149612E+03  0.00000000000E+00 0. -1.
         21   -1    0    0  504  502 -0.00000000000E+00 -0.00000000000E+00 -0.11555794097E+03  0.11555794097E+03  0.00000000000E+00 0. -1.
         21    1    1    2  503  502 -0.10672171944E+03 -0.23438271747E+02  0.71724455182E+02  0.13070300477E+03  0.00000000000E+00 0. -1.
         21    1    1    2  504  501 -0.29172386155E+02  0.13856188221E+03  0.40680875335E+02  0.14732738012E+03  0.00000000000E+00 0. -1.
         21    1    1    2  505  503  0.36481490320E+02 -0.76839534069E+01  0.20711758748E+02  0.42648789272E+02  0.00000000000E+00 0.  1.
         21    1    1    2  506  505  0.99412615279E+02 -0.10743965706E+03  0.22419646588E+03  0.26775026293E+03  0.00000000000E+00 0. -1.
<scales pt_clust_3="109.26517" pt_clust_4="156.41780" pt_clust_5="34.40281" pt_clust_6="34.40281"></scales>
<clustering>
<clus scale="   34.403">  5  6 -1 -1</clus>
<clus scale="  109.265">  2  3  1 -1</clus>
<clus scale="  156.418">  2  4  1 -1</clus>
<clus scale="  170.627">  1  3  2 -1</clus>
</clustering>
</event>
<event>
 6    0  0.2666600E+002  0.1427080E+03  0.7546771E-02  0.1209731E+00
         21   -1    0    0  504  501  0.00000000000E+00  0.00000000000E+00  0.18544038657E+03  0.18544038657E+03  0.00000000000E+00 0.  1.
         21   -1    0    0  506  502 -0.00000000000E+00 -0.00000000000E+00 -0.18712233762E+03  0.18712233762E+03  0.00000000000E+00 0.  1.
         21    1    1    2  503  501  0.30381772601E+02 -0.16282081821E+02  0.33413563684E+02  0.48006505110E+02  0.00000000000E+00 0.  1.
         21    1    1    2  504  502 -0.16475275164E+03  0.31301305207E+02 -0.29789356490E+02  0.17032512040E+03  0.00000000000E+00 0.  1.
         21    1    1    2  505  503  0.12261623852E+03  0.13040381829E+02  0.23694344260E+00  0.12330794641E+03  0.00000000000E+00 0.  1.
         21    1    1    2  506  505  0.11754740516E+02 -0.28059605214E+02 -0.55431016840E+01  0.30923152260E+02  0.00000000000E+00 0.  1.
<scales pt_clust_3="35.49957" pt_clust_4="14000.00000" pt_clust_5="142.70797" pt_clust_6="30.42228"></scales>
<clustering>
<clus scale="   30.422">  2  6  1 -1</clus>
<clus scale="   35.500">  1  3  2 -1</clus>
<clus scale="  142.708">  1  5  2 -1</clus>
<clus scale="   35.500">  1  3  2 -1</clus>
</clustering>
</event>
<event>
 6    0  0.2666600E+002  0.9840443E+02  0.7546771E-02  0.1283687E+00
         21   -1    0    0  503  501  0.00000000000E+00  0.00000000000E+00  0.15903360885E+04  0.15903360885E+04  0.00000000000E+00 0.  1.
         21   -1    0    0  505  502 -0.00000000000E+00 -0.00000000000E+00 -0.80961037743E+02  0.80961037743E+02  0.00000000000E+00 0.  1.
         21    1    1    2  503  504  0.26901040449E+02 -0.42087656376E+02  0.10536823608E+04  0.10548656570E+04  0.00000000000E+00 0.  1.
         21    1    1    2  504  506  0.33872203021E+02 -0.25834054131E+02  0.45106176288E+03  0.45306891134E+03  0.00000000000E+00 0.  1.
         21    1    1    2  505  501 -0.34355432481E+02  0.10819841034E+03  0.13710554710E+02  0.11434671421E+03  0.00000000000E+00 0.  1.
         21    1    1    2  506  502 -0.26417810990E+02 -0.40276699834E+02 -0.90796277226E+01  0.49015843628E+02  0.00000000000E+00 0.  1.
<scales pt_clust_3="33.36147" pt_clust_4="33.36147" pt_clust_5="91.53356" pt_clust_6="48.16755"></scales>
<clustering>
<clus scale="   33.361">  3  4 -1 -1</clus>
<clus scale="   48.168">  2  6  1 -1</clus>
<clus scale="   91.534">  2  5  1 -1</clus>
<clus scale="   98.404">  1  3  2 -1</clus>
</clustering>
</event>
<event>
 6    0  0.2666600E+002  0.1780570E+03  0.7546771E-02  0.1169697E+00
         21   -1    0    0  506  501  0.00000000000E+00  0.00000000000E+00  0.39393904451E+03  0.39393904451E+03  0.00000000000E+00 0.  1.
         21   -1    0    0  503  502 -0.00000000000E+00 -0.00000000000E+00 -0.28177520898E+04  0.28177520898E+04  0.00000000000E+00 0. -1.
         21    1    1    2  503  504 -0.49669745796E+02 -0.10689063412E+03  0.16973563521E+03  0.20664674488E+03  0.00000000000E+00 0.  1.
         21    1    1    2  504  501  0.30622189890E+02 -0.62747089881E+02  0.19687636909E+03  0.20889045098E+03  0.00000000000E+00 0.  1.
         21    1    1    2  505  502 -0.45218398551E+01  0.49424595727E+02 -0.11962307019E+04  0.11972598422E+04  0.00000000000E+00 0.  1.
         21    1    1    2  506  505  0.23569395761E+02  0.12021312827E+03 -0.15941943478E+04  0.15988940963E+04  0.00000000000E+00 0. -1.
<scales pt_clust_3="169.82102" pt_clust_4="69.82060" pt_clust_5="34.07037" pt_clust_6="34.07037"></scales>
<clustering>
<clus scale="   34.070">  5  6 -1 -1</clus>
<clus scale="   69.821">  1  4  2 -1</clus>
<clus scale="  169.821">  1  3  2 -1</clus>
<clus scale="   69.821">  1  3  2 -1</clus>
</clustering>
</event>
<event>
 6    0  0.2666600E+002  0.1135777E+03  0.7546771E-02  0.1254084E+00
         21   -1    0    0  505  501  0.00000000000E+00  0.00000000000E+00  0.66062209928E+02  0.66062209928E+02  0.00000000000E+00 0. -1.
         21   -1    0    0  503  502 -0.00000000000E+00 -0.00000000000E+00 -0.81055767875E+03  0.81055767875E+03  0.00000000000E+00 0. -1.
         21    1    1    2  503  506  0.23635917817E+02 -0.93703131237E+02 -0.53293384673E+03  0.54162479486E+03  0.00000000000E+00 0. -1.
         21    1    1    2  504  502 -0.34907032487E+02 -0.26960385823E+02 -0.17275162900E+03  0.17829326583E+03  0.00000000000E+00 0. -1.
         21    1    1    2  505  504  0.45714955851E+02  0.10126762220E+03 -0.37089085342E+02  0.11713491686E+03  0.00000000000E+00 0. -1.
         21    1    1    2  506  501 -0.34443841181E+02  0.19395894857E+02 -0.17209077499E+01  0.39566911126E+02  0.00000000000E+00 0. -1.
<scales pt_clust_3="14000.00000" pt_clust_4="45.06255" pt_clust_5="113.57769" pt_clust_6="39.52947"></scales>
<clustering>
<clus scale="   39.529">  1  6  2 -1</clus>
<clus scale="   45.063">  2  4  1 -1</clus>
<clus scale="  113.578">  1  5  2 -1</clus>
<clus scale="   39.529">  1  3  2 -1</clus>
</clustering>
</event>
<event>
 6    0  0.2666600E+002  0.2370765E+03  0.7546771E-02  0.1121756E+00
         21   -1    0    0  504  501  0.00000000000E+00  0.00000000000E+00  0.82984246035E+03  0.82984246035E+03  0.00000000000E+00 0. -1.
         21   -1    0    0  505  502 -0.00000000000E+00 -0.00000000000E+00 -0.43532662753E+03  0.43532662753E+03  0.00000000000E+00 0. -1.
         21    1    1    2  503  501 -0.13690425657E+03 -0.20182982944E+03  0.74228102889E+03  0.78131887304E+03  0.00000000000E+00 0. -1.
         21    1    1    2  504  502  0.40192167151E+02  0.20326913335E+02  0.19972682951E+02  0.49269684090E+02  0.00000000000E+00 0.  1.
         21    1    1    2  505  506  0.28869668627E+02  0.32610405763E+02 -0.18161120282E+03  0.18676060966E+03  0.00000000000E+00 0. -1.
         21    1    1    2  506  503  0.67842420795E+02  0.14889251034E+03 -0.18612667619E+03  0.24781992108E+03  0.00000000000E+00 0. -1.
<scales pt_clust_3="237.07647" pt_clust_4="47.41028" pt_clust_5="43.55337" pt_clust_6="14000.00000"></scales>
<clustering>
<clus scale="   43.553">  2  5  1 -1</clus>
<clus scale="   47.410">  2  4  1 -1</clus>
<clus scale="  237.076">  1  3  2 -1</clus>
<clus scale="  237.076">  1  3  2 -1</clus>
</clustering>
</event>
<event>
 6    0  0.2666600E+002  0.1238614E+03  0.7546771E-02  0.1236859E+00
         21   -1    0    0  505  501  0.00000000000E+00  0.00000000000E+00  0.42157563765E+02  0.42157563765E+02  0.00000000000E+00 0.  1.
         21   -1    0    0  504  502 -0.00000000000E+00 -0.00000000000E+00 -0.59520799605E+03  0.59520799605E+03  0.00000000000E+00 0.  1.
         21    1    1    2  503  506  0.50058004228E+02  0.93090632859E+01 -0.10279884029E+03  0.11471732219E+03  0.00000000000E+00 0.  1.
         21    1    1    2  504  503 -0.99670197842E+02  0.28438975777E+02 -0.25494931958E+03  0.27521278901E+03  0.00000000000E+00 0.  1.
         21    1    1    2  505  502 -0.29619231665E+02 -0.57199733778E+02 -0.12104689639E+03  0.13711841435E+03  0.00000000000E+00 0.  1.
         21    1    1    2  506  501  0.79231425278E+02  0.19451694715E+02 -0.74255376031E+02  0.11031703426E+03  0.00000000000E+00 0.  1.
<scales pt_clust_3="33.04157" pt_clust_4="116.58614" pt_clust_5="64.41357" pt_clust_6="33.04157"></scales>
<clustering>
<clus scale="   33.042">  3  6 -1 -1</clus>
<clus scale="   64.414">  2  5  1 -1</clus>
<clus scale="  116.586">  2  4  1 -1</clus>
<clus scale="  123.861">  1  3  2 -1</clus>
</clustering>
</event>
<event>
 6    0  0.2666600E+002  0.1966212E+03  0.7546771E-02  0.1152621E+00
         21   -1    0    0  503  501  0.00000000000E+00  0.00000000000E+00  0.60814036068E+03  0.60814036068E+03  0.00000000000E+00 0.  1.
         21   -1    0    0  501  502 -0.00000000000E+00 -0.00000000000E+00 -0.10296132509E+03  0.10296132509E+03  0.00000000000E+00 0.  1.
         21    1    1    2  503  504 -0.49138961045E+02 -0.99285344024E+02  0.35333771076E+03  0.37029684697E+03  0.00000000000E+00 0.  1.
         21    1    1    2  504  506 -0.14147894379E+02 -0.76070054919E+02  0.12683749840E+03  0.14857512299E+03  0.00000000000E+00 0.  1.
         21    1    1    2  505  502  0.52906571780E+02  0.97933411828E+02  0.41895727623E+01  0.11138945646E+03  0.00000000000E+00 0.  1.
         21    1    1    2  506  505  0.10380283645E+02  0.77421987115E+02  0.20814253667E+02  0.80840259358E+02  0.00000000000E+00 0.  1.
<scales pt_clust_3="52.22602" pt_clust_4="52.22602" pt_clust_5="190.59662" pt_clust_6="33.21774"></scales>
<clustering>
<clus scale="   33.218">  5  6 -1 -1</clus>
<clus scale="   52.226">  3  4 -1 -1</clus>
<clus scale="  190.597">  2  5  1 -1</clus>
<clus scale="  196.621">  1  3  2 -1</clus>
</clustering>
</event>
<event>
 6    0  0.2666600E+002  0.1224343E+03  0.7546771E-02  0.1239134E+00
         21   -1    0    0  504  501  0.00000000000E+00  0.00000000000E+00  0.76273095410E+02  0.76273095410E+02  0.00000000000E+00 0. -1.
         21   -1    0    0  503  502 -0.00000000000E+00 -0.00000000000E+00 -0.40538193818E+03  0.40538193818E+03  0.00000000000E+00 0.  1.
         21    1    1    2  503  505  0.49033921521E+02  0.11833036519E+02 -0.11825604676E+03  0.12856453169E+03  0.00000000000E+00 0.  1.
         21    1    1    2  504  502 -0.61170586762E+02  0.36395122654E+02  0.13501174948E+02  0.72448101168E+02  0.00000000000E+00 0. -1.
         21    1    1    2  505  506  0.76613088426E+02 -0.39675826804E+02 -0.18624713935E+03  0.20526016044E+03  0.00000000000E+00 0.  1.
         21    1    1    2  506  501 -0.64476423186E+02 -0.85523323691E+01 -0.38106831612E+02  0.75382240291E+02  0.00000000000E+00 0. -1.
<scales pt_clust_3="35.48981" pt_clust_4="113.29521" pt_clust_5="35.48981" pt_clust_6="65.04115"></scales>
<clustering>
<clus scale="   35.490">  3  5 -1 -1</clus>
<clus scale="   65.041">  1  6  2 -1</clus>
<clus scale="  113.295">  1  4  2 -1</clus>
<clus scale="   65.041">  1  3  2 -1</clus>
</clustering>
</event>
<event>
 6    0  0.2666600E+002  0.9154197E+02  0.7546771E-02  0.1299160E+00
         21   -1    0    0  506  501  0.00000000000E+00  0.00000000000E+00  0.28567087823E+03  0.28567087823E+03  0.00000000000E+00 0. -1.
         21   -1    0    0  504  502 -0.00000000000E+00 -0.00000000000E+00 -0.21496785425E+03  0.21496785425E+03  0.00000000000E+00 0.  1.
         21    1    1    2  503  501  0.32920972666E+02  0.96787617347E+02  0.12345006555E+03  0.16028584466E+03  0.00000000000E+00 0. -1.
         21    1    1    2  504  503  0.35791152551E+02 -0.58078076628E+02 -0.14981325704E+03  0.16461494942E+03  0.00000000000E+00 0.  1.
         21    1    1    2  505  502  0.18366911297E+01 -0.33461056676E+02 -0.19949259377E+02  0.38999855101E+02  0.00000000000E+00 0.  1.
         21    1    1    2  506  505 -0.70548816347E+02 -0.52484840424E+01  0.11701547485E+03  0.13673808331E+03  0.00000000000E+00 0.  1.
<scales pt_clust_3="14000.00000" pt_clust_4="91.54197" pt_clust_5="33.51143" pt_clust_6="70.80079"></scales>
<clustering>
<clus scale="   33.511">  2  5  1 -1</clus>
<clus scale="   70.801">  1  6  2 -1</clus>
<clus scale="   91.542">  2  4  1 -1</clus>
<clus scale="   70.801">  1  3  2 -1</clus>
</clustering>
</event>
<event>
 6    0  0.2666600E+002  0.1429645E+03  0.7546771E-02  0.1209395E+00
         21   -1    0    0  505  501  0.00000000000E+00  0.00000000000E+00  0.20946419899E+04  0.20946419899E+04  0.00000000000E+00 0. -1.
         21   -1    0    0  504  502 -0.00000000000E+00 -0.00000000000E+00 -0.31003022425E+02  0.31003022425E+02  0.00000000000E+00 0. -1.
         21    1    1    2  503  501 -0.42818364487E+02 -0.27511243843E+02  0.78759555882E+03  0.78923826893E+03  0.00000000000E+00 0. -1.
         21    1    1    2  504  506  0.46495789408E+02  0.13287747297E+03  0.24812873663E+03  0.28528258130E+03  0.00000000000E+00 0. -1.
         21    1    1    2  505  502  0.42234826400E+02 -0.27331813946E+02  0.57113432870E+02  0.76110136176E+02  0.00000000000E+00 0. -1.
         21    1    1    2  506  503 -0.45912251321E+02 -0.78034415178E+02  0.97080123912E+03  0.97501402588E+03  0.00000000000E+00 0. -1.
<scales pt_clust_3="30.11971" pt_clust_4="137.20421" pt_clust_5="50.30714" pt_clust_6="30.11971"></scales>
<clustering>
<clus scale="   30.120">  3  6 -1 -1</clus>
<clus scale="   50.307">  2  5  1 -1</clus>
<clus scale="  137.204">  2  4  1 -1</clus>
<clus scale="  142.964">  1  3  2 -1</clus>
</clustering>
</event>
<event>
 6    0  0.2666600E+002  0.1043947E+03  0.7546771E-02  0.1271317E+00
         21   -1    0    0  503  501  0.00000000000E+00  0.00000000000E+00  0.14626296808E+04  0.14626296808E+04  0.00000000000E+00 0. -1.
         21   -1    0    0  505  502 -0.00000000000E+00 -0.00000000000E+00 -0.48660045765E+03  0.48660045765E+03  0.00000000000E+00 0.  1.
         21    1    1    2  503  506  0.18605767034E+02  0.64775371692E+02  0.13166989817E+04  0.13184226302E+04  0.00000000000E+00 0. -1.
         21    1    1    2  504  502 -0.15287515066E+03  0.68200116300E+02 -0.32872603699E+03  0.36889412431E+03  0.00000000000E+00 0.  1.
         21    1    1    2  505  501  0.49540016225E+02 -0.70359709963E+02 -0.94689337506E+02  0.12794832016E+03  0.00000000000E+00 0.  1.
         21    1    1    2  506  504  0.84729367405E+02 -0.62615778029E+02  0.82745615914E+02  0.13396506377E+03  0.00000000000E+00 0. -1.
<scales pt_clust_3="67.39453" pt_clust_4="14000.00000" pt_clust_5="81.42984" pt_clust_6="104.39474"></scales>
<clustering>
<clus scale="   67.395">  1  3  2 -1</clus>
<clus scale="   81.430">  2  5  1 -1</clus>
<clus scale="  104.395">  1  6  2 -1</clus>
<clus scale="   67.395">  1  3  2 -1</clus>
</clustering>
</event>
<event>
 6    0  0.2666600E+002  0.1122542E+03  0.7546771E-02  0.1256452E+00
         21   -1    0    0  506  501  0.00000000000E+00  0.00000000000E+00  0.79626535122E+02  0.79626535122E+02  0.00000000000E+00 0.  1.
         21   -1    0    0  503  502 -0.00000000000E+00 -0.00000000000E+00 -0.56050453482E+03  0.56050453482E+03  0.00000000000E+00 0.  1.
         21    1    1    2  503  505 -0.53436537844E+02  0.44147147653E+01 -0.75046834523E+02  0.92233294721E+02  0.00000000000E+00 0.  1.
         21    1    1    2  504  502  0.83651972086E+02 -0.57786075254E+02 -0.19033600954E+03  0.21578850631E+03  0.00000000000E+00 0.  1.
         21    1    1    2  505  501 -0.36346045616E+01  0.12809249184E+03 -0.31808529920E+02  0.13203287239E+03  0.00000000000E+00 0.  1.
         21    1    1    2  506  504 -0.26580829681E+02 -0.74721131354E+02 -0.18368662571E+03  0.20007639651E+03  0.00000000000E+00 0.  1.
<scales pt_clust_3="53.61859" pt_clust_4="82.66782" pt_clust_5="14000.00000" pt_clust_6="112.25420"></scales>
<clustering>
<clus scale="   53.619">  2  3  1 -1</clus>
<clus scale="   82.668">  2  4  1 -1</clus>
<clus scale="  112.254">  2  6  1 -1</clus>
<clus scale="  112.254">  1  3  2 -1</clus>
</clustering>
</event>
<event>
 6    0  0.2666600E+002  0.9902264E+02  0.7546771E-02  0.1282365E+00
         21   -1    0    0  506  501  0.00000000000E+00  0.00000000000E+00  0.57453833350E+03  0.57453833350E+03  0.00000000000E+00 0.  1.
         21   -1    0    0  505  502 -0.00000000000E+00 -0.00000000000E+00 -0.18214174319E+03  0.18214174319E+03  0.00000000000E+00 0.  1.
         21    1    1    2  503  501  0.96873387618E+02  0.37620689442E+02  0.45671875646E+03  0.46839277535E+03  0.00000000000E+00 0.  1.
         21    1    1    2  504  502  0.21754911199E+02 -0.26675445622E+02 -0.10175868853E+03  0.10742293168E+03  0.00000000000E+00 0.  1.
         21    1    1    2  505  503 -0.29948034954E+02 -0.13541957819E+02 -0.47684949690E+02  0.57914798162E+02  0.00000000000E+00 0.  1.
         21    1    1    2  506  504 -0.88680263862E+02  0.25967139993E+01  0.85121472073E+02  0.12294957149E+03  0.00000000000E+00 0.  1.
<scales pt_clust_3="14000.00000" pt_clust_4="37.70647" pt_clust_5="32.86745" pt_clust_6="99.02264"></scales>
<clustering>
<clus scale="   32.867">  2  5  1 -1</clus>
<clus scale="   37.706">  2  4  1 -1</clus>
<clus scale="   99.023">  2  6  1 -1</clus>
<clus scale="   99.023">  1  3  2 -1</clus>
</clustering>
</event>
<event>
 6    0  0.2666600E+002  0.1324198E+03  0.7546771E-02  0.1223909E+00
         21   -1    0    0  503  501  0.00000000000E+00  0.00000000000E+00  0.33575044724E+03  0.33575044724E+03  0.00000000000E+00 0. -1.
         21   -1    0    0  504  502 -0.00000000000E+00 -0.00000000000E+00 -0.48391071458E+03  0.48391071458E+03  0.00000000000E+00 0.  1.
         21    1    1    2  503  502 -0.50491410773E+02 -0.21357349683E+02  0.16985412819E+02  0.57393581488E+02  0.00000000000E+00 0. -1.
         21    1    1    2  504  506  0.56812016592E+01 -0.32256594773E+02 -0.15052073839E+03  0.15404303504E+03  0.00000000000E+00 0.  1.
         21    1    1    2  505  501 -0.56565010183E+02  0.10568283552E+03  0.27337247785E+03  0.29849786221E+03  0.00000000000E+00 0. -1.
         21    1    1    2  506  505  0.10137521930E+03 -0.52068891061E+02 -0.28799741962E+03  0.30972668308E+03  0.00000000000E+00 0.  1.
<scales pt_clust_3="55.30363" pt_clust_4="32.75308" pt_clust_5="14000.00000" pt_clust_6="132.41984"></scales>
<clustering>
<clus scale="   32.753">  2  4  1 -1</clus>
<clus scale="   55.304">  1  3  2 -1</clus>
<clus scale="  132.420">  2  6  1 -1</clus>
<clus scale="   55.304">  1  3  2 -1</clus>
</clustering>
</event>
<event>
 6    0  0.2666600E+002  0.2940050E+03  0.7546771E-02  0.1088276E+00
         21   -1    0    0  503  501  0.00000000000E+00  0.00000000000E+00  0.13439885695E+04  0.13439885695E+04  0.00000000000E+00 0. -1.
         21   -1    0    0  506  502 -0.00000000000E+00 -0.00000000000E+00 -0.24346405209E+03  0.24346405209E+03  0.00000000000E+00 0. -1.
         21    1    1    2  503  504 -0.32807778959E+02 -0.22423475052E+03  0.82097387099E+03  0.85167814963E+03  0.00000000000E+00 0. -1.
         21    1    1    2  504  502 -0.12407529224E+02  0.30310386651E+03 -0.98442176207E+02  0.31893065505E+03  0.00000000000E+00 0. -1.
         21    1    1    2  505  501 -0.20182980375E+02 -0.28022679188E+02  0.30343393645E+03  0.30539282414E+03  0.00000000000E+00 0. -1.
         21    1    1    2  506  505  0.65398288557E+02 -0.50846436802E+02  0.74558886129E+02  0.11145099274E+03  0.00000000000E+00 0.  1.
<scales pt_clust_3="14000.00000" pt_clust_4="294.00496" pt_clust_5="34.53438" pt_clust_6="83.00973"></scales>
<clustering>
<clus scale="   34.534">  1  5  2 -1</clus>
<clus scale="   83.010">  1  6  2 -1</clus>
<clus scale="  294.005">  2  4  1 -1</clus>
<clus scale="   34.534">  1  3  2 -1</clus>
</clustering>
</event>
<event>
 6    0  0.2666600E+002  0.1224451E+03  0.7546771E-02  0.1239117E+00
         21   -1    0    0  503  501  0.00000000000E+00  0.00000000000E+00  0.32273394397E+03  0.32273394397E+03  0.00000000000E+00 0.  1.
         21   -1    0    0  505  502 -0.00000000000E+00 -0.00000000000E+00 -0.33139087722E+03  0.33139087722E+03  0.00000000000E+00 0. -1.
         21    1    1    2  503  504  0.48458757619E+02  0.68620034769E+02  0.25784122445E+03  0.27118085734E+03  0.00000000000E+00 0.  1.
         21    1    1    2  504  502 -0.14732277872E+02 -0.12348492940E+03 -0.23947733830E+03  0.26984247879E+03  0.00000000000E+00 0. -1.
         21    1    1    2  505  506 -0.30494326923E+02  0.58365756899E+01 -0.50002617508E+02  0.58857721226E+02  0.00000000000E+00 0. -1.
         21    1    1    2  506  501 -0.32321528244E+01  0.49028318938E+02  0.22981798116E+02  0.54243763830E+02  0.00000000000E+00 0. -1.
<scales pt_clust_3="122.44514" pt_clust_4="14000.00000" pt_clust_5="31.04786" pt_clust_6="49.60563"></scales>
<clustering>
<clus scale="   31.048">  2  5  1 -1</clus>
<clus scale="   49.606">  1  6  2 -1</clus>
<clus scale="  122.445">  1  3  2 -1</clus>
<clus scale="   49.606">  1  3  2 -1</clus>
</clustering>
</event>
<event>
 6    0  0.2666600E+002  0.1598672E+03  0.7546771E-02  0.1188847E+00
         21   -1    0    0  505  501  0.00000000000E+00  0.00000000000E+00  0.23345504591E+03  0.23345504591E+03  0.00000000000E+00 0.  1.
         21   -1    0    0  504  502 -0.00000000000E+00 -0.00000000000E+00 -0.29034788621E+03  0.29034788621E+03  0.00000000000E+00 0.  1.
         21    1    1    2  503  506 -0.81405538425E+02  0.12669280373E+02 -0.10269901737E+03  0.13166039845E+03  0.00000000000E+00 0.  1.
         21    1    1    2  504  501  0.71505846042E+02  0.54671325324E+02  0.63113672813E+01  0.90232328951E+02  0.00000000000E+00 0.  1.
         21    1    1    2  505  503  0.83675728545E+02 -0.10894403302E+03  0.12196016046E+03  0.18369733427E+03  0.00000000000E+00 0.  1.
         21    1    1    2  506  502 -0.73776036162E+02  0.41603427328E+02 -0.82465350670E+02  0.11821287044E+03  0.00000000000E+00 0.  1.
<scales pt_clust_3="33.06467" pt_clust_4="90.01133" pt_clust_5="156.31237" pt_clust_6="33.06467"></scales>
<clustering>
<clus scale="   33.065">  3  6 -1 -1</clus>
<clus scale="   90.011">  1  4  2 -1</clus>
<clus scale="  156.312">  1  5  2 -1</clus>
<clus scale="   90.011">  1  3  2 -1</clus>
</clustering>
</event>
<event>
 6    0  0.2666600E+002  0.1519546E+03  0.7546771E-02  0.1198092E+00
         21   -1    0    0  505  501  0.00000000000E+00  0.00000000000E+00  0.15408837890E+03  0.15408837890E+03  0.00000000000E+00 0. -1.
         21   -1    0    0  503  502 -0.00000000000E+00 -0.00000000000E+00 -0.11163844772E+04  0.11163844772E+04  0.00000000000E+00 0. -1.
         21    1    1    2  503  504 -0.80309894099E+02  0.32291606041E+02 -0.30305540915E+03  0.31517456739E+03  0.00000000000E+00 0. -1.
         21    1    1    2  504  501 -0.15912160560E+02 -0.13577680294E+03 -0.75973825192E+03  0.77193960159E+03  0.00000000000E+00 0. -1.
         21    1    1    2  505  506  0.37438186612E+02  0.44486949315E+01  0.18600908610E+02  0.42040486492E+02  0.00000000000E+00 0. -1.
         21    1    1    2  506  502  0.58783868047E+02  0.99036501971E+02  0.81896654168E+02  0.14131820063E+03  0.00000000000E+00 0. -1.
<scales pt_clust_3="86.55881" pt_clust_4="139.77633" pt_clust_5="34.10335" pt_clust_6="34.10335"></scales>
<clustering>
<clus scale="   34.103">  5  6 -1 -1</clus>
<clus scale="   86.559">  2  3  1 -1</clus>
<clus scale="  139.776">  2  4  1 -1</clus>
<clus scale="  151.955">  1  3  2 -1</clus>
</clustering>
</event>
<event>
 6    0  0.2666600E+002  0.7582224E+02  0.7546771E-02  0.1341344E+00
         21   -1    0    0  506  501  0.00000000000E+00  0.00000000000E+00  0.38139021321E+02  0.38139021321E+02  0.00000000000E+00 0.  1.
         21   -1    0    0  505  502 -0.00000000000E+00 -0.00000000000E+00 -0.56169449924E+03  0.56169449924E+03  0.00000000000E+00 0. -1.
         21    1    1    2  503  502 -0.36626696971E+02 -0.26855855687E+02 -0.11823335904E+03  0.12665653992E+03  0.00000000000E+00 0.  1.
         21    1    1    2  504  501  0.65669801289E+02  0.56402347577E+02 -0.15004959853E+03  0.17322999057E+03  0.00000000000E+00 0. -1.
         21    1    1    2  505  504 -0.11161646177E+02  0.44254128020E+02 -0.20223920305E+03  0.20732512014E+03  0.00000000000E+00 0. -1.
         21    1    1    2  506  503 -0.17881458141E+02 -0.73800619911E+02 -0.53033317300E+02  0.92621869924E+02  0.00000000000E+00 0.  1.
<scales pt_clust_3="45.41753" pt_clust_4="14000.00000" pt_clust_5="42.47793" pt_clust_6="75.82224"></scales>
<clustering>
<clus scale="   45.418">  2  3  1 -1</clus>
<clus scale="   42.478">  2  5  1 -1</clus>
<clus scale="   75.822">  1  6  2 -1</clus>
<clus scale="   75.822">  1  3  2 -1</clus>
</clustering>
</event>
<event>
 6    0  0.2666600E+002  0.6453509E+02  0.7546771E-02  0.1379729E+00
         21   -1    0    0  503  501  0.00000000000E+00  0.00000000000E+00  0.71474437200E+03  0.71474437200E+03  0.00000000000E+00 0. -1.
         21   -1    0    0  506  502 -0.00000000000E+00 -0.00000000000E+00 -0.95610192356E+02  0.95610192356E+02  0.00000000000E+00 0. -1.
         21    1    1    2  503  504 -0.14017436064E+02  0.57512377425E+02  0.31050336734E+03  0.31609571841E+03  0.00000000000E+00 0. -1.
         21    1    1    2  504  502  0.18659148538E+02  0.51521568083E+02 -0.50295251019E+02  0.74379083599E+02  0.00000000000E+00 0. -1.
         21    1    1    2  505  501 -0.43144429889E+02 -0.25025981249E+02  0.31251284800E+03  0.31646804220E+03  0.00000000000E+00 0. -1.
         21    1    1    2  506  505  0.38502717415E+02 -0.84007964259E+02  0.46413215329E+02  0.10341172015E+03  0.00000000000E+00 0. -1.
<scales pt_clust_3="64.53509" pt_clust_4="53.65504" pt_clust_5="49.87727" pt_clust_6="14000.00000"></scales>
<clustering>
<clus scale="   49.877">  1  5  2 -1</clus>
<clus scale="   53.655">  2  4  1 -1</clus>
<clus scale="   64.535">  1  3  2 -1</clus>
<clus scale="   49.877">  1  3  2 -1</clus>
</clustering>
</event>
<event>
 6    0  0.2666600E+002  0.1626737E+03  0.7546771E-02  0.1185711E+00
         21   -1    0    0  506  501  0.00000000000E+00  0.00000000000E+00  0.79221999071E+03  0.79221999071E+03  0.00000000000E+00 0.  1.
         21   -1    0    0  505  502 -0.00000000000E+00 -0.00000000000E+00 -0.57304488717E+02  0.57304488717E+02  0.00000000000E+00 0.  1.
         21    1    1    2  503  504  0.51843688032E+02 -0.36957578809E+02  0.30675698983E+03  0.31329456017E+03  0.00000000000E+00 0.  1.
         21    1    1    2  504  502 -0.12759337270E+03  0.52769906537E+02  0.89337850501E+02  0.16445663053E+03  0.00000000000E+00 0.  1.
         21    1    1    2  505  501 -0.44460983289E+01  0.44762421859E+02  0.57276438414E+02  0.72828789626E+02  0.00000000000E+00 0.  1.
         21    1    1    2  506  503  0.80195783002E+02 -0.60574749588E+02  0.28154422324E+03  0.29894449910E+03  0.00000000000E+00 0.  1.
<scales pt_clust_3="33.68731" pt_clust_4="157.07117" pt_clust_5="44.98269" pt_clust_6="33.68731"></scales>
<clustering>
<clus scale="   33.687">  3  6 -1 -1</clus>
<clus scale="   44.983">  2  5  1 -1</clus>
<clus scale="  157.071">  2  4  1 -1</clus>
<clus scale="  162.674">  1  3  2 -1</clus>
</clustering>
</event>
<event>
 6    0  0.2666600E+002  0.1412209E+03  0.7546771E-02  0.1211695E+00
         21   -1    0    0  503  501  0.00000000000E+00  0.00000000000E+00  0.85219415759E+03  0.85219415759E+03  0.00000000000E+00 0.  1.
         21   -1    0    0  504  502 -0.00000000000E+00 -0.00000000000E+00 -0.18552712420E+03  0.18552712420E+03  0.00000000000E+00 0.  1.
         21    1    1    2  503  502  0.96970377834E+02 -0.12968355525E+03  0.67924655632E+03  0.69828143535E+03  0.00000000000E+00 0.  1.
         21    1    1    2  504  505 -0.52896443697E+02 -0.29091192923E+02 -0.74516105026E+02  0.95900892434E+02  0.00000000000E+00 0.  1.
         21    1    1    2  505  506 -0.68651583912E+02  0.10727286133E+03 -0.34083303301E+02  0.13184148936E+03  0.00000000000E+00 0.  1.
         21    1    1    2  506  501  0.24577649775E+02  0.51501886837E+02  0.96019885402E+02  0.11169746465E+03  0.00000000000E+00 0. -1.
<scales pt_clust_3="141.22094" pt_clust_4="59.70787" pt_clust_5="14000.00000" pt_clust_6="57.06580"></scales>
<clustering>
<clus scale="   57.066">  1  6  2 -1</clus>
<clus scale="   59.708">  2  4  1 -1</clus>
<clus scale="  141.221">  1  3  2 -1</clus>
<clus scale="   57.066">  1  3  2 -1</clus>
</clustering>
</event>
<event>
 6    0  0.2666600E+002  0.1429152E+03  0.7546771E-02  0.1209459E+00
         21   -1    0    0  503  501  0.00000000000E+00  0.00000000000E+00  0.30070345722E+02  0.30070345722E+02  0.00000000000E+00 0. -1.
         21   -1    0    0  506  502 -0.00000000000E+00 -0.00000000000E+00 -0.25950390282E+04  0.25950390282E+04  0.00000000000E+00 0. -1.
         21    1    1    2  503  505  0.92934683264E+01  0.78670475924E+02 -0.82469439165E+02  0.11435305301E+03  0.00000000000E+00 0. -1.
         21    1    1    2  504  502 -0.29139590045E+01 -0.52444024046E+02 -0.14760609082E+04  0.14769951494E+04  0.00000000000E+00 0. -1.
         21    1    1    2  505  504 -0.26860163986E+02  0.66698345634E+02 -0.10467965845E+03  0.12699593935E+03  0.00000000000E+00 0. -1.
         21    1    1    2  506  501  0.20480654664E+02 -0.92924797511E+02 -0.90175867668E+03  0.90676523211E+03  0.00000000000E+00 0. -1.
<scales pt_clust_3="40.23892" pt_clust_4="52.52492" pt_clust_5="40.23892" pt_clust_6="136.53165"></scales>
<clustering>
<clus scale="   40.239">  3  5 -1 -1</clus>
<clus scale="   52.525">  2  4  1 -1</clus>
<clus scale="  136.532">  2  6  1 -1</clus>
<clus scale="  142.915">  1  3  2 -1</clus>
</clustering>
</event>
<event>
 6    0  0.2666600E+002  0.8773862E+02  0.7546771E-02  0.1308422E+00
         21   -1    0    0  503  501  0.00000000000E+00  0.00000000000E+00  0.35229571132E+03  0.35229571132E+03  0.00000000000E+00 0.  1.
         21   -1    0    0  506  502 -0.00000000000E+00 -0.00000000000E+00 -0.11382080887E+03  0.11382080887E+03  0.00000000000E+00 0. -1.
         21    1    1    2  503  504 -0.56377448440E+02  0.40702328204E+02  0.98840368403E+02  0.12084914000E+03  0.00000000000E+00 0.  1.
         21    1    1    2  504  505 -0.26682508938E+02 -0.99996768217E+02  0.17683705410E+03  0.20489669016E+03  0.00000000000E+00 0.  1.
         21    1    1    2  505  502  0.61525517465E+02  0.17102421916E+02 -0.60158009897E+02  0.87731797482E+02  0.00000000000E+00 0. -1.
         21    1    1    2  506  501  0.21534439913E+02  0.42192018098E+02  0.22955489844E+02  0.52638892537E+02  0.00000000000E+00 0. -1.
<scales pt_clust_3="70.53180" pt_clust_4="14000.00000" pt_clust_5="87.73862" pt_clust_6="47.36981"></scales>
<clustering>
<clus scale="   47.370">  2  6  1 -1</clus>
<clus scale="   70.532">  1  3  2 -1</clus>
<clus scale="   87.739">  2  5  1 -1</clus>
<clus scale="   70.532">  1  3  2 -1</clus>
</clustering>
</event>
<event>
 6    0  0.2666600E+002  0.8765861E+02  0.7546771E-02  0.1308623E+00
         21   -1    0    0  504  501  0.00000000000E+00  0.00000000000E+00  0.11218233508E+03  0.11218233508E+03  0.00000000000E+00 0. -1.
         21   -1    0    0  506  502 -0.00000000000E+00 -0.00000000000E+00 -0.18295755797E+04  0.18295755797E+04  0.00000000000E+00 0. -1.
         21    1    1    2  503  502  0.14097411679E+02 -0.32501423314E+02 -0.11620156493E+04  0.11625555680E+04  0.00000000000E+00 0. -1.
         21    1    1    2  504  505 -0.77616353552E+02 -0.32572105288E+01 -0.43143397302E+02  0.88860905295E+02  0.00000000000E+00 0.  1.
         21    1    1    2  505  503 -0.16378623549E+00 -0.42423194016E+02 -0.57170344294E+03  0.57327530985E+03  0.00000000000E+00 0. -1.
         21    1    1    2  506  501  0.63682728109E+02  0.78181827859E+02  0.59469244948E+02  0.11706613157E+03  0.00000000000E+00 0. -1.
<scales pt_clust_3="35.42710" pt_clust_4="14000.00000" pt_clust_5="71.31232" pt_clust_6="87.65861"></scales>
<clustering>
<clus scale="   35.427">  2  3  1 -1</clus>
<clus scale="   71.312">  2  5  1 -1</clus>
<clus scale="   87.659">  1  6  2 -1</clus>
<clus scale="   87.659">  1  3  2 -1</clus>
</clustering>
</event>
<event>
 6    0  0.2666600E+002  0.1686208E+03  0.7546771E-02  0.1179294E+00
         21   -1    0    0  505  501  0.00000000000E+00  0.00000000000E+00  0.91127232400E+03  0.91127232400E+03  0.00000000000E+00 0.  1.
         21   -1    0    0  504  502 -0.00000000000E+00 -0.00000000000E+00 -0.36385446827E+02  0.36385446827E+02  0.00000000000E+00 0. -1.
         21    1    1    2  503  506 -0.12672660433E+02  0.40754133070E+02  0.18254704008E+03  0.18746977764E+03  0.00000000000E+00 0. -1.
         21    1    1    2  504  501  0.10710981431E+03 -0.10376743990E+03  0.18583926860E+03  0.23827804695E+03  0.00000000000E+00 0. -1.
         21    1    1    2  505  503 -0.47535009919E+02  0.35903305911E+02  0.37477250764E+03  0.37947734718E+03  0.00000000000E+00 0.  1.
         21    1    1    2  506  502 -0.46902143962E+02  0.27110000915E+02  0.13172806085E+03  0.14243259905E+03  0.00000000000E+00 0.  1.
<scales pt_clust_3="30.78311" pt_clust_4="149.13147" pt_clust_5="49.08532" pt_clust_6="49.08532"></scales>
<clustering>
<clus scale="   30.783">  3  5 -1 -1</clus>
<clus scale="   49.085">  3  6 -1 -1</clus>
<clus scale="  149.131">  2  4  1 -1</clus>
<clus scale="  168.621">  1  3  2 -1</clus>
</clustering>
</event>
<event>
 6    0  0.2666600E+002  0.1457556E+03  0.7546771E-02  0.1205788E+00
         21   -1    0    0  505  501  0.00000000000E+00  0.00000000000E+00  0.16483261587E+03  0.16483261587E+03  0.00000000000E+00 0. -1.
         21   -1    0    0  503  502 -0.00000000000E+00 -0.00000000000E+00 -0.82847662114E+03  0.82847662114E+03  0.00000000000E+00 0.  1.
         21    1    1    2  503  506 -0.73838043264E+02  0.77330833311E+02 -0.22497149337E+03  0.24908690700E+03  0.00000000000E+00 0.  1.
         21    1    1    2  504  502 -0.70750179299E+02 -0.17177237927E+02 -0.47334452272E+03  0.47891093385E+03  0.00000000000E+00 0.  1.
         21    1    1    2  505  504  0.19369155275E+03 -0.45777581383E+02  0.60469749696E+02  0.20801104585E+03  0.00000000000E+00 0. -1.
         21    1    1    2  506  501 -0.49103330191E+02 -0.14376014001E+02 -0.25797738881E+02  0.57300350311E+02  0.00000000000E+00 0.  1.
<scales pt_clust_3="14000.00000" pt_clust_4="73.75970" pt_clust_5="145.75559" pt_clust_6="51.16451"></scales>
<clustering>
<clus scale="   51.165">  1  6  2 -1</clus>
<clus scale="   73.760">  2  4  1 -1</clus>
<clus scale="  145.756">  1  5  2 -1</clus>
<clus scale="   51.165">  1  3  2 -1</clus>
</clustering>
</event>
<event>
 6    0  0.2666600E+002  0.2585163E+03  0.7546771E-02  0.1108038E+00
         21   -1    0    0  505  501  0.00000000000E+00  0.00000000000E+00  0.71599808179E+03  0.71599808179E+03  0.00000000000E+00 0. -1.
         21   -1    0    0  506  502 -0.00000000000E+00 -0.00000000000E+00 -0.91527506634E+02  0.91527506634E+02  0.00000000000E+00 0. -1.
         21    1    1    2  503  504 -0.14819222702E+03 -0.54089156362E+02  0.22047796819E+03  0.27110349950E+03  0.00000000000E+00 0. -1.
         21    1    1    2  504  502 -0.10177878570E+02 -0.35116418547E+02  0.48804743739E+02  0.60980776275E+02  0.00000000000E+00 0.  1.
         21    1    1    2  505  503 -0.49365414563E+02 -0.25259282765E+02  0.15649939075E+03  0.16603323410E+03  0.00000000000E+00 0. -1.
         21    1    1    2  506  501  0.20773552015E+03  0.11446485767E+03  0.19868847249E+03  0.30940807855E+03  0.00000000000E+00 0. -1.
<scales pt_clust_3="35.24224" pt_clust_4="33.10267" pt_clust_5="35.24224" pt_clust_6="237.18400"></scales>
<clustering>
<clus scale="   33.103">  3  4 -1 -1</clus>
<clus scale="   35.242">  3  5 -1 -1</clus>
<clus scale="  237.184">  2  6  1 -1</clus>
<clus scale="  258.516">  1  3  2 -1</clus>
</clustering>
</event>
<event>
 6    0  0.2666600E+002  0.8940033E+02  0.7546771E-02  0.1304310E+00
         21   -1    0    0  506  501  0.00000000000E+00  0.00000000000E+00  0.85070334606E+03  0.85070334606E+03  0.00000000000E+00 0. -1.
         21   -1    0    0  505  502 -0.00000000000E+00 -0.00000000000E+00 -0.47935179383E+03  0.47935179383E+03  0.00000000000E+00 0.  1.
         21    1    1    2  503  504 -0.22135482844E+02 -0.63734272037E+02  0.52232373355E+02  0.85324427095E+02  0.00000000000E+00 0. -1.
         21    1    1    2  504  501 -0.14736402739E+02  0.93289945713E+02  0.77333394721E+03  0.77907995061E+03  0.00000000000E+00 0. -1.
         21    1    1    2  505  503 -0.11132186381E+02 -0.41039619047E+02 -0.11031271453E+03  0.11822466279E+03  0.00000000000E+00 0.  1.
         21    1    1    2  506  502  0.48004071965E+02  0.11483945371E+02 -0.34390205381E+03  0.34742609939E+03  0.00000000000E+00 0.  1.
<scales pt_clust_3="89.40033" pt_clust_4="14000.00000" pt_clust_5="42.52265" pt_clust_6="46.39849"></scales>
<clustering>
<clus scale="   42.523">  2  5  1 -1</clus>
<clus scale="   46.398">  2  6  1 -1</clus>
<clus scale="   89.400">  2  3  1 -1</clus>
<clus scale="   89.400">  1  3  2 -1</clus>
</clustering>
</event>
<event>
 6    0  0.2666600E+002  0.1080074E+03  0.7546771E-02  0.1264305E+00
         21   -1    0    0  505  501  0.00000000000E+00  0.00000000000E+00  0.18983770699E+03  0.18983770699E+03  0.00000000000E+00 0.  1.
         21   -1    0    0  506  502 -0.00000000000E+00 -0.00000000000E+00 -0.82116751588E+03  0.82116751588E+03  0.00000000000E+00 0.  1.
         21    1    1    2  503  504 -0.48425111524E+02 -0.83841164610E+02 -0.43821677547E+03  0.44878533244E+03  0.00000000000E+00 0.  1.
         21    1    1    2  504  501 -0.24674517599E+02  0.58914066935E+02  0.13159704751E+03  0.14627878183E+03  0.00000000000E+00 0.  1.
         21    1    1    2  505  502  0.28974088069E+02  0.54514829545E+02  0.21731693708E+02  0.65449453253E+02  0.00000000000E+00 0. -1.
         21    1    1    2  506  503  0.44125541054E+02 -0.29587731870E+02 -0.34644177464E+03  0.35049165534E+03  0.00000000000E+00 0.  1.
<scales pt_clust_3="14000.00000" pt_clust_4="108.00742" pt_clust_5="61.53427" pt_clust_6="53.12718"></scales>
<clustering>
<clus scale="   53.127">  2  6  1 -1</clus>
<clus scale="   61.534">  1  5  2 -1</clus>
<clus scale="  108.007">  1  4  2 -1</clus>
<clus scale="   61.534">  1  3  2 -1</clus>
</clustering>
</event>
<event>
 6    0  0.2666600E+002  0.1248094E+03  0.7546771E-02  0.1235367E+00
         21   -1    0    0  505  501  0.00000000000E+00  0.00000000000E+00  0.20351830052E+03  0.20351830052E+03  0.00000000000E+00 0. -1.
         21   -1    0    0  506  502 -0.00000000000E+00 -0.00000000000E+00 -0.39564873287E+03  0.39564873287E+03  0.00000000000E+00 0.  1.
         21    1    1    2  503  504 -0.38408849444E+01  0.80197963694E+02  0.14052131754E+03  0.16184160917E+03  0.00000000000E+00 0. -1.
         21    1    1    2  504  502  0.34450513658E+02 -0.80317140053E+02 -0.26175252385E+03  0.27595663540E+03  0.00000000000E+00 0.  1.
         21    1    1    2  505  503  0.30393404515E+01  0.65975111122E+02 -0.12687796258E+02  0.67252754976E+02  0.00000000000E+00 0. -1.
         21    1    1    2  506  501 -0.33648969165E+02 -0.65855934763E+02 -0.58211429777E+02  0.94116033842E+02  0.00000000000E+00 0.  1.
<scales pt_clust_3="124.80944" pt_clust_4="14000.00000" pt_clust_5="66.04508" pt_clust_6="67.88597"></scales>
<clustering>
<clus scale="   66.045">  1  5  2 -1</clus>
<clus scale="   67.886">  2  6  1 -1</clus>
<clus scale="  124.809">  1  3  2 -1</clus>
<clus scale="   66.045">  1  3  2 -1</clus>
</clustering>
</event>
<event>
 6    0  0.2666600E+002  0.1123697E+03  0.7546771E-02  0.1256243E+00
         21   -1    0    0  505  501  0.00000000000E+00  0.00000000000E+00  0.12802931036E+03  0.12802931036E+03  0.00000000000E+00 0. -1.
         21   -1    0    0  506  502 -0.00000000000E+00 -0.00000000000E+00 -0.42537053767E+03  0.42537053767E+03  0.00000000000E+00 0.  1.
         21    1    1    2  503  502  0.53268569971E+01 -0.31097093864E+02 -0.41089332506E+02  0.51804805742E+02  0.00000000000E+00 0.  1.
         21    1    1    2  504  503  0.32692927895E+02  0.34031139505E+02 -0.59578927145E+02  0.76003911413E+02  0.00000000000E+00 0.  1.
         21    1    1    2  505  504  0.10029807175E+03 -0.42653369075E+02  0.65040084007E+02  0.12692212423E+03  0.00000000000E+00 0. -1.
         21    1    1    2  506  501 -0.13831785664E+03  0.39719323434E+02 -0.26171305166E+03  0.29866900665E+03  0.00000000000E+00 0.  1.
<scales pt_clust_3="31.55003" pt_clust_4="44.07334" pt_clust_5="112.36968" pt_clust_6="14000.00000"></scales>
<clustering>
<clus scale="   31.550">  2  3  1 -1</clus>
<clus scale="   44.073">  2  4  1 -1</clus>
<clus scale="  112.370">  1  5  2 -1</clus>
<clus scale="  112.370">  1  3  2 -1</clus>
</clustering>
</event>
<event>
 6    0  0.2666600E+002  0.1162661E+03  0.7546771E-02  0.1249387E+00
         21   -1    0    0  505  501  0.00000000000E+00  0.00000000000E+00  0.95182426606E+03  0.95182426606E+03  0.00000000000E+00 0.  1.
         21   -1    0    0  506  502 -0.00000000000E+00 -0.00000000000E+00 -0.17376275916E+03  0.17376275916E+03  0.00000000000E+00 0.  1.
         21    1    1    2  503  502 -0.26794085087E+02 -0.24034743463E+02  0.21826312868E+02  0.42094890692E+02  0.00000000000E+00 0. -1.
         21    1    1    2  504  501  0.27750337701E+02  0.17859206740E+02  0.79099628070E+02  0.85707547326E+02  0.00000000000E+00 0.  1.
         21    1    1    2  505  503 -0.12787947685E+03 -0.68476415428E+02  0.79565040996E+03  0.80876557477E+03  0.00000000000E+00 0.  1.
         21    1    1    2  506  504  0.12692322424E+03  0.74651952152E+02 -0.11851484399E+03  0.18901901243E+03  0.00000000000E+00 0.  1.
<scales pt_clust_3="34.79710" pt_clust_4="33.00049" pt_clust_5="14000.00000" pt_clust_6="116.26609"></scales>
<clustering>
<clus scale="   33.000">  1  4  2 -1</clus>
<clus scale="   34.797">  2  3  1 -1</clus>
<clus scale="  116.266">  2  6  1 -1</clus>
<clus scale="   33.000">  1  3  2 -1</clus>
</clustering>
</event>
<event>
 6    0  0.2666600E+002  0.6063146E+02  0.7546771E-02  0.1395201E+00
         21   -1    0    0  506  501  0.00000000000E+00  0.00000000000E+00  0.48312009155E+03  0.48312009155E+03  0.00000000000E+00 0.  1.
         21   -1    0    0  505  502 -0.00000000000E+00 -0.00000000000E+00 -0.13877445674E+04  0.13877445674E+04  0.00000000000E+00 0. -1.
         21    1    1    2  503  501 -0.89359681727E+02 -0.69479391571E+02  0.42105667065E+03  0.43600603031E+03  0.00000000000E+00 0.  1.
         21    1    1    2  504  503  0.31550367199E+01  0.69918900886E+02 -0.87160459358E+03  0.87441018664E+03  0.00000000000E+00 0. -1.
         21    1    1    2  505  504  0.41598026632E+02 -0.29187199383E+02 -0.49238376600E+03  0.49499905197E+03  0.00000000000E+00 0.  1.
         21    1    1    2  506  502  0.44606618375E+02  0.28747690069E+02  0.38307213048E+02  0.65449390055E+02  0.00000000000E+00 0. -1.
<scales pt_clust_3="14000.00000" pt_clust_4="60.63146" pt_clust_5="50.81622" pt_clust_6="53.36323"></scales>
<clustering>
<clus scale="   50.816">  2  5  1 -1</clus>
<clus scale="   53.363">  1  6  2 -1</clus>
<clus scale="   60.631">  2  4  1 -1</clus>
<clus scale="   53.363">  1  3  2 -1</clus>
</clustering>
</event>
<event>
 6    0  0.2666600E+002  0.1655234E+03  0.7546771E-02  0.1182598E+00
         21   -1    0    0  506  501  0.00000000000E+00  0.00000000000E+00  0.12409143914E+03  0.12409143914E+03  0.00000000000E+00 0. -1.
         21   -1    0    0  504  502 -0.00000000000E+00 -0.00000000000E+00 -0.63856227945E+03  0.63856227945E+03  0.00000000000E+00 0. -1.
         21    1    1    2  503  502 -0.33595578389E+02 -0.30642415986E+02 -0.64723421083E+02  0.79099568782E+02  0.00000000000E+00 0. -1.
         21    1    1    2  504  501 -0.11620903620E+03  0.66451027893E+02 -0.49222679160E+03  0.51010537496E+03  0.00000000000E+00 0. -1.
         21    1    1    2  505  503  0.46418927583E+02 -0.21664079804E+02 -0.16208399369E+02  0.53728590172E+02  0.00000000000E+00 0.  1.
         21    1    1    2  506  505  0.10338568701E+03 -0.14144532103E+02  0.58687771734E+02  0.11972018467E+03  0.00000000000E+00 0. -1.
<scales pt_clust_3="45.47110" pt_clust_4="151.13465" pt_clust_5="47.17647" pt_clust_6="47.17647"></scales>
<clustering>
<clus scale="   45.471">  2  3  1 -1</clus>
<clus scale="   47.176">  5  6 -1 -1</clus>
<clus scale="  151.135">  2  4  1 -1</clus>
<clus scale="  165.523">  1  3  2 -1</clus>
</clustering>
</event>
<event>
 6    0  0.2666600E+002  0.1237094E+03  0.7546771E-02  0.1237100E+00
         21   -1    0    0  504  501  0.00000000000E+00  0.00000000000E+00  0.18702378889E+03  0.18702378889E+03  0.00000000000E+00 0.  1.
         21   -1    0    0  503  502 -0.00000000000E+00 -0.00000000000E+00 -0.18463567228E+04  0.18463567228E+04  0.00000000000E+00 0.  1.
         21    1    1    2  503  506  0.13852111751E+03 -0.41843811999E+02  0.12984160563E+03  0.19441668434E+03  0.00000000000E+00 0.  1.
         21    1    1    2  504  505 -0.47470656993E+02 -0.15619586921E+02 -0.64181591411E+03  0.64375857460E+03  0.00000000000E+00 0.  1.
         21    1    1    2  505  502 -0.57259913153E+02  0.44715572962E+02 -0.11558289960E+04  0.11581100329E+04  0.00000000000E+00 0.  1.
         21    1    1    2  506  501 -0.33790547364E+02  0.12747825958E+02  0.84703706324E+01  0.37095219860E+02  0.00000000000E+00 0. -1.
<scales pt_clust_3="109.15966" pt_clust_4="48.27737" pt_clust_5="48.27737" pt_clust_6="36.11521"></scales>
<clustering>
<clus scale="   36.115">  1  6  2 -1</clus>
<clus scale="   48.277">  4  5 -1 -1</clus>
<clus scale="  109.160">  1  3  2 -1</clus>
<clus scale="   36.115">  1  3  2 -1</clus>
</clustering>
</event>
<event>
 6    0  0.2666600E+002  0.2715457E+03  0.7546771E-02  0.1100398E+00
         21   -1    0    0  503  501  0.00000000000E+00  0.00000000000E+00  0.90739058446E+02  0.90739058446E+02  0.00000000000E+00 0. -1.
         21   -1    0    0  505  502 -0.00000000000E+00 -0.00000000000E+00 -0.93012616486E+03  0.93012616486E+03  0.00000000000E+00 0. -1.
         21    1    1    2  503  504  0.20671349485E+03  0.56586691811E+02 -0.44093297913E+03  0.49025953813E+03  0.00000000000E+00 0. -1.
         21    1    1    2  504  502  0.33341042324E+02  0.34018255694E+02 -0.16745589357E+03  0.17409865915E+03  0.00000000000E+00 0. -1.
         21    1    1    2  505  506 -0.21615205935E+03 -0.59385881608E+02 -0.22337411782E+03  0.31645598779E+03  0.00000000000E+00 0. -1.
         21    1    1    2  506  501 -0.23902477817E+02 -0.31219065896E+02 -0.76241158928E+01  0.40051038244E+02  0.00000000000E+00 0. -1.
<scales pt_clust_3="266.89847" pt_clust_4="34.64122" pt_clust_5="37.22867" pt_clust_6="37.22867"></scales>
<clustering>
<clus scale="   34.641">  3  4 -1 -1</clus>
<clus scale="   37.229">  5  6 -1 -1</clus>
<clus scale="  266.898">  2  3  1 -1</clus>
<clus scale="  271.546">  1  3  2 -1</clus>
</clustering>
</event>
<event>
 6    0  0.2666600E+002  0.1250001E+03  0.7546771E-02  0.1235069E+00
         21   -1    0    0  505  501  0.00000000000E+00  0.00000000000E+00  0.46540747104E+03  0.46540747104E+03  0.00000000000E+00 0.  1.
         21   -1    0    0  506  502 -0.00000000000E+00 -0.00000000000E+00 -0.28207107526E+04  0.28207107526E+04  0.00000000000E+00 0.  1.
         21    1    1    2  503  502 -0.86594440365E+01  0.49810528816E+02 -0.23911958888E+03  0.24440591756E+03  0.00000000000E+00 0.  1.
         21    1    1    2  504  501 -0.12468580519E+03  0.21382038077E+02  0.39380243290E+03  0.41362313490E+03  0.00000000000E+00 0.  1.
         21    1    1    2  505  503  0.68238667202E+01 -0.63764080185E+02  0.39590327597E+02  0.75364561421E+02  0.00000000000E+00 0.  1.
         21    1    1    2  506  504  0.12652138250E+03 -0.74284867077E+01 -0.25495764532E+04  0.25527246098E+04  0.00000000000E+00 0.  1.
<scales pt_clust_3="50.55764" pt_clust_4="125.00010" pt_clust_5="63.77827" pt_clust_6="14000.00000"></scales>
<clustering>
<clus scale="   50.558">  2  3  1 -1</clus>
<clus scale="   63.778">  1  5  2 -1</clus>
<clus scale="  125.000">  1  4  2 -1</clus>
<clus scale="   63.778">  1  3  2 -1</clus>
</clustering>
</event>
<event>
 6    0  0.2666600E+002  0.1280268E+03  0.7546771E-02  0.1230413E+00
         21   -1    0    0  506  501  0.00000000000E+00  0.00000000000E+00  0.22830120571E+03  0.22830120571E+03  0.00000000000E+00 0. -1.
         21   -1    0    0  504  502 -0.00000000000E+00 -0.00000000000E+00 -0.69855756351E+03  0.69855756351E+03  0.00000000000E+00 0.  1.
         21    1    1    2  503  505 -0.87760526918E+01  0.75278311073E+02  0.89554901459E+02  0.11731974938E+03  0.00000000000E+00 0. -1.
         21    1    1    2  504  501  0.22813432170E+02 -0.10114400629E+03 -0.52506700841E+03  0.53520643309E+03  0.00000000000E+00 0.  1.
         21    1    1    2  505  502 -0.32129263239E+02 -0.18343503117E+02 -0.14739781651E+03  0.15197002986E+03  0.00000000000E+00 0.  1.
         21    1    1    2  506  503  0.18091883761E+02  0.44209198331E+02  0.11265356566E+03  0.12236255690E+03  0.00000000000E+00 0. -1.
<scales pt_clust_3="37.18603" pt_clust_4="119.14514" pt_clust_5="36.99694" pt_clust_6="37.18603"></scales>
<clustering>
<clus scale="   36.997">  2  5  1 -1</clus>
<clus scale="   37.186">  3  6 -1 -1</clus>
<clus scale="  119.145">  2  4  1 -1</clus>
<clus scale="  128.027">  1  3  2 -1</clus>
</clustering>
</event>
<event>
 6    0  0.2666600E+002  0.1378017E+03  0.7546771E-02  0.1216318E+00
         21   -1    0    0  504  501  0.00000000000E+00  0.00000000000E+00  0.22180039934E+03  0.22180039934E+03  0.00000000000E+00 0. -1.
         21   -1    0    0  506  502 -0.00000000000E+00 -0.00000000000E+00 -0.98974162968E+03  0.98974162968E+03  0.00000000000E+00 0.  1.
         21    1    1    2  503  501  0.55032490018E+02 -0.42996369840E+02  0.14013334813E+03  0.15657144706E+03  0.00000000000E+00 0. -1.
         21    1    1    2  504  505 -0.26367054159E+02  0.39229572198E+02 -0.20450609818E+03  0.20989741560E+03  0.00000000000E+00 0.  1.
         21    1    1    2  505  502 -0.72032722209E+02  0.38965884808E+02 -0.76074637952E+03  0.76514188698E+03  0.00000000000E+00 0.  1.
         21    1    1    2  506  503  0.43367286350E+02 -0.35199087166E+02  0.57177899235E+02  0.79931279382E+02  0.00000000000E+00 0. -1.
<scales pt_clust_3="130.39099" pt_clust_4="42.92350" pt_clust_5="42.92350" pt_clust_6="31.04098"></scales>
<clustering>
<clus scale="   31.041">  3  6 -1 -1</clus>
<clus scale="   42.923">  4  5 -1 -1</clus>
<clus scale="  130.391">  1  3  2 -1</clus>
<clus scale="  130.391">  1  3  2 -1</clus>
</clustering>
</event>
<event>
 6    0  0.2666600E+002  0.2187796E+03  0.7546771E-02  0.1134796E+00
         21   -1    0    0  505  501  0.00000000000E+00  0.00000000000E+00  0.34018262515E+03  0.34018262515E+03  0.00000000000E+00 0. -1.
         21   -1    0    0  503  502 -0.00000000000E+00 -0.00000000000E+00 -0.19836410459E+03  0.19836410459E+03  0.00000000000E+00 0. -1.
         21    1    1    2  503  506 -0.32686551885E+02 -0.54406853274E+01 -0.10133491765E+02  0.34651109452E+02  0.00000000000E+00 0.  1.
         21    1    1    2  504  502  0.25674521571E+02 -0.44623986513E+02 -0.25054868437E+02  0.57255808985E+02  0.00000000000E+00 0. -1.
         21    1    1    2  505  504 -0.24380819830E+02 -0.15784022802E+03 -0.16915128284E+02  0.16060536579E+03  0.00000000000E+00 0. -1.
         21    1    1    2  506  501  0.31392850144E+02  0.20790489986E+03  0.19392200905E+03  0.28603444551E+03  0.00000000000E+00 0. -1.
<scales pt_clust_3="33.13626" pt_clust_4="37.43266" pt_clust_5="37.43266" pt_clust_6="207.74010"></scales>
<clustering>
<clus scale="   33.136">  2  3  1 -1</clus>
<clus scale="   37.433">  4  5 -1 -1</clus>
<clus scale="  207.740">  1  6  2 -1</clus>
<clus scale="  207.740">  1  3  2 -1</clus>
</clustering>
</event>
<event>
 6    0  0.2666600E+002  0.9070203E+02  0.7546771E-02  0.1301160E+00
         21   -1    0    0  506  501  0.00000000000E+00  0.00000000000E+00  0.67167335486E+03  0.67167335486E+03  0.00000000000E+00 0. -1.
         21   -1    0    0  503  502 -0.00000000000E+00 -0.00000000000E+00 -0.10461512891E+03  0.10461512891E+03  0.00000000000E+00 0. -1.
         21    1    1    2  503  501  0.26716651020E+02  0.29675096105E+02  0.36526515947E+02  0.54116329678E+02  0.00000000000E+00 0. -1.
         21    1    1    2  504  502 -0.91630391191E+02  0.45194188919E+02 -0.61090197287E+02  0.11904056244E+03  0.00000000000E+00 0. -1.
         21    1    1    2  505  504  0.59176645254E+02 -0.22114314184E+02  0.28142998018E+03  0.28843327128E+03  0.00000000000E+00 0. -1.
         21    1    1    2  506  505  0.57370949159E+01 -0.52754970840E+02  0.31019192710E+03  0.31469832037E+03  0.00000000000E+00 0. -1.
<scales pt_clust_3="39.92982" pt_clust_4="90.70203" pt_clust_5="14000.00000" pt_clust_6="52.44489"></scales>
<clustering>
<clus scale="   39.930">  2  3  1 -1</clus>
<clus scale="   52.445">  1  6  2 -1</clus>
<clus scale="   90.702">  2  4  1 -1</clus>
<clus scale="   52.445">  1  3  2 -1</clus>
</clustering>
</event>
<event>
 6    0  0.2666600E+002  0.1245568E+03  0.7546771E-02  0.1235764E+00
         21   -1    0    0  504  501  0.00000000000E+00  0.00000000000E+00  0.10563586086E+03  0.10563586086E+03  0.00000000000E+00 0.  1.
         21   -1    0    0  506  502 -0.00000000000E+00 -0.00000000000E+00 -0.27294095976E+03  0.27294095976E+03  0.00000000000E+00 0.  1.
         21    1    1    2  503  501 -0.42055277886E+02 -0.65654608649E+02  0.27983517731E+02  0.82838706530E+02  0.00000000000E+00 0.  1.
         21    1    1    2  504  502  0.82932505161E+02  0.28251554026E+02 -0.83478512446E+02  0.12101492783E+03  0.00000000000E+00 0.  1.
         21    1    1    2  505  503 -0.50360058171E+02 -0.27375809228E+02 -0.17529284348E+02  0.59940355352E+02  0.00000000000E+00 0.  1.
         21    1    1    2  506  505  0.94828308960E+01  0.64778863852E+02 -0.94280819839E+02  0.11478283092E+03  0.00000000000E+00 0.  1.
<scales pt_clust_3="47.59482" pt_clust_4="111.50368" pt_clust_5="47.59482" pt_clust_6="65.46927"></scales>
<clustering>
<clus scale="   47.595">  3  5 -1 -1</clus>
<clus scale="   65.469">  2  6  1 -1</clus>
<clus scale="  111.504">  2  4  1 -1</clus>
<clus scale="  124.557">  1  3  2 -1</clus>
</clustering>
</event>
<event>
 6    0  0.2666600E+002  0.1659834E+03  0.7546771E-02  0.1182102E+00
         21   -1    0    0  506  501  0.00000000000E+00  0.00000000000E+00  0.83665023626E+03  0.83665023626E+03  0.00000000000E+00 0.  1.
         21   -1    0    0  501  502 -0.00000000000E+00 -0.00000000000E+00 -0.34807802689E+03  0.34807802689E+03  0.00000000000E+00 0. -1.
         21    1    1    2  503  504 -0.17132599164E+03 -0.22620216618E+03  0.61168624421E+03  0.67429969357E+03  0.00000000000E+00 0.  1.
         21    1    1    2  504  505  0.60554850969E+02  0.20966962399E+02 -0.12733984419E+03  0.14255503992E+03  0.00000000000E+00 0. -1.
         21    1    1    2  505  502  0.72099266348E+02  0.64088960025E+02 -0.13497051584E+03  0.16589978647E+03  0.00000000000E+00 0. -1.
         21    1    1    2  506  503  0.38671874324E+02  0.14114624376E+03  0.13919632519E+03  0.20197374319E+03  0.00000000000E+00 0.  1.
<scales pt_clust_3="161.38291" pt_clust_4="31.62989" pt_clust_5="31.62989" pt_clust_6="146.34813"></scales>
<clustering>
<clus scale="   31.630">  4  5 -1 -1</clus>
<clus scale="  146.348">  1  6  2 -1</clus>
<clus scale="  161.383">  1  3  2 -1</clus>
<clus scale="  146.348">  1  3  2 -1</clus>
</clustering>
</event>
<event>
 6    0  0.2666600E+002  0.2117715E+03  0.7546771E-02  0.1140171E+00
         21   -1    0    0  505  501  0.00000000000E+00  0.00000000000E+00  0.13365476254E+03  0.13365476254E+03  0.00000000000E+00 0.  1.
         21   -1    0    0  504  502 -0.00000000000E+00 -0.00000000000E+00 -0.59141354483E+03  0.59141354483E+03  0.00000000000E+00 0.  1.
         21    1    1    2  503  506  0.12612984869E+03  0.31807541211E+02  0.18694918389E+02  0.13141521366E+03  0.00000000000E+00 0.  1.
         21    1    1    2  504  501 -0.20021178581E+03 -0.50295584155E+02 -0.43894060890E+03  0.48506006134E+03  0.00000000000E+00 0.  1.
         21    1    1    2  505  503  0.51676105372E+01  0.30556970031E+02 -0.18498839573E+02  0.36092099990E+02  0.00000000000E+00 0.  1.
         21    1    1    2  506  502  0.68914326588E+02 -0.12068927086E+02 -0.19014252202E+02  0.72500932387E+02  0.00000000000E+00 0.  1.
<scales pt_clust_3="39.94817" pt_clust_4="204.19921" pt_clust_5="30.99085" pt_clust_6="39.94817"></scales>
<clustering>
<clus scale="   30.991">  1  5  2 -1</clus>
<clus scale="   39.948">  3  6 -1 -1</clus>
<clus scale="  204.199">  2  4  1 -1</clus>
<clus scale="   30.991">  1  3  2 -1</clus>
</clustering>
</event>
<event>
 6    0  0.2666600E+002  0.8475888E+02  0.7546771E-02  0.1316064E+00
         21   -1    0    0  505  501  0.00000000000E+00  0.00000000000E+00  0.46060257025E+03  0.46060257025E+03  0.00000000000E+00 0.  1.
         21   -1    0    0  504  502 -0.00000000000E+00 -0.00000000000E+00 -0.11517430136E+04  0.11517430136E+04  0.00000000000E+00 0. -1.
         21    1    1    2  503  502 -0.94105092604E+02  0.62285093829E+01 -0.90373220356E+03  0.90863989486E+03  0.00000000000E+00 0. -1.
         21    1    1    2  504  506  0.60680415667E+02 -0.35111629926E+02 -0.23336803866E+03  0.24367105053E+03  0.00000000000E+00 0.  1.
         21    1    1    2  505  503  0.67770295102E+02  0.82606504653E+00  0.24218455483E+03  0.25148927190E+03  0.00000000000E+00 0.  1.
         21    1    1    2  506  501 -0.34345618165E+02  0.28057055496E+02  0.20377524401E+03  0.20854536658E+03  0.00000000000E+00 0. -1.
<scales pt_clust_3="84.75888" pt_clust_4="14000.00000" pt_clust_5="44.42278" pt_clust_6="44.34884"></scales>
<clustering>
<clus scale="   44.349">  1  6  2 -1</clus>
<clus scale="   44.423">  1  5  2 -1</clus>
<clus scale="   84.759">  2  3  1 -1</clus>
<clus scale="   44.349">  1  3  2 -1</clus>
</clustering>
</event>
<event>
 6    0  0.2666600E+002  0.1690574E+03  0.7546771E-02  0.1178834E+00
         21   -1    0    0  502  501  0.00000000000E+00  0.00000000000E+00  0.10935323027E+04  0.10935323027E+04  0.00000000000E+00 0.  1.
         21   -1    0    0  506  502 -0.00000000000E+00 -0.00000000000E+00 -0.70398419617E+02  0.70398419617E+02  0.00000000000E+00 0.  1.
         21    1    1    2  503  501 -0.79867727911E+01 -0.36475603576E+02  0.95088134929E+02  0.10215679909E+03  0.00000000000E+00 0.  1.
         21    1    1    2  504  503  0.28279476652E+02 -0.12599983211E+03  0.86953156234E+03  0.87906815685E+03  0.00000000000E+00 0.  1.
         21    1    1    2  505  504  0.83831554529E+01  0.92383018998E+02  0.52853035753E+02  0.10676302208E+03  0.00000000000E+00 0. -1.
         21    1    1    2  506  505 -0.28675859314E+02  0.70092416692E+02  0.56611500175E+01  0.75942744253E+02  0.00000000000E+00 0.  1.
<scales pt_clust_3="37.33977" pt_clust_4="159.47717" pt_clust_5="51.09383" pt_clust_6="51.09383"></scales>
<clustering>
<clus scale="   37.340">  1  3  2 -1</clus>
<clus scale="   51.094">  5  6 -1 -1</clus>
<clus scale="  159.477">  1  4  2 -1</clus>
<clus scale="   37.340">  1  3  2 -1</clus>
</clustering>
</event>
<event>
 6    0  0.3074415E+002  0.8409075E+02  0.7546771E-02  0.1317828E+00
         21   -1    0    0  503  501  0.00000000000E+00  0.00000000000E+00  0.18346775327E+03  0.18346775327E+03  0.00000000000E+00 0.  1.
         21   -1    0    0  504  502 -0.00000000000E+00 -0.00000000000E+00 -0.62837546999E+03  0.62837546999E+03  0.00000000000E+00 0. -1.
         21    1    1    2  503  505 -0.32450065539E+02  0.26382330811E+02  0.13244347790E+03  0.13888955674E+03  0.00000000000E+00 0.  1.
         21    1    1    2  504  506  0.15478504556E+02  0.31575900568E+02 -0.47828516557E+02  0.59364876788E+02  0.00000000000E+00 0. -1.
         21    1    1    2  505  502 -0.10612442074E+02 -0.11896010770E+03 -0.53332317627E+03  0.54653247067E+03  0.00000000000E+00 0. -1.
         21    1    1    2  506  501  0.27584003056E+02  0.61001876321E+02  0.38004982105E+01  0.67056319061E+02  0.00000000000E+00 0.  1.
<scales pt_clust_3="41.86625" pt_clust_4="35.16563" pt_clust_5="84.09075" pt_clust_6="14000.00000"></scales>
<clustering>
<clus scale="   35.166">  2  4  1 -1</clus>
<clus scale="   41.866">  1  3  2 -1</clus>
<clus scale="   84.091">  2  5  1 -1</clus>
<clus scale="   41.866">  1  3  2 -1</clus>
</clustering>
</event>
<event>
 6    0  0.2666600E+002  0.8125627E+02  0.7546771E-02  0.1325524E+00
         21   -1    0    0  503  501  0.00000000000E+00  0.00000000000E+00  0.24781718374E+03  0.24781718374E+03  0.00000000000E+00 0.  1.
         21   -1    0    0  504  502 -0.00000000000E+00 -0.00000000000E+00 -0.48986210516E+03  0.48986210516E+03  0.00000000000E+00 0.  1.
         21    1    1    2  503  506  0.62710233872E+02 -0.63001083749E+02  0.14305187833E+03  0.16842075252E+03  0.00000000000E+00 0.  1.
         21    1    1    2  504  505 -0.21884407440E+02 -0.66071537650E+02 -0.23666429181E+03  0.24668676980E+03  0.00000000000E+00 0. -1.
         21    1    1    2  505  501 -0.43533408346E+02  0.52828891616E+01  0.63469877242E+02  0.77145912901E+02  0.00000000000E+00 0.  1.
         21    1    1    2  506  502  0.27075819145E+01  0.12378973224E+03 -0.21190238518E+03  0.24542585368E+03  0.00000000000E+00 0.  1.
<scales pt_clust_3="63.30618" pt_clust_4="14000.00000" pt_clust_5="43.85278" pt_clust_6="81.25627"></scales>
<clustering>
<clus scale="   43.853">  1  5  2 -1</clus>
<clus scale="   63.306">  1  3  2 -1</clus>
<clus scale="   81.256">  1  6  2 -1</clus>
<clus scale="   43.853">  1  3  2 -1</clus>
</clustering>
</event>
<event>
 6    0  0.2666600E+002  0.1076036E+03  0.7546771E-02  0.1265073E+00
         21   -1    0    0  505  501  0.00000000000E+00  0.00000000000E+00  0.76569322238E+02  0.76569322238E+02  0.00000000000E+00 0.  1.
         21   -1    0    0  504  502 -0.00000000000E+00 -0.00000000000E+00 -0.27584548218E+03  0.27584548218E+03  0.00000000000E+00 0.  1.
         21    1    1    2  503  506  0.56504296510E+02  0.47403581073E+01 -0.46984909272E+02  0.73639583230E+02  0.00000000000E+00 0.  1.
         21    1    1    2  504  501 -0.52284292389E+02 -0.57761834659E+02 -0.29350704255E+02  0.83255874352E+02  0.00000000000E+00 0.  1.
         21    1    1    2  505  503 -0.56045026693E+02  0.21302835811E+02 -0.17877963528E+01  0.59983764857E+02  0.00000000000E+00 0.  1.
         21    1    1    2  506  502  0.51825022573E+02  0.31718640741E+02 -0.12115275007E+03  0.13553558198E+03  0.00000000000E+00 0.  1.
<scales pt_clust_3="47.51715" pt_clust_4="95.70299" pt_clust_5="59.95712" pt_clust_6="47.51715"></scales>
<clustering>
<clus scale="   47.517">  3  6 -1 -1</clus>
<clus scale="   59.957">  1  5  2 -1</clus>
<clus scale="   95.703">  1  4  2 -1</clus>
<clus scale="   59.957">  1  3  2 -1</clus>
</clustering>
</event>
<event>
 6    0  0.2666600E+002  0.3316552E+03  0.7546771E-02  0.1070407E+00
         21   -1    0    0  504  501  0.00000000000E+00  0.00000000000E+00  0.85938422831E+03  0.85938422831E+03  0.00000000000E+00 0. -1.
         21   -1    0    0  506  502 -0.00000000000E+00 -0.00000000000E+00 -0.28438176947E+03  0.28438176947E+03  0.00000000000E+00 0. -1.
         21    1    1    2  503  502  0.71009381105E+02  0.88046110456E+02 -0.77352145810E+02  0.13703212847E+03  0.00000000000E+00 0. -1.
         21    1    1    2  504  503  0.26438033611E+03  0.85139951312E+02  0.13925902288E+03  0.31070701454E+03  0.00000000000E+00 0. -1.
         21    1    1    2  505  501 -0.30293719773E+03 -0.22652332878E+03  0.50803160413E+03  0.63338761832E+03  0.00000000000E+00 0. -1.
         21    1    1    2  506  505 -0.32452519488E+02  0.53337267010E+02  0.50639776461E+01  0.62639236448E+02  0.00000000000E+00 0.  1.
<scales pt_clust_3="124.44330" pt_clust_4="331.65520" pt_clust_5="14000.00000" pt_clust_6="62.43421"></scales>
<clustering>
<clus scale="   62.434">  2  6  1 -1</clus>
<clus scale="  124.443">  2  3  1 -1</clus>
<clus scale="  331.655">  2  4  1 -1</clus>
<clus scale="  331.655">  1  3  2 -1</clus>
</clustering>
</event>
<event>
 6    0  0.2666600E+002  0.1547794E+03  0.7546771E-02  0.1194720E+00
         21   -1    0    0  502  501  0.00000000000E+00  0.00000000000E+00  0.75625908921E+02  0.75625908921E+02  0.00000000000E+00 0.  1.
         21   -1    0    0  503  502 -0.00000000000E+00 -0.00000000000E+00 -0.63665884268E+03  0.63665884268E+03  0.00000000000E+00 0.  1.
         21    1    1    2  503  504 -0.80234340389E+02 -0.31456739798E+02 -0.26519335238E+03  0.27884510037E+03  0.00000000000E+00 0.  1.
         21    1    1    2  504  505 -0.28493711711E+02 -0.10563650715E+03 -0.19630575896E+03  0.22473743402E+03  0.00000000000E+00 0.  1.
         21    1    1    2  505  506  0.73548478334E+02  0.48597696050E+02 -0.45345610105E+02  0.99132936416E+02  0.00000000000E+00 0.  1.
         21    1    1    2  506  501  0.35179573765E+02  0.88495550896E+02 -0.54188212312E+02  0.10956928079E+03  0.00000000000E+00 0.  1.
<scales pt_clust_3="86.18048" pt_clust_4="144.64915" pt_clust_5="52.98914" pt_clust_6="52.98914"></scales>
<clustering>
<clus scale="   52.989">  5  6 -1 -1</clus>
<clus scale="   86.180">  2  3  1 -1</clus>
<clus scale="  144.649">  2  4  1 -1</clus>
<clus scale="  154.779">  1  3  2 -1</clus>
</clustering>
</event>
<event>
 6    0  0.2666600E+002  0.1018997E+03  0.7546771E-02  0.1276351E+00
         21   -1    0    0  505  501  0.00000000000E+00  0.00000000000E+00  0.65615895806E+02  0.65615895806E+02  0.00000000000E+00 0.  1.
         21   -1    0    0  503  502 -0.00000000000E+00 -0.00000000000E+00 -0.75080952615E+03  0.75080952615E+03  0.00000000000E+00 0. -1.
         21    1    1    2  503  506  0.37359762529E+02 -0.27268749788E+02 -0.33372336182E+03  0.33691336987E+03  0.00000000000E+00 0. -1.
         21    1    1    2  504  502 -0.11803875107E+02 -0.79152420335E+02 -0.30546183091E+03  0.31577106779E+03  0.00000000000E+00 0. -1.
         21    1    1    2  505  504  0.65430842276E+01  0.11364768053E+03 -0.89547284923E+01  0.11418754049E+03  0.00000000000E+00 0.  1.
         21    1    1    2  506  501 -0.32098971650E+02 -0.72265104032E+01 -0.37053709129E+02  0.49553443814E+02  0.00000000000E+00 0. -1.
<scales pt_clust_3="45.67568" pt_clust_4="14000.00000" pt_clust_5="101.89973" pt_clust_6="32.90238"></scales>
<clustering>
<clus scale="   32.902">  1  6  2 -1</clus>
<clus scale="   45.676">  2  3  1 -1</clus>
<clus scale="  101.900">  1  5  2 -1</clus>
<clus scale="   32.902">  1  3  2 -1</clus>
</clustering>
</event>
<event>
 6    0  0.2666600E+002  0.2139211E+03  0.7546771E-02  0.1138498E+00
         21   -1    0    0  506  501  0.00000000000E+00  0.00000000000E+00  0.93432655506E+02  0.93432655506E+02  0.00000000000E+00 0.  1.
         21   -1    0    0  505  502 -0.00000000000E+00 -0.00000000000E+00 -0.65600464766E+03  0.65600464766E+03  0.00000000000E+00 0.  1.
         21    1    1    2  503  504  0.13720386060E+03  0.83376412988E+01 -0.25131937542E+03  0.28645391267E+03  0.00000000000E+00 0.  1.
         21    1    1    2  504  502  0.13824188423E+02 -0.29148361490E+02 -0.16849886540E+03  0.17155932736E+03  0.00000000000E+00 0.  1.
         21    1    1    2  505  501 -0.19932036059E+03  0.37371104832E+02 -0.11882450947E+03  0.23504142119E+03  0.00000000000E+00 0.  1.
         21    1    1    2  506  503  0.48292311574E+02 -0.16560384640E+02 -0.23929241870E+02  0.56382641948E+02  0.00000000000E+00 0.  1.
<scales pt_clust_3="51.61473" pt_clust_4="32.26043" pt_clust_5="196.12134" pt_clust_6="51.61473"></scales>
<clustering>
<clus scale="   32.260">  2  4  1 -1</clus>
<clus scale="   51.615">  3  6 -1 -1</clus>
<clus scale="  196.121">  1  5  2 -1</clus>
<clus scale="  196.121">  1  3  2 -1</clus>
</clustering>
</event>
<event>
 6    0  0.2666600E+002  0.2211472E+03  0.7546771E-02  0.1133031E+00
         21   -1    0    0  504  501  0.00000000000E+00  0.00000000000E+00  0.41123645378E+03  0.41123645378E+03  0.00000000000E+00 0.  1.
         21   -1    0    0  505  502 -0.00000000000E+00 -0.00000000000E+00 -0.11209036818E+03  0.11209036818E+03  0.00000000000E+00 0.  1.
         21    1    1    2  503  501 -0.66581144207E+01 -0.45179911650E+02  0.31255039520E+02  0.55339248276E+02  0.00000000000E+00 0.  1.
         21    1    1    2  504  506 -0.84278321782E+02  0.11829068305E+03  0.13067482246E+03  0.19537510191E+03  0.00000000000E+00 0.  1.
         21    1    1    2  505  503  0.13696576519E+03 -0.10967884466E+03  0.11485651731E+03  0.20971668834E+03  0.00000000000E+00 0.  1.
         21    1    1    2  506  502 -0.46029328984E+02  0.36568073257E+02  0.22359706310E+02  0.62895783441E+02  0.00000000000E+00 0.  1.
<scales pt_clust_3="45.47223" pt_clust_4="208.04875" pt_clust_5="45.47223" pt_clust_6="30.66301"></scales>
<clustering>
<clus scale="   30.663">  4  6 -1 -1</clus>
<clus scale="   45.472">  3  5 -1 -1</clus>
<clus scale="  208.049">  1  4  2 -1</clus>
<clus scale="  208.049">  1  3  2 -1</clus>
</clustering>
</event>
<event>
 6    0  0.2666600E+002  0.1416332E+03  0.7546771E-02  0.1211148E+00
         21   -1    0    0  503  501  0.00000000000E+00  0.00000000000E+00  0.21945945524E+04  0.21945945524E+04  0.00000000000E+00 0. -1.
         21   -1    0    0  504  502 -0.00000000000E+00 -0.00000000000E+00 -0.18393942122E+02  0.18393942122E+02  0.00000000000E+00 0. -1.
         21    1    1    2  503  505  0.48960322168E+02  0.10738807470E+03  0.10586421147E+04  0.10652006566E+04  0.00000000000E+00 0. -1.
         21    1    1    2  504  506 -0.45062798640E+02 -0.11502747379E+03  0.32138920729E+03  0.34431525977E+03  0.00000000000E+00 0. -1.
         21    1    1    2  505  502  0.15046489443E+02  0.50189698742E+02  0.25649319832E+03  0.26179030442E+03  0.00000000000E+00 0. -1.
         21    1    1    2  506  501 -0.18944012971E+02 -0.42550299655E+02  0.53967608991E+03  0.54168227371E+03  0.00000000000E+00 0. -1.
<scales pt_clust_3="32.61798" pt_clust_4="132.90400" pt_clust_5="32.61798" pt_clust_6="46.57686"></scales>
<clustering>
<clus scale="   32.618">  3  5 -1 -1</clus>
<clus scale="   46.577">  1  6  2 -1</clus>
<clus scale="  132.904">  2  4  1 -1</clus>
<clus scale="   46.577">  1  3  2 -1</clus>
</clustering>
</event>
<event>
 6    0  0.2666600E+002  0.1355810E+03  0.7546771E-02  0.1219402E+00
         21   -1    0    0  504  501  0.00000000000E+00  0.00000000000E+00  0.57850014131E+02  0.57850014131E+02  0.00000000000E+00 0.  1.
         21   -1    0    0  503  502 -0.00000000000E+00 -0.00000000000E+00 -0.97422771873E+03  0.97422771873E+03  0.00000000000E+00 0.  1.
         21    1    1    2  503  501 -0.70339913040E+01  0.82913066798E+02  0.35256346481E+01  0.83285555646E+02  0.00000000000E+00 0.  1.
         21    1    1    2  504  506 -0.31965144859E+02  0.46933876568E+02 -0.86952303569E+02  0.10385211770E+03  0.00000000000E+00 0. -1.
         21    1    1    2  505  502  0.28159565939E+02 -0.64960293288E+02 -0.54441242086E+03  0.54899698072E+03  0.00000000000E+00 0.  1.
         21    1    1    2  506  505  0.10839570224E+02 -0.64886650078E+02 -0.28853861482E+03  0.29594307879E+03  0.00000000000E+00 0.  1.
<scales pt_clust_3="129.02356" pt_clust_4="56.78520" pt_clust_5="40.15227" pt_clust_6="40.15227"></scales>
<clustering>
<clus scale="   40.152">  5  6 -1 -1</clus>
<clus scale="   56.785">  1  4  2 -1</clus>
<clus scale="  129.024">  1  3  2 -1</clus>
<clus scale="   56.785">  1  3  2 -1</clus>
</clustering>
</event>
<event>
 6    0  0.2666600E+002  0.1630976E+03  0.7546771E-02  0.1185243E+00
         21   -1    0    0  506  501  0.00000000000E+00  0.00000000000E+00  0.99272283464E+02  0.99272283464E+02  0.00000000000E+00 0. -1.
         21   -1    0    0  505  502 -0.00000000000E+00 -0.00000000000E+00 -0.72868398265E+03  0.72868398265E+03  0.00000000000E+00 0.  1.
         21    1    1    2  503  502 -0.33278157442E+02 -0.55971754647E+01 -0.10626933527E+03  0.11149859082E+03  0.00000000000E+00 0.  1.
         21    1    1    2  504  503 -0.52147791460E+02 -0.11965498019E+03 -0.51233862096E+03  0.52870366838E+03  0.00000000000E+00 0.  1.
         21    1    1    2  505  501  0.40423830959E+02 -0.10832624098E+02  0.97073011315E+01  0.42961186547E+02  0.00000000000E+00 0. -1.
         21    1    1    2  506  504  0.45002117942E+02  0.13608477975E+03 -0.20511044087E+02  0.14479282036E+03  0.00000000000E+00 0. -1.
<scales pt_clust_3="32.94230" pt_clust_4="32.94230" pt_clust_5="41.85011" pt_clust_6="149.67764"></scales>
<clustering>
<clus scale="   32.942">  3  4 -1 -1</clus>
<clus scale="   41.850">  1  5  2 -1</clus>
<clus scale="  149.678">  1  6  2 -1</clus>
<clus scale="   41.850">  1  3  2 -1</clus>
</clustering>
</event>
<event>
 6    0  0.2666600E+002  0.1974222E+03  0.7546771E-02  0.1151932E+00
         21   -1    0    0  504  501  0.00000000000E+00  0.00000000000E+00  0.82164477035E+03  0.82164477035E+03  0.00000000000E+00 0. -1.
         21   -1    0    0  503  502 -0.00000000000E+00 -0.00000000000E+00 -0.38682973501E+03  0.38682973501E+03  0.00000000000E+00 0. -1.
         21    1    1    2  503  506 -0.61686030066E+02  0.11343975690E+03 -0.25262255391E+03  0.28371094356E+03  0.00000000000E+00 0. -1.
         21    1    1    2  504  505  0.36533629544E+01 -0.38231105333E+02  0.30643589038E+02  0.49132413181E+02  0.00000000000E+00 0. -1.
         21    1    1    2  505  502 -0.94847445377E+02  0.19656374664E+02 -0.74708623411E+02  0.12232656854E+03  0.00000000000E+00 0. -1.
         21    1    1    2  506  501  0.15288011249E+03 -0.94865026233E+02  0.73150262362E+03  0.75330458007E+03  0.00000000000E+00 0. -1.
<scales pt_clust_3="197.42216" pt_clust_4="38.40527" pt_clust_5="96.52408" pt_clust_6="14000.00000"></scales>
<clustering>
<clus scale="   38.405">  1  4  2 -1</clus>
<clus scale="   96.524">  2  5  1 -1</clus>
<clus scale="  197.422">  2  3  1 -1</clus>
<clus scale="   38.405">  1  3  2 -1</clus>
</clustering>
</event>
<event>
 6    0  0.2666600E+002  0.1110243E+03  0.7546771E-02  0.1258685E+00
         21   -1    0    0  504  501  0.00000000000E+00  0.00000000000E+00  0.23458759878E+02  0.23458759878E+02  0.00000000000E+00 0.  1.
         21   -1    0    0  506  502 -0.00000000000E+00 -0.00000000000E+00 -0.27276889792E+04  0.27276889792E+04  0.00000000000E+00 0.  1.
         21    1    1    2  503  501 -0.24582429958E+02 -0.18490069901E+02 -0.37873550932E+02  0.48791232899E+02  0.00000000000E+00 0.  1.
         21    1    1    2  504  505  0.46677088956E+02 -0.96632623950E+02 -0.16055990301E+03  0.19312197466E+03  0.00000000000E+00 0.  1.
         21    1    1    2  505  502 -0.23624965281E+02  0.69295598860E+02 -0.20069367419E+04  0.20082716711E+04  0.00000000000E+00 0.  1.
         21    1    1    2  506  503  0.15303062826E+01  0.45827094991E+02 -0.49886002348E+03  0.50096286040E+03  0.00000000000E+00 0.  1.
<scales pt_clust_3="30.76002" pt_clust_4="111.02432" pt_clust_5="14000.00000" pt_clust_6="44.74715"></scales>
<clustering>
<clus scale="   30.760">  1  3  2 -1</clus>
<clus scale="   44.747">  2  6  1 -1</clus>
<clus scale="  111.024">  1  4  2 -1</clus>
<clus scale="   30.760">  1  3  2 -1</clus>
</clustering>
</event>
<event>
 6    0  0.2666600E+002  0.9306785E+02  0.7546771E-02  0.1295588E+00
         21   -1    0    0  506  501  0.00000000000E+00  0.00000000000E+00  0.23852744935E+03  0.23852744935E+03  0.00000000000E+00 0.  1.
         21   -1    0    0  504  502 -0.00000000000E+00 -0.00000000000E+00 -0.85614867488E+03  0.85614867488E+03  0.00000000000E+00 0.  1.
         21    1    1    2  503  505  0.18885508279E+02  0.10044383298E+03  0.71824881840E+02  0.12491773156E+03  0.00000000000E+00 0.  1.
         21    1    1    2  504  501  0.71775256630E+02 -0.31856608943E+02 -0.15749064565E+03  0.17598248340E+03  0.00000000000E+00 0.  1.
         21    1    1    2  505  502 -0.21018503448E+02 -0.60153550159E+02 -0.65180121682E+03  0.65490843125E+03  0.00000000000E+00 0.  1.
         21    1    1    2  506  503 -0.69642261461E+02 -0.84336738765E+01  0.11984575510E+03  0.13886747802E+03  0.00000000000E+00 0.  1.
<scales pt_clust_3="93.06785" pt_clust_4="14000.00000" pt_clust_5="63.71991" pt_clust_6="71.51914"></scales>
<clustering>
<clus scale="   63.720">  2  5  1 -1</clus>
<clus scale="   71.519">  1  6  2 -1</clus>
<clus scale="   93.068">  1  3  2 -1</clus>
<clus scale="   71.519">  1  3  2 -1</clus>
</clustering>
</event>
<event>
 6    0  0.2666600E+002  0.4114087E+03  0.7546771E-02  0.1039899E+00
         21   -1    0    0  506  501  0.00000000000E+00  0.00000000000E+00  0.34105621638E+03  0.34105621638E+03  0.00000000000E+00 0.  1.
         21   -1    0    0  503  502 -0.00000000000E+00 -0.00000000000E+00 -0.49317626663E+03  0.49317626663E+03  0.00000000000E+00 0.  1.
         21    1    1    2  503  504 -0.62185632022E+02 -0.99664009922E+01  0.90323569085E+01  0.63623623365E+02  0.00000000000E+00 0.  1.
         21    1    1    2  504  501 -0.31495906429E+03 -0.13798016845E+03 -0.93894575447E+02  0.35644625172E+03  0.00000000000E+00 0.  1.
         21    1    1    2  505  502  0.13564369611E+03  0.40355275980E+02 -0.46510172844E+02  0.14896629408E+03  0.00000000000E+00 0. -1.
         21    1    1    2  506  505  0.24150100021E+03  0.10759129346E+03 -0.20747658865E+02  0.26519631384E+03  0.00000000000E+00 0.  1.
<scales pt_clust_3="30.65504" pt_clust_4="30.65504" pt_clust_5="39.26838" pt_clust_6="408.66496"></scales>
<clustering>
<clus scale="   30.655">  3  4 -1 -1</clus>
<clus scale="   39.268">  5  6 -1 -1</clus>
<clus scale="  408.665">  1  5  2 -1</clus>
<clus scale="  408.665">  1  3  2 -1</clus>
</clustering>
</event>
<event>
 6    0  0.2666600E+002  0.7970972E+02  0.7546771E-02  0.1329877E+00
         21   -1    0    0  506  501  0.00000000000E+00  0.00000000000E+00  0.43782998831E+02  0.43782998831E+02  0.00000000000E+00 0.  1.
         21   -1    0    0  505  502 -0.00000000000E+00 -0.00000000000E+00 -0.22361023885E+04  0.22361023885E+04  0.00000000000E+00 0. -1.
         21    1    1    2  503  502 -0.98622405940E+01 -0.57960697100E+02 -0.64234606159E+03  0.64503113804E+03  0.00000000000E+00 0. -1.
         21    1    1    2  504  501  0.75272486950E+01 -0.45579590595E+02  0.18144475558E+02  0.49632454554E+02  0.00000000000E+00 0.  1.
         21    1    1    2  505  504  0.31099585084E+01  0.13764589019E+03 -0.15200829148E+04  0.15263053858E+04  0.00000000000E+00 0. -1.
         21    1    1    2  506  503 -0.77496660944E+00 -0.34105602497E+02 -0.48034888874E+02  0.58916408954E+02  0.00000000000E+00 0.  1.
<scales pt_clust_3="59.97584" pt_clust_4="79.70972" pt_clust_5="14000.00000" pt_clust_6="34.11441"></scales>
<clustering>
<clus scale="   34.114">  1  6  2 -1</clus>
<clus scale="   59.976">  2  3  1 -1</clus>
<clus scale="   79.710">  1  4  2 -1</clus>
<clus scale="   34.114">  1  3  2 -1</clus>
</clustering>
</event>
<event>
 6    0  0.2666600E+002  0.1887664E+03  0.7546771E-02  0.1159579E+00
         21   -1    0    0  505  501  0.00000000000E+00  0.00000000000E+00  0.10665339776E+03  0.10665339776E+03  0.00000000000E+00 0. -1.
         21   -1    0    0  503  502 -0.00000000000E+00 -0.00000000000E+00 -0.33259269950E+03  0.33259269950E+03  0.00000000000E+00 0. -1.
         21    1    1    2  503  506 -0.14458762424E+02 -0.85904567633E+02 -0.67755888926E+02  0.11036082201E+03  0.00000000000E+00 0. -1.
         21    1    1    2  504  502  0.81909320900E+02  0.12162326574E+03 -0.69674447317E+02  0.16234495443E+03  0.00000000000E+00 0. -1.
         21    1    1    2  505  504 -0.69556483090E+01  0.41536776180E+02 -0.18480471756E+02  0.45991441107E+02  0.00000000000E+00 0. -1.
         21    1    1    2  506  501 -0.60494910167E+02 -0.77255474290E+02 -0.70028493743E+02  0.12054887971E+03  0.00000000000E+00 0. -1.
<scales pt_clust_3="43.13211" pt_clust_4="31.21960" pt_clust_5="31.21960" pt_clust_6="185.29640"></scales>
<clustering>
<clus scale="   31.220">  4  5 -1 -1</clus>
<clus scale="   43.132">  3  6 -1 -1</clus>
<clus scale="  185.296">  2  3  1 -1</clus>
<clus scale="  188.766">  1  3  2 -1</clus>
</clustering>
</event>
<event>
 6    0  0.2666600E+002  0.1148505E+03  0.7546771E-02  0.1251842E+00
         21   -1    0    0  506  501  0.00000000000E+00  0.00000000000E+00  0.27220808121E+03  0.27220808121E+03  0.00000000000E+00 0.  1.
         21   -1    0    0  503  502 -0.00000000000E+00 -0.00000000000E+00 -0.48393226117E+03  0.48393226117E+03  0.00000000000E+00 0. -1.
         21    1    1    2  503  505 -0.16429329612E+02 -0.97141501515E+02 -0.38904040757E+03  0.40132135865E+03  0.00000000000E+00 0. -1.
         21    1    1    2  504  501  0.99993770465E+02  0.12867537313E+02  0.15333609307E+03  0.18351099445E+03  0.00000000000E+00 0.  1.
         21    1    1    2  505  504 -0.56080717998E+02  0.10329930259E+03  0.51193125028E+02  0.12820502680E+03  0.00000000000E+00 0.  1.
         21    1    1    2  506  502 -0.27483722855E+02 -0.19025338391E+02 -0.27212990486E+02  0.43102962474E+02  0.00000000000E+00 0.  1.
<scales pt_clust_3="14000.00000" pt_clust_4="99.82157" pt_clust_5="114.85049" pt_clust_6="33.42631"></scales>
<clustering>
<clus scale="   33.426">  2  6  1 -1</clus>
<clus scale="   99.822">  1  4  2 -1</clus>
<clus scale="  114.850">  1  5  2 -1</clus>
<clus scale="   99.822">  1  3  2 -1</clus>
</clustering>
</event>
<event>
 6    0  0.2666600E+002  0.3075410E+03  0.7546771E-02  0.1081531E+00
         21   -1    0    0  505  501  0.00000000000E+00  0.00000000000E+00  0.33496984695E+03  0.33496984695E+03  0.00000000000E+00 0.  1.
         21   -1    0    0  506  502 -0.00000000000E+00 -0.00000000000E+00 -0.18359747386E+04  0.18359747386E+04  0.00000000000E+00 0. -1.
         21    1    1    2  503  502  0.43441312306E+02 -0.25049046736E+02 -0.35819047690E+03  0.36168359113E+03  0.00000000000E+00 0. -1.
         21    1    1    2  504  501  0.17960487440E+03 -0.21688051603E+03  0.22438757930E+03  0.36006229306E+03  0.00000000000E+00 0.  1.
         21    1    1    2  505  503  0.47303857149E+02  0.11683937419E+02 -0.14757734705E+02  0.50911295686E+02  0.00000000000E+00 0.  1.
         21    1    1    2  506  504 -0.27035004385E+03  0.23024562534E+03 -0.13524442593E+04  0.13982874056E+04  0.00000000000E+00 0. -1.
<scales pt_clust_3="50.33984" pt_clust_4="14000.00000" pt_clust_5="48.72545" pt_clust_6="307.54100"></scales>
<clustering>
<clus scale="   48.725">  1  5  2 -1</clus>
<clus scale="   50.340">  2  3  1 -1</clus>
<clus scale="  307.541">  2  6  1 -1</clus>
<clus scale="   48.725">  1  3  2 -1</clus>
</clustering>
</event>
<event>
 6    0  0.2666600E+002  0.1510864E+03  0.7546771E-02  0.1199144E+00
         21   -1    0    0  503  501  0.00000000000E+00  0.00000000000E+00  0.36927007571E+03  0.36927007571E+03  0.00000000000E+00 0.  1.
         21   -1    0    0  506  502 -0.00000000000E+00 -0.00000000000E+00 -0.13094477369E+03  0.13094477369E+03  0.00000000000E+00 0.  1.
         21    1    1    2  503  504  0.19394670499E+02 -0.14577025552E+03  0.23113567087E+03  0.27395039512E+03  0.00000000000E+00 0.  1.
         21    1    1    2  504  505  0.95184485508E+00  0.46260208032E+02 -0.14162476316E+02  0.48388930461E+02  0.00000000000E+00 0.  1.
         21    1    1    2  505  502  0.54172414735E+02  0.69182466754E+02  0.37973187679E+02  0.95722657751E+02  0.00000000000E+00 0.  1.
         21    1    1    2  506  501 -0.74518930089E+02  0.30327580733E+02 -0.16621080211E+02  0.82152866062E+02  0.00000000000E+00 0.  1.
<scales pt_clust_3="137.80994" pt_clust_4="44.94119" pt_clust_5="44.94119" pt_clust_6="80.45392"></scales>
<clustering>
<clus scale="   44.941">  4  5 -1 -1</clus>
<clus scale="   80.454">  2  6  1 -1</clus>
<clus scale="  137.810">  1  3  2 -1</clus>
<clus scale="  137.810">  1  3  2 -1</clus>
</clustering>
</event>
<event>
 6    0  0.2666600E+002  0.1582784E+03  0.7546771E-02  0.1190654E+00
         21   -1    0    0  504  501  0.00000000000E+00  0.00000000000E+00  0.13621682013E+04  0.13621682013E+04  0.00000000000E+00 0. -1.
         21   -1    0    0  503  502 -0.00000000000E+00 -0.00000000000E+00 -0.16964307134E+03  0.16964307134E+03  0.00000000000E+00 0.  1.
         21    1    1    2  503  501 -0.85748333290E+02 -0.97030199685E+02  0.12222749447E+04  0.12291149974E+04  0.00000000000E+00 0. -1.
         21    1    1    2  504  506  0.50539262663E+01 -0.30894058567E+02  0.95387155860E+02  0.10039270157E+03  0.00000000000E+00 0. -1.
         21    1    1    2  505  502  0.30635177382E+02  0.75805821091E+02 -0.91142942062E+02  0.12244211895E+03  0.00000000000E+00 0.  1.
         21    1    1    2  506  505  0.50059229641E+02  0.52118437161E+02 -0.33994028598E+02  0.79861454687E+02  0.00000000000E+00 0.  1.
<scales pt_clust_3="150.53500" pt_clust_4="31.30471" pt_clust_5="45.95807" pt_clust_6="45.95807"></scales>
<clustering>
<clus scale="   31.305">  1  4  2 -1</clus>
<clus scale="   45.958">  5  6 -1 -1</clus>
<clus scale="  150.535">  1  3  2 -1</clus>
<clus scale="   31.305">  1  3  2 -1</clus>
</clustering>
</event>
<event>
 6    0  0.2666600E+002  0.1180512E+03  0.7546771E-02  0.1246347E+00
         21   -1    0    0  503  501  0.00000000000E+00  0.00000000000E+00  0.73767200216E+02  0.73767200216E+02  0.00000000000E+00 0.  1.
         21   -1    0    0  506  502 -0.00000000000E+00 -0.00000000000E+00 -0.38350464743E+03  0.38350464743E+03  0.00000000000E+00 0.  1.
         21    1    1    2  503  505 -0.75268130936E+02  0.21598936425E+01  0.36056089091E+01  0.75385390433E+02  0.00000000000E+00 0.  1.
         21    1    1    2  504  501  0.85082705747E+02 -0.45925086249E+02 -0.11190521474E+03  0.14788832763E+03  0.00000000000E+00 0.  1.
         21    1    1    2  505  502 -0.41378722654E+02  0.22269579592E+02 -0.24515691894E+02  0.53001434063E+02  0.00000000000E+00 0.  1.
         21    1    1    2  506  504  0.31564147843E+02  0.21495613015E+02 -0.17692214949E+03  0.18099669552E+03  0.00000000000E+00 0.  1.
<scales pt_clust_3="33.91046" pt_clust_4="109.97015" pt_clust_5="33.91046" pt_clust_6="38.18844"></scales>
<clustering>
<clus scale="   33.910">  3  5 -1 -1</clus>
<clus scale="   38.188">  2  6  1 -1</clus>
<clus scale="  109.970">  2  4  1 -1</clus>
<clus scale="  118.051">  1  3  2 -1</clus>
</clustering>
</event>
<event>
 6    0  0.2666600E+002  0.2625715E+03  0.7546771E-02  0.1105608E+00
         21   -1    0    0  505  501  0.00000000000E+00  0.00000000000E+00  0.12697606477E+04  0.12697606477E+04  0.00000000000E+00 0. -1.
         21   -1    0    0  503  502 -0.00000000000E+00 -0.00000000000E+00 -0.61898794726E+02  0.61898794726E+02  0.00000000000E+00 0. -1.
         21    1    1    2  503  504 -0.91117727997E+02 -0.75634386532E+02  0.41376934932E+03  0.43038131374E+03  0.00000000000E+00 0. -1.
         21    1    1    2  504  501 -0.11535666043E+03 -0.53118453366E+02  0.45510972981E+03  0.47249719085E+03  0.00000000000E+00 0. -1.
         21    1    1    2  505  506  0.10003607866E+03  0.16057155483E+02  0.18113469116E+03  0.20754475570E+03  0.00000000000E+00 0. -1.
         21    1    1    2  506  502  0.10643830977E+03  0.11269568442E+03  0.15784808264E+03  0.22123618209E+03  0.00000000000E+00 0. -1.
<scales pt_clust_3="30.98710" pt_clust_4="245.43582" pt_clust_5="79.76604" pt_clust_6="79.76604"></scales>
<clustering>
<clus scale="   30.987">  3  4 -1 -1</clus>
<clus scale="   79.766">  5  6 -1 -1</clus>
<clus scale="  245.436">  1  3  2 -1</clus>
<clus scale="  245.436">  1  3  2 -1</clus>
</clustering>
</event>
<event>
 6    0  0.2666600E+002  0.1061344E+03  0.7546771E-02  0.1267900E+00
         21   -1    0    0  504  501  0.00000000000E+00  0.00000000000E+00  0.84615760410E+03  0.84615760410E+03  0.00000000000E+00 0.  1.
         21   -1    0    0  505  502 -0.00000000000E+00 -0.00000000000E+00 -0.25289423340E+02  0.25289423340E+02  0.00000000000E+00 0.  1.
         21    1    1    2  503  501  0.43190319620E+02  0.62281544283E+02  0.21319300019E+03  0.22626455709E+03  0.00000000000E+00 0.  1.
         21    1    1    2  504  506  0.20975955018E+02 -0.31936608359E+02  0.12901442704E+03  0.13455355821E+03  0.00000000000E+00 0.  1.
         21    1    1    2  505  503 -0.62367685001E+02  0.50580705396E+02  0.34622252948E+03  0.35541268380E+03  0.00000000000E+00 0.  1.
         21    1    1    2  506  502 -0.17985896368E+01 -0.80925641320E+02  0.13243822406E+03  0.15521622834E+03  0.00000000000E+00 0.  1.
<scales pt_clust_3="75.79178" pt_clust_4="34.37561" pt_clust_5="93.60093" pt_clust_6="34.37561"></scales>
<clustering>
<clus scale="   34.376">  4  6 -1 -1</clus>
<clus scale="   75.792">  1  3  2 -1</clus>
<clus scale="   93.601">  1  5  2 -1</clus>
<clus scale="   75.792">  1  3  2 -1</clus>
</clustering>
</event>
<event>
 6    0  0.2666600E+002  0.1356150E+03  0.7546771E-02  0.1219354E+00
         21   -1    0    0  506  501  0.00000000000E+00  0.00000000000E+00  0.39150448144E+03  0.39150448144E+03  0.00000000000E+00 0.  1.
         21   -1    0    0  505  502 -0.00000000000E+00 -0.00000000000E+00 -0.14204614380E+04  0.14204614380E+04  0.00000000000E+00 0. -1.
         21    1    1    2  503  504  0.87771145530E+02 -0.47409774434E+02 -0.17854385967E+03  0.20452229836E+03  0.00000000000E+00 0.  1.
         21    1    1    2  504  501 -0.84542721198E+01 -0.48287687296E+02  0.67944580484E+02  0.83783300714E+02  0.00000000000E+00 0. -1.
         21    1    1    2  505  503  0.32169523237E+02 -0.23714020692E+02 -0.11986062272E+04  0.11992723297E+04  0.00000000000E+00 0. -1.
         21    1    1    2  506  502 -0.11148639665E+03  0.11941148242E+03  0.28024854984E+03  0.32438799062E+03  0.00000000000E+00 0.  1.
<scales pt_clust_3="14000.00000" pt_clust_4="49.67539" pt_clust_5="39.96540" pt_clust_6="135.61503"></scales>
<clustering>
<clus scale="   39.965">  2  5  1 -1</clus>
<clus scale="   49.675">  1  4  2 -1</clus>
<clus scale="  135.615">  1  6  2 -1</clus>
<clus scale="   49.675">  1  3  2 -1</clus>
</clustering>
</event>
<event>
 6    0  0.2666600E+002  0.1822328E+03  0.7546771E-02  0.1165659E+00
         21   -1    0    0  506  501  0.00000000000E+00  0.00000000000E+00  0.43408191519E+03  0.43408191519E+03  0.00000000000E+00 0. -1.
         21   -1    0    0  505  502 -0.00000000000E+00 -0.00000000000E+00 -0.11377393407E+04  0.11377393407E+04  0.00000000000E+00 0.  1.
         21    1    1    2  503  504 -0.75006711599E+02 -0.71120886991E+02  0.68210095056E+02  0.12384185245E+03  0.00000000000E+00 0.  1.
         21    1    1    2  504  501  0.44384291365E+02  0.48563571206E+02 -0.83419171246E+01  0.66317217595E+02  0.00000000000E+00 0.  1.
         21    1    1    2  505  503  0.14962250284E+03  0.10573325453E+03 -0.10471394587E+04  0.10630463115E+04  0.00000000000E+00 0.  1.
         21    1    1    2  506  502 -0.11900008260E+03 -0.83175938742E+02  0.28361385529E+03  0.31861587430E+03  0.00000000000E+00 0. -1.
<scales pt_clust_3="87.81592" pt_clust_4="65.79047" pt_clust_5="14000.00000" pt_clust_6="182.23284"></scales>
<clustering>
<clus scale="   65.790">  1  4  2 -1</clus>
<clus scale="   87.816">  1  3  2 -1</clus>
<clus scale="  182.233">  1  6  2 -1</clus>
<clus scale="   65.790">  1  3  2 -1</clus>
</clustering>
</event>
<event>
 6    0  0.2666600E+002  0.8180687E+02  0.7546771E-02  0.1324001E+00
         21   -1    0    0  503  501  0.00000000000E+00  0.00000000000E+00  0.15160256206E+04  0.15160256206E+04  0.00000000000E+00 0.  1.
         21   -1    0    0  504  502 -0.00000000000E+00 -0.00000000000E+00 -0.53734480625E+02  0.53734480625E+02  0.00000000000E+00 0.  1.
         21    1    1    2  503  505 -0.41732324982E+02  0.51411606781E+02  0.39517791945E+03  0.40068731984E+03  0.00000000000E+00 0.  1.
         21    1    1    2  504  506  0.11051215801E+03  0.18942653622E+02  0.29098572130E+02  0.11583819791E+03  0.00000000000E+00 0.  1.
         21    1    1    2  505  502 -0.30683738489E+02 -0.32987163520E+01  0.32688119240E+02  0.44954270951E+02  0.00000000000E+00 0. -1.
         21    1    1    2  506  501 -0.38096094539E+02 -0.67055544051E+02  0.10053265292E+04  0.10082803126E+04  0.00000000000E+00 0.  1.
<scales pt_clust_3="67.20496" pt_clust_4="81.80687" pt_clust_5="30.86055" pt_clust_6="14000.00000"></scales>
<clustering>
<clus scale="   30.861">  2  5  1 -1</clus>
<clus scale="   67.205">  1  3  2 -1</clus>
<clus scale="   81.807">  2  4  1 -1</clus>
<clus scale="   67.205">  1  3  2 -1</clus>
</clustering>
</event>
<event>
 6    0  0.2666600E+002  0.1327381E+03  0.7546771E-02  0.1223449E+00
         21   -1    0    0  503  501  0.00000000000E+00  0.00000000000E+00  0.11538460251E+03  0.11538460251E+03  0.00000000000E+00 0. -1.
         21   -1    0    0  501  502 -0.00000000000E+00 -0.00000000000E+00 -0.28115617586E+03  0.28115617586E+03  0.00000000000E+00 0. -1.
         21    1    1    2  503  505  0.39645972232E+02 -0.14162376077E+03 -0.12346745106E+02  0.14758568645E+03  0.00000000000E+00 0. -1.
         21    1    1    2  504  506 -0.83942709697E+01  0.54435746416E+02 -0.38006659786E+02  0.66919507328E+02  0.00000000000E+00 0. -1.
         21    1    1    2  505  504  0.38083036505E+02  0.44879613399E+02 -0.39736825166E+02  0.71017692462E+02  0.00000000000E+00 0. -1.
         21    1    1    2  506  502 -0.69334737767E+02  0.42308400957E+02 -0.75681343290E+02  0.11101789214E+03  0.00000000000E+00 0. -1.
<scales pt_clust_3="124.02315" pt_clust_4="45.75942" pt_clust_5="45.75942" pt_clust_6="81.22381"></scales>
<clustering>
<clus scale="   45.759">  4  5 -1 -1</clus>
<clus scale="   81.224">  2  6  1 -1</clus>
<clus scale="  124.023">  1  3  2 -1</clus>
<clus scale="  124.023">  1  3  2 -1</clus>
</clustering>
</event>
<event>
 6    0  0.2666600E+002  0.1726681E+03  0.7546771E-02  0.1175094E+00
         21   -1    0    0  503  501  0.00000000000E+00  0.00000000000E+00  0.31215425778E+03  0.31215425778E+03  0.00000000000E+00 0. -1.
         21   -1    0    0  501  502 -0.00000000000E+00 -0.00000000000E+00 -0.11528339869E+03  0.11528339869E+03  0.00000000000E+00 0. -1.
         21    1    1    2  503  506 -0.26127305508E+02 -0.12894260141E+03  0.15977919559E+03  0.20697396429E+03  0.00000000000E+00 0. -1.
         21    1    1    2  504  505  0.37670460218E+02  0.10645568678E+03 -0.21302064841E+02  0.11491585960E+03  0.00000000000E+00 0. -1.
         21    1    1    2  505  502  0.21345777508E+02  0.43756471168E+02  0.30252244384E+02  0.57319013222E+02  0.00000000000E+00 0. -1.
         21    1    1    2  506  504 -0.32888932217E+02 -0.21269556539E+02  0.28141483958E+02  0.48228819362E+02  0.00000000000E+00 0. -1.
<scales pt_clust_3="33.49124" pt_clust_4="172.00217" pt_clust_5="39.05650" pt_clust_6="33.49124"></scales>
<clustering>
<clus scale="   33.491">  3  6 -1 -1</clus>
<clus scale="   39.056">  4  5 -1 -1</clus>
<clus scale="  172.002">  2  4  1 -1</clus>
<clus scale="  172.668">  1  3  2 -1</clus>
</clustering>
</event>
<event>
 6    0  0.2666600E+002  0.9752666E+02  0.7546771E-02  0.1285585E+00
         21   -1    0    0  503  501  0.00000000000E+00  0.00000000000E+00  0.13266639437E+03  0.13266639437E+03  0.00000000000E+00 0.  1.
         21   -1    0    0  506  502 -0.00000000000E+00 -0.00000000000E+00 -0.49508132668E+03  0.49508132668E+03  0.00000000000E+00 0. -1.
         21    1    1    2  503  505 -0.12255199846E+03  0.45519684809E+02  0.45034793548E+02  0.13827207477E+03  0.00000000000E+00 0.  1.
         21    1    1    2  504  501  0.24121826742E+02 -0.35483642063E+02  0.18743705279E+02  0.46821767021E+02  0.00000000000E+00 0.  1.
         21    1    1    2  505  502  0.35608165095E+02  0.21738264217E+02 -0.90433272490E+02  0.99592521436E+02  0.00000000000E+00 0.  1.
         21    1    1    2  506  504  0.62822006620E+02 -0.31774306964E+02 -0.33576015865E+03  0.34306135783E+03  0.00000000000E+00 0. -1.
<scales pt_clust_3="14000.00000" pt_clust_4="43.00281" pt_clust_5="41.71922" pt_clust_6="97.52666"></scales>
<clustering>
<clus scale="   41.719">  2  5  1 -1</clus>
<clus scale="   43.003">  1  4  2 -1</clus>
<clus scale="   97.527">  2  6  1 -1</clus>
<clus scale="   43.003">  1  3  2 -1</clus>
</clustering>
</event>
<event>
 6    0  0.2785419E+002  0.1318779E+03  0.7546771E-02  0.1224696E+00
         21   -1    0    0  505  501  0.00000000000E+00  0.00000000000E+00  0.61129751139E+03  0.61129751139E+03  0.00000000000E+00 0. -1.
         21   -1    0    0  503  502 -0.00000000000E+00 -0.00000000000E+00 -0.59311369910E+03  0.59311369910E+03  0.00000000000E+00 0. -1.
         21    1    1    2  503  506  0.24976436918E+01  0.47435066745E+02 -0.16010236837E+03  0.16700027586E+03  0.00000000000E+00 0. -1.
         21    1    1    2  504  501  0.36116543167E+02  0.33185392654E+01  0.12374182953E+02  0.38321505671E+02  0.00000000000E+00 0.  1.
         21    1    1    2  505  502 -0.10636600560E+03 -0.97070014907E+02  0.56940650479E+03  0.58733302533E+03  0.00000000000E+00 0. -1.
         21    1    1    2  506  504  0.67751818745E+02  0.46316408897E+02 -0.40349450709E+03  0.41175640363E+03  0.00000000000E+00 0. -1.
<scales pt_clust_3="45.55857" pt_clust_4="36.26868" pt_clust_5="117.46590" pt_clust_6="45.55857"></scales>
<clustering>
<clus scale="   36.269">  1  4  2 -1</clus>
<clus scale="   45.559">  3  6 -1 -1</clus>
<clus scale="  117.466">  1  5  2 -1</clus>
<clus scale="   36.269">  1  3  2 -1</clus>
</clustering>
</event>
<event>
 6    0  0.2666600E+002  0.1010812E+03  0.7546771E-02  0.1278039E+00
         21   -1    0    0  504  501  0.00000000000E+00  0.00000000000E+00  0.22419003337E+03  0.22419003337E+03  0.00000000000E+00 0. -1.
         21   -1    0    0  506  502 -0.00000000000E+00 -0.00000000000E+00 -0.33530550721E+04  0.33530550721E+04  0.00000000000E+00 0.  1.
         21    1    1    2  503  501 -0.93011935144E+02 -0.22353989038E+02  0.19500143679E+03  0.21720147618E+03  0.00000000000E+00 0. -1.
         21    1    1    2  504  505 -0.70073351381E+01  0.42630485912E+02 -0.14734126859E+02  0.45645980865E+02  0.00000000000E+00 0. -1.
         21    1    1    2  505  502  0.42143521351E+02 -0.58730822651E+02 -0.27519455239E+04  0.27528947587E+04  0.00000000000E+00 0.  1.
         21    1    1    2  506  503  0.57875748931E+02  0.38454325778E+02 -0.55718682481E+03  0.56150288977E+03  0.00000000000E+00 0. -1.
<scales pt_clust_3="14000.00000" pt_clust_4="43.20256" pt_clust_5="101.08122" pt_clust_6="69.67100"></scales>
<clustering>
<clus scale="   43.203">  1  4  2 -1</clus>
<clus scale="   69.671">  2  6  1 -1</clus>
<clus scale="  101.081">  2  5  1 -1</clus>
<clus scale="   43.203">  1  3  2 -1</clus>
</clustering>
</event>
<event>
 6    0  0.2666600E+002  0.2254595E+03  0.7546771E-02  0.1129877E+00
         21   -1    0    0  505  501  0.00000000000E+00  0.00000000000E+00  0.60519870215E+03  0.60519870215E+03  0.00000000000E+00 0.  1.
         21   -1    0    0  503  502 -0.00000000000E+00 -0.00000000000E+00 -0.11593340683E+04  0.11593340683E+04  0.00000000000E+00 0.  1.
         21    1    1    2  503  501 -0.12112676951E+03  0.14630356827E+03  0.53548955818E+03  0.56817734494E+03  0.00000000000E+00 0.  1.
         21    1    1    2  504  502  0.51557870490E+02 -0.10305327322E+03 -0.68062607216E+03  0.69031155374E+03  0.00000000000E+00 0.  1.
         21    1    1    2  505  506 -0.58196936732E+01  0.33279902197E+02  0.35347331791E+02  0.48896365810E+02  0.00000000000E+00 0.  1.
         21    1    1    2  506  504  0.75388592698E+02 -0.76530197253E+02 -0.44434618394E+03  0.45714750593E+03  0.00000000000E+00 0.  1.
<scales pt_clust_3="219.31234" pt_clust_4="50.47334" pt_clust_5="33.78492" pt_clust_6="50.47334"></scales>
<clustering>
<clus scale="   33.785">  1  5  2 -1</clus>
<clus scale="   50.473">  4  6 -1 -1</clus>
<clus scale="  219.312">  1  3  2 -1</clus>
<clus scale="   33.785">  1  3  2 -1</clus>
</clustering>
</event>
<event>
 6    0  0.2666600E+002  0.1080147E+03  0.7546771E-02  0.1264291E+00
         21   -1    0    0  504  501  0.00000000000E+00  0.00000000000E+00  0.52616868652E+02  0.52616868652E+02  0.00000000000E+00 0.  1.
         21   -1    0    0  503  502 -0.00000000000E+00 -0.00000000000E+00 -0.12254451042E+04  0.12254451042E+04  0.00000000000E+00 0.  1.
         21    1    1    2  503  501  0.55180435890E+01 -0.66301450120E+02 -0.54525384705E+03  0.54929781431E+03  0.00000000000E+00 0.  1.
         21    1    1    2  504  506 -0.38915654067E+02  0.10580482053E+02 -0.30769373291E+02  0.50726019602E+02  0.00000000000E+00 0.  1.
         21    1    1    2  505  502 -0.10478479659E+03  0.44311221533E+02 -0.48995704911E+03  0.50299229410E+03  0.00000000000E+00 0.  1.
         21    1    1    2  506  505  0.13818240707E+03  0.11409746535E+02 -0.10684796613E+03  0.17504584487E+03  0.00000000000E+00 0.  1.
<scales pt_clust_3="65.90212" pt_clust_4="40.32834" pt_clust_5="108.01467" pt_clust_6="14000.00000"></scales>
<clustering>
<clus scale="   40.328">  1  4  2 -1</clus>
<clus scale="   65.902">  2  3  1 -1</clus>
<clus scale="  108.015">  2  5  1 -1</clus>
<clus scale="   40.328">  1  3  2 -1</clus>
</clustering>
</event>
<event>
 6    0  0.2666600E+002  0.9317696E+02  0.7546771E-02  0.1295336E+00
         21   -1    0    0  505  501  0.00000000000E+00  0.00000000000E+00  0.40244186049E+03  0.40244186049E+03  0.00000000000E+00 0.  1.
         21   -1    0    0  503  502 -0.00000000000E+00 -0.00000000000E+00 -0.92706943543E+02  0.92706943543E+02  0.00000000000E+00 0. -1.
         21    1    1    2  503  506 -0.42417905218E+02 -0.24727424968E+02  0.82491559699E+02  0.95997821070E+02  0.00000000000E+00 0. -1.
         21    1    1    2  504  502  0.40720573630E+02  0.74468440428E+02 -0.43033914095E+02  0.95161081850E+02  0.00000000000E+00 0. -1.
         21    1    1    2  505  504  0.56296044759E+02 -0.39013156094E+02  0.77907686119E+02  0.10373465458E+03  0.00000000000E+00 0.  1.
         21    1    1    2  506  501 -0.54598713171E+02 -0.10727859365E+02  0.19236958523E+03  0.20025524654E+03  0.00000000000E+00 0.  1.
<scales pt_clust_3="36.95801" pt_clust_4="84.46311" pt_clust_5="68.49285" pt_clust_6="36.95801"></scales>
<clustering>
<clus scale="   36.958">  3  6 -1 -1</clus>
<clus scale="   68.493">  1  5  2 -1</clus>
<clus scale="   84.463">  2  4  1 -1</clus>
<clus scale="   68.493">  1  3  2 -1</clus>
</clustering>
</event>
<event>
 6    0  0.2666600E+002  0.3960199E+03  0.7546771E-02  0.1045167E+00
         21   -1    0    0  503  501  0.00000000000E+00  0.00000000000E+00  0.10554244328E+04  0.10554244328E+04  0.00000000000E+00 0.  1.
         21   -1    0    0  501  502 -0.00000000000E+00 -0.00000000000E+00 -0.29534126612E+03  0.29534126612E+03  0.00000000000E+00 0. -1.
         21    1    1    2  503  505  0.19540958838E+03  0.18200509958E+03  0.51254947972E+03  0.57794267248E+03  0.00000000000E+00 0.  1.
         21    1    1    2  504  502 -0.53855227470E+02 -0.16889684429E+03 -0.53545810304E+01  0.17735614192E+03  0.00000000000E+00 0. -1.
         21    1    1    2  505  506  0.35717479527E+02  0.10079171890E+03  0.34816599207E+03  0.36421733481E+03  0.00000000000E+00 0.  1.
         21    1    1    2  506  504 -0.17727184043E+03 -0.11389997419E+03 -0.95277724099E+02  0.23124954971E+03  0.00000000000E+00 0. -1.
<scales pt_clust_3="383.18971" pt_clust_4="140.42427" pt_clust_5="73.36294" pt_clust_6="140.42427"></scales>
<clustering>
<clus scale="   73.363">  3  5 -1 -1</clus>
<clus scale="  140.424">  4  6 -1 -1</clus>
<clus scale="  383.190">  1  3  2 -1</clus>
<clus scale="  383.190">  1  3  2 -1</clus>
</clustering>
</event>
<event>
 6    0  0.2666600E+002  0.8840555E+02  0.7546771E-02  0.1306759E+00
         21   -1    0    0  503  501  0.00000000000E+00  0.00000000000E+00  0.54870610901E+02  0.54870610901E+02  0.00000000000E+00 0.  1.
         21   -1    0    0  504  502 -0.00000000000E+00 -0.00000000000E+00 -0.11134950175E+04  0.11134950175E+04  0.00000000000E+00 0. -1.
         21    1    1    2  503  502  0.10098362577E+03 -0.37694833588E+02 -0.22412465350E+02  0.11009501240E+03  0.00000000000E+00 0.  1.
         21    1    1    2  504  505 -0.38889278383E+02 -0.32729152650E+02 -0.35663858717E+03  0.36024249509E+03  0.00000000000E+00 0. -1.
         21    1    1    2  505  506 -0.56642533539E+02  0.15878028046E+02 -0.59060674332E+03  0.59352911776E+03  0.00000000000E+00 0. -1.
         21    1    1    2  506  501 -0.54518138463E+01  0.54545958192E+02 -0.88966610755E+02  0.10449900315E+03  0.00000000000E+00 0. -1.
<scales pt_clust_3="14000.00000" pt_clust_4="50.82886" pt_clust_5="88.40555" pt_clust_6="51.42261"></scales>
<clustering>
<clus scale="   50.829">  2  4  1 -1</clus>
<clus scale="   51.423">  1  6  2 -1</clus>
<clus scale="   88.406">  2  5  1 -1</clus>
<clus scale="   51.423">  1  3  2 -1</clus>
</clustering>
</event>
<event>
 6    0  0.2666600E+002  0.9632026E+02  0.7546771E-02  0.1288230E+00
         21   -1    0    0  506  501  0.00000000000E+00  0.00000000000E+00  0.21022905684E+03  0.21022905684E+03  0.00000000000E+00 0. -1.
         21   -1    0    0  504  502 -0.00000000000E+00 -0.00000000000E+00 -0.40926468183E+03  0.40926468183E+03  0.00000000000E+00 0.  1.
         21    1    1    2  503  505  0.19431507487E+02 -0.62289266808E+02 -0.57193072246E+02  0.86767411830E+02  0.00000000000E+00 0.  1.
         21    1    1    2  504  501 -0.94846851137E+02  0.87474248820E+02  0.83302245249E+02  0.15358038104E+03  0.00000000000E+00 0. -1.
         21    1    1    2  505  502  0.13639662397E+02 -0.46312333426E+02 -0.28590850134E+03  0.28995610661E+03  0.00000000000E+00 0.  1.
         21    1    1    2  506  503  0.61775681252E+02  0.21127351414E+02  0.60763703342E+02  0.89189839196E+02  0.00000000000E+00 0. -1.
<scales pt_clust_3="14000.00000" pt_clust_4="96.32026" pt_clust_5="48.27911" pt_clust_6="65.28978"></scales>
<clustering>
<clus scale="   48.279">  2  5  1 -1</clus>
<clus scale="   65.290">  1  6  2 -1</clus>
<clus scale="   96.320">  1  4  2 -1</clus>
<clus scale="   65.290">  1  3  2 -1</clus>
</clustering>
</event>
<event>
 6    0  0.2666600E+002  0.1543683E+03  0.7546771E-02  0.1195206E+00
         21   -1    0    0  505  501  0.00000000000E+00  0.00000000000E+00  0.53638336979E+03  0.53638336979E+03  0.00000000000E+00 0. -1.
         21   -1    0    0  503  502 -0.00000000000E+00 -0.00000000000E+00 -0.69788405048E+03  0.69788405048E+03  0.00000000000E+00 0. -1.
         21    1    1    2  503  504 -0.79623475798E+02  0.18651083434E+02 -0.30446144488E+03  0.31525312406E+03  0.00000000000E+00 0. -1.
         21    1    1    2  504  506 -0.70649654942E+02 -0.15853447534E+02 -0.36139285011E+03  0.36857495527E+03  0.00000000000E+00 0. -1.
         21    1    1    2  505  502  0.74478023205E+02  0.99847363788E+01  0.51475664826E+02  0.91084658261E+02  0.00000000000E+00 0. -1.
         21    1    1    2  506  501  0.75795107534E+02 -0.12782372279E+02  0.45287794948E+03  0.45935468267E+03  0.00000000000E+00 0. -1.
<scales pt_clust_3="38.44188" pt_clust_4="38.44188" pt_clust_5="75.14433" pt_clust_6="148.86408"></scales>
<clustering>
<clus scale="   38.442">  3  4 -1 -1</clus>
<clus scale="   75.144">  1  5  2 -1</clus>
<clus scale="  148.864">  1  6  2 -1</clus>
<clus scale="   75.144">  1  3  2 -1</clus>
</clustering>
</event>
<event>
 6    0  0.2666600E+002  0.1212877E+03  0.7546771E-02  0.1240988E+00
         21   -1    0    0  505  501  0.00000000000E+00  0.00000000000E+00  0.43398856345E+02  0.43398856345E+02  0.00000000000E+00 0. -1.
         21   -1    0    0  503  502 -0.00000000000E+00 -0.00000000000E+00 -0.45412834739E+03  0.45412834739E+03  0.00000000000E+00 0. -1.
         21    1    1    2  503  506 -0.25295166006E+02  0.44251605948E+02 -0.83423001203E+02  0.97762197101E+02  0.00000000000E+00 0.  1.
         21    1    1    2  504  502  0.70955944944E+02 -0.69653441992E+02 -0.17143676315E+03  0.19818403534E+03  0.00000000000E+00 0. -1.
         21    1    1    2  505  504  0.37125004292E+02  0.78507621254E+01 -0.24019150005E+02  0.44909018878E+02  0.00000000000E+00 0. -1.
         21    1    1    2  506  501 -0.82785783230E+02  0.17551073919E+02 -0.13185057668E+03  0.15667195241E+03  0.00000000000E+00 0. -1.
<scales pt_clust_3="44.47037" pt_clust_4="108.70949" pt_clust_5="37.94602" pt_clust_6="44.47037"></scales>
<clustering>
<clus scale="   37.946">  1  5  2 -1</clus>
<clus scale="   44.470">  3  6 -1 -1</clus>
<clus scale="  108.709">  2  4  1 -1</clus>
<clus scale="   37.946">  1  3  2 -1</clus>
</clustering>
</event>
<event>
 6    0  0.2666600E+002  0.8441229E+02  0.7546771E-02  0.1316977E+00
         21   -1    0    0  505  501  0.00000000000E+00  0.00000000000E+00  0.15828861613E+04  0.15828861613E+04  0.00000000000E+00 0. -1.
         21   -1    0    0  506  502 -0.00000000000E+00 -0.00000000000E+00 -0.13745025028E+03  0.13745025028E+03  0.00000000000E+00 0.  1.
         21    1    1    2  503  504 -0.95725315458E+01 -0.64828770054E+02  0.74984944952E+03  0.75270751274E+03  0.00000000000E+00 0. -1.
         21    1    1    2  504  501 -0.33618813024E+02 -0.99122402761E+01  0.78477303677E+03  0.78555534263E+03  0.00000000000E+00 0. -1.
         21    1    1    2  505  502 -0.17922072347E+02  0.93149891156E+02 -0.55549283068E+02  0.10992645609E+03  0.00000000000E+00 0.  1.
         21    1    1    2  506  503  0.61113416917E+02 -0.18408880826E+02 -0.33637292237E+02  0.72147100078E+02  0.00000000000E+00 0.  1.
<scales pt_clust_3="84.41229" pt_clust_4="35.04964" pt_clust_5="14000.00000" pt_clust_6="63.11955"></scales>
<clustering>
<clus scale="   35.050">  1  4  2 -1</clus>
<clus scale="   63.120">  2  6  1 -1</clus>
<clus scale="   84.412">  1  3  2 -1</clus>
<clus scale="   35.050">  1  3  2 -1</clus>
</clustering>
</event>
<event>
 6    0  0.2666600E+002  0.7598009E+02  0.7546771E-02  0.1340863E+00
         21   -1    0    0  505  501  0.00000000000E+00  0.00000000000E+00  0.12425111538E+04  0.12425111538E+04  0.00000000000E+00 0. -1.
         21   -1    0    0  504  502 -0.00000000000E+00 -0.00000000000E+00 -0.19604056216E+02  0.19604056216E+02  0.00000000000E+00 0. -1.
         21    1    1    2  503  502 -0.55382549967E+01  0.48039601591E+02  0.29670894345E+03  0.30062380597E+03  0.00000000000E+00 0. -1.
         21    1    1    2  504  506 -0.58499848179E+02  0.18446960051E+02  0.12812023200E+03  0.14204688107E+03  0.00000000000E+00 0. -1.
         21    1    1    2  505  503 -0.43455590031E+02  0.12092253143E+02  0.32025789408E+03  0.32341881456E+03  0.00000000000E+00 0. -1.
         21    1    1    2  506  501  0.10749369321E+03 -0.78578814785E+02  0.47782002805E+03  0.49602570843E+03  0.00000000000E+00 0. -1.
<scales pt_clust_3="55.54842" pt_clust_4="14000.00000" pt_clust_5="45.10666" pt_clust_6="75.98009"></scales>
<clustering>
<clus scale="   45.107">  1  5  2 -1</clus>
<clus scale="   55.548">  1  3  2 -1</clus>
<clus scale="   75.980">  1  6  2 -1</clus>
<clus scale="   45.107">  1  3  2 -1</clus>
</clustering>
</event>
<event>
 6    0  0.2666600E+002  0.2315872E+03  0.7546771E-02  0.1125528E+00
         21   -1    0    0  502  501  0.00000000000E+00  0.00000000000E+00  0.40570962662E+03  0.40570962662E+03  0.00000000000E+00 0. -1.
         21   -1    0    0  506  502 -0.00000000000E+00 -0.00000000000E+00 -0.14638868944E+03  0.14638868944E+03  0.00000000000E+00 0. -1.
         21    1    1    2  503  505  0.38797851212E+02  0.17031820483E+03  0.37849843578E+02  0.17873492891E+03  0.00000000000E+00 0. -1.
         21    1    1    2  504  501 -0.16131869198E+02 -0.10585986956E+03  0.76372080170E+02  0.13152658977E+03  0.00000000000E+00 0. -1.
         21    1    1    2  505  504 -0.53818101638E+01 -0.11794042805E+03  0.14320680063E+03  0.18559928931E+03  0.00000000000E+00 0. -1.
         21    1    1    2  506  503 -0.17284171850E+02  0.53482092773E+02  0.18922128011E+01  0.56237508064E+02  0.00000000000E+00 0. -1.
<scales pt_clust_3="31.49691" pt_clust_4="40.45597" pt_clust_5="228.80983" pt_clust_6="31.49691"></scales>
<clustering>
<clus scale="   31.497">  3  6 -1 -1</clus>
<clus scale="   40.456">  4  5 -1 -1</clus>
<clus scale="  228.810">  1  4  2 -1</clus>
<clus scale="  228.810">  1  3  2 -1</clus>
</clustering>
</event>
<event>
 6    0  0.2666600E+002  0.1396778E+03  0.7546771E-02  0.1213763E+00
         21   -1    0    0  506  501  0.00000000000E+00  0.00000000000E+00  0.93095661105E+03  0.93095661105E+03  0.00000000000E+00 0. -1.
         21   -1    0    0  504  502 -0.00000000000E+00 -0.00000000000E+00 -0.10188556174E+03  0.10188556174E+03  0.00000000000E+00 0. -1.
         21    1    1    2  503  505  0.74308963081E+02  0.23308264037E+02 -0.38501189848E+02  0.86875996605E+02  0.00000000000E+00 0. -1.
         21    1    1    2  504  501 -0.68091956293E+01  0.48770008177E+02  0.90426593873E+02  0.10296527435E+03  0.00000000000E+00 0. -1.
         21    1    1    2  505  502  0.44879232500E+02  0.32793641201E+02  0.51169416390E+01  0.55818917087E+02  0.00000000000E+00 0. -1.
         21    1    1    2  506  503 -0.11237899995E+03 -0.10487191342E+03  0.77202870364E+03  0.78718198474E+03  0.00000000000E+00 0. -1.
<scales pt_clust_3="36.76751" pt_clust_4="49.24306" pt_clust_5="36.76751" pt_clust_6="132.72460"></scales>
<clustering>
<clus scale="   36.768">  3  5 -1 -1</clus>
<clus scale="   49.243">  1  4  2 -1</clus>
<clus scale="  132.725">  1  6  2 -1</clus>
<clus scale="   49.243">  1  3  2 -1</clus>
</clustering>
</event>
<event>
 6    0  0.2666600E+002  0.9629436E+02  0.7546771E-02  0.1288287E+00
         21   -1    0    0  503  501  0.00000000000E+00  0.00000000000E+00  0.66720618383E+03  0.66720618383E+03  0.00000000000E+00 0.  1.
         21   -1    0    0  505  502 -0.00000000000E+00 -0.00000000000E+00 -0.89454059808E+02  0.89454059808E+02  0.00000000000E+00 0. -1.
         21    1    1    2  503  506 -0.29955731712E+02  0.30982853864E+02  0.38534445584E+03  0.38774686684E+03  0.00000000000E+00 0.  1.
         21    1    1    2  504  501 -0.43530555169E+02  0.10078034569E+02  0.14506502783E+03  0.15179044210E+03  0.00000000000E+00 0.  1.
         21    1    1    2  505  504  0.10558679143E+03 -0.95535030452E+02  0.79223978235E+01  0.14261233101E+03  0.00000000000E+00 0. -1.
         21    1    1    2  506  502 -0.32100504554E+02  0.54474142019E+02  0.39420242533E+02  0.74510603692E+02  0.00000000000E+00 0. -1.
<scales pt_clust_3="43.09621" pt_clust_4="65.00327" pt_clust_5="14000.00000" pt_clust_6="96.29436"></scales>
<clustering>
<clus scale="   43.096">  1  3  2 -1</clus>
<clus scale="   65.003">  1  4  2 -1</clus>
<clus scale="   96.294">  2  6  1 -1</clus>
<clus scale="   43.096">  1  3  2 -1</clus>
</clustering>
</event>
<event>
 6    0  0.2666600E+002  0.8321381E+02  0.7546771E-02  0.1320171E+00
         21   -1    0    0  506  501  0.00000000000E+00  0.00000000000E+00  0.19061352524E+03  0.19061352524E+03  0.00000000000E+00 0.  1.
         21   -1    0    0  505  502 -0.00000000000E+00 -0.00000000000E+00 -0.10641436684E+04  0.10641436684E+04  0.00000000000E+00 0.  1.
         21    1    1    2  503  502 -0.19191116977E+02  0.35296464072E+02 -0.44297512225E+02  0.59803084671E+02  0.00000000000E+00 0.  1.
         21    1    1    2  504  501 -0.36023479639E+02 -0.80444952132E+02  0.64333034969E+02  0.10912296182E+03  0.00000000000E+00 0.  1.
         21    1    1    2  505  504  0.83361259538E+02 -0.40607958545E+02 -0.96579162476E+03  0.97023273927E+03  0.00000000000E+00 0.  1.
         21    1    1    2  506  503 -0.28146662922E+02  0.85756446605E+02  0.72225958867E+02  0.11559840787E+03  0.00000000000E+00 0.  1.
<scales pt_clust_3="40.17635" pt_clust_4="14000.00000" pt_clust_5="65.36579" pt_clust_6="83.21381"></scales>
<clustering>
<clus scale="   40.176">  2  3  1 -1</clus>
<clus scale="   65.366">  2  5  1 -1</clus>
<clus scale="   83.214">  1  6  2 -1</clus>
<clus scale="   83.214">  1  3  2 -1</clus>
</clustering>
</event>
<event>
 6    0  0.2666600E+002  0.1680337E+03  0.7546771E-02  0.1179914E+00
         21   -1    0    0  506  501  0.00000000000E+00  0.00000000000E+00  0.35147505914E+03  0.35147505914E+03  0.00000000000E+00 0. -1.
         21   -1    0    0  505  502 -0.00000000000E+00 -0.00000000000E+00 -0.18444494907E+03  0.18444494907E+03  0.00000000000E+00 0. -1.
         21    1    1    2  503  501  0.25094079824E+02  0.11768568371E+03 -0.96230947380E+02  0.15407799397E+03  0.00000000000E+00 0. -1.
         21    1    1    2  504  502 -0.31062811250E+02 -0.11059293367E+03  0.24876570601E+03  0.27400743002E+03  0.00000000000E+00 0. -1.
         21    1    1    2  505  503  0.37144013154E+02  0.24170286857E+02 -0.22983696994E+02  0.49921246052E+02  0.00000000000E+00 0. -1.
         21    1    1    2  506  504 -0.31175281728E+02 -0.31263036893E+02  0.37479048429E+02  0.57913338167E+02  0.00000000000E+00 0. -1.
<scales pt_clust_3="165.54020" pt_clust_4="40.36208" pt_clust_5="35.42147" pt_clust_6="40.36208"></scales>
<clustering>
<clus scale="   35.421">  3  5 -1 -1</clus>
<clus scale="   40.362">  4  6 -1 -1</clus>
<clus scale="  165.540">  2  3  1 -1</clus>
<clus scale="  168.034">  1  3  2 -1</clus>
</clustering>
</event>
<event>
 6    0  0.2666600E+002  0.3076903E+03  0.7546771E-02  0.1081458E+00
         21   -1    0    0  505  501  0.00000000000E+00  0.00000000000E+00  0.15074114337E+03  0.15074114337E+03  0.00000000000E+00 0. -1.
         21   -1    0    0  503  502 -0.00000000000E+00 -0.00000000000E+00 -0.75524707696E+03  0.75524707696E+03  0.00000000000E+00 0. -1.
         21    1    1    2  503  501 -0.24870314002E+03  0.14673129667E+03 -0.21975362780E+03  0.36287047580E+03  0.00000000000E+00 0. -1.
         21    1    1    2  504  502  0.11047387249E+03 -0.50930133410E+02 -0.18393573213E+03  0.22052371425E+03  0.00000000000E+00 0. -1.
         21    1    1    2  505  506 -0.38326996648E+02 -0.11071283808E+02  0.29180278096E+01  0.40000586039E+02  0.00000000000E+00 0. -1.
         21    1    1    2  506  504  0.17655626418E+03 -0.84729879449E+02 -0.20373460146E+03  0.28259344424E+03  0.00000000000E+00 0. -1.
<scales pt_clust_3="304.34304" pt_clust_4="35.67321" pt_clust_5="39.89401" pt_clust_6="35.67321"></scales>
<clustering>
<clus scale="   35.673">  4  6 -1 -1</clus>
<clus scale="   39.894">  1  5  2 -1</clus>
<clus scale="  304.343">  1  3  2 -1</clus>
<clus scale="   39.894">  1  3  2 -1</clus>
</clustering>
</event>
<event>
 6    0  0.2666600E+002  0.1087712E+03  0.7546771E-02  0.1262863E+00
         21   -1    0    0  503  501  0.00000000000E+00  0.00000000000E+00  0.42641840088E+02  0.42641840088E+02  0.00000000000E+00 0.  1.
         21   -1    0    0  505  502 -0.00000000000E+00 -0.00000000000E+00 -0.62741698661E+03  0.62741698661E+03  0.00000000000E+00 0.  1.
         21    1    1    2  503  504 -0.14657725509E+02 -0.62955682539E+02 -0.25510366581E+02  0.69491335317E+02  0.00000000000E+00 0.  1.
         21    1    1    2  504  502  0.39057159142E+02 -0.53935524747E+02 -0.81078028026E+02  0.10491972712E+03  0.00000000000E+00 0.  1.
         21    1    1    2  505  506 -0.14219309203E+02  0.76309366462E+02 -0.39473980751E+03  0.40229942058E+03  0.00000000000E+00 0.  1.
         21    1    1    2  506  501 -0.10180124430E+02  0.40581840824E+02 -0.83446944403E+02  0.93348343683E+02  0.00000000000E+00 0.  1.
<scales pt_clust_3="64.63951" pt_clust_4="95.32010" pt_clust_5="38.46697" pt_clust_6="38.46697"></scales>
<clustering>
<clus scale="   38.467">  5  6 -1 -1</clus>
<clus scale="   64.640">  1  3  2 -1</clus>
<clus scale="   95.320">  1  4  2 -1</clus>
<clus scale="   64.640">  1  3  2 -1</clus>
</clustering>
</event>
<event>
 6    0  0.2666600E+002  0.1383736E+03  0.7546771E-02  0.1215534E+00
         21   -1    0    0  503  501  0.00000000000E+00  0.00000000000E+00  0.47547306884E+02  0.47547306884E+02  0.00000000000E+00 0.  1.
         21   -1    0    0  501  502 -0.00000000000E+00 -0.00000000000E+00 -0.51667748920E+03  0.51667748920E+03  0.00000000000E+00 0.  1.
         21    1    1    2  503  506  0.10879444305E+02  0.58817145951E+02 -0.15543569082E+02  0.61801468478E+02  0.00000000000E+00 0.  1.
         21    1    1    2  504  505 -0.20742807540E+02 -0.76186897609E+02 -0.16587844616E+03  0.18371272774E+03  0.00000000000E+00 0.  1.
         21    1    1    2  505  502 -0.13556675015E+02 -0.47760898897E+02 -0.20468965747E+03  0.21062464903E+03  0.00000000000E+00 0.  1.
         21    1    1    2  506  504  0.23420038251E+02  0.65130650555E+02 -0.83018509602E+02  0.10808595084E+03  0.00000000000E+00 0.  1.
<scales pt_clust_3="47.47245" pt_clust_4="134.83786" pt_clust_5="32.12898" pt_clust_6="47.47245"></scales>
<clustering>
<clus scale="   32.129">  4  5 -1 -1</clus>
<clus scale="   47.472">  3  6 -1 -1</clus>
<clus scale="  134.838">  2  4  1 -1</clus>
<clus scale="  138.374">  1  3  2 -1</clus>
</clustering>
</event>
<event>
 6    0  0.2666600E+002  0.1672376E+03  0.7546771E-02  0.1180760E+00
         21   -1    0    0  505  501  0.00000000000E+00  0.00000000000E+00  0.75092166917E+03  0.75092166917E+03  0.00000000000E+00 0. -1.
         21   -1    0    0  503  502 -0.00000000000E+00 -0.00000000000E+00 -0.20028485018E+03  0.20028485018E+03  0.00000000000E+00 0. -1.
         21    1    1    2  503  501 -0.11593816686E+02  0.34578152476E+02  0.11525438189E+02  0.38247888039E+02  0.00000000000E+00 0. -1.
         21    1    1    2  504  502  0.16387503319E+03  0.11339455989E+01 -0.13880483172E+03  0.21476287772E+03  0.00000000000E+00 0. -1.
         21    1    1    2  505  506 -0.79511485618E+02  0.92674876685E+01  0.37384865985E+03  0.38232287813E+03  0.00000000000E+00 0. -1.
         21    1    1    2  506  504 -0.72769730885E+02 -0.44979585744E+02  0.30406755268E+03  0.31587287547E+03  0.00000000000E+00 0. -1.
<scales pt_clust_3="36.47006" pt_clust_4="156.60910" pt_clust_5="56.96247" pt_clust_6="56.96247"></scales>
<clustering>
<clus scale="   36.470">  2  3  1 -1</clus>
<clus scale="   56.962">  5  6 -1 -1</clus>
<clus scale="  156.609">  2  4  1 -1</clus>
<clus scale="  167.238">  1  3  2 -1</clus>
</clustering>
</event>
<event>
 6    0  0.2666600E+002  0.1725548E+03  0.7546771E-02  0.1175209E+00
         21   -1    0    0  504  501  0.00000000000E+00  0.00000000000E+00  0.24336241143E+04  0.24336241143E+04  0.00000000000E+00 0. -1.
         21   -1    0    0  503  502 -0.00000000000E+00 -0.00000000000E+00 -0.69752966372E+03  0.69752966372E+03  0.00000000000E+00 0. -1.
         21    1    1    2  503  505 -0.41699564054E+02 -0.88703755138E+00 -0.36297711385E+03  0.36536560547E+03  0.00000000000E+00 0. -1.
         21    1    1    2  504  502 -0.60353766012E+01 -0.38660351805E+02 -0.29960384104E+03  0.30214815925E+03  0.00000000000E+00 0. -1.
         21    1    1    2  505  506 -0.12255014483E+03 -0.14567560008E+02  0.10223319005E+03  0.16025722121E+03  0.00000000000E+00 0. -1.
         21    1    1    2  506  501  0.17028508549E+03  0.54114949365E+02  0.22964422154E+04  0.23033827921E+04  0.00000000000E+00 0. -1.
<scales pt_clust_3="59.62629" pt_clust_4="39.12862" pt_clust_5="14000.00000" pt_clust_6="172.55483"></scales>
<clustering>
<clus scale="   39.129">  2  4  1 -1</clus>
<clus scale="   59.626">  2  3  1 -1</clus>
<clus scale="  172.555">  1  6  2 -1</clus>
<clus scale="  172.555">  1  3  2 -1</clus>
</clustering>
</event>
<event>
 6    0  0.2666600E+002  0.1101921E+03  0.7546771E-02  0.1260215E+00
         21   -1    0    0  506  501  0.00000000000E+00  0.00000000000E+00  0.52134421882E+02  0.52134421882E+02  0.00000000000E+00 0. -1.
         21   -1    0    0  505  502 -0.00000000000E+00 -0.00000000000E+00 -0.14923329529E+04  0.14923329529E+04  0.00000000000E+00 0. -1.
         21    1    1    2  503  502 -0.73058622609E+01 -0.40391910323E+02 -0.21637837003E+02  0.46401271891E+02  0.00000000000E+00 0. -1.
         21    1    1    2  504  501  0.11526303385E+03  0.41203337590E+02 -0.47616268149E+03  0.49164436460E+03  0.00000000000E+00 0. -1.
         21    1    1    2  505  504 -0.10726915420E+03  0.33033483598E+02 -0.96117820928E+03  0.96770937397E+03  0.00000000000E+00 0. -1.
         21    1    1    2  506  503 -0.68801738608E+00 -0.33844910865E+02  0.18780196769E+02  0.38712364304E+02  0.00000000000E+00 0. -1.
<scales pt_clust_3="58.81176" pt_clust_4="110.19210" pt_clust_5="14000.00000" pt_clust_6="33.85190"></scales>
<clustering>
<clus scale="   33.852">  1  6  2 -1</clus>
<clus scale="   58.812">  1  3  2 -1</clus>
<clus scale="  110.192">  1  4  2 -1</clus>
<clus scale="   33.852">  1  3  2 -1</clus>
</clustering>
</event>
<event>
 6    0  0.2666600E+002  0.9944313E+02  0.7546771E-02  0.1281471E+00
         21   -1    0    0  505  501  0.00000000000E+00  0.00000000000E+00  0.12753327719E+04  0.12753327719E+04  0.00000000000E+00 0.  1.
         21   -1    0    0  503  502 -0.00000000000E+00 -0.00000000000E+00 -0.56143310011E+03  0.56143310011E+03  0.00000000000E+00 0.  1.
         21    1    1    2  503  506  0.57237830264E+02  0.14743506191E+03 -0.36063511457E+03  0.39379049322E+03  0.00000000000E+00 0.  1.
         21    1    1    2  504  502 -0.22692844422E+02 -0.54700538219E+02 -0.17439086037E+03  0.18417189321E+03  0.00000000000E+00 0.  1.
         21    1    1    2  505  504 -0.67839247416E+02 -0.56944236903E+02  0.10586711342E+04  0.10623697003E+04  0.00000000000E+00 0.  1.
         21    1    1    2  506  501  0.33294261574E+02 -0.35790286788E+02  0.19025451247E+03  0.19643378528E+03  0.00000000000E+00 0.  1.
<scales pt_clust_3="14000.00000" pt_clust_4="59.31299" pt_clust_5="99.44313" pt_clust_6="48.88203"></scales>
<clustering>
<clus scale="   48.882">  1  6  2 -1</clus>
<clus scale="   59.313">  2  4  1 -1</clus>
<clus scale="   99.443">  1  5  2 -1</clus>
<clus scale="   48.882">  1  3  2 -1</clus>
</clustering>
</event>
<event>
 6    0  0.2666600E+002  0.1630562E+03  0.7546771E-02  0.1185289E+00
         21   -1    0    0  505  501  0.00000000000E+00  0.00000000000E+00  0.45005859998E+02  0.45005859998E+02  0.00000000000E+00 0.  1.
         21   -1    0    0  503  502 -0.00000000000E+00 -0.00000000000E+00 -0.16006609394E+04  0.16006609394E+04  0.00000000000E+00 0.  1.
         21    1    1    2  503  506 -0.77663758673E+02  0.23017479398E+02 -0.58694159883E+03  0.59250477146E+03  0.00000000000E+00 0.  1.
         21    1    1    2  504  502  0.65790005567E+02 -0.34419181026E+02 -0.60415943139E+02  0.95724035855E+02  0.00000000000E+00 0.  1.
         21    1    1    2  505  504  0.88684663019E+02 -0.49201679599E-01 -0.63490185748E+02  0.10906867360E+03  0.00000000000E+00 0.  1.
         21    1    1    2  506  501 -0.76810909913E+02  0.11450903308E+02 -0.84480735174E+03  0.84836931853E+03  0.00000000000E+00 0.  1.
<scales pt_clust_3="161.90456" pt_clust_4="35.87039" pt_clust_5="35.87039" pt_clust_6="33.38580"></scales>
<clustering>
<clus scale="   33.386">  3  6 -1 -1</clus>
<clus scale="   35.870">  4  5 -1 -1</clus>
<clus scale="  161.905">  2  3  1 -1</clus>
<clus scale="  163.056">  1  3  2 -1</clus>
</clustering>
</event>
<event>
 6    0  0.2666600E+002  0.1064331E+03  0.7546771E-02  0.1267322E+00
         21   -1    0    0  506  501  0.00000000000E+00  0.00000000000E+00  0.16524169979E+03  0.16524169979E+03  0.00000000000E+00 0. -1.
         21   -1    0    0  504  502 -0.00000000000E+00 -0.00000000000E+00 -0.76924399693E+03  0.76924399693E+03  0.00000000000E+00 0.  1.
         21    1    1    2  503  505 -0.37391042495E+02  0.41590161235E+02 -0.57133134520E+02  0.79950150910E+02  0.00000000000E+00 0.  1.
         21    1    1    2  504  501 -0.92644029456E+02  0.13844879368E+02  0.90777124751E+02  0.13044187693E+03  0.00000000000E+00 0. -1.
         21    1    1    2  505  502  0.97966569159E+02 -0.43146596077E+02 -0.66904892592E+03  0.67755851607E+03  0.00000000000E+00 0.  1.
         21    1    1    2  506  503  0.32068502792E+02 -0.12288444526E+02  0.31402638545E+02  0.46535152818E+02  0.00000000000E+00 0. -1.
<scales pt_clust_3="53.18308" pt_clust_4="14000.00000" pt_clust_5="106.43309" pt_clust_6="34.34232"></scales>
<clustering>
<clus scale="   34.342">  1  6  2 -1</clus>
<clus scale="   53.183">  1  3  2 -1</clus>
<clus scale="  106.433">  2  5  1 -1</clus>
<clus scale="   34.342">  1  3  2 -1</clus>
</clustering>
</event>
<event>
 6    0  0.2666600E+002  0.1168956E+03  0.7546771E-02  0.1248308E+00
         21   -1    0    0  506  501  0.00000000000E+00  0.00000000000E+00  0.13740234023E+03  0.13740234023E+03  0.00000000000E+00 0.  1.
         21   -1    0    0  503  502 -0.00000000000E+00 -0.00000000000E+00 -0.87499972165E+03  0.87499972165E+03  0.00000000000E+00 0. -1.
         21    1    1    2  503  504 -0.72290209630E+02  0.31224519424E+01  0.46733064248E+02  0.86137119806E+02  0.00000000000E+00 0.  1.
         21    1    1    2  504  501 -0.20654764547E+02  0.24227054779E+02  0.43613709944E+02  0.53997455281E+02  0.00000000000E+00 0.  1.
         21    1    1    2  505  502  0.49842461027E+02 -0.96881474880E+02 -0.75450878473E+03  0.76233443929E+03  0.00000000000E+00 0. -1.
         21    1    1    2  506  505  0.43102513150E+02  0.69531968158E+02 -0.73435370880E+02  0.10993304750E+03  0.00000000000E+00 0. -1.
<scales pt_clust_3="30.31291" pt_clust_4="30.31291" pt_clust_5="107.59266" pt_clust_6="81.80783"></scales>
<clustering>
<clus scale="   30.313">  3  4 -1 -1</clus>
<clus scale="   81.808">  1  6  2 -1</clus>
<clus scale="  107.593">  2  5  1 -1</clus>
<clus scale="   81.808">  1  3  2 -1</clus>
</clustering>
</event>
<event>
 6    0  0.2666600E+002  0.1052571E+03  0.7546771E-02  0.1269614E+00
         21   -1    0    0  505  501  0.00000000000E+00  0.00000000000E+00  0.16006171752E+04  0.16006171752E+04  0.00000000000E+00 0.  1.
         21   -1    0    0  503  502 -0.00000000000E+00 -0.00000000000E+00 -0.16523894839E+02  0.16523894839E+02  0.00000000000E+00 0.  1.
         21    1    1    2  503  504 -0.30651102973E+02  0.55765390662E+02  0.37779643355E+03  0.38311801591E+03  0.00000000000E+00 0.  1.
         21    1    1    2  504  501  0.20720905085E+02  0.57384135351E+02  0.34759172891E+03  0.35290551838E+03  0.00000000000E+00 0.  1.
         21    1    1    2  505  506  0.78204076888E+02 -0.51658902164E+02  0.58349126615E+03  0.59097087702E+03  0.00000000000E+00 0.  1.
         21    1    1    2  506  502 -0.68273879000E+02 -0.61490623848E+02  0.27521385173E+03  0.29014665871E+03  0.00000000000E+00 0.  1.
<scales pt_clust_3="50.32246" pt_clust_4="50.32246" pt_clust_5="91.85762" pt_clust_6="91.88264"></scales>
<clustering>
<clus scale="   50.322">  3  4 -1 -1</clus>
<clus scale="   91.883">  2  6  1 -1</clus>
<clus scale="   91.858">  1  5  2 -1</clus>
<clus scale="   91.858">  1  3  2 -1</clus>
</clustering>
</event>
<event>
 6    0  0.2666600E+002  0.8183844E+02  0.7546771E-02  0.1323914E+00
         21   -1    0    0  504  501  0.00000000000E+00  0.00000000000E+00  0.17933946095E+04  0.17933946095E+04  0.00000000000E+00 0. -1.
         21   -1    0    0  506  502 -0.00000000000E+00 -0.00000000000E+00 -0.66429914552E+02  0.66429914552E+02  0.00000000000E+00 0. -1.
         21    1    1    2  503  501 -0.10600768493E+02 -0.71227663682E+02  0.70647092455E+03  0.71013162414E+03  0.00000000000E+00 0. -1.
         21    1    1    2  504  505 -0.69636140859E+02  0.64643351352E+02  0.10012929605E+04  0.10057910060E+04  0.00000000000E+00 0. -1.
         21    1    1    2  505  502 -0.29016960840E+02 -0.11204433550E+02  0.10657266023E+02  0.32880095295E+02  0.00000000000E+00 0.  1.
         21    1    1    2  506  503  0.10925387019E+03  0.17788745881E+02  0.85435438924E+01  0.11102179864E+03  0.00000000000E+00 0. -1.
<scales pt_clust_3="72.52574" pt_clust_4="14000.00000" pt_clust_5="31.10504" pt_clust_6="81.83844"></scales>
<clustering>
<clus scale="   31.105">  2  5  1 -1</clus>
<clus scale="   72.526">  1  3  2 -1</clus>
<clus scale="   81.838">  2  6  1 -1</clus>
<clus scale="   72.526">  1  3  2 -1</clus>
</clustering>
</event>
<event>
 6    0  0.2666600E+002  0.1600545E+03  0.7546771E-02  0.1188635E+00
         21   -1    0    0  504  501  0.00000000000E+00  0.00000000000E+00  0.11092830568E+03  0.11092830568E+03  0.00000000000E+00 0. -1.
         21   -1    0    0  503  502 -0.00000000000E+00 -0.00000000000E+00 -0.13328212638E+04  0.13328212638E+04  0.00000000000E+00 0.  1.
         21    1    1    2  503  506  0.14390629020E+02 -0.89982082299E+02 -0.89625783695E+03  0.90087844665E+03  0.00000000000E+00 0.  1.
         21    1    1    2  504  502 -0.45405083822E+02  0.17769116868E+03 -0.10309824294E+02  0.18369013457E+03  0.00000000000E+00 0. -1.
         21    1    1    2  505  501  0.89431605038E+01 -0.31529934238E+02  0.50578130913E+01  0.33161699988E+02  0.00000000000E+00 0.  1.
         21    1    1    2  506  505  0.22071294298E+02 -0.56179152141E+02 -0.32038310993E+03  0.32601928823E+03  0.00000000000E+00 0.  1.
<scales pt_clust_3="39.77232" pt_clust_4="152.47017" pt_clust_5="32.77372" pt_clust_6="39.77232"></scales>
<clustering>
<clus scale="   32.774">  1  5  2 -1</clus>
<clus scale="   39.772">  3  6 -1 -1</clus>
<clus scale="  152.470">  1  4  2 -1</clus>
<clus scale="   32.774">  1  3  2 -1</clus>
</clustering>
</event>
<event>
 6    0  0.2666600E+002  0.2524472E+03  0.7546771E-02  0.1111768E+00
         21   -1    0    0  505  501  0.00000000000E+00  0.00000000000E+00  0.99251260583E+03  0.99251260583E+03  0.00000000000E+00 0. -1.
         21   -1    0    0  503  502 -0.00000000000E+00 -0.00000000000E+00 -0.14295901613E+04  0.14295901613E+04  0.00000000000E+00 0.  1.
         21    1    1    2  503  501 -0.28237317837E+02  0.31809955827E+02  0.70425763934E+03  0.70554095698E+03  0.00000000000E+00 0. -1.
         21    1    1    2  504  502  0.26545207587E+03 -0.30567946951E+02 -0.13289540358E+04  0.13555508229E+04  0.00000000000E+00 0.  1.
         21    1    1    2  505  506 -0.77583276764E+02  0.37191969219E+02  0.17660631960E+03  0.19644897437E+03  0.00000000000E+00 0. -1.
         21    1    1    2  506  504 -0.15963148127E+03 -0.38433978094E+02  0.11012521387E+02  0.16456201296E+03  0.00000000000E+00 0. -1.
<scales pt_clust_3="42.53492" pt_clust_4="14000.00000" pt_clust_5="111.97969" pt_clust_6="252.44715"></scales>
<clustering>
<clus scale="   42.535">  1  3  2 -1</clus>
<clus scale="  111.980">  1  5  2 -1</clus>
<clus scale="  252.447">  1  6  2 -1</clus>
<clus scale="   42.535">  1  3  2 -1</clus>
</clustering>
</event>
<event>
 6    0  0.2666600E+002  0.1522481E+03  0.7546771E-02  0.1197737E+00
         21   -1    0    0  504  501  0.00000000000E+00  0.00000000000E+00  0.80895597639E+02  0.80895597639E+02  0.00000000000E+00 0.  1.
         21   -1    0    0  503  502 -0.00000000000E+00 -0.00000000000E+00 -0.54880612427E+03  0.54880612427E+03  0.00000000000E+00 0. -1.
         21    1    1    2  503  505 -0.99850335761E+02  0.91059966972E+01 -0.84385914795E+01  0.10061917587E+03  0.00000000000E+00 0.  1.
         21    1    1    2  504  506  0.63208386727E+02 -0.22717376143E+02 -0.15422314733E+03  0.16821462036E+03  0.00000000000E+00 0. -1.
         21    1    1    2  505  501 -0.38544548598E+02  0.34823296605E+02 -0.68295192602E+01  0.52392619197E+02  0.00000000000E+00 0.  1.
         21    1    1    2  506  502  0.75186497631E+02 -0.21211917160E+02 -0.29841926856E+03  0.30847530647E+03  0.00000000000E+00 0. -1.
<scales pt_clust_3="32.95754" pt_clust_4="32.98165" pt_clust_5="32.95754" pt_clust_6="149.49291"></scales>
<clustering>
<clus scale="   32.958">  3  5 -1 -1</clus>
<clus scale="   32.982">  4  6 -1 -1</clus>
<clus scale="  149.493">  2  4  1 -1</clus>
<clus scale="  152.248">  1  3  2 -1</clus>
</clustering>
</event>
<event>
 6    0  0.2666600E+002  0.1321859E+03  0.7546771E-02  0.1224248E+00
         21   -1    0    0  503  501  0.00000000000E+00  0.00000000000E+00  0.96372533359E+03  0.96372533359E+03  0.00000000000E+00 0. -1.
         21   -1    0    0  501  502 -0.00000000000E+00 -0.00000000000E+00 -0.49915792398E+02  0.49915792398E+02  0.00000000000E+00 0. -1.
         21    1    1    2  503  506  0.59919066469E+02 -0.41755854224E+02  0.35378181860E+03  0.36124149964E+03  0.00000000000E+00 0. -1.
         21    1    1    2  504  502 -0.61067887054E+02  0.59936733109E+02  0.20014949473E+02  0.87876601024E+02  0.00000000000E+00 0. -1.
         21    1    1    2  505  504 -0.42064386491E+02  0.10086691830E+02  0.31785818901E+02  0.53679532842E+02  0.00000000000E+00 0. -1.
         21    1    1    2  506  505  0.43213207077E+02 -0.28267570716E+02  0.50822695422E+03  0.51084349249E+03  0.00000000000E+00 0. -1.
<scales pt_clust_3="36.97446" pt_clust_4="131.73769" pt_clust_5="30.29322" pt_clust_6="36.97446"></scales>
<clustering>
<clus scale="   30.293">  4  5 -1 -1</clus>
<clus scale="   36.974">  3  6 -1 -1</clus>
<clus scale="  131.738">  2  4  1 -1</clus>
<clus scale="  132.186">  1  3  2 -1</clus>
</clustering>
</event>
<event>
 6    0  0.2666600E+002  0.1223558E+03  0.7546771E-02  0.1239261E+00
         21   -1    0    0  504  501  0.00000000000E+00  0.00000000000E+00  0.21575205410E+03  0.21575205410E+03  0.00000000000E+00 0.  1.
         21   -1    0    0  506  502 -0.00000000000E+00 -0.00000000000E+00 -0.18820335443E+03  0.18820335443E+03  0.00000000000E+00 0.  1.
         21    1    1    2  503  502  0.78573924066E+02  0.13379573971E+03  0.10222121095E+02  0.15549808123E+03  0.00000000000E+00 0.  1.
         21    1    1    2  504  503  0.51214405007E+02 -0.15049599259E+02  0.87116495537E+01  0.54086029213E+02  0.00000000000E+00 0.  1.
         21    1    1    2  505  501 -0.72041446881E+02 -0.29927319348E+02  0.34523664377E+02  0.85308252321E+02  0.00000000000E+00 0.  1.
         21    1    1    2  506  505 -0.57746882192E+02 -0.88818821100E+02 -0.25908735359E+02  0.10906304577E+03  0.00000000000E+00 0.  1.
<scales pt_clust_3="14000.00000" pt_clust_4="53.37983" pt_clust_5="65.43009" pt_clust_6="122.35576"></scales>
<clustering>
<clus scale="   53.380">  1  4  2 -1</clus>
<clus scale="   65.430">  1  5  2 -1</clus>
<clus scale="  122.356">  2  6  1 -1</clus>
<clus scale="   53.380">  1  3  2 -1</clus>
</clustering>
</event>
<event>
 6    0  0.2666600E+002  0.1133728E+03  0.7546771E-02  0.1254448E+00
         21   -1    0    0  506  501  0.00000000000E+00  0.00000000000E+00  0.61594313117E+03  0.61594313117E+03  0.00000000000E+00 0. -1.
         21   -1    0    0  503  502 -0.00000000000E+00 -0.00000000000E+00 -0.72328722331E+03  0.72328722331E+03  0.00000000000E+00 0. -1.
         21    1    1    2  503  504 -0.43960857128E+02  0.36643447019E+02 -0.79992304053E+02  0.98356839500E+02  0.00000000000E+00 0. -1.
         21    1    1    2  504  501  0.28432789316E+02 -0.16411322502E+02  0.54094023512E+02  0.63276523247E+02  0.00000000000E+00 0.  1.
         21    1    1    2  505  502 -0.68284961145E+02 -0.59367158294E+02 -0.62232333466E+03  0.62886694003E+03  0.00000000000E+00 0. -1.
         21    1    1    2  506  505  0.83813028956E+02  0.39135033777E+02  0.54087752305E+03  0.54873005170E+03  0.00000000000E+00 0. -1.
<scales pt_clust_3="56.69728" pt_clust_4="32.82918" pt_clust_5="113.37284" pt_clust_6="14000.00000"></scales>
<clustering>
<clus scale="   32.829">  1  4  2 -1</clus>
<clus scale="   56.697">  2  3  1 -1</clus>
<clus scale="  113.373">  2  5  1 -1</clus>
<clus scale="   32.829">  1  3  2 -1</clus>
</clustering>
</event>
<event>
 6    0  0.2666600E+002  0.1665105E+03  0.7546771E-02  0.1181536E+00
         21   -1    0    0  506  501  0.00000000000E+00  0.00000000000E+00  0.18394790173E+03  0.18394790173E+03  0.00000000000E+00 0.  1.
         21   -1    0    0  504  502 -0.00000000000E+00 -0.00000000000E+00 -0.33887238165E+03  0.33887238165E+03  0.00000000000E+00 0.  1.
         21    1    1    2  503  501  0.18052060541E+02 -0.27406567849E+02  0.38230620443E+02  0.50384295078E+02  0.00000000000E+00 0. -1.
         21    1    1    2  504  503  0.12445796935E+03 -0.31349296590E+02  0.57598881624E+02  0.14067763040E+03  0.00000000000E+00 0.  1.
         21    1    1    2  505  502 -0.82413139679E+01 -0.40098110622E+02 -0.16298919312E+02  0.44061689732E+02  0.00000000000E+00 0.  1.
         21    1    1    2  506  505 -0.13426871592E+03  0.98853975061E+02 -0.23445506268E+03  0.28769666817E+03  0.00000000000E+00 0.  1.
<scales pt_clust_3="30.17093" pt_clust_4="30.17093" pt_clust_5="40.93626" pt_clust_6="155.45333"></scales>
<clustering>
<clus scale="   30.171">  3  4 -1 -1</clus>
<clus scale="   40.936">  2  5  1 -1</clus>
<clus scale="  155.453">  2  6  1 -1</clus>
<clus scale="  166.510">  1  3  2 -1</clus>
</clustering>
</event>
<event>
 6    0  0.2666600E+002  0.8596685E+02  0.7546771E-02  0.1312923E+00
         21   -1    0    0  503  501  0.00000000000E+00  0.00000000000E+00  0.68926334610E+03  0.68926334610E+03  0.00000000000E+00 0. -1.
         21   -1    0    0  504  502 -0.00000000000E+00 -0.00000000000E+00 -0.22358779667E+03  0.22358779667E+03  0.00000000000E+00 0. -1.
         21    1    1    2  503  505 -0.43455554602E+02  0.18169703424E+02  0.42026464987E+03  0.42289584921E+03  0.00000000000E+00 0. -1.
         21    1    1    2  504  506  0.58065794056E+02 -0.66882000974E+02 -0.16418294620E+03  0.18654993519E+03  0.00000000000E+00 0. -1.
         21    1    1    2  505  502  0.36451394354E+02  0.63004169886E+02 -0.13557582928E+02  0.74040783547E+02  0.00000000000E+00 0. -1.
         21    1    1    2  506  501 -0.51061633809E+02 -0.14291872336E+02  0.22315142868E+03  0.22936457483E+03  0.00000000000E+00 0. -1.
<scales pt_clust_3="47.10120" pt_clust_4="85.96685" pt_clust_5="72.30005" pt_clust_6="14000.00000"></scales>
<clustering>
<clus scale="   47.101">  1  3  2 -1</clus>
<clus scale="   72.300">  2  5  1 -1</clus>
<clus scale="   85.967">  2  4  1 -1</clus>
<clus scale="   47.101">  1  3  2 -1</clus>
</clustering>
</event>
<event>
 6    0  0.2666600E+002  0.1634861E+03  0.7546771E-02  0.1184816E+00
         21   -1    0    0  503  501  0.00000000000E+00  0.00000000000E+00  0.40858454911E+03  0.40858454911E+03  0.00000000000E+00 0. -1.
         21   -1    0    0  506  502 -0.00000000000E+00 -0.00000000000E+00 -0.61732853052E+03  0.61732853052E+03  0.00000000000E+00 0. -1.
         21    1    1    2  503  505  0.12661909065E+03 -0.53376406801E+02  0.36178574692E+03  0.38700175917E+03  0.00000000000E+00 0. -1.
         21    1    1    2  504  502 -0.73790235778E+02 -0.14791365837E+02 -0.33744479424E+03  0.34573511907E+03  0.00000000000E+00 0. -1.
         21    1    1    2  505  504 -0.73903949460E+02  0.41880500523E+02 -0.24351551561E+03  0.25790613876E+03  0.00000000000E+00 0. -1.
         21    1    1    2  506  501  0.21075094587E+02  0.26287272115E+02  0.10430581513E+02  0.35270062629E+02  0.00000000000E+00 0. -1.
<scales pt_clust_3="149.69042" pt_clust_4="61.79053" pt_clust_5="61.79053" pt_clust_6="33.69244"></scales>
<clustering>
<clus scale="   33.692">  1  6  2 -1</clus>
<clus scale="   61.791">  4  5 -1 -1</clus>
<clus scale="  149.690">  1  3  2 -1</clus>
<clus scale="   33.692">  1  3  2 -1</clus>
</clustering>
</event>
<event>
 6    0  0.2666600E+002  0.2784877E+03  0.7546771E-02  0.1096518E+00
         21   -1    0    0  506  501  0.00000000000E+00  0.00000000000E+00  0.50226320164E+03  0.50226320164E+03  0.00000000000E+00 0. -1.
         21   -1    0    0  505  502 -0.00000000000E+00 -0.00000000000E+00 -0.34194328387E+03  0.34194328387E+03  0.00000000000E+00 0. -1.
         21    1    1    2  503  502  0.41298661819E+02  0.19911187911E+02  0.10902875126E+03  0.11827638595E+03  0.00000000000E+00 0.  1.
         21    1    1    2  504  501 -0.23769098251E+03 -0.56982560675E+02 -0.77460362340E+02  0.25640616826E+03  0.00000000000E+00 0. -1.
         21    1    1    2  505  504 -0.27619987063E+02  0.91990418869E+02 -0.10419534913E+03  0.14171016770E+03  0.00000000000E+00 0.  1.
         21    1    1    2  506  503  0.22401230776E+03 -0.54919046105E+02  0.23294687797E+03  0.32781376360E+03  0.00000000000E+00 0. -1.
<scales pt_clust_3="45.54122" pt_clust_4="259.07875" pt_clust_5="96.04739" pt_clust_6="45.54122"></scales>
<clustering>
<clus scale="   45.541">  3  6 -1 -1</clus>
<clus scale="   96.047">  2  5  1 -1</clus>
<clus scale="  259.079">  2  4  1 -1</clus>
<clus scale="  278.488">  1  3  2 -1</clus>
</clustering>
</event>
<event>
 6    0  0.2666600E+002  0.1578683E+03  0.7546771E-02  0.1191125E+00
         21   -1    0    0  503  501  0.00000000000E+00  0.00000000000E+00  0.35290025096E+03  0.35290025096E+03  0.00000000000E+00 0.  1.
         21   -1    0    0  506  502 -0.00000000000E+00 -0.00000000000E+00 -0.77991830072E+03  0.77991830072E+03  0.00000000000E+00 0. -1.
         21    1    1    2  503  504  0.58893673345E+02 -0.29092273347E+02  0.90443835303E+02  0.11178064445E+03  0.00000000000E+00 0.  1.
         21    1    1    2  504  505  0.80200945740E+02  0.30646337137E+02  0.22691055896E+03  0.24261036961E+03  0.00000000000E+00 0.  1.
         21    1    1    2  505  502 -0.14476515073E+03 -0.38961458279E+02 -0.71495053986E+03  0.73049929400E+03  0.00000000000E+00 0. -1.
         21    1    1    2  506  501  0.56705316427E+01  0.37407394490E+02 -0.29421904161E+02  0.47928243616E+02  0.00000000000E+00 0. -1.
<scales pt_clust_3="64.88637" pt_clust_4="64.88637" pt_clust_5="139.25852" pt_clust_6="37.83475"></scales>
<clustering>
<clus scale="   37.835">  2  6  1 -1</clus>
<clus scale="   64.886">  3  4 -1 -1</clus>
<clus scale="  139.259">  2  5  1 -1</clus>
<clus scale="  157.868">  1  3  2 -1</clus>
</clustering>
</event>
<event>
 6    0  0.2666600E+002  0.2023947E+03  0.7546771E-02  0.1147734E+00
         21   -1    0    0  503  501  0.00000000000E+00  0.00000000000E+00  0.45317416662E+03  0.45317416662E+03  0.00000000000E+00 0. -1.
         21   -1    0    0  504  502 -0.00000000000E+00 -0.00000000000E+00 -0.50047665465E+03  0.50047665465E+03  0.00000000000E+00 0.  1.
         21    1    1    2  503  502  0.10233314838E+03  0.68563940708E+02 -0.35504434278E+03  0.37580523221E+03  0.00000000000E+00 0.  1.
         21    1    1    2  504  506  0.24960141143E+02  0.81483257297E+02 -0.93357089530E+02  0.12640441460E+03  0.00000000000E+00 0.  1.
         21    1    1    2  505  501 -0.11727323013E+02 -0.36431773718E+02  0.13077359155E+03  0.13625907856E+03  0.00000000000E+00 0. -1.
         21    1    1    2  506  505 -0.11556596651E+03 -0.11361542429E+03  0.27032535272E+03  0.31518209590E+03  0.00000000000E+00 0. -1.
<scales pt_clust_3="191.73576" pt_clust_4="85.22048" pt_clust_5="31.49797" pt_clust_6="31.49797"></scales>
<clustering>
<clus scale="   31.498">  5  6 -1 -1</clus>
<clus scale="   85.220">  2  4  1 -1</clus>
<clus scale="  191.736">  2  3  1 -1</clus>
<clus scale="  202.395">  1  3  2 -1</clus>
</clustering>
</event>
<event>
 6    0  0.2666600E+002  0.1363475E+03  0.7546771E-02  0.1218330E+00
         21   -1    0    0  504  501  0.00000000000E+00  0.00000000000E+00  0.10031978275E+03  0.10031978275E+03  0.00000000000E+00 0.  1.
         21   -1    0    0  506  502 -0.00000000000E+00 -0.00000000000E+00 -0.16377195966E+04  0.16377195966E+04  0.00000000000E+00 0.  1.
         21    1    1    2  503  501 -0.13032180667E+03  0.29393367584E+02 -0.63449566412E+03  0.64840765814E+03  0.00000000000E+00 0.  1.
         21    1    1    2  504  505 -0.13835109231E+02 -0.49306102219E+02  0.23470721904E+02  0.56332732494E+02  0.00000000000E+00 0.  1.
         21    1    1    2  505  502  0.12599815149E+03 -0.35989720170E+02 -0.29264856835E+02  0.13426550555E+03  0.00000000000E+00 0.  1.
         21    1    1    2  506  503  0.18158764414E+02  0.55902454805E+02 -0.89711001481E+03  0.89903348317E+03  0.00000000000E+00 0.  1.
<scales pt_clust_3="14000.00000" pt_clust_4="51.21037" pt_clust_5="136.34747" pt_clust_6="57.96327"></scales>
<clustering>
<clus scale="   51.210">  1  4  2 -1</clus>
<clus scale="   57.963">  2  6  1 -1</clus>
<clus scale="  136.347">  1  5  2 -1</clus>
<clus scale="   51.210">  1  3  2 -1</clus>
</clustering>
</event>
<event>
 6    0  0.2666600E+002  0.2328922E+03  0.7546771E-02  0.1124621E+00
         21   -1    0    0  504  501  0.00000000000E+00  0.00000000000E+00  0.31269150500E+04  0.31269150500E+04  0.00000000000E+00 0.  1.
         21   -1    0    0  506  502 -0.00000000000E+00 -0.00000000000E+00 -0.15384586459E+03  0.15384586459E+03  0.00000000000E+00 0.  1.
         21    1    1    2  503  505  0.18327818933E+03 -0.70355058559E+02  0.10626454414E+04  0.10806276246E+04  0.00000000000E+00 0.  1.
         21    1    1    2  504  503  0.63472953288E+02 -0.62770134235E+02  0.13523095339E+04  0.13552527370E+04  0.00000000000E+00 0.  1.
         21    1    1    2  505  502  0.19284748350E+02  0.19764455185E+03 -0.25539034968E+02  0.20021866222E+03  0.00000000000E+00 0.  1.
         21    1    1    2  506  501 -0.26603589097E+03 -0.64519359052E+02  0.58365324508E+03  0.64466189081E+03  0.00000000000E+00 0.  1.
<scales pt_clust_3="14000.00000" pt_clust_4="89.26873" pt_clust_5="195.83923" pt_clust_6="232.89215"></scales>
<clustering>
<clus scale="   89.269">  1  4  2 -1</clus>
<clus scale="  195.839">  2  5  1 -1</clus>
<clus scale="  232.892">  2  6  1 -1</clus>
<clus scale="   89.269">  1  3  2 -1</clus>
</clustering>
</event>
<event>
 6    0  0.2666600E+002  0.1418508E+03  0.7546771E-02  0.1210860E+00
         21   -1    0    0  503  501  0.00000000000E+00  0.00000000000E+00  0.15119173966E+04  0.15119173966E+04  0.00000000000E+00 0. -1.
         21   -1    0    0  501  502 -0.00000000000E+00 -0.00000000000E+00 -0.19979478585E+02  0.19979478585E+02  0.00000000000E+00 0. -1.
         21    1    1    2  503  505 -0.74663629836E+02  0.53515562390E+02  0.61714017025E+03  0.62393955058E+03  0.00000000000E+00 0. -1.
         21    1    1    2  504  506  0.59474176288E+02 -0.10083663789E+03  0.39975644256E+03  0.41654581807E+03  0.00000000000E+00 0. -1.
         21    1    1    2  505  504 -0.47541021488E+02  0.40867224344E+02  0.23162619215E+03  0.23996035431E+03  0.00000000000E+00 0. -1.
         21    1    1    2  506  502  0.62730475037E+02  0.64538511519E+01  0.24341511302E+03  0.25145115220E+03  0.00000000000E+00 0. -1.
<scales pt_clust_3="37.64585" pt_clust_4="134.33179" pt_clust_5="37.64585" pt_clust_6="63.06159"></scales>
<clustering>
<clus scale="   37.646">  3  5 -1 -1</clus>
<clus scale="   63.062">  2  6  1 -1</clus>
<clus scale="  134.332">  2  4  1 -1</clus>
<clus scale="  141.851">  1  3  2 -1</clus>
</clustering>
</event>
<event>
 6    0  0.2666600E+002  0.1491112E+03  0.7546771E-02  0.1201569E+00
         21   -1    0    0  504  501  0.00000000000E+00  0.00000000000E+00  0.28193648941E+04  0.28193648941E+04  0.00000000000E+00 0.  1.
         21   -1    0    0  501  502 -0.00000000000E+00 -0.00000000000E+00 -0.64955771607E+02  0.64955771607E+02  0.00000000000E+00 0.  1.
         21    1    1    2  503  505  0.37209440009E+02  0.58798958221E+02  0.16285433018E+04  0.16300291855E+04  0.00000000000E+00 0.  1.
         21    1    1    2  504  503 -0.25265922873E+02  0.22329481127E+02  0.64268442324E+03  0.64356836502E+03  0.00000000000E+00 0. -1.
         21    1    1    2  505  506 -0.14640359897E+03 -0.12274173692E+03  0.40945035545E+03  0.45182866372E+03  0.00000000000E+00 0.  1.
         21    1    1    2  506  502  0.13446008184E+03  0.41613297574E+02  0.73731042039E+02  0.15889445145E+03  0.00000000000E+00 0.  1.
<scales pt_clust_3="77.70058" pt_clust_4="33.71902" pt_clust_5="149.11124" pt_clust_6="14000.00000"></scales>
<clustering>
<clus scale="   33.719">  1  4  2 -1</clus>
<clus scale="   77.701">  1  3  2 -1</clus>
<clus scale="  149.111">  1  5  2 -1</clus>
<clus scale="   33.719">  1  3  2 -1</clus>
</clustering>
</event>
<event>
 6    0  0.2666600E+002  0.1264917E+03  0.7546771E-02  0.1232756E+00
         21   -1    0    0  503  501  0.00000000000E+00  0.00000000000E+00  0.68791468084E+03  0.68791468084E+03  0.00000000000E+00 0.  1.
         21   -1    0    0  506  502 -0.00000000000E+00 -0.00000000000E+00 -0.10869574992E+03  0.10869574992E+03  0.00000000000E+00 0.  1.
         21    1    1    2  503  504 -0.64154174564E+02 -0.88716160112E+02  0.31032729878E+03  0.32907346831E+03  0.00000000000E+00 0.  1.
         21    1    1    2  504  502  0.84034286891E+02  0.97931828397E+02 -0.41443371547E+02  0.13553581605E+03  0.00000000000E+00 0.  1.
         21    1    1    2  505  501  0.32679752752E+02 -0.14763173649E+02  0.24664436155E+03  0.24923755459E+03  0.00000000000E+00 0.  1.
         21    1    1    2  506  505 -0.52559865078E+02  0.55475053645E+01  0.63690642137E+02  0.82763591806E+02  0.00000000000E+00 0.  1.
<scales pt_clust_3="14000.00000" pt_clust_4="126.49169" pt_clust_5="35.85969" pt_clust_6="47.22204"></scales>
<clustering>
<clus scale="   35.860">  1  5  2 -1</clus>
<clus scale="   47.222">  1  6  2 -1</clus>
<clus scale="  126.492">  2  4  1 -1</clus>
<clus scale="   35.860">  1  3  2 -1</clus>
</clustering>
</event>
<event>
 6    0  0.2666600E+002  0.1270439E+03  0.7546771E-02  0.1231909E+00
         21   -1    0    0  503  501  0.00000000000E+00  0.00000000000E+00  0.59795407941E+02  0.59795407941E+02  0.00000000000E+00 0.  1.
         21   -1    0    0  506  502 -0.00000000000E+00 -0.00000000000E+00 -0.46241126493E+03  0.46241126493E+03  0.00000000000E+00 0. -1.
         21    1    1    2  503  502 -0.93528704447E+01  0.37688325508E+02 -0.10132245002E+03  0.10850863995E+03  0.00000000000E+00 0. -1.
         21    1    1    2  504  505  0.74387474967E+02 -0.32213421976E+02 -0.55167746887E+02  0.98054481203E+02  0.00000000000E+00 0.  1.
         21    1    1    2  505  501  0.42286811449E+02 -0.13142697195E+02  0.28908161852E+01  0.44376364546E+02  0.00000000000E+00 0.  1.
         21    1    1    2  506  504 -0.10732141597E+03  0.76677936634E+01 -0.24901647627E+03  0.27126718718E+03  0.00000000000E+00 0. -1.
<scales pt_clust_3="38.83151" pt_clust_4="32.07728" pt_clust_5="32.07728" pt_clust_6="119.40076"></scales>
<clustering>
<clus scale="   32.077">  4  5 -1 -1</clus>
<clus scale="   38.832">  2  3  1 -1</clus>
<clus scale="  119.401">  2  6  1 -1</clus>
<clus scale="  127.044">  1  3  2 -1</clus>
</clustering>
</event>
<event>
 6    0  0.2666600E+002  0.1289204E+03  0.7546771E-02  0.1229067E+00
         21   -1    0    0  503  501  0.00000000000E+00  0.00000000000E+00  0.51823207381E+03  0.51823207381E+03  0.00000000000E+00 0. -1.
         21   -1    0    0  504  502 -0.00000000000E+00 -0.00000000000E+00 -0.59414237809E+02  0.59414237809E+02  0.00000000000E+00 0. -1.
         21    1    1    2  503  505  0.64556325715E+02  0.17167606073E+02  0.24192085518E+03  0.25097399478E+03  0.00000000000E+00 0. -1.
         21    1    1    2  504  501 -0.14060899394E+01 -0.38914229312E+02  0.56066561138E+02  0.68262387958E+02  0.00000000000E+00 0. -1.
         21    1    1    2  505  506  0.47140609151E+02 -0.25946202674E+02  0.11998165605E+03  0.13149540012E+03  0.00000000000E+00 0. -1.
         21    1    1    2  506  502 -0.11029084493E+03  0.47692825913E+02  0.40848763632E+02  0.12691452875E+03  0.00000000000E+00 0. -1.
<scales pt_clust_3="50.62049" pt_clust_4="38.93962" pt_clust_5="50.62049" pt_clust_6="117.74683"></scales>
<clustering>
<clus scale="   38.940">  1  4  2 -1</clus>
<clus scale="   50.620">  3  5 -1 -1</clus>
<clus scale="  117.747">  2  6  1 -1</clus>
<clus scale="   38.940">  1  3  2 -1</clus>
</clustering>
</event>
<event>
 6    0  0.2666600E+002  0.1288942E+03  0.7546771E-02  0.1229106E+00
         21   -1    0    0  506  501  0.00000000000E+00  0.00000000000E+00  0.44304916022E+02  0.44304916022E+02  0.00000000000E+00 0. -1.
         21   -1    0    0  504  502 -0.00000000000E+00 -0.00000000000E+00 -0.56704234020E+03  0.56704234020E+03  0.00000000000E+00 0. -1.
         21    1    1    2  503  502 -0.39032597104E+02 -0.21370287052E+02 -0.36788998847E+02  0.57737883937E+02  0.00000000000E+00 0. -1.
         21    1    1    2  504  505  0.11254957574E+03  0.23716020917E+02 -0.34263323730E+03  0.36142411645E+03  0.00000000000E+00 0. -1.
         21    1    1    2  505  501  0.28018149197E+01 -0.41808138083E+02 -0.41697881782E+02  0.59114160080E+02  0.00000000000E+00 0. -1.
         21    1    1    2  506  503 -0.76318793558E+02  0.39462404218E+02 -0.10161730624E+03  0.13307109575E+03  0.00000000000E+00 0. -1.
<scales pt_clust_3="48.61916" pt_clust_4="113.99662" pt_clust_5="41.90192" pt_clust_6="48.61916"></scales>
<clustering>
<clus scale="   41.902">  1  5  2 -1</clus>
<clus scale="   48.619">  3  6 -1 -1</clus>
<clus scale="  113.997">  2  4  1 -1</clus>
<clus scale="   41.902">  1  3  2 -1</clus>
</clustering>
</event>
<event>
 6    0  0.2666600E+002  0.1596324E+03  0.7546771E-02  0.1189112E+00
         21   -1    0    0  505  501  0.00000000000E+00  0.00000000000E+00  0.45856220478E+03  0.45856220478E+03  0.00000000000E+00 0. -1.
         21   -1    0    0  503  502 -0.00000000000E+00 -0.00000000000E+00 -0.57450435987E+03  0.57450435987E+03  0.00000000000E+00 0. -1.
         21    1    1    2  503  506  0.17468395868E+02  0.30662816647E+02 -0.22308223177E+03  0.22585622708E+03  0.00000000000E+00 0. -1.
         21    1    1    2  504  502 -0.67285117984E+02  0.33284799133E+02  0.15725103323E+03  0.17424997104E+03  0.00000000000E+00 0.  1.
         21    1    1    2  505  504 -0.72780607306E+02  0.35990083281E+02  0.26674057961E+03  0.27882403000E+03  0.00000000000E+00 0. -1.
         21    1    1    2  506  501  0.12259732942E+03 -0.99937699061E+02 -0.31685153617E+03  0.35413633653E+03  0.00000000000E+00 0. -1.
<scales pt_clust_3="35.28956" pt_clust_4="31.74169" pt_clust_5="31.74169" pt_clust_6="156.18184"></scales>
<clustering>
<clus scale="   31.742">  4  5 -1 -1</clus>
<clus scale="   35.290">  2  3  1 -1</clus>
<clus scale="  156.182">  2  6  1 -1</clus>
<clus scale="  159.632">  1  3  2 -1</clus>
</clustering>
</event>
<event>
 6    0  0.2666600E+002  0.1878999E+03  0.7546771E-02  0.1160369E+00
         21   -1    0    0  505  501  0.00000000000E+00  0.00000000000E+00  0.69473079513E+03  0.69473079513E+03  0.00000000000E+00 0. -1.
         21   -1    0    0  503  502 -0.00000000000E+00 -0.00000000000E+00 -0.96826172006E+03  0.96826172006E+03  0.00000000000E+00 0.  1.
         21    1    1    2  503  504  0.26330743965E+01 -0.36212841289E+02 -0.23841148840E+03  0.24116040462E+03  0.00000000000E+00 0. -1.
         21    1    1    2  504  501 -0.18137125756E+03  0.88613171442E+01 -0.70400285823E+03  0.72704475819E+03  0.00000000000E+00 0.  1.
         21    1    1    2  505  506  0.86819624858E+02 -0.89309598300E+01  0.26557532614E+03  0.27954903534E+03  0.00000000000E+00 0. -1.
         21    1    1    2  506  502  0.91918558311E+02  0.36282483975E+02  0.40330809555E+03  0.41523831704E+03  0.00000000000E+00 0. -1.
<scales pt_clust_3="36.30844" pt_clust_4="180.76885" pt_clust_5="48.22477" pt_clust_6="48.22477"></scales>
<clustering>
<clus scale="   36.308">  2  3  1 -1</clus>
<clus scale="   48.225">  5  6 -1 -1</clus>
<clus scale="  180.769">  2  4  1 -1</clus>
<clus scale="  187.900">  1  3  2 -1</clus>
</clustering>
</event>
<event>
 6    0  0.2666600E+002  0.1032721E+03  0.7546771E-02  0.1273562E+00
         21   -1    0    0  506  501  0.00000000000E+00  0.00000000000E+00  0.12897269158E+03  0.12897269158E+03  0.00000000000E+00 0.  1.
         21   -1    0    0  504  502 -0.00000000000E+00 -0.00000000000E+00 -0.15749618706E+03  0.15749618706E+03  0.00000000000E+00 0.  1.
         21    1    1    2  503  505 -0.40811026455E+02 -0.34448017305E+02 -0.45178528160E+02  0.69952163535E+02  0.00000000000E+00 0.  1.
         21    1    1    2  504  501  0.89831888298E+02  0.77440294819E+02 -0.55553894805E+01  0.11873343998E+03  0.00000000000E+00 0.  1.
         21    1    1    2  505  502 -0.38908838828E+02  0.16106971018E+01 -0.11910246272E+02  0.40722795218E+02  0.00000000000E+00 0.  1.
         21    1    1    2  506  503 -0.10112023016E+02 -0.44602974616E+02  0.34120668426E+02  0.57060479913E+02  0.00000000000E+00 0.  1.
<scales pt_clust_3="33.68663" pt_clust_4="95.44028" pt_clust_5="33.68663" pt_clust_6="45.73487"></scales>
<clustering>
<clus scale="   33.687">  3  5 -1 -1</clus>
<clus scale="   45.735">  1  6  2 -1</clus>
<clus scale="   95.440">  1  4  2 -1</clus>
<clus scale="   45.735">  1  3  2 -1</clus>
</clustering>
</event>
<event>
 6    0  0.2666600E+002  0.7099811E+02  0.7546771E-02  0.1356731E+00
         21   -1    0    0  503  501  0.00000000000E+00  0.00000000000E+00  0.28313599150E+03  0.28313599150E+03  0.00000000000E+00 0. -1.
         21   -1    0    0  504  502 -0.00000000000E+00 -0.00000000000E+00 -0.33646424896E+03  0.33646424896E+03  0.00000000000E+00 0.  1.
         21    1    1    2  503  505 -0.47360816073E+02 -0.81438153063E+02  0.21039565476E+03  0.23052451327E+03  0.00000000000E+00 0. -1.
         21    1    1    2  504  506 -0.26776584663E+02 -0.62022093420E+02 -0.79678006717E+02  0.10446200416E+03  0.00000000000E+00 0.  1.
         21    1    1    2  505  502  0.67141427617E+02  0.11137352719E+03 -0.20706033282E+03  0.24451178967E+03  0.00000000000E+00 0.  1.
         21    1    1    2  506  501  0.69959731187E+01  0.32086719296E+02  0.23014427312E+02  0.40101933364E+02  0.00000000000E+00 0.  1.
<scales pt_clust_3="70.99811" pt_clust_4="65.96845" pt_clust_5="14000.00000" pt_clust_6="32.84054"></scales>
<clustering>
<clus scale="   32.841">  1  6  2 -1</clus>
<clus scale="   65.968">  2  4  1 -1</clus>
<clus scale="   70.998">  1  3  2 -1</clus>
<clus scale="   32.841">  1  3  2 -1</clus>
</clustering>
</event>
<event>
 6    0  0.2666600E+002  0.1436644E+03  0.7546771E-02  0.1208482E+00
         21   -1    0    0  502  501  0.00000000000E+00  0.00000000000E+00  0.84532918734E+03  0.84532918734E+03  0.00000000000E+00 0. -1.
         21   -1    0    0  504  502 -0.00000000000E+00 -0.00000000000E+00 -0.85797552930E+02  0.85797552930E+02  0.00000000000E+00 0. -1.
         21    1    1    2  503  506 -0.82084948607E+02 -0.10267758649E+02  0.61404204098E+03  0.61958937510E+03  0.00000000000E+00 0. -1.
         21    1    1    2  504  505  0.49285263365E+02  0.17790441955E+02  0.19382058626E+02  0.55867711664E+02  0.00000000000E+00 0. -1.
         21    1    1    2  505  503  0.89622165036E+02 -0.54171560555E+01 -0.25840995400E+02  0.93430375621E+02  0.00000000000E+00 0. -1.
         21    1    1    2  506  501 -0.56822479794E+02 -0.21055272510E+01  0.15194853021E+03  0.16223927788E+03  0.00000000000E+00 0. -1.
<scales pt_clust_3="133.56505" pt_clust_4="40.42210" pt_clust_5="40.42210" pt_clust_6="56.86148"></scales>
<clustering>
<clus scale="   40.422">  4  5 -1 -1</clus>
<clus scale="   56.861">  1  6  2 -1</clus>
<clus scale="  133.565">  1  3  2 -1</clus>
<clus scale="   56.861">  1  3  2 -1</clus>
</clustering>
</event>
<event>
 6    0  0.2666600E+002  0.9795367E+02  0.7546771E-02  0.1284659E+00
         21   -1    0    0  506  501  0.00000000000E+00  0.00000000000E+00  0.78613503638E+02  0.78613503638E+02  0.00000000000E+00 0. -1.
         21   -1    0    0  504  502 -0.00000000000E+00 -0.00000000000E+00 -0.11270209547E+04  0.11270209547E+04  0.00000000000E+00 0. -1.
         21    1    1    2  503  502  0.29014382906E+02 -0.62134152180E+02 -0.66759019378E+03  0.67110293854E+03  0.00000000000E+00 0. -1.
         21    1    1    2  504  505 -0.41820047536E+02 -0.50112185614E+02 -0.37595230651E+03  0.38157605310E+03  0.00000000000E+00 0. -1.
         21    1    1    2  505  501 -0.44233264572E+02  0.62071432208E+02 -0.97023958661E+01  0.76834763464E+02  0.00000000000E+00 0. -1.
         21    1    1    2  506  503  0.57038929202E+02  0.50174905585E+02  0.48374450461E+01  0.76120703292E+02  0.00000000000E+00 0. -1.
<scales pt_clust_3="14000.00000" pt_clust_4="65.26981" pt_clust_5="97.95367" pt_clust_6="72.89615"></scales>
<clustering>
<clus scale="   65.270">  2  4  1 -1</clus>
<clus scale="   72.896">  1  6  2 -1</clus>
<clus scale="   97.954">  1  5  2 -1</clus>
<clus scale="   72.896">  1  3  2 -1</clus>
</clustering>
</event>
<event>
 6    0  0.2666600E+002  0.1194573E+03  0.7546771E-02  0.1243995E+00
         21   -1    0    0  503  501  0.00000000000E+00  0.00000000000E+00  0.44645819034E+03  0.44645819034E+03  0.00000000000E+00 0.  1.
         21   -1    0    0  505  502 -0.00000000000E+00 -0.00000000000E+00 -0.11531555484E+03  0.11531555484E+03  0.00000000000E+00 0.  1.
         21    1    1    2  503  502  0.12857295732E+02  0.77021740061E+02  0.15575961319E+03  0.17423752638E+03  0.00000000000E+00 0.  1.
         21    1    1    2  504  501 -0.69175713775E+02  0.24985152995E+02  0.23441358189E+03  0.24568122562E+03  0.00000000000E+00 0.  1.
         21    1    1    2  505  506  0.17421446362E+02 -0.42028312197E+02  0.51473103451E+01  0.45786249282E+02  0.00000000000E+00 0.  1.
         21    1    1    2  506  504  0.38896971681E+02 -0.59978580859E+02 -0.64177869932E+02  0.96068743912E+02  0.00000000000E+00 0. -1.
<scales pt_clust_3="105.87250" pt_clust_4="73.54956" pt_clust_5="44.13761" pt_clust_6="44.13761"></scales>
<clustering>
<clus scale="   44.138">  5  6 -1 -1</clus>
<clus scale="   73.550">  1  4  2 -1</clus>
<clus scale="  105.873">  1  3  2 -1</clus>
<clus scale="   73.550">  1  3  2 -1</clus>
</clustering>
</event>
<event>
 6    0  0.2666600E+002  0.2274266E+03  0.7546771E-02  0.1128464E+00
         21   -1    0    0  503  501  0.00000000000E+00  0.00000000000E+00  0.16661238241E+03  0.16661238241E+03  0.00000000000E+00 0. -1.
         21   -1    0    0  504  502 -0.00000000000E+00 -0.00000000000E+00 -0.34402067484E+03  0.34402067484E+03  0.00000000000E+00 0. -1.
         21    1    1    2  503  506  0.77141467452E+02  0.14028643227E+03  0.37516522121E+02  0.16443411602E+03  0.00000000000E+00 0. -1.
         21    1    1    2  504  505 -0.84762857479E+02 -0.14667727054E+03 -0.17028333886E+03  0.24019862446E+03  0.00000000000E+00 0. -1.
         21    1    1    2  505  501 -0.14550836879E+02 -0.39698343336E+02 -0.78666990592E+01  0.43006630554E+02  0.00000000000E+00 0.  1.
         21    1    1    2  506  502  0.22172226906E+02  0.46089181609E+02 -0.36774776632E+02  0.62993686221E+02  0.00000000000E+00 0.  1.
<scales pt_clust_3="47.70516" pt_clust_4="220.15399" pt_clust_5="31.07340" pt_clust_6="47.70516"></scales>
<clustering>
<clus scale="   31.073">  4  5 -1 -1</clus>
<clus scale="   47.705">  3  6 -1 -1</clus>
<clus scale="  220.154">  2  4  1 -1</clus>
<clus scale="  227.427">  1  3  2 -1</clus>
</clustering>
</event>
<event>
 6    0  0.2666600E+002  0.1584639E+03  0.7546771E-02  0.1190442E+00
         21   -1    0    0  502  501  0.00000000000E+00  0.00000000000E+00  0.66881338842E+03  0.66881338842E+03  0.00000000000E+00 0. -1.
         21   -1    0    0  506  502 -0.00000000000E+00 -0.00000000000E+00 -0.32220737017E+03  0.32220737017E+03  0.00000000000E+00 0. -1.
         21    1    1    2  503  501  0.18595134062E+01  0.44035834639E+02  0.24772625619E+03  0.25161659431E+03  0.00000000000E+00 0. -1.
         21    1    1    2  504  505 -0.17296487953E+03 -0.69031996250E+02 -0.13520535952E+03  0.23013638413E+03  0.00000000000E+00 0. -1.
         21    1    1    2  505  503  0.29045322593E+02  0.25328130857E+02  0.33360046890E+03  0.33581902541E+03  0.00000000000E+00 0. -1.
         21    1    1    2  506  504  0.14206004353E+03 -0.33196924636E+00 -0.99515347328E+02  0.17344875475E+03  0.00000000000E+00 0. -1.
<scales pt_clust_3="84.49761" pt_clust_4="14000.00000" pt_clust_5="34.65298" pt_clust_6="158.46391"></scales>
<clustering>
<clus scale="   34.653">  3  5 -1 -1</clus>
<clus scale="   84.498">  1  3  2 -1</clus>
<clus scale="  158.464">  2  6  1 -1</clus>
<clus scale="   84.498">  1  3  2 -1</clus>
</clustering>
</event>
<event>
 6    0  0.2666600E+002  0.4583161E+03  0.7546771E-02  0.1025271E+00
         21   -1    0    0  505  501  0.00000000000E+00  0.00000000000E+00  0.61402223170E+03  0.61402223170E+03  0.00000000000E+00 0. -1.
         21   -1    0    0  506  502 -0.00000000000E+00 -0.00000000000E+00 -0.74806110606E+03  0.74806110606E+03  0.00000000000E+00 0. -1.
         21    1    1    2  503  501  0.83544505941E+02 -0.11095074239E+03  0.27290012743E+03  0.30620945652E+03  0.00000000000E+00 0. -1.
         21    1    1    2  504  502  0.12102032836E+02  0.23472101752E+03 -0.17671667673E+03  0.29405645564E+03  0.00000000000E+00 0. -1.
         21    1    1    2  505  504 -0.65200712021E-01  0.25666799210E+03 -0.26387534413E+03  0.36811500874E+03  0.00000000000E+00 0. -1.
         21    1    1    2  506  503 -0.95581338065E+02 -0.38043826723E+03  0.33653019073E+02  0.39370241687E+03  0.00000000000E+00 0. -1.
<scales pt_clust_3="138.88755" pt_clust_4="50.10561" pt_clust_5="50.10561" pt_clust_6="455.31522"></scales>
<clustering>
<clus scale="   50.106">  4  5 -1 -1</clus>
<clus scale="  138.888">  1  3  2 -1</clus>
<clus scale="  455.315">  1  6  2 -1</clus>
<clus scale="  138.888">  1  3  2 -1</clus>
</clustering>
</event>
<event>
 6    0  0.2666600E+002  0.2243964E+03  0.7546771E-02  0.1130647E+00
         21   -1    0    0  504  501  0.00000000000E+00  0.00000000000E+00  0.34982757920E+03  0.34982757920E+03  0.00000000000E+00 0.  1.
         21   -1    0    0  505  502 -0.00000000000E+00 -0.00000000000E+00 -0.12607291447E+04  0.12607291447E+04  0.00000000000E+00 0.  1.
         21    1    1    2  503  502  0.21195007933E+03  0.61657210137E+02 -0.87700552496E+03  0.90435785976E+03  0.00000000000E+00 0.  1.
         21    1    1    2  504  506 -0.23163589203E+02  0.12936809372E+03  0.79978119685E+02  0.15384783121E+03  0.00000000000E+00 0.  1.
         21    1    1    2  505  501  0.11303630183E+02 -0.43932937153E+02  0.16955375337E+03  0.17551737893E+03  0.00000000000E+00 0.  1.
         21    1    1    2  506  503 -0.20009012031E+03 -0.14709236671E+03 -0.28342791362E+03  0.37683365403E+03  0.00000000000E+00 0.  1.
<scales pt_clust_3="224.39635" pt_clust_4="101.61871" pt_clust_5="45.36381" pt_clust_6="14000.00000"></scales>
<clustering>
<clus scale="   45.364">  1  5  2 -1</clus>
<clus scale="  101.619">  1  4  2 -1</clus>
<clus scale="  224.396">  2  3  1 -1</clus>
<clus scale="   45.364">  1  3  2 -1</clus>
</clustering>
</event>
<event>
 6    0  0.2666600E+002  0.1433777E+03  0.7546771E-02  0.1208855E+00
         21   -1    0    0  506  501  0.00000000000E+00  0.00000000000E+00  0.85594575394E+03  0.85594575394E+03  0.00000000000E+00 0. -1.
         21   -1    0    0  501  502 -0.00000000000E+00 -0.00000000000E+00 -0.42154477120E+02  0.42154477120E+02  0.00000000000E+00 0. -1.
         21    1    1    2  503  502  0.49426769104E+02  0.13892313376E+03  0.18109725915E+03  0.23353556446E+03  0.00000000000E+00 0. -1.
         21    1    1    2  504  505 -0.47874361422E+02 -0.59649202770E+02  0.35977021319E+03  0.36781053298E+03  0.00000000000E+00 0. -1.
         21    1    1    2  505  503 -0.40512398083E+02 -0.19003579871E+02  0.10500152913E+03  0.11413900108E+03  0.00000000000E+00 0. -1.
         21    1    1    2  506  504  0.38959990401E+02 -0.60270351114E+02  0.16792227535E+03  0.18261513254E+03  0.00000000000E+00 0. -1.
<scales pt_clust_3="135.25189" pt_clust_4="36.39540" pt_clust_5="36.39540" pt_clust_6="71.76626"></scales>
<clustering>
<clus scale="   36.395">  4  5 -1 -1</clus>
<clus scale="   71.766">  1  6  2 -1</clus>
<clus scale="  135.252">  2  3  1 -1</clus>
<clus scale="   71.766">  1  3  2 -1</clus>
</clustering>
</event>
<event>
 6    0  0.2666600E+002  0.1270352E+03  0.7546771E-02  0.1231922E+00
         21   -1    0    0  505  501  0.00000000000E+00  0.00000000000E+00  0.17503425094E+04  0.17503425094E+04  0.00000000000E+00 0.  1.
         21   -1    0    0  506  502 -0.00000000000E+00 -0.00000000000E+00 -0.10556802596E+03  0.10556802596E+03  0.00000000000E+00 0. -1.
         21    1    1    2  503  502  0.14072442161E+03 -0.17607040474E+02 -0.59399614672E+01  0.14194595399E+03  0.00000000000E+00 0. -1.
         21    1    1    2  504  501 -0.16354352628E+02 -0.37077202114E+02  0.27166089071E+03  0.27466674955E+03  0.00000000000E+00 0.  1.
         21    1    1    2  505  503 -0.18458977657E+02  0.45008026370E+02  0.13134264538E+04  0.13143270163E+04  0.00000000000E+00 0.  1.
         21    1    1    2  506  504 -0.10591109132E+03  0.96762162177E+01  0.65627100447E+02  0.12497081555E+03  0.00000000000E+00 0. -1.
<scales pt_clust_3="127.03521" pt_clust_4="40.52387" pt_clust_5="35.12930" pt_clust_6="14000.00000"></scales>
<clustering>
<clus scale="   40.524">  1  4  2 -1</clus>
<clus scale="   35.129">  1  5  2 -1</clus>
<clus scale="  127.035">  2  3  1 -1</clus>
<clus scale="   40.524">  1  3  2 -1</clus>
</clustering>
</event>
<event>
 6    0  0.2666600E+002  0.9737665E+02  0.7546771E-02  0.1285911E+00
         21   -1    0    0  506  501  0.00000000000E+00  0.00000000000E+00  0.72505693371E+02  0.72505693371E+02  0.00000000000E+00 0.  1.
         21   -1    0    0  504  502 -0.00000000000E+00 -0.00000000000E+00 -0.13177457278E+04  0.13177457278E+04  0.00000000000E+00 0. -1.
         21    1    1    2  503  502 -0.61432445422E+02  0.73281745325E+02 -0.10257207087E+04  0.10301684968E+04  0.00000000000E+00 0. -1.
         21    1    1    2  504  501  0.11753331175E+03 -0.75281892685E+02 -0.59859668183E+02  0.15187041388E+03  0.00000000000E+00 0.  1.
         21    1    1    2  505  503 -0.50638951028E+02 -0.39698801464E+02 -0.15254409598E+03  0.16555965516E+03  0.00000000000E+00 0. -1.
         21    1    1    2  506  505 -0.54619152959E+01  0.41698948824E+02 -0.71155615705E+01  0.42652855335E+02  0.00000000000E+00 0.  1.
<scales pt_clust_3="97.37665" pt_clust_4="14000.00000" pt_clust_5="61.94707" pt_clust_6="42.05514"></scales>
<clustering>
<clus scale="   42.055">  1  6  2 -1</clus>
<clus scale="   61.947">  1  5  2 -1</clus>
<clus scale="   97.377">  2  3  1 -1</clus>
<clus scale="   42.055">  1  3  2 -1</clus>
</clustering>
</event>
<event>
 6    0  0.2666600E+002  0.1963063E+03  0.7546771E-02  0.1152893E+00
         21   -1    0    0  502  501  0.00000000000E+00  0.00000000000E+00  0.51881193871E+03  0.51881193871E+03  0.00000000000E+00 0.  1.
         21   -1    0    0  503  502 -0.00000000000E+00 -0.00000000000E+00 -0.18152204782E+03  0.18152204782E+03  0.00000000000E+00 0. -1.
         21    1    1    2  503  504  0.36970470746E+02  0.21015151047E+00  0.16295454732E+02  0.40402991421E+02  0.00000000000E+00 0.  1.
         21    1    1    2  504  506 -0.21546584205E+03 -0.41226333177E+00 -0.68247233953E+02  0.22601633568E+03  0.00000000000E+00 0. -1.
         21    1    1    2  505  501  0.14683991266E+03  0.25974458560E+02  0.32811818567E+03  0.36041389570E+03  0.00000000000E+00 0.  1.
         21    1    1    2  506  505  0.31655458644E+02 -0.25772346738E+02  0.61123484442E+02  0.73500763728E+02  0.00000000000E+00 0.  1.
<scales pt_clust_3="36.97107" pt_clust_4="183.36835" pt_clust_5="36.66980" pt_clust_6="36.66980"></scales>
<clustering>
<clus scale="   36.670">  5  6 -1 -1</clus>
<clus scale="   36.971">  2  3  1 -1</clus>
<clus scale="  183.368">  2  4  1 -1</clus>
<clus scale="  196.306">  1  3  2 -1</clus>
</clustering>
</event>
<event>
 6    0  0.2666600E+002  0.1695343E+03  0.7546771E-02  0.1178334E+00
         21   -1    0    0  504  501  0.00000000000E+00  0.00000000000E+00  0.12123097617E+04  0.12123097617E+04  0.00000000000E+00 0.  1.
         21   -1    0    0  503  502 -0.00000000000E+00 -0.00000000000E+00 -0.49712064763E+03  0.49712064763E+03  0.00000000000E+00 0.  1.
         21    1    1    2  503  506 -0.83448557692E+02  0.83302090517E+02 -0.30171085210E+03  0.32393261389E+03  0.00000000000E+00 0.  1.
         21    1    1    2  504  502  0.23837964818E+02 -0.42921006573E+02  0.17323960633E+03  0.18006227416E+03  0.00000000000E+00 0.  1.
         21    1    1    2  505  501  0.10923821616E+03 -0.29610195383E+02  0.10177839798E+04  0.10240576063E+04  0.00000000000E+00 0.  1.
         21    1    1    2  506  505 -0.49627623287E+02 -0.10770888561E+02 -0.17412361992E+03  0.18137791500E+03  0.00000000000E+00 0. -1.
<scales pt_clust_3="50.70758" pt_clust_4="49.09645" pt_clust_5="150.96902" pt_clust_6="50.70758"></scales>
<clustering>
<clus scale="   49.096">  1  4  2 -1</clus>
<clus scale="   50.708">  3  6 -1 -1</clus>
<clus scale="  150.969">  1  5  2 -1</clus>
<clus scale="   49.096">  1  3  2 -1</clus>
</clustering>
</event>
<event>
 6    0  0.2666600E+002  0.2349509E+03  0.7546771E-02  0.1123203E+00
         21   -1    0    0  505  501  0.00000000000E+00  0.00000000000E+00  0.83581326594E+02  0.83581326594E+02  0.00000000000E+00 0.  1.
         21   -1    0    0  506  502 -0.00000000000E+00 -0.00000000000E+00 -0.66002594989E+03  0.66002594989E+03  0.00000000000E+00 0.  1.
         21    1    1    2  503  501 -0.91307162057E+02 -0.92543653859E+02 -0.13215465193E+03  0.18538116878E+03  0.00000000000E+00 0.  1.
         21    1    1    2  504  502  0.11462295340E+03  0.10562228223E+03 -0.16247734860E+03  0.22515189708E+03  0.00000000000E+00 0.  1.
         21    1    1    2  505  504  0.28108664581E+02  0.72203507499E+02 -0.11138926043E+03  0.13568718016E+03  0.00000000000E+00 0. -1.
         21    1    1    2  506  503 -0.51424455927E+02 -0.85282135871E+02 -0.17042336233E+03  0.19738703046E+03  0.00000000000E+00 0.  1.
<scales pt_clust_3="234.43131" pt_clust_4="39.93125" pt_clust_5="39.93125" pt_clust_6="47.64734"></scales>
<clustering>
<clus scale="   39.931">  4  5 -1 -1</clus>
<clus scale="   47.647">  3  6 -1 -1</clus>
<clus scale="  234.431">  2  3  1 -1</clus>
<clus scale="  234.951">  1  3  2 -1</clus>
</clustering>
</event>
<event>
 6    0  0.2666600E+002  0.1659990E+03  0.7546771E-02  0.1182086E+00
         21   -1    0    0  505  501  0.00000000000E+00  0.00000000000E+00  0.19537241747E+04  0.19537241747E+04  0.00000000000E+00 0. -1.
         21   -1    0    0  504  502 -0.00000000000E+00 -0.00000000000E+00 -0.82311350697E+02  0.82311350697E+02  0.00000000000E+00 0.  1.
         21    1    1    2  503  506 -0.59445110759E+02  0.45450601273E+02  0.63946175739E+03  0.64382514514E+03  0.00000000000E+00 0. -1.
         21    1    1    2  504  503  0.13348517257E+03 -0.11970858043E+03  0.88665661651E+02  0.20002508613E+03  0.00000000000E+00 0.  1.
         21    1    1    2  505  502  0.13515985089E+02  0.75576350922E+02  0.42171623829E+02  0.87595162697E+02  0.00000000000E+00 0. -1.
         21    1    1    2  506  501 -0.87556046905E+02 -0.13183717668E+01  0.11011137811E+04  0.11045901314E+04  0.00000000000E+00 0. -1.
<scales pt_clust_3="56.95341" pt_clust_4="154.14238" pt_clust_5="76.77543" pt_clust_6="56.95341"></scales>
<clustering>
<clus scale="   56.953">  3  6 -1 -1</clus>
<clus scale="   76.775">  2  5  1 -1</clus>
<clus scale="  154.142">  2  4  1 -1</clus>
<clus scale="  165.999">  1  3  2 -1</clus>
</clustering>
</event>
<event>
 6    0  0.2666600E+002  0.1271110E+03  0.7546771E-02  0.1231807E+00
         21   -1    0    0  502  501  0.00000000000E+00  0.00000000000E+00  0.19337194286E+03  0.19337194286E+03  0.00000000000E+00 0.  1.
         21   -1    0    0  505  502 -0.00000000000E+00 -0.00000000000E+00 -0.10612459515E+04  0.10612459515E+04  0.00000000000E+00 0. -1.
         21    1    1    2  503  504 -0.17684258210E+03 -0.15085735275E+02 -0.39907156501E+03  0.43675965044E+03  0.00000000000E+00 0. -1.
         21    1    1    2  504  506  0.44968176827E+02  0.10513477280E+02  0.74342810272E+02  0.87518704119E+02  0.00000000000E+00 0. -1.
         21    1    1    2  505  503  0.11077638862E+03  0.26154554502E+02 -0.62906161407E+03  0.63927614010E+03  0.00000000000E+00 0. -1.
         21    1    1    2  506  501  0.21098016650E+02 -0.21582296507E+02  0.85916360151E+02  0.91063399731E+02  0.00000000000E+00 0.  1.
<scales pt_clust_3="14000.00000" pt_clust_4="61.55517" pt_clust_5="127.11095" pt_clust_6="30.18148"></scales>
<clustering>
<clus scale="   30.181">  1  6  2 -1</clus>
<clus scale="   61.555">  1  4  2 -1</clus>
<clus scale="  127.111">  2  5  1 -1</clus>
<clus scale="   30.181">  1  3  2 -1</clus>
</clustering>
</event>
<event>
 6    0  0.2666600E+002  0.1156546E+03  0.7546771E-02  0.1250443E+00
         21   -1    0    0  505  501  0.00000000000E+00  0.00000000000E+00  0.68776832082E+03  0.68776832082E+03  0.00000000000E+00 0. -1.
         21   -1    0    0  506  502 -0.00000000000E+00 -0.00000000000E+00 -0.20440436613E+03  0.20440436613E+03  0.00000000000E+00 0.  1.
         21    1    1    2  503  501  0.66184269696E+02  0.12369082948E+03  0.53680016482E+03  0.55482807770E+03  0.00000000000E+00 0. -1.
         21    1    1    2  504  502 -0.42851022763E+02 -0.90539817308E+02 -0.15829729244E+03  0.18732779149E+03  0.00000000000E+00 0.  1.
         21    1    1    2  505  504  0.19412224410E+02 -0.45536509498E+02  0.90674512008E+02  0.10330670492E+03  0.00000000000E+00 0.  1.
         21    1    1    2  506  503 -0.42745471343E+02  0.12385497324E+02  0.14186570304E+02  0.46710112838E+02  0.00000000000E+00 0.  1.
<scales pt_clust_3="115.65455" pt_clust_4="14000.00000" pt_clust_5="48.57015" pt_clust_6="44.50366"></scales>
<clustering>
<clus scale="   44.504">  2  6  1 -1</clus>
<clus scale="   48.570">  1  5  2 -1</clus>
<clus scale="  115.655">  1  3  2 -1</clus>
<clus scale="   48.570">  1  3  2 -1</clus>
</clustering>
</event>
<event>
 6    0  0.2666600E+002  0.1433335E+03  0.7546771E-02  0.1208913E+00
         21   -1    0    0  502  501  0.00000000000E+00  0.00000000000E+00  0.66721213456E+03  0.66721213456E+03  0.00000000000E+00 0.  1.
         21   -1    0    0  505  502 -0.00000000000E+00 -0.00000000000E+00 -0.83738189766E+02  0.83738189766E+02  0.00000000000E+00 0. -1.
         21    1    1    2  503  504  0.84330430294E+02  0.27265828267E+02 -0.71773672714E+01  0.88918847640E+02  0.00000000000E+00 0. -1.
         21    1    1    2  504  506 -0.12036887357E+03 -0.38297980530E+02  0.46527484019E+03  0.48211624941E+03  0.00000000000E+00 0.  1.
         21    1    1    2  505  503  0.42829521906E+02 -0.33828755499E+02  0.94027274978E+01  0.55381981995E+02  0.00000000000E+00 0. -1.
         21    1    1    2  506  501 -0.67910786336E+01  0.44860907761E+02  0.11597374438E+03  0.12453324528E+03  0.00000000000E+00 0.  1.
<scales pt_clust_3="52.12273" pt_clust_4="126.25153" pt_clust_5="52.12273" pt_clust_6="45.37202"></scales>
<clustering>
<clus scale="   45.372">  1  6  2 -1</clus>
<clus scale="   52.123">  3  5 -1 -1</clus>
<clus scale="  126.252">  1  4  2 -1</clus>
<clus scale="   45.372">  1  3  2 -1</clus>
</clustering>
</event>
<event>
 6    0  0.2666600E+002  0.1167096E+03  0.7546771E-02  0.1248626E+00
         21   -1    0    0  505  501  0.00000000000E+00  0.00000000000E+00  0.25673186066E+03  0.25673186066E+03  0.00000000000E+00 0.  1.
         21   -1    0    0  506  502 -0.00000000000E+00 -0.00000000000E+00 -0.60408358580E+03  0.60408358580E+03  0.00000000000E+00 0.  1.
         21    1    1    2  503  501 -0.14646221583E+03 -0.90339421807E+02  0.15442947144E+03  0.23121603199E+03  0.00000000000E+00 0.  1.
         21    1    1    2  504  503  0.41525875395E+02  0.25177882936E+02 -0.14341941269E+03  0.15141813647E+03  0.00000000000E+00 0. -1.
         21    1    1    2  505  502  0.56790169897E+02  0.34670862823E+02  0.38751829920E+02  0.76999327582E+02  0.00000000000E+00 0.  1.
         21    1    1    2  506  504  0.48146170538E+02  0.30490676047E+02 -0.39711361381E+03  0.40118195042E+03  0.00000000000E+00 0.  1.
<scales pt_clust_3="107.56526" pt_clust_4="41.80435" pt_clust_5="66.53715" pt_clust_6="41.80435"></scales>
<clustering>
<clus scale="   41.804">  4  6 -1 -1</clus>
<clus scale="   66.537">  1  5  2 -1</clus>
<clus scale="  107.565">  1  3  2 -1</clus>
<clus scale="   66.537">  1  3  2 -1</clus>
</clustering>
</event>
<event>
 6    0  0.3758634E+002  0.7746502E+02  0.7546771E-02  0.1336403E+00
         21   -1    0    0  505  501  0.00000000000E+00  0.00000000000E+00  0.27457439511E+04  0.27457439511E+04  0.00000000000E+00 0. -1.
         21   -1    0    0  504  502 -0.00000000000E+00 -0.00000000000E+00 -0.33712254880E+03  0.33712254880E+03  0.00000000000E+00 0. -1.
         21    1    1    2  503  502  0.11991983052E+02  0.35449763782E+02 -0.56616092812E+01  0.37849005659E+02  0.00000000000E+00 0. -1.
         21    1    1    2  504  506  0.28962120027E+02 -0.67310473372E+02 -0.30060160513E+03  0.30940399032E+03  0.00000000000E+00 0. -1.
         21    1    1    2  505  503  0.15283582231E+02  0.85685539568E+02  0.18416268421E+03  0.20369460924E+03  0.00000000000E+00 0. -1.
         21    1    1    2  506  501 -0.56237685310E+02 -0.53824829978E+02  0.25307219325E+04  0.25319188946E+04  0.00000000000E+00 0. -1.
<scales pt_clust_3="37.42317" pt_clust_4="52.30500" pt_clust_5="77.46502" pt_clust_6="14000.00000"></scales>
<clustering>
<clus scale="   37.423">  2  3  1 -1</clus>
<clus scale="   52.305">  2  4  1 -1</clus>
<clus scale="   77.465">  2  5  1 -1</clus>
<clus scale="   77.465">  1  3  2 -1</clus>
</clustering>
</event>
<event>
 6    0  0.2666600E+002  0.2839742E+03  0.7546771E-02  0.1093538E+00
         21   -1    0    0  502  501  0.00000000000E+00  0.00000000000E+00  0.89193781701E+03  0.89193781701E+03  0.00000000000E+00 0.  1.
         21   -1    0    0  505  502 -0.00000000000E+00 -0.00000000000E+00 -0.21297847716E+04  0.21297847716E+04  0.00000000000E+00 0. -1.
         21    1    1    2  503  506 -0.41262606156E+02  0.41720993352E+02  0.23395651395E+02  0.63171199587E+02  0.00000000000E+00 0. -1.
         21    1    1    2  504  503 -0.18124299059E+03 -0.20143945925E+03 -0.57894948110E+03  0.63922560888E+03  0.00000000000E+00 0. -1.
         21    1    1    2  505  504  0.19988778621E+03  0.21018522044E+03 -0.14858355449E+04  0.15138824989E+04  0.00000000000E+00 0. -1.
         21    1    1    2  506  501  0.22617810536E+02 -0.50466754544E+02  0.80354241998E+03  0.80544328129E+03  0.00000000000E+00 0.  1.
<scales pt_clust_3="34.41368" pt_clust_4="14000.00000" pt_clust_5="283.97418" pt_clust_6="55.30333"></scales>
<clustering>
<clus scale="   55.303">  1  6  2 -1</clus>
<clus scale="   34.414">  1  3  2 -1</clus>
<clus scale="  283.974">  2  5  1 -1</clus>
<clus scale="   55.303">  1  3  2 -1</clus>
</clustering>
</event>
<event>
 6    0  0.2666600E+002  0.1099318E+03  0.7546771E-02  0.1260696E+00
         21   -1    0    0  503  501  0.00000000000E+00  0.00000000000E+00  0.32788820108E+03  0.32788820108E+03  0.00000000000E+00 0. -1.
         21   -1    0    0  504  502 -0.00000000000E+00 -0.00000000000E+00 -0.57261976340E+03  0.57261976340E+03  0.00000000000E+00 0. -1.
         21    1    1    2  503  502  0.69478810662E+02 -0.11009654949E+02 -0.48058071339E+03  0.48570190417E+03  0.00000000000E+00 0. -1.
         21    1    1    2  504  505  0.30373988304E+02 -0.43743780139E+02 -0.54006919201E+02  0.75847510097E+02  0.00000000000E+00 0. -1.
         21    1    1    2  505  506 -0.57363422481E+02  0.95440066403E+02  0.14660746287E+03  0.18410083293E+03  0.00000000000E+00 0. -1.
         21    1    1    2  506  501 -0.42489376485E+02 -0.40686631315E+02  0.14324860739E+03  0.15485771728E+03  0.00000000000E+00 0. -1.
<scales pt_clust_3="109.93183" pt_clust_4="53.25502" pt_clust_5="14000.00000" pt_clust_6="58.92628"></scales>
<clustering>
<clus scale="   53.255">  2  4  1 -1</clus>
<clus scale="   58.926">  1  6  2 -1</clus>
<clus scale="  109.932">  2  3  1 -1</clus>
<clus scale="   58.926">  1  3  2 -1</clus>
</clustering>
</event>
<event>
 6    0  0.2666600E+002  0.1059107E+03  0.7546771E-02  0.1268336E+00
         21   -1    0    0  506  501  0.00000000000E+00  0.00000000000E+00  0.45135185963E+03  0.45135185963E+03  0.00000000000E+00 0. -1.
         21   -1    0    0  503  502 -0.00000000000E+00 -0.00000000000E+00 -0.60529675758E+03  0.60529675758E+03  0.00000000000E+00 0. -1.
         21    1    1    2  503  501 -0.93208257414E+02 -0.38561829863E+02 -0.12916711172E+03  0.16388696325E+03  0.00000000000E+00 0.  1.
         21    1    1    2  504  502  0.12271278959E+03 -0.54812944426E+02 -0.44215533083E+03  0.46213009444E+03  0.00000000000E+00 0. -1.
         21    1    1    2  505  504 -0.20460184305E+02  0.32754257075E+02  0.96280525821E+02  0.10373716861E+03  0.00000000000E+00 0. -1.
         21    1    1    2  506  505 -0.90443478714E+01  0.60620517214E+02  0.32109701879E+03  0.32689439091E+03  0.00000000000E+00 0. -1.
<scales pt_clust_3="100.87018" pt_clust_4="97.81060" pt_clust_5="32.24525" pt_clust_6="32.24525"></scales>
<clustering>
<clus scale="   32.245">  5  6 -1 -1</clus>
<clus scale="  100.870">  2  3  1 -1</clus>
<clus scale="   97.811">  2  4  1 -1</clus>
<clus scale="  105.911">  1  3  2 -1</clus>
</clustering>
</event>
<event>
 6    0  0.2666600E+002  0.1029000E+03  0.7546771E-02  0.1274313E+00
         21   -1    0    0  503  501  0.00000000000E+00  0.00000000000E+00  0.40822222294E+03  0.40822222294E+03  0.00000000000E+00 0.  1.
         21   -1    0    0  506  502 -0.00000000000E+00 -0.00000000000E+00 -0.61339366788E+02  0.61339366788E+02  0.00000000000E+00 0.  1.
         21    1    1    2  503  504  0.32415643955E+02 -0.34007040239E+02  0.60708355430E+02  0.76764296244E+02  0.00000000000E+00 0.  1.
         21    1    1    2  504  505 -0.31390828631E+02  0.37652196045E+02  0.57842635902E+02  0.75821121841E+02  0.00000000000E+00 0.  1.
         21    1    1    2  505  502  0.95493508142E+02  0.34097146412E+02  0.17029464500E+03  0.19819659837E+03  0.00000000000E+00 0.  1.
         21    1    1    2  506  501 -0.96518323466E+02 -0.37742302218E+02  0.58037219815E+02  0.11877957327E+03  0.00000000000E+00 0.  1.
<scales pt_clust_3="46.98141" pt_clust_4="39.79746" pt_clust_5="102.90001" pt_clust_6="14000.00000"></scales>
<clustering>
<clus scale="   46.981">  1  3  2 -1</clus>
<clus scale="   39.797">  1  4  2 -1</clus>
<clus scale="  102.900">  1  5  2 -1</clus>
<clus scale="   46.981">  1  3  2 -1</clus>
</clustering>
</event>
<event>
 6    0  0.2666600E+002  0.1224791E+03  0.7546771E-02  0.1239062E+00
         21   -1    0    0  503  501  0.00000000000E+00  0.00000000000E+00  0.75315124960E+03  0.75315124960E+03  0.00000000000E+00 0. -1.
         21   -1    0    0  506  502 -0.00000000000E+00 -0.00000000000E+00 -0.29798879409E+03  0.29798879409E+03  0.00000000000E+00 0.  1.
         21    1    1    2  503  504  0.27809196344E+02  0.25371217595E+02  0.12241225154E+03  0.12806954911E+03  0.00000000000E+00 0. -1.
         21    1    1    2  504  502 -0.53242843682E+02  0.28876912224E+02 -0.21614026227E+03  0.22446667779E+03  0.00000000000E+00 0.  1.
         21    1    1    2  505  501  0.85454427186E+02 -0.90420973395E+02  0.59942842484E+03  0.61220327348E+03  0.00000000000E+00 0. -1.
         21    1    1    2  506  505 -0.60020779848E+02  0.36172843576E+02 -0.50537958596E+02  0.86400543315E+02  0.00000000000E+00 0. -1.
<scales pt_clust_3="37.64373" pt_clust_4="60.48818" pt_clust_5="14000.00000" pt_clust_6="122.47912"></scales>
<clustering>
<clus scale="   37.644">  1  3  2 -1</clus>
<clus scale="   60.488">  2  4  1 -1</clus>
<clus scale="  122.479">  2  6  1 -1</clus>
<clus scale="   37.644">  1  3  2 -1</clus>
</clustering>
</event>
<event>
 6    0  0.2666600E+002  0.1845162E+03  0.7546771E-02  0.1163502E+00
         21   -1    0    0  506  501  0.00000000000E+00  0.00000000000E+00  0.43782647838E+03  0.43782647838E+03  0.00000000000E+00 0. -1.
         21   -1    0    0  504  502 -0.00000000000E+00 -0.00000000000E+00 -0.15422160379E+03  0.15422160379E+03  0.00000000000E+00 0. -1.
         21    1    1    2  503  502  0.70909335066E+01  0.49766003650E+02 -0.91357726781E+01  0.51092062003E+02  0.00000000000E+00 0. -1.
         21    1    1    2  504  501 -0.17733084120E+03 -0.11213167632E+03  0.24304118446E+03  0.32107437988E+03  0.00000000000E+00 0. -1.
         21    1    1    2  505  503  0.11544100171E+03  0.46645699183E+02 -0.23903503306E+02  0.12678258398E+03  0.00000000000E+00 0. -1.
         21    1    1    2  506  505  0.54798905979E+02  0.15719973489E+02  0.73602966126E+02  0.93099056308E+02  0.00000000000E+00 0. -1.
<scales pt_clust_3="50.18671" pt_clust_4="166.75648" pt_clust_5="50.18671" pt_clust_6="57.00910"></scales>
<clustering>
<clus scale="   50.187">  3  5 -1 -1</clus>
<clus scale="   57.009">  1  6  2 -1</clus>
<clus scale="  166.756">  1  4  2 -1</clus>
<clus scale="   57.009">  1  3  2 -1</clus>
</clustering>
</event>
<event>
 6    0  0.2666600E+002  0.2007227E+03  0.7546771E-02  0.1149131E+00
         21   -1    0    0  504  501  0.00000000000E+00  0.00000000000E+00  0.43122716813E+03  0.43122716813E+03  0.00000000000E+00 0. -1.
         21   -1    0    0  503  502 -0.00000000000E+00 -0.00000000000E+00 -0.19330352051E+03  0.19330352051E+03  0.00000000000E+00 0. -1.
         21    1    1    2  503  505  0.20439507189E+02  0.34205360296E+02 -0.27712774754E+02  0.48536357627E+02  0.00000000000E+00 0. -1.
         21    1    1    2  504  506 -0.12839468506E+03  0.16087327823E+02  0.25768020470E+03  0.28834542681E+03  0.00000000000E+00 0. -1.
         21    1    1    2  505  501  0.17061017330E+03 -0.72540220587E+02 -0.57744431680E+02  0.19417603927E+03  0.00000000000E+00 0. -1.
         21    1    1    2  506  502 -0.62654995429E+02  0.22247532468E+02  0.65700649359E+02  0.93472864936E+02  0.00000000000E+00 0. -1.
<scales pt_clust_3="39.84696" pt_clust_4="40.86096" pt_clust_5="192.48141" pt_clust_6="40.86096"></scales>
<clustering>
<clus scale="   39.847">  2  3  1 -1</clus>
<clus scale="   40.861">  4  6 -1 -1</clus>
<clus scale="  192.481">  2  5  1 -1</clus>
<clus scale="  200.723">  1  3  2 -1</clus>
</clustering>
</event>
<event>
 6    0  0.2666600E+002  0.2535815E+03  0.7546771E-02  0.1111062E+00
         21   -1    0    0  505  501  0.00000000000E+00  0.00000000000E+00  0.52458016886E+03  0.52458016886E+03  0.00000000000E+00 0.  1.
         21   -1    0    0  506  502 -0.00000000000E+00 -0.00000000000E+00 -0.12879531954E+04  0.12879531954E+04  0.00000000000E+00 0.  1.
         21    1    1    2  503  501 -0.12942703961E+03  0.99765109456E+02  0.16191582783E+03  0.23004601920E+03  0.00000000000E+00 0.  1.
         21    1    1    2  504  503 -0.11954123201E+03 -0.19150500487E+03  0.26321166150E+03  0.34676310616E+03  0.00000000000E+00 0.  1.
         21    1    1    2  505  502  0.20711032102E+03  0.18296914262E+02 -0.10708814273E+04  0.10908787712E+04  0.00000000000E+00 0.  1.
         21    1    1    2  506  504  0.41857950604E+02  0.73442981153E+02 -0.11761908856E+03  0.14484546766E+03  0.00000000000E+00 0. -1.
<scales pt_clust_3="163.77760" pt_clust_4="14000.00000" pt_clust_5="253.58153" pt_clust_6="84.53378"></scales>
<clustering>
<clus scale="   84.534">  2  6  1 -1</clus>
<clus scale="  163.778">  1  3  2 -1</clus>
<clus scale="  253.582">  2  5  1 -1</clus>
<clus scale="  163.778">  1  3  2 -1</clus>
</clustering>
</event>
<event>
 6    0  0.2666600E+002  0.1389305E+03  0.7546771E-02  0.1214775E+00
         21   -1    0    0  504  501  0.00000000000E+00  0.00000000000E+00  0.72287339328E+03  0.72287339328E+03  0.00000000000E+00 0. -1.
         21   -1    0    0  505  502 -0.00000000000E+00 -0.00000000000E+00 -0.36993572104E+02  0.36993572104E+02  0.00000000000E+00 0. -1.
         21    1    1    2  503  506 -0.54031217564E+02  0.38974857594E+02  0.18312616527E+03  0.19486817186E+03  0.00000000000E+00 0. -1.
         21    1    1    2  504  502  0.11012874708E+03 -0.71295546995E+02  0.22815783749E+03  0.26318699581E+03  0.00000000000E+00 0. -1.
         21    1    1    2  505  503 -0.28363392213E+02  0.71632777813E+02  0.16325814973E+03  0.18052412672E+03  0.00000000000E+00 0. -1.
         21    1    1    2  506  501 -0.27734137308E+02 -0.39312088412E+02  0.11133766869E+03  0.12128767100E+03  0.00000000000E+00 0. -1.
<scales pt_clust_3="40.68651" pt_clust_4="131.86103" pt_clust_5="40.68651" pt_clust_6="48.11053"></scales>
<clustering>
<clus scale="   40.687">  3  5 -1 -1</clus>
<clus scale="   48.111">  1  6  2 -1</clus>
<clus scale="  131.861">  2  4  1 -1</clus>
<clus scale="   48.111">  1  3  2 -1</clus>
</clustering>
</event>
<event>
 6    0  0.2666600E+002  0.1123897E+03  0.7546771E-02  0.1256207E+00
         21   -1    0    0  504  501  0.00000000000E+00  0.00000000000E+00  0.15376211059E+03  0.15376211059E+03  0.00000000000E+00 0. -1.
         21   -1    0    0  503  502 -0.00000000000E+00 -0.00000000000E+00 -0.16425882788E+04  0.16425882788E+04  0.00000000000E+00 0. -1.
         21    1    1    2  503  505 -0.47828411901E+02 -0.53033832556E+02 -0.89612346886E+03  0.89896463546E+03  0.00000000000E+00 0.  1.
         21    1    1    2  504  506 -0.18058637110E+02  0.32160007667E+02  0.77444684519E+01  0.37687627400E+02  0.00000000000E+00 0. -1.
         21    1    1    2  505  501  0.30233798532E+02  0.83599472838E+02  0.11234524453E+03  0.14326342311E+03  0.00000000000E+00 0. -1.
         21    1    1    2  506  502  0.35653250479E+02 -0.62725647949E+02 -0.71279241229E+03  0.71643470337E+03  0.00000000000E+00 0. -1.
<scales pt_clust_3="71.28851" pt_clust_4="36.88334" pt_clust_5="112.38969" pt_clust_6="14000.00000"></scales>
<clustering>
<clus scale="   36.883">  1  4  2 -1</clus>
<clus scale="   71.289">  2  3  1 -1</clus>
<clus scale="  112.390">  1  5  2 -1</clus>
<clus scale="   36.883">  1  3  2 -1</clus>
</clustering>
</event>
<event>
 6    0  0.3397584E+002  0.1166881E+03  0.7546771E-02  0.1248663E+00
         21   -1    0    0  503  501  0.00000000000E+00  0.00000000000E+00  0.55755156952E+03  0.55755156952E+03  0.00000000000E+00 0.  1.
         21   -1    0    0  505  502 -0.00000000000E+00 -0.00000000000E+00 -0.48597302607E+03  0.48597302607E+03  0.00000000000E+00 0. -1.
         21    1    1    2  503  504 -0.10564399186E+02 -0.42222940323E+02  0.38391728635E+02  0.58037126456E+02  0.00000000000E+00 0.  1.
         21    1    1    2  504  502  0.29925326840E+02  0.26172752172E+02 -0.35162950789E+03  0.35386981923E+03  0.00000000000E+00 0. -1.
         21    1    1    2  505  506  0.37453613253E+02  0.76714576363E+02 -0.10470166574E+03  0.13509381252E+03  0.00000000000E+00 0. -1.
         21    1    1    2  506  501 -0.56814540907E+02 -0.60664388211E+02  0.48951798846E+03  0.49652383737E+03  0.00000000000E+00 0.  1.
<scales pt_clust_3="41.15091" pt_clust_4="39.75598" pt_clust_5="14000.00000" pt_clust_6="116.68807"></scales>
<clustering>
<clus scale="   39.756">  2  4  1 -1</clus>
<clus scale="   41.151">  1  3  2 -1</clus>
<clus scale="  116.688">  1  6  2 -1</clus>
<clus scale="   41.151">  1  3  2 -1</clus>
</clustering>
</event>
<event>
 6    0  0.2666600E+002  0.1399715E+03  0.7546771E-02  0.1213367E+00
         21   -1    0    0  503  501  0.00000000000E+00  0.00000000000E+00  0.10911141656E+03  0.10911141656E+03  0.00000000000E+00 0.  1.
         21   -1    0    0  504  502 -0.00000000000E+00 -0.00000000000E+00 -0.11110192185E+04  0.11110192185E+04  0.00000000000E+00 0.  1.
         21    1    1    2  503  502 -0.45637079406E+02 -0.21831816478E+01 -0.92815283543E+02  0.10345137098E+03  0.00000000000E+00 0.  1.
         21    1    1    2  504  505 -0.54421066904E+02 -0.79515441631E+02 -0.96103550819E+03  0.96585382226E+03  0.00000000000E+00 0.  1.
         21    1    1    2  505  506  0.31449716302E+02  0.43839814183E+02 -0.46671714538E+01  0.54155299394E+02  0.00000000000E+00 0.  1.
         21    1    1    2  506  501  0.68608430009E+02  0.37858809096E+02  0.56610161193E+02  0.96670142468E+02  0.00000000000E+00 0.  1.
<scales pt_clust_3="45.68927" pt_clust_4="127.38944" pt_clust_5="48.01116" pt_clust_6="48.01116"></scales>
<clustering>
<clus scale="   45.689">  2  3  1 -1</clus>
<clus scale="   48.011">  5  6 -1 -1</clus>
<clus scale="  127.389">  2  4  1 -1</clus>
<clus scale="  139.971">  1  3  2 -1</clus>
</clustering>
</event>
<event>
 6    0  0.2666600E+002  0.1859566E+03  0.7546771E-02  0.1162160E+00
         21   -1    0    0  503  501  0.00000000000E+00  0.00000000000E+00  0.79501827376E+03  0.79501827376E+03  0.00000000000E+00 0. -1.
         21   -1    0    0  501  502 -0.00000000000E+00 -0.00000000000E+00 -0.14948321452E+03  0.14948321452E+03  0.00000000000E+00 0. -1.
         21    1    1    2  503  506 -0.21856220274E+03 -0.54452275758E+01  0.53841633494E+03  0.58111206897E+03  0.00000000000E+00 0. -1.
         21    1    1    2  504  505  0.38554925375E+02 -0.69350445295E+02  0.31001037833E+01  0.79407664471E+02  0.00000000000E+00 0. -1.
         21    1    1    2  505  502  0.57331406863E+02 -0.20516958854E+02 -0.39419855315E+02  0.72537995607E+02  0.00000000000E+00 0. -1.
         21    1    1    2  506  504  0.12267587050E+03  0.95312631724E+02  0.14343847583E+03  0.21144375923E+03  0.00000000000E+00 0.  1.
<scales pt_clust_3="14000.00000" pt_clust_4="147.54104" pt_clust_5="58.75235" pt_clust_6="185.95662"></scales>
<clustering>
<clus scale="   58.752">  4  5 -1 -1</clus>
<clus scale="  147.541">  2  4  1 -1</clus>
<clus scale="  185.957">  2  6  1 -1</clus>
<clus scale="  185.957">  1  3  2 -1</clus>
</clustering>
</event>
<event>
 6    0  0.2666600E+002  0.1159145E+03  0.7546771E-02  0.1249993E+00
         21   -1    0    0  504  501  0.00000000000E+00  0.00000000000E+00  0.42059884732E+03  0.42059884732E+03  0.00000000000E+00 0. -1.
         21   -1    0    0  506  502 -0.00000000000E+00 -0.00000000000E+00 -0.73094046681E+03  0.73094046681E+03  0.00000000000E+00 0. -1.
         21    1    1    2  503  502  0.51914297499E+02 -0.86857629347E+02  0.25060109367E+03  0.27025959781E+03  0.00000000000E+00 0. -1.
         21    1    1    2  504  503  0.30929644380E+02  0.48769742778E+01  0.14669715050E+03  0.15000160580E+03  0.00000000000E+00 0. -1.
         21    1    1    2  505  501 -0.61824008174E+02  0.11228391763E+03 -0.65230505929E+03  0.66477949466E+03  0.00000000000E+00 0. -1.
         21    1    1    2  506  505 -0.21019933705E+02 -0.30303262563E+02 -0.55334804381E+02  0.66498615856E+02  0.00000000000E+00 0.  1.
<scales pt_clust_3="115.91446" pt_clust_4="31.31178" pt_clust_5="14000.00000" pt_clust_6="36.43923"></scales>
<clustering>
<clus scale="   31.312">  1  4  2 -1</clus>
<clus scale="   36.439">  2  6  1 -1</clus>
<clus scale="  115.914">  1  3  2 -1</clus>
<clus scale="   31.312">  1  3  2 -1</clus>
</clustering>
</event>
<event>
 6    0  0.2666600E+002  0.1640898E+03  0.7546771E-02  0.1184155E+00
         21   -1    0    0  503  501  0.00000000000E+00  0.00000000000E+00  0.83760001705E+02  0.83760001705E+02  0.00000000000E+00 0.  1.
         21   -1    0    0  505  502 -0.00000000000E+00 -0.00000000000E+00 -0.17338059273E+04  0.17338059273E+04  0.00000000000E+00 0.  1.
         21    1    1    2  503  506 -0.25221289265E+02  0.15600041753E+03 -0.20666744154E+02  0.15937176041E+03  0.00000000000E+00 0.  1.
         21    1    1    2  504  501  0.62740757714E+02 -0.76052073529E+02 -0.86255960214E+03  0.86817589682E+03  0.00000000000E+00 0.  1.
         21    1    1    2  505  504  0.31894273127E+02 -0.38270907880E+01 -0.53937790104E+03  0.54033361122E+03  0.00000000000E+00 0.  1.
         21    1    1    2  506  502 -0.69413741576E+02 -0.76121253215E+02 -0.22744167829E+03  0.24968466059E+03  0.00000000000E+00 0.  1.
<scales pt_clust_3="154.24550" pt_clust_4="31.95392" pt_clust_5="31.95392" pt_clust_6="103.01802"></scales>
<clustering>
<clus scale="   31.954">  4  5 -1 -1</clus>
<clus scale="  103.018">  2  6  1 -1</clus>
<clus scale="  154.245">  1  3  2 -1</clus>
<clus scale="  154.245">  1  3  2 -1</clus>
</clustering>
</event>
<event>
 6    0  0.2666600E+002  0.9320053E+02  0.7546771E-02  0.1295281E+00
         21   -1    0    0  504  501  0.00000000000E+00  0.00000000000E+00  0.12690461908E+03  0.12690461908E+03  0.00000000000E+00 0.  1.
         21   -1    0    0  503  502 -0.00000000000E+00 -0.00000000000E+00 -0.16174031905E+03  0.16174031905E+03  0.00000000000E+00 0.  1.
         21    1    1    2  503  505  0.22202397240E+02 -0.46760097863E+02 -0.21200999170E+02  0.55936889091E+02  0.00000000000E+00 0.  1.
         21    1    1    2  504  506  0.66867960523E+02  0.61744299363E+02  0.71559307896E+01  0.91295618700E+02  0.00000000000E+00 0.  1.
         21    1    1    2  505  501 -0.78178464669E+02 -0.56168565669E+02 -0.65169733970E+01  0.96484460145E+02  0.00000000000E+00 0.  1.
         21    1    1    2  506  502 -0.10891893094E+02  0.41184364169E+02 -0.14273658190E+02  0.44927970189E+02  0.00000000000E+00 0.  1.
<scales pt_clust_3="39.60676" pt_clust_4="14000.00000" pt_clust_5="93.20053" pt_clust_6="42.60030"></scales>
<clustering>
<clus scale="   42.600">  2  6  1 -1</clus>
<clus scale="   39.607">  2  3  1 -1</clus>
<clus scale="   93.201">  2  5  1 -1</clus>
<clus scale="   93.201">  1  3  2 -1</clus>
</clustering>
</event>
<event>
 6    0  0.2666600E+002  0.9405629E+02  0.7546771E-02  0.1293316E+00
         21   -1    0    0  504  501  0.00000000000E+00  0.00000000000E+00  0.43030194958E+03  0.43030194958E+03  0.00000000000E+00 0.  1.
         21   -1    0    0  505  502 -0.00000000000E+00 -0.00000000000E+00 -0.48371128332E+03  0.48371128332E+03  0.00000000000E+00 0.  1.
         21    1    1    2  503  501  0.33514038826E+02  0.48385542252E+02  0.39309145985E+03  0.39747358064E+03  0.00000000000E+00 0.  1.
         21    1    1    2  504  506  0.94766273841E+00  0.37608669534E+02 -0.13061433528E+01  0.37643274290E+02  0.00000000000E+00 0.  1.
         21    1    1    2  505  503 -0.49792014050E+02 -0.12500416888E+03 -0.33790142431E+03  0.36370683174E+03  0.00000000000E+00 0.  1.
         21    1    1    2  506  502  0.15330312485E+02  0.39009957092E+02 -0.10729322593E+03  0.11518954624E+03  0.00000000000E+00 0.  1.
<scales pt_clust_3="14000.00000" pt_clust_4="37.62061" pt_clust_5="94.05629" pt_clust_6="42.25296"></scales>
<clustering>
<clus scale="   37.621">  1  4  2 -1</clus>
<clus scale="   42.253">  2  6  1 -1</clus>
<clus scale="   94.056">  2  5  1 -1</clus>
<clus scale="   37.621">  1  3  2 -1</clus>
</clustering>
</event>
<event>
 6    0  0.2666600E+002  0.1268202E+03  0.7546771E-02  0.1232252E+00
         21   -1    0    0  503  501  0.00000000000E+00  0.00000000000E+00  0.43294702533E+03  0.43294702533E+03  0.00000000000E+00 0. -1.
         21   -1    0    0  506  502 -0.00000000000E+00 -0.00000000000E+00 -0.26944898459E+03  0.26944898459E+03  0.00000000000E+00 0. -1.
         21    1    1    2  503  502 -0.36328613883E+02  0.74407249364E+02  0.30084761287E+03  0.31203444219E+03  0.00000000000E+00 0. -1.
         21    1    1    2  504  505  0.51728622306E+02 -0.18204208702E+02 -0.11100758345E+03  0.12381408306E+03  0.00000000000E+00 0. -1.
         21    1    1    2  505  501 -0.56778385418E+02  0.50536928751E+01  0.10291388404E+03  0.11764604707E+03  0.00000000000E+00 0. -1.
         21    1    1    2  506  504  0.41378376995E+02 -0.61256733536E+02 -0.12925587273E+03  0.14890143761E+03  0.00000000000E+00 0. -1.
<scales pt_clust_3="120.07956" pt_clust_4="35.13707" pt_clust_5="57.00285" pt_clust_6="35.13707"></scales>
<clustering>
<clus scale="   35.137">  4  6 -1 -1</clus>
<clus scale="   57.003">  1  5  2 -1</clus>
<clus scale="  120.080">  1  3  2 -1</clus>
<clus scale="   57.003">  1  3  2 -1</clus>
</clustering>
</event>
<event>
 6    0  0.2666600E+002  0.2123972E+03  0.7546771E-02  0.1139682E+00
         21   -1    0    0  505  501  0.00000000000E+00  0.00000000000E+00  0.63988546913E+03  0.63988546913E+03  0.00000000000E+00 0.  1.
         21   -1    0    0  504  502 -0.00000000000E+00 -0.00000000000E+00 -0.46615635724E+03  0.46615635724E+03  0.00000000000E+00 0.  1.
         21    1    1    2  503  502 -0.36432461788E+02  0.76588058791E+01 -0.39729602420E+02  0.54446514011E+02  0.00000000000E+00 0.  1.
         21    1    1    2  504  501 -0.15171410289E+02  0.18594177212E+03 -0.37875620788E+03  0.42220940221E+03  0.00000000000E+00 0.  1.
         21    1    1    2  505  506  0.16652719930E+02 -0.97309758152E+02  0.39503703065E+03  0.40718639184E+03  0.00000000000E+00 0.  1.
         21    1    1    2  506  503  0.34951152148E+02 -0.96290819845E+02  0.19717789155E+03  0.22219951831E+03  0.00000000000E+00 0.  1.
<scales pt_clust_3="37.22877" pt_clust_4="199.62112" pt_clust_5="71.35770" pt_clust_6="71.35770"></scales>
<clustering>
<clus scale="   37.229">  2  3  1 -1</clus>
<clus scale="   71.358">  5  6 -1 -1</clus>
<clus scale="  199.621">  2  4  1 -1</clus>
<clus scale="  212.397">  1  3  2 -1</clus>
</clustering>
</event>
<event>
 6    0  0.2666600E+002  0.1133333E+03  0.7546771E-02  0.1254519E+00
         21   -1    0    0  505  501  0.00000000000E+00  0.00000000000E+00  0.93704628601E+03  0.93704628601E+03  0.00000000000E+00 0. -1.
         21   -1    0    0  506  502 -0.00000000000E+00 -0.00000000000E+00 -0.25968283628E+04  0.25968283628E+04  0.00000000000E+00 0.  1.
         21    1    1    2  503  502 -0.10354689618E+03 -0.11340127150E+03 -0.25263381785E+04  0.25310010668E+04  0.00000000000E+00 0.  1.
         21    1    1    2  504  501  0.21335480726E+02  0.29401298894E+02  0.11784987035E+03  0.12332165688E+03  0.00000000000E+00 0. -1.
         21    1    1    2  505  503  0.83754948054E+02  0.14953944477E+02  0.79297014190E+03  0.79752125848E+03  0.00000000000E+00 0. -1.
         21    1    1    2  506  504 -0.15435326033E+01  0.69046028133E+02 -0.44263910560E+02  0.82030666655E+02  0.00000000000E+00 0. -1.
<scales pt_clust_3="113.33330" pt_clust_4="36.32684" pt_clust_5="14000.00000" pt_clust_6="69.73394"></scales>
<clustering>
<clus scale="   36.327">  1  4  2 -1</clus>
<clus scale="   69.734">  2  6  1 -1</clus>
<clus scale="  113.333">  2  3  1 -1</clus>
<clus scale="   36.327">  1  3  2 -1</clus>
</clustering>
</event>
<event>
 6    0  0.2666600E+002  0.1588123E+03  0.7546771E-02  0.1190044E+00
         21   -1    0    0  502  501  0.00000000000E+00  0.00000000000E+00  0.67394037334E+03  0.67394037334E+03  0.00000000000E+00 0. -1.
         21   -1    0    0  503  502 -0.00000000000E+00 -0.00000000000E+00 -0.15347510856E+03  0.15347510856E+03  0.00000000000E+00 0.  1.
         21    1    1    2  503  506 -0.52135521837E+02  0.26681139101E+01 -0.58520768983E+02  0.78421373817E+02  0.00000000000E+00 0.  1.
         21    1    1    2  504  505  0.89719524741E+02 -0.53630925045E+02  0.40617587989E+03  0.41940996012E+03  0.00000000000E+00 0. -1.
         21    1    1    2  505  501  0.52466715926E+02  0.51519660002E+01  0.21405854190E+03  0.22045488970E+03  0.00000000000E+00 0.  1.
         21    1    1    2  506  504 -0.90050718830E+02  0.45810845135E+02 -0.41248388028E+02  0.10912925826E+03  0.00000000000E+00 0.  1.
<scales pt_clust_3="37.03280" pt_clust_4="157.27774" pt_clust_5="33.07614" pt_clust_6="37.03280"></scales>
<clustering>
<clus scale="   33.076">  4  5 -1 -1</clus>
<clus scale="   37.033">  3  6 -1 -1</clus>
<clus scale="  157.278">  1  4  2 -1</clus>
<clus scale="  157.278">  1  3  2 -1</clus>
</clustering>
</event>
<event>
 6    0  0.2666600E+002  0.1458263E+03  0.7546771E-02  0.1205697E+00
         21   -1    0    0  503  501  0.00000000000E+00  0.00000000000E+00  0.20124597245E+04  0.20124597245E+04  0.00000000000E+00 0. -1.
         21   -1    0    0  501  502 -0.00000000000E+00 -0.00000000000E+00 -0.47272515732E+03  0.47272515732E+03  0.00000000000E+00 0.  1.
         21    1    1    2  503  504  0.45941173153E+02 -0.51719449471E+01  0.64026957354E+03  0.64193649780E+03  0.00000000000E+00 0. -1.
         21    1    1    2  504  505  0.88128678581E+01 -0.11769534011E+03  0.13574408762E+04  0.13625621425E+04  0.00000000000E+00 0. -1.
         21    1    1    2  505  506 -0.49102346873E+02  0.73265853494E+02 -0.21059135222E+03  0.22831479012E+03  0.00000000000E+00 0.  1.
         21    1    1    2  506  502 -0.56516941384E+01  0.49601431567E+02 -0.24738453033E+03  0.25237145145E+03  0.00000000000E+00 0.  1.
<scales pt_clust_3="46.23138" pt_clust_4="134.32178" pt_clust_5="42.71166" pt_clust_6="42.71166"></scales>
<clustering>
<clus scale="   42.712">  5  6 -1 -1</clus>
<clus scale="   46.231">  1  3  2 -1</clus>
<clus scale="  134.322">  1  4  2 -1</clus>
<clus scale="   46.231">  1  3  2 -1</clus>
</clustering>
</event>
<event>
 6    0  0.2666600E+002  0.1449430E+03  0.7546771E-02  0.1206828E+00
         21   -1    0    0  504  501  0.00000000000E+00  0.00000000000E+00  0.11232655066E+04  0.11232655066E+04  0.00000000000E+00 0.  1.
         21   -1    0    0  503  502 -0.00000000000E+00 -0.00000000000E+00 -0.62111741442E+03  0.62111741442E+03  0.00000000000E+00 0.  1.
         21    1    1    2  503  505 -0.16988336418E+03  0.26860882949E+01 -0.31968391128E+03  0.36202952314E+03  0.00000000000E+00 0.  1.
         21    1    1    2  504  502  0.61854508096E+02  0.83276724265E+02 -0.26568319772E+03  0.28521667995E+03  0.00000000000E+00 0.  1.
         21    1    1    2  505  506  0.69517335444E+02 -0.36583797869E+02  0.47786606665E+03  0.48427988999E+03  0.00000000000E+00 0.  1.
         21    1    1    2  506  501  0.38511520638E+02 -0.49379014690E+02  0.60964913451E+03  0.61285682792E+03  0.00000000000E+00 0.  1.
<scales pt_clust_3="138.01687" pt_clust_4="103.73521" pt_clust_5="39.52576" pt_clust_6="39.52576"></scales>
<clustering>
<clus scale="   39.526">  5  6 -1 -1</clus>
<clus scale="  103.735">  2  4  1 -1</clus>
<clus scale="  138.017">  2  3  1 -1</clus>
<clus scale="  144.943">  1  3  2 -1</clus>
</clustering>
</event>
<event>
 6    0  0.2666600E+002  0.2023394E+03  0.7546771E-02  0.1147780E+00
         21   -1    0    0  504  501  0.00000000000E+00  0.00000000000E+00  0.34626966926E+03  0.34626966926E+03  0.00000000000E+00 0.  1.
         21   -1    0    0  503  502 -0.00000000000E+00 -0.00000000000E+00 -0.12436607047E+04  0.12436607047E+04  0.00000000000E+00 0. -1.
         21    1    1    2  503  506  0.22430770989E+03  0.56305882548E+01 -0.11417843967E+04  0.11636224735E+04  0.00000000000E+00 0. -1.
         21    1    1    2  504  502 -0.32124637495E+02  0.30467211072E+01 -0.55960573502E+02  0.64597682856E+02  0.00000000000E+00 0.  1.
         21    1    1    2  505  501 -0.11123087280E+03 -0.20999650242E+02  0.12786101308E+03  0.17076806212E+03  0.00000000000E+00 0.  1.
         21    1    1    2  506  505 -0.80952199596E+02  0.12322340880E+02  0.17249292170E+03  0.19094215549E+03  0.00000000000E+00 0.  1.
<scales pt_clust_3="193.20730" pt_clust_4="32.26879" pt_clust_5="51.06922" pt_clust_6="51.06922"></scales>
<clustering>
<clus scale="   32.269">  2  4  1 -1</clus>
<clus scale="   51.069">  5  6 -1 -1</clus>
<clus scale="  193.207">  2  3  1 -1</clus>
<clus scale="  202.339">  1  3  2 -1</clus>
</clustering>
</event>
<event>
 6    0  0.2666600E+002  0.2074889E+03  0.7546771E-02  0.1143570E+00
         21   -1    0    0  506  501  0.00000000000E+00  0.00000000000E+00  0.34748746947E+03  0.34748746947E+03  0.00000000000E+00 0. -1.
         21   -1    0    0  503  502 -0.00000000000E+00 -0.00000000000E+00 -0.11918610347E+03  0.11918610347E+03  0.00000000000E+00 0. -1.
         21    1    1    2  503  505 -0.33237945825E+02 -0.10260352070E+02  0.36797287878E+02  0.50636708646E+02  0.00000000000E+00 0. -1.
         21    1    1    2  504  502  0.65085285042E+02  0.10850410502E+03  0.47790193301E+02  0.13525212646E+03  0.00000000000E+00 0. -1.
         21    1    1    2  505  501 -0.73861803961E+02 -0.15282944826E+03  0.82927306289E+02  0.18891623665E+03  0.00000000000E+00 0. -1.
         21    1    1    2  506  504  0.42014464744E+02  0.54585695313E+02  0.60786578529E+02  0.91868501184E+02  0.00000000000E+00 0.  1.
<scales pt_clust_3="31.95582" pt_clust_4="199.48650" pt_clust_5="31.95582" pt_clust_6="30.65567"></scales>
<clustering>
<clus scale="   30.656">  4  6 -1 -1</clus>
<clus scale="   31.956">  3  5 -1 -1</clus>
<clus scale="  199.487">  2  4  1 -1</clus>
<clus scale="  207.489">  1  3  2 -1</clus>
</clustering>
</event>
<event>
 6    0  0.2666600E+002  0.1262737E+03  0.7546771E-02  0.1233092E+00
         21   -1    0    0  505  501  0.00000000000E+00  0.00000000000E+00  0.12464309674E+03  0.12464309674E+03  0.00000000000E+00 0.  1.
         21   -1    0    0  506  502 -0.00000000000E+00 -0.00000000000E+00 -0.51160330406E+03  0.51160330406E+03  0.00000000000E+00 0.  1.
         21    1    1    2  503  504  0.33419893109E+01 -0.10489658547E+03 -0.11231242687E+03  0.15371578892E+03  0.00000000000E+00 0.  1.
         21    1    1    2  504  501 -0.60630632912E+02  0.12285263830E+03  0.44649180731E+02  0.14409161573E+03  0.00000000000E+00 0.  1.
         21    1    1    2  505  502  0.18525247106E+02 -0.55172514076E+02 -0.17771373504E+03  0.18700096982E+03  0.00000000000E+00 0.  1.
         21    1    1    2  506  503  0.38763396495E+02  0.37216461242E+02 -0.14158322614E+03  0.15143802633E+03  0.00000000000E+00 0. -1.
<scales pt_clust_3="14000.00000" pt_clust_4="126.27366" pt_clust_5="52.66661" pt_clust_6="53.73701"></scales>
<clustering>
<clus scale="   53.737">  2  6  1 -1</clus>
<clus scale="   52.667">  2  5  1 -1</clus>
<clus scale="  126.274">  1  4  2 -1</clus>
<clus scale="  126.274">  1  3  2 -1</clus>
</clustering>
</event>
<event>
 6    0  0.2666600E+002  0.2143113E+03  0.7546771E-02  0.1138197E+00
         21   -1    0    0  505  501  0.00000000000E+00  0.00000000000E+00  0.13747541755E+03  0.13747541755E+03  0.00000000000E+00 0.  1.
         21   -1    0    0  506  502 -0.00000000000E+00 -0.00000000000E+00 -0.63787128244E+03  0.63787128244E+03  0.00000000000E+00 0.  1.
         21    1    1    2  503  504 -0.80453259374E+02 -0.10236760190E+01 -0.19882973460E+03  0.21449251320E+03  0.00000000000E+00 0.  1.
         21    1    1    2  504  501 -0.54875467455E+02  0.20162183713E+02 -0.10373634270E+02  0.59375439943E+02  0.00000000000E+00 0. -1.
         21    1    1    2  505  502  0.25383986646E+03 -0.27421284750E+02 -0.95587876207E+02  0.27262363569E+03  0.00000000000E+00 0.  1.
         21    1    1    2  506  503 -0.11851113963E+03  0.82827770553E+01 -0.19560461981E+03  0.22885511116E+03  0.00000000000E+00 0.  1.
<scales pt_clust_3="30.11564" pt_clust_4="58.46221" pt_clust_5="211.16396" pt_clust_6="30.11564"></scales>
<clustering>
<clus scale="   30.116">  3  6 -1 -1</clus>
<clus scale="   58.462">  1  4  2 -1</clus>
<clus scale="  211.164">  1  5  2 -1</clus>
<clus scale="   58.462">  1  3  2 -1</clus>
</clustering>
</event>
<event>
 6    0  0.2666600E+002  0.1092716E+03  0.7546771E-02  0.1261925E+00
         21   -1    0    0  503  501  0.00000000000E+00  0.00000000000E+00  0.24921209358E+03  0.24921209358E+03  0.00000000000E+00 0. -1.
         21   -1    0    0  506  502 -0.00000000000E+00 -0.00000000000E+00 -0.11703212361E+04  0.11703212361E+04  0.00000000000E+00 0. -1.
         21    1    1    2  503  502 -0.49824158051E+02 -0.12729793116E+02  0.79030071103E+02  0.94288103686E+02  0.00000000000E+00 0. -1.
         21    1    1    2  504  505 -0.56966486928E+02  0.73327211014E+02 -0.22738325708E+03  0.24561190140E+03  0.00000000000E+00 0. -1.
         21    1    1    2  505  501  0.14588894700E+03 -0.40485640654E+02  0.11541377607E+03  0.19037597449E+03  0.00000000000E+00 0. -1.
         21    1    1    2  506  504 -0.39098302017E+02 -0.20111777244E+02 -0.88816973257E+03  0.88925735007E+03  0.00000000000E+00 0. -1.
<scales pt_clust_3="52.58644" pt_clust_4="14000.00000" pt_clust_5="109.27161" pt_clust_6="43.96772"></scales>
<clustering>
<clus scale="   43.968">  2  6  1 -1</clus>
<clus scale="   52.586">  1  3  2 -1</clus>
<clus scale="  109.272">  1  5  2 -1</clus>
<clus scale="   52.586">  1  3  2 -1</clus>
</clustering>
</event>
<event>
 6    0  0.2666600E+002  0.1372627E+03  0.7546771E-02  0.1217060E+00
         21   -1    0    0  503  501  0.00000000000E+00  0.00000000000E+00  0.11522926895E+03  0.11522926895E+03  0.00000000000E+00 0.  1.
         21   -1    0    0  504  502 -0.00000000000E+00 -0.00000000000E+00 -0.42401782179E+03  0.42401782179E+03  0.00000000000E+00 0.  1.
         21    1    1    2  503  502  0.33112878869E+02  0.30773499175E+02 -0.24023288291E+03  0.24444899065E+03  0.00000000000E+00 0.  1.
         21    1    1    2  504  506  0.24525403712E+02  0.40968143844E+02 -0.87877940758E+02  0.10001208282E+03  0.00000000000E+00 0.  1.
         21    1    1    2  505  501 -0.93583572146E+02 -0.10362687874E+03  0.35525920729E+02  0.14407812470E+03  0.00000000000E+00 0.  1.
         21    1    1    2  506  505  0.35945289564E+02  0.31885235723E+02 -0.16203649895E+02  0.50707892570E+02  0.00000000000E+00 0.  1.
<scales pt_clust_3="45.20477" pt_clust_4="48.31416" pt_clust_5="126.18177" pt_clust_6="48.31416"></scales>
<clustering>
<clus scale="   45.205">  2  3  1 -1</clus>
<clus scale="   48.314">  4  6 -1 -1</clus>
<clus scale="  126.182">  1  5  2 -1</clus>
<clus scale="  126.182">  1  3  2 -1</clus>
</clustering>
</event>
<event>
 6    0  0.2666600E+002  0.4135402E+03  0.7546771E-02  0.1039189E+00
         21   -1    0    0  506  501  0.00000000000E+00  0.00000000000E+00  0.16477451472E+04  0.16477451472E+04  0.00000000000E+00 0. -1.
         21   -1    0    0  505  502 -0.00000000000E+00 -0.00000000000E+00 -0.18406646830E+03  0.18406646830E+03  0.00000000000E+00 0. -1.
         21    1    1    2  503  501 -0.32063002983E+02  0.23820171902E+03  0.12504377344E+03  0.27093180024E+03  0.00000000000E+00 0.  1.
         21    1    1    2  504  502  0.12370728544E+02 -0.20952014960E+03  0.68234754301E+03  0.71389767997E+03  0.00000000000E+00 0. -1.
         21    1    1    2  505  503  0.68765693675E+02  0.14281341617E+03 -0.84457128658E+01  0.15873160533E+03  0.00000000000E+00 0. -1.
         21    1    1    2  506  504 -0.49073419236E+02 -0.17149498560E+03  0.66473307531E+03  0.68825052994E+03  0.00000000000E+00 0. -1.
<scales pt_clust_3="127.10092" pt_clust_4="389.09306" pt_clust_5="127.10092" pt_clust_6="64.35960"></scales>
<clustering>
<clus scale="   64.360">  4  6 -1 -1</clus>
<clus scale="  127.101">  3  5 -1 -1</clus>
<clus scale="  389.093">  1  4  2 -1</clus>
<clus scale="  389.093">  1  3  2 -1</clus>
</clustering>
</event>
<event>
 6    0  0.2666600E+002  0.1342146E+03  0.7546771E-02  0.1221333E+00
         21   -1    0    0  506  501  0.00000000000E+00  0.00000000000E+00  0.29377281679E+03  0.29377281679E+03  0.00000000000E+00 0. -1.
         21   -1    0    0  501  502 -0.00000000000E+00 -0.00000000000E+00 -0.52115936783E+03  0.52115936783E+03  0.00000000000E+00 0.  1.
         21    1    1    2  503  504 -0.27039211240E+02  0.75157167766E+02  0.12230694592E+03  0.14607774585E+03  0.00000000000E+00 0. -1.
         21    1    1    2  504  505  0.25766632600E+01 -0.10929534388E+03 -0.41514518789E+03  0.42929900817E+03  0.00000000000E+00 0.  1.
         21    1    1    2  505  502  0.30358952918E+02 -0.15585522541E+02 -0.79330506693E+02  0.86359156013E+02  0.00000000000E+00 0.  1.
         21    1    1    2  506  503 -0.58964049380E+01  0.49723698657E+02  0.14478219762E+03  0.15319627459E+03  0.00000000000E+00 0. -1.
<scales pt_clust_3="31.15524" pt_clust_4="128.31687" pt_clust_5="34.12586" pt_clust_6="31.15524"></scales>
<clustering>
<clus scale="   31.155">  3  6 -1 -1</clus>
<clus scale="   34.126">  2  5  1 -1</clus>
<clus scale="  128.317">  2  4  1 -1</clus>
<clus scale="  134.215">  1  3  2 -1</clus>
</clustering>
</event>
<event>
 6    0  0.2666600E+002  0.1502399E+03  0.7546771E-02  0.1200179E+00
         21   -1    0    0  506  501  0.00000000000E+00  0.00000000000E+00  0.92448458025E+02  0.92448458025E+02  0.00000000000E+00 0. -1.
         21   -1    0    0  503  502 -0.00000000000E+00 -0.00000000000E+00 -0.37391247051E+03  0.37391247051E+03  0.00000000000E+00 0. -1.
         21    1    1    2  503  501  0.13005284987E+03 -0.15066926158E+02 -0.21342535167E+03  0.25038198170E+03  0.00000000000E+00 0. -1.
         21    1    1    2  504  505 -0.78620812527E+02  0.27792037133E+02  0.26187627551E+01  0.83429535590E+02  0.00000000000E+00 0. -1.
         21    1    1    2  505  502 -0.77775046760E+02  0.76739312771E+01 -0.56028301950E+02  0.96161415023E+02  0.00000000000E+00 0. -1.
         21    1    1    2  506  504  0.26343009417E+02 -0.20399042252E+02 -0.14629121622E+02  0.36387996226E+02  0.00000000000E+00 0. -1.
<scales pt_clust_3="137.43796" pt_clust_4="58.77887" pt_clust_5="58.77887" pt_clust_6="33.31779"></scales>
<clustering>
<clus scale="   33.318">  1  6  2 -1</clus>
<clus scale="   58.779">  4  5 -1 -1</clus>
<clus scale="  137.438">  2  3  1 -1</clus>
<clus scale="   33.318">  1  3  2 -1</clus>
</clustering>
</event>
<event>
 6    0  0.3418736E+002  0.9075001E+02  0.7546771E-02  0.1301046E+00
         21   -1    0    0  505  501  0.00000000000E+00  0.00000000000E+00  0.61282766733E+03  0.61282766733E+03  0.00000000000E+00 0.  1.
         21   -1    0    0  503  502 -0.00000000000E+00 -0.00000000000E+00 -0.59719545651E+03  0.59719545651E+03  0.00000000000E+00 0. -1.
         21    1    1    2  503  506  0.19322235649E+02 -0.59396741624E+02 -0.53987482139E+03  0.54347598335E+03  0.00000000000E+00 0. -1.
         21    1    1    2  504  501  0.71752391591E+02  0.35962381321E+02  0.48998368020E+03  0.49651355010E+03  0.00000000000E+00 0.  1.
         21    1    1    2  505  502 -0.17685330902E+02 -0.37382528737E+02 -0.16265490880E+02  0.44438615836E+02  0.00000000000E+00 0.  1.
         21    1    1    2  506  504 -0.73389296338E+02  0.60816889040E+02  0.81788842887E+02  0.12559497454E+03  0.00000000000E+00 0. -1.
<scales pt_clust_3="90.75001" pt_clust_4="80.07278" pt_clust_5="41.35486" pt_clust_6="14000.00000"></scales>
<clustering>
<clus scale="   41.355">  2  5  1 -1</clus>
<clus scale="   80.073">  1  4  2 -1</clus>
<clus scale="   90.750">  2  3  1 -1</clus>
<clus scale="   80.073">  1  3  2 -1</clus>
</clustering>
</event>
<event>
 6    0  0.2666600E+002  0.1042966E+03  0.7546771E-02  0.1271512E+00
         21   -1    0    0  506  501  0.00000000000E+00  0.00000000000E+00  0.89855017796E+03  0.89855017796E+03  0.00000000000E+00 0. -1.
         21   -1    0    0  504  502 -0.00000000000E+00 -0.00000000000E+00 -0.81877073423E+02  0.81877073423E+02  0.00000000000E+00 0. -1.
         21    1    1    2  503  501 -0.37267473009E+02 -0.62106117611E+02 -0.21336576786E+02  0.75506846697E+02  0.00000000000E+00 0. -1.
         21    1    1    2  504  503 -0.56027812392E+02 -0.72108055599E+01  0.23324160993E+02  0.61115693273E+02  0.00000000000E+00 0. -1.
         21    1    1    2  505  502  0.56404326969E+02  0.10274833202E+03  0.24129854349E+03  0.26826042370E+03  0.00000000000E+00 0. -1.
         21    1    1    2  506  505  0.36890958431E+02 -0.33431408844E+02  0.57338697684E+03  0.57554428771E+03  0.00000000000E+00 0. -1.
<scales pt_clust_3="14000.00000" pt_clust_4="52.51146" pt_clust_5="104.29664" pt_clust_6="49.78556"></scales>
<clustering>
<clus scale="   49.786">  1  6  2 -1</clus>
<clus scale="   52.511">  2  4  1 -1</clus>
<clus scale="  104.297">  1  5  2 -1</clus>
<clus scale="   49.786">  1  3  2 -1</clus>
</clustering>
</event>
<event>
 6    0  0.2666600E+002  0.1140346E+03  0.7546771E-02  0.1253276E+00
         21   -1    0    0  503  501  0.00000000000E+00  0.00000000000E+00  0.18446232110E+04  0.18446232110E+04  0.00000000000E+00 0.  1.
         21   -1    0    0  504  502 -0.00000000000E+00 -0.00000000000E+00 -0.57603591645E+02  0.57603591645E+02  0.00000000000E+00 0.  1.
         21    1    1    2  503  502  0.17245798130E+02  0.11015648573E+03  0.14920799372E+02  0.11249221820E+03  0.00000000000E+00 0.  1.
         21    1    1    2  504  505  0.41270011086E+02 -0.51000054077E+01  0.96470390017E+02  0.10505122570E+03  0.00000000000E+00 0. -1.
         21    1    1    2  505  506 -0.31452538062E+02 -0.62753745016E+02  0.15094827115E+04  0.15111139437E+04  0.00000000000E+00 0.  1.
         21    1    1    2  506  501 -0.27063271155E+02 -0.42302735308E+02  0.16614571849E+03  0.17356941503E+03  0.00000000000E+00 0.  1.
<scales pt_clust_3="114.03463" pt_clust_4="41.58394" pt_clust_5="14000.00000" pt_clust_6="49.03918"></scales>
<clustering>
<clus scale="   41.584">  2  4  1 -1</clus>
<clus scale="   49.039">  1  6  2 -1</clus>
<clus scale="  114.035">  2  3  1 -1</clus>
<clus scale="   49.039">  1  3  2 -1</clus>
</clustering>
</event>
<event>
 6    0  0.2666600E+002  0.1632307E+03  0.7546771E-02  0.1185097E+00
         21   -1    0    0  503  501  0.00000000000E+00  0.00000000000E+00  0.26943772013E+03  0.26943772013E+03  0.00000000000E+00 0.  1.
         21   -1    0    0  505  502 -0.00000000000E+00 -0.00000000000E+00 -0.25760330208E+03  0.25760330208E+03  0.00000000000E+00 0.  1.
         21    1    1    2  503  502  0.59550421489E+02  0.33125137663E+02  0.88923980211E+01  0.68721191689E+02  0.00000000000E+00 0.  1.
         21    1    1    2  504  501  0.13785597465E+02  0.11469654014E+03  0.17877773830E+03  0.21285398453E+03  0.00000000000E+00 0.  1.
         21    1    1    2  505  506 -0.20183975087E+02 -0.87529854405E+02 -0.79043601370E+02  0.11965266056E+03  0.00000000000E+00 0.  1.
         21    1    1    2  506  504 -0.53152043867E+02 -0.60291823401E+02 -0.96792116897E+02  0.12581318544E+03  0.00000000000E+00 0.  1.
<scales pt_clust_3="68.14343" pt_clust_4="156.64733" pt_clust_5="43.40842" pt_clust_6="43.40842"></scales>
<clustering>
<clus scale="   43.408">  5  6 -1 -1</clus>
<clus scale="   68.143">  1  3  2 -1</clus>
<clus scale="  156.647">  1  4  2 -1</clus>
<clus scale="   68.143">  1  3  2 -1</clus>
</clustering>
</event>
<event>
 6    0  0.2666600E+002  0.8647516E+02  0.7546771E-02  0.1311619E+00
         21   -1    0    0  504  501  0.00000000000E+00  0.00000000000E+00  0.27833163923E+03  0.27833163923E+03  0.00000000000E+00 0. -1.
         21   -1    0    0  503  502 -0.00000000000E+00 -0.00000000000E+00 -0.39779887505E+03  0.39779887505E+03  0.00000000000E+00 0. -1.
         21    1    1    2  503  505 -0.22379666555E+02 -0.23938951488E+02 -0.64672239432E+02  0.72501182242E+02  0.00000000000E+00 0. -1.
         21    1    1    2  504  506  0.10710074457E+03  0.30290924171E+02  0.57338709362E+02  0.12520318353E+03  0.00000000000E+00 0. -1.
         21    1    1    2  505  501 -0.76633367906E+02  0.37659210634E+02  0.17134258595E+03  0.19143973199E+03  0.00000000000E+00 0. -1.
         21    1    1    2  506  502 -0.80877101067E+01 -0.44011183317E+02 -0.28347629170E+03  0.28698641652E+03  0.00000000000E+00 0. -1.
<scales pt_clust_3="32.77076" pt_clust_4="86.47516" pt_clust_5="14000.00000" pt_clust_6="70.34091"></scales>
<clustering>
<clus scale="   32.771">  2  3  1 -1</clus>
<clus scale="   70.341">  2  6  1 -1</clus>
<clus scale="   86.475">  2  4  1 -1</clus>
<clus scale="   86.475">  1  3  2 -1</clus>
</clustering>
</event>
<event>
 6    0  0.2666600E+002  0.1787864E+03  0.7546771E-02  0.1168983E+00
         21   -1    0    0  506  501  0.00000000000E+00  0.00000000000E+00  0.40934182011E+03  0.40934182011E+03  0.00000000000E+00 0.  1.
         21   -1    0    0  504  502 -0.00000000000E+00 -0.00000000000E+00 -0.26622790803E+03  0.26622790803E+03  0.00000000000E+00 0.  1.
         21    1    1    2  503  502  0.15162051025E+03  0.82919721439E+02 -0.28490682117E+02  0.17514616267E+03  0.00000000000E+00 0.  1.
         21    1    1    2  504  505 -0.78203869717E+02  0.12360115136E+03 -0.60246244970E+02  0.15818565007E+03  0.00000000000E+00 0.  1.
         21    1    1    2  505  501 -0.32686138676E+02 -0.19446382316E+03  0.14246099303E+03  0.24326877464E+03  0.00000000000E+00 0.  1.
         21    1    1    2  506  503 -0.40730501855E+02 -0.12057049636E+02  0.89389846140E+02  0.98969140747E+02  0.00000000000E+00 0.  1.
<scales pt_clust_3="14000.00000" pt_clust_4="148.20052" pt_clust_5="178.78642" pt_clust_6="42.47760"></scales>
<clustering>
<clus scale="   42.478">  1  6  2 -1</clus>
<clus scale="  148.201">  2  4  1 -1</clus>
<clus scale="  178.786">  1  5  2 -1</clus>
<clus scale="   42.478">  1  3  2 -1</clus>
</clustering>
</event>
<event>
 6    0  0.2666600E+002  0.1463376E+03  0.7546771E-02  0.1205047E+00
         21   -1    0    0  502  501  0.00000000000E+00  0.00000000000E+00  0.83274970479E+02  0.83274970479E+02  0.00000000000E+00 0. -1.
         21   -1    0    0  505  502 -0.00000000000E+00 -0.00000000000E+00 -0.40839363183E+04  0.40839363183E+04  0.00000000000E+00 0. -1.
         21    1    1    2  503  504 -0.11392509457E+03  0.36481585250E+02 -0.62078257479E+02  0.13477219033E+03  0.00000000000E+00 0. -1.
         21    1    1    2  504  501 -0.21669454565E+02 -0.52258652996E+02  0.28000399313E+02  0.63123327192E+02  0.00000000000E+00 0. -1.
         21    1    1    2  505  506  0.57104363240E+02  0.32690401507E+02 -0.20371189071E+04  0.20381813002E+04  0.00000000000E+00 0. -1.
         21    1    1    2  506  503  0.78490185890E+02 -0.16913333760E+02 -0.19294645825E+04  0.19311344711E+04  0.00000000000E+00 0. -1.
<scales pt_clust_3="135.52265" pt_clust_4="56.57325" pt_clust_5="49.98107" pt_clust_6="49.98107"></scales>
<clustering>
<clus scale="   49.981">  5  6 -1 -1</clus>
<clus scale="   56.573">  1  4  2 -1</clus>
<clus scale="  135.523">  1  3  2 -1</clus>
<clus scale="   56.573">  1  3  2 -1</clus>
</clustering>
</event>
<event>
 6    0  0.2666600E+002  0.2146860E+03  0.7546771E-02  0.1137908E+00
         21   -1    0    0  502  501  0.00000000000E+00  0.00000000000E+00  0.67872005083E+02  0.67872005083E+02  0.00000000000E+00 0.  1.
         21   -1    0    0  506  502 -0.00000000000E+00 -0.00000000000E+00 -0.71415252973E+03  0.71415252973E+03  0.00000000000E+00 0.  1.
         21    1    1    2  503  505  0.46621765765E+02  0.11456395584E+02 -0.80528474305E+02  0.93753257100E+02  0.00000000000E+00 0.  1.
         21    1    1    2  504  503 -0.81916580134E+02 -0.68041416672E+01 -0.19001012123E+03  0.20702770012E+03  0.00000000000E+00 0.  1.
         21    1    1    2  505  501  0.15087305570E+03 -0.60285025963E+02 -0.14755518407E+03  0.21947550123E+03  0.00000000000E+00 0.  1.
         21    1    1    2  506  504 -0.11557824134E+03  0.55632772046E+02 -0.22818674503E+03  0.26176807637E+03  0.00000000000E+00 0.  1.
<scales pt_clust_3="37.27325" pt_clust_4="47.30775" pt_clust_5="37.27325" pt_clust_6="211.85104"></scales>
<clustering>
<clus scale="   37.273">  3  5 -1 -1</clus>
<clus scale="   47.308">  4  6 -1 -1</clus>
<clus scale="  211.851">  2  4  1 -1</clus>
<clus scale="  214.686">  1  3  2 -1</clus>
</clustering>
</event>
<event>
 6    0  0.2666600E+002  0.1015371E+03  0.7546771E-02  0.1277096E+00
         21   -1    0    0  505  501  0.00000000000E+00  0.00000000000E+00  0.13030608907E+03  0.13030608907E+03  0.00000000000E+00 0.  1.
         21   -1    0    0  506  502 -0.00000000000E+00 -0.00000000000E+00 -0.32688377684E+03  0.32688377684E+03  0.00000000000E+00 0.  1.
         21    1    1    2  503  502 -0.37798986278E+02  0.10097165906E+03 -0.22140490129E+03  0.24626036955E+03  0.00000000000E+00 0.  1.
         21    1    1    2  504  501  0.55014920028E+02 -0.21790847497E+02  0.41571791151E+02  0.72316639025E+02  0.00000000000E+00 0. -1.
         21    1    1    2  505  503 -0.42777612679E+02  0.35499974948E+01  0.16323514161E+02  0.45923673016E+02  0.00000000000E+00 0.  1.
         21    1    1    2  506  504  0.25561678929E+02 -0.82730809053E+02 -0.33068091794E+02  0.92689184326E+02  0.00000000000E+00 0.  1.
<scales pt_clust_3="101.53711" pt_clust_4="36.29959" pt_clust_5="42.92466" pt_clust_6="14000.00000"></scales>
<clustering>
<clus scale="   42.925">  1  5  2 -1</clus>
<clus scale="   36.300">  1  4  2 -1</clus>
<clus scale="  101.537">  2  3  1 -1</clus>
<clus scale="   42.925">  1  3  2 -1</clus>
</clustering>
</event>
<event>
 6    0  0.2666600E+002  0.8441864E+02  0.7546771E-02  0.1316960E+00
         21   -1    0    0  506  501  0.00000000000E+00  0.00000000000E+00  0.20666993356E+03  0.20666993356E+03  0.00000000000E+00 0. -1.
         21   -1    0    0  503  502 -0.00000000000E+00 -0.00000000000E+00 -0.11077839839E+04  0.11077839839E+04  0.00000000000E+00 0. -1.
         21    1    1    2  503  505  0.67556772107E+02  0.26154601756E+02 -0.10107031186E+04  0.10132959956E+04  0.00000000000E+00 0. -1.
         21    1    1    2  504  501  0.61848765989E+01 -0.83842256560E+02  0.15036603087E+03  0.17227222621E+03  0.00000000000E+00 0. -1.
         21    1    1    2  505  504 -0.35438331879E+02  0.71762281408E+02 -0.17571614685E+02  0.81941821080E+02  0.00000000000E+00 0. -1.
         21    1    1    2  506  502 -0.38303316827E+02 -0.14074626604E+02 -0.23205347946E+02  0.46943874652E+02  0.00000000000E+00 0.  1.
<scales pt_clust_3="72.17141" pt_clust_4="84.41864" pt_clust_5="14000.00000" pt_clust_6="40.80734"></scales>
<clustering>
<clus scale="   40.807">  1  6  2 -1</clus>
<clus scale="   72.171">  2  3  1 -1</clus>
<clus scale="   84.419">  1  4  2 -1</clus>
<clus scale="   40.807">  1  3  2 -1</clus>
</clustering>
</event>
<event>
 6    0  0.2666600E+002  0.1335312E+03  0.7546771E-02  0.1222308E+00
         21   -1    0    0  503  501  0.00000000000E+00  0.00000000000E+00  0.45968543317E+03  0.45968543317E+03  0.00000000000E+00 0. -1.
         21   -1    0    0  505  502 -0.00000000000E+00 -0.00000000000E+00 -0.50389855461E+03  0.50389855461E+03  0.00000000000E+00 0. -1.
         21    1    1    2  503  504  0.56745156487E+02 -0.95991769125E-01  0.19416289141E+03  0.20228507211E+03  0.00000000000E+00 0. -1.
         21    1    1    2  504  506  0.40875409345E+02 -0.63040796844E+02  0.22253139348E+03  0.23487265111E+03  0.00000000000E+00 0. -1.
         21    1    1    2  505  501  0.73115193891E+02  0.81852945039E+01 -0.10998454392E+03  0.13232320479E+03  0.00000000000E+00 0. -1.
         21    1    1    2  506  502 -0.17073575972E+03  0.54951494109E+02 -0.35092286241E+03  0.39410305976E+03  0.00000000000E+00 0. -1.
<scales pt_clust_3="54.66602" pt_clust_4="54.66602" pt_clust_5="73.57194" pt_clust_6="117.78742"></scales>
<clustering>
<clus scale="   54.666">  3  4 -1 -1</clus>
<clus scale="   73.572">  2  5  1 -1</clus>
<clus scale="  117.787">  2  6  1 -1</clus>
<clus scale="  133.531">  1  3  2 -1</clus>
</clustering>
</event>
<event>
 6    0  0.2666600E+002  0.2666242E+03  0.7546771E-02  0.1103227E+00
         21   -1    0    0  502  501  0.00000000000E+00  0.00000000000E+00  0.38514006848E+03  0.38514006848E+03  0.00000000000E+00 0. -1.
         21   -1    0    0  503  502 -0.00000000000E+00 -0.00000000000E+00 -0.92516238934E+03  0.92516238934E+03  0.00000000000E+00 0. -1.
         21    1    1    2  503  505  0.96040457684E+01  0.60918426930E+02 -0.32709848190E+03  0.33286139653E+03  0.00000000000E+00 0. -1.
         21    1    1    2  504  506 -0.29308442252E+02 -0.54197245533E+02  0.37646396080E+02  0.72205106110E+02  0.00000000000E+00 0. -1.
         21    1    1    2  505  504  0.19438678544E+03  0.94438567049E+02 -0.52316128200E+03  0.56604115776E+03  0.00000000000E+00 0. -1.
         21    1    1    2  506  501 -0.17468238896E+03 -0.10115974845E+03  0.27259104696E+03  0.33919479742E+03  0.00000000000E+00 0. -1.
<scales pt_clust_3="61.67084" pt_clust_4="47.05673" pt_clust_5="252.65377" pt_clust_6="47.05673"></scales>
<clustering>
<clus scale="   47.057">  4  6 -1 -1</clus>
<clus scale="   61.671">  2  3  1 -1</clus>
<clus scale="  252.654">  2  5  1 -1</clus>
<clus scale="  266.624">  1  3  2 -1</clus>
</clustering>
</event>
<event>
 6    0  0.2666600E+002  0.7664414E+02  0.7546771E-02  0.1338854E+00
         21   -1    0    0  505  501  0.00000000000E+00  0.00000000000E+00  0.93534318955E+03  0.93534318955E+03  0.00000000000E+00 0. -1.
         21   -1    0    0  504  502 -0.00000000000E+00 -0.00000000000E+00 -0.68949949273E+02  0.68949949273E+02  0.00000000000E+00 0. -1.
         21    1    1    2  503  502  0.91277018097E+02  0.66896729784E+02  0.13373706530E+02  0.11395403685E+03  0.00000000000E+00 0. -1.
         21    1    1    2  504  506 -0.12657367553E+02 -0.61496382129E+02  0.47270403971E+02  0.78590744110E+02  0.00000000000E+00 0. -1.
         21    1    1    2  505  503 -0.57912049828E+02  0.16532231481E+02  0.66934191209E+03  0.67204591768E+03  0.00000000000E+00 0. -1.
         21    1    1    2  506  501 -0.20707600716E+02 -0.21932579136E+02  0.13640721769E+03  0.13970244018E+03  0.00000000000E+00 0. -1.
<scales pt_clust_3="14000.00000" pt_clust_4="64.82267" pt_clust_5="76.64414" pt_clust_6="30.16360"></scales>
<clustering>
<clus scale="   30.164">  1  6  2 -1</clus>
<clus scale="   64.823">  2  4  1 -1</clus>
<clus scale="   76.644">  1  5  2 -1</clus>
<clus scale="   30.164">  1  3  2 -1</clus>
</clustering>
</event>
<event>
 6    0  0.2666600E+002  0.1079401E+03  0.7546771E-02  0.1264433E+00
         21   -1    0    0  504  501  0.00000000000E+00  0.00000000000E+00  0.63584711642E+03  0.63584711642E+03  0.00000000000E+00 0. -1.
         21   -1    0    0  505  502 -0.00000000000E+00 -0.00000000000E+00 -0.25565200266E+03  0.25565200266E+03  0.00000000000E+00 0.  1.
         21    1    1    2  503  501  0.11480822332E+03 -0.54418846857E+00  0.46081723778E+03  0.47490393862E+03  0.00000000000E+00 0. -1.
         21    1    1    2  504  502 -0.73740355985E+02 -0.97318513852E+02  0.11932280302E+03  0.17072335680E+03  0.00000000000E+00 0. -1.
         21    1    1    2  505  506  0.29071004934E+02  0.24523839878E+02 -0.81241105543E+02  0.89703173188E+02  0.00000000000E+00 0. -1.
         21    1    1    2  506  503 -0.70138872270E+02  0.73338862442E+02 -0.11870382150E+03  0.15616865046E+03  0.00000000000E+00 0.  1.
<scales pt_clust_3="14000.00000" pt_clust_4="107.94013" pt_clust_5="38.03343" pt_clust_6="104.17828"></scales>
<clustering>
<clus scale="   38.033">  2  5  1 -1</clus>
<clus scale="  104.178">  2  6  1 -1</clus>
<clus scale="  107.940">  2  4  1 -1</clus>
<clus scale="  107.940">  1  3  2 -1</clus>
</clustering>
</event>
<event>
 6    0  0.2666600E+002  0.9878106E+02  0.7546771E-02  0.1282880E+00
         21   -1    0    0  504  501  0.00000000000E+00  0.00000000000E+00  0.18506495172E+04  0.18506495172E+04  0.00000000000E+00 0.  1.
         21   -1    0    0  503  502 -0.00000000000E+00 -0.00000000000E+00 -0.15819385292E+03  0.15819385292E+03  0.00000000000E+00 0.  1.
         21    1    1    2  503  501  0.28035139690E+02 -0.62974919910E+02  0.15719259143E+04  0.15734366494E+04  0.00000000000E+00 0.  1.
         21    1    1    2  504  506  0.64481529186E+01 -0.30219520028E+02  0.23503010578E+03  0.23705262852E+03  0.00000000000E+00 0. -1.
         21    1    1    2  505  502  0.43471040797E+02  0.82655473993E+01 -0.47927372276E+02  0.65231002407E+02  0.00000000000E+00 0. -1.
         21    1    1    2  506  505 -0.77954333405E+02  0.84928892540E+02 -0.66572983572E+02  0.13312308976E+03  0.00000000000E+00 0.  1.
<scales pt_clust_3="98.78106" pt_clust_4="30.89981" pt_clust_5="44.25387" pt_clust_6="14000.00000"></scales>
<clustering>
<clus scale="   30.900">  1  4  2 -1</clus>
<clus scale="   44.254">  2  5  1 -1</clus>
<clus scale="   98.781">  1  3  2 -1</clus>
<clus scale="   30.900">  1  3  2 -1</clus>
</clustering>
</event>
<event>
 6    0  0.2666600E+002  0.1687142E+03  0.7546771E-02  0.1179195E+00
         21   -1    0    0  505  501  0.00000000000E+00  0.00000000000E+00  0.23209195254E+03  0.23209195254E+03  0.00000000000E+00 0. -1.
         21   -1    0    0  506  502 -0.00000000000E+00 -0.00000000000E+00 -0.74409791749E+03  0.74409791749E+03  0.00000000000E+00 0.  1.
         21    1    1    2  503  504 -0.87058601589E+02 -0.29103667157E+02  0.69194379165E+02  0.11495253656E+03  0.00000000000E+00 0. -1.
         21    1    1    2  504  502  0.13173409290E+03  0.48211355874E+02 -0.56205141276E+03  0.57929266926E+03  0.00000000000E+00 0.  1.
         21    1    1    2  505  503 -0.66408465473E+02  0.25823402724E+02  0.11697027213E+03  0.13696341473E+03  0.00000000000E+00 0. -1.
         21    1    1    2  506  501  0.21732974158E+02 -0.44931091440E+02 -0.13611920348E+03  0.14498124948E+03  0.00000000000E+00 0.  1.
<scales pt_clust_3="63.59152" pt_clust_4="152.39093" pt_clust_5="63.59152" pt_clust_6="49.91117"></scales>
<clustering>
<clus scale="   49.911">  2  6  1 -1</clus>
<clus scale="   63.592">  3  5 -1 -1</clus>
<clus scale="  152.391">  2  4  1 -1</clus>
<clus scale="  168.714">  1  3  2 -1</clus>
</clustering>
</event>
<event>
 6    0  0.2666600E+002  0.1390707E+03  0.7546771E-02  0.1214585E+00
         21   -1    0    0  505  501  0.00000000000E+00  0.00000000000E+00  0.31354123019E+03  0.31354123019E+03  0.00000000000E+00 0. -1.
         21   -1    0    0  506  502 -0.00000000000E+00 -0.00000000000E+00 -0.23399808863E+03  0.23399808863E+03  0.00000000000E+00 0.  1.
         21    1    1    2  503  504  0.15851839496E+02 -0.68030961343E+02 -0.83066688416E+02  0.10853371477E+03  0.00000000000E+00 0.  1.
         21    1    1    2  504  501  0.38392660190E+02 -0.50620146494E+02  0.33478026558E+02  0.71813465658E+02  0.00000000000E+00 0.  1.
         21    1    1    2  505  502 -0.22686204908E+02  0.17552880906E+03  0.20263115227E+03  0.26904351056E+03  0.00000000000E+00 0. -1.
         21    1    1    2  506  503 -0.31558294778E+02 -0.56877701224E+02 -0.73499348847E+02  0.98148627839E+02  0.00000000000E+00 0.  1.
<scales pt_clust_3="46.83670" pt_clust_4="63.53263" pt_clust_5="130.32595" pt_clust_6="46.83670"></scales>
<clustering>
<clus scale="   46.837">  3  6 -1 -1</clus>
<clus scale="   63.533">  1  4  2 -1</clus>
<clus scale="  130.326">  1  5  2 -1</clus>
<clus scale="   63.533">  1  3  2 -1</clus>
</clustering>
</event>
<event>
 6    0  0.2666600E+002  0.1899193E+03  0.7546771E-02  0.1158534E+00
         21   -1    0    0  504  501  0.00000000000E+00  0.00000000000E+00  0.82071325533E+03  0.82071325533E+03  0.00000000000E+00 0. -1.
         21   -1    0    0  506  502 -0.00000000000E+00 -0.00000000000E+00 -0.17561985205E+03  0.17561985205E+03  0.00000000000E+00 0.  1.
         21    1    1    2  503  505  0.46118671954E+02  0.78352521170E+02 -0.37849926740E+02  0.98481807613E+02  0.00000000000E+00 0.  1.
         21    1    1    2  504  503  0.17113791422E+02 -0.32356186437E+02  0.11067428251E+03  0.11657015685E+03  0.00000000000E+00 0. -1.
         21    1    1    2  505  502  0.82586692379E+02  0.53998087058E+02 -0.66173483574E+02  0.11880776529E+03  0.00000000000E+00 0.  1.
         21    1    1    2  506  501 -0.14581915576E+03 -0.99994421792E+02  0.63844253108E+03  0.66247337763E+03  0.00000000000E+00 0. -1.
<scales pt_clust_3="45.97663" pt_clust_4="36.60334" pt_clust_5="45.97663" pt_clust_6="183.73134"></scales>
<clustering>
<clus scale="   36.603">  1  4  2 -1</clus>
<clus scale="   45.977">  3  5 -1 -1</clus>
<clus scale="  183.731">  1  6  2 -1</clus>
<clus scale="   36.603">  1  3  2 -1</clus>
</clustering>
</event>
<event>
 6    0  0.2666600E+002  0.1232243E+03  0.7546771E-02  0.1237871E+00
         21   -1    0    0  506  501  0.00000000000E+00  0.00000000000E+00  0.59923650817E+03  0.59923650817E+03  0.00000000000E+00 0.  1.
         21   -1    0    0  503  502 -0.00000000000E+00 -0.00000000000E+00 -0.20356899690E+03  0.20356899690E+03  0.00000000000E+00 0.  1.
         21    1    1    2  503  501  0.37769249190E+02  0.14181567164E+03  0.45261886781E+03  0.47581723425E+03  0.00000000000E+00 0.  1.
         21    1    1    2  504  502  0.15073039906E+02 -0.70395598928E+02 -0.13243307378E+03  0.15073571545E+03  0.00000000000E+00 0.  1.
         21    1    1    2  505  504 -0.79541488792E+02 -0.47676713797E+02 -0.64543582410E-02  0.92735740249E+02  0.00000000000E+00 0.  1.
         21    1    1    2  506  505  0.26699199696E+02 -0.23743358913E+02  0.75488171600E+02  0.83516815124E+02  0.00000000000E+00 0. -1.
<scales pt_clust_3="14000.00000" pt_clust_4="72.49941" pt_clust_5="123.22428" pt_clust_6="35.72946"></scales>
<clustering>
<clus scale="   35.729">  1  6  2 -1</clus>
<clus scale="   72.499">  2  4  1 -1</clus>
<clus scale="  123.224">  2  5  1 -1</clus>
<clus scale="   35.729">  1  3  2 -1</clus>
</clustering>
</event>
<event>
 6    0  0.2666600E+002  0.1290330E+03  0.7546771E-02  0.1228898E+00
         21   -1    0    0  503  501  0.00000000000E+00  0.00000000000E+00  0.20197476025E+03  0.20197476025E+03  0.00000000000E+00 0. -1.
         21   -1    0    0  506  502 -0.00000000000E+00 -0.00000000000E+00 -0.78183625496E+03  0.78183625496E+03  0.00000000000E+00 0.  1.
         21    1    1    2  503  504 -0.29188255958E+02  0.19639602496E+02  0.19019809075E+02  0.39992766962E+02  0.00000000000E+00 0. -1.
         21    1    1    2  504  502  0.29088449611E+02 -0.14053595373E+03 -0.66531495279E+03  0.68061771839E+03  0.00000000000E+00 0.  1.
         21    1    1    2  505  501 -0.21885826328E+02  0.30111495006E+02  0.13964390934E+03  0.14452028557E+03  0.00000000000E+00 0. -1.
         21    1    1    2  506  505  0.21985632675E+02  0.90784856231E+02 -0.73210260336E+02  0.11868024429E+03  0.00000000000E+00 0.  1.
<scales pt_clust_3="35.18051" pt_clust_4="14000.00000" pt_clust_5="65.21161" pt_clust_6="129.03299"></scales>
<clustering>
<clus scale="   35.181">  1  3  2 -1</clus>
<clus scale="   65.212">  1  5  2 -1</clus>
<clus scale="  129.033">  1  6  2 -1</clus>
<clus scale="   35.181">  1  3  2 -1</clus>
</clustering>
</event>
<event>
 6    0  0.2666600E+002  0.1238798E+03  0.7546771E-02  0.1236830E+00
         21   -1    0    0  503  501  0.00000000000E+00  0.00000000000E+00  0.86064976740E+03  0.86064976740E+03  0.00000000000E+00 0.  1.
         21   -1    0    0  501  502 -0.00000000000E+00 -0.00000000000E+00 -0.17701460085E+03  0.17701460085E+03  0.00000000000E+00 0.  1.
         21    1    1    2  503  505  0.14961927454E+02 -0.54739589078E+02  0.73640013579E+03  0.73858340211E+03  0.00000000000E+00 0.  1.
         21    1    1    2  504  502  0.55329709498E+02 -0.80642221090E+02 -0.87111270982E+02  0.13096914945E+03  0.00000000000E+00 0.  1.
         21    1    1    2  505  506 -0.44869924822E+02  0.92193731115E+02 -0.75231051292E+01  0.10280851775E+03  0.00000000000E+00 0.  1.
         21    1    1    2  506  504 -0.25421712130E+02  0.43188079053E+02  0.41869406872E+02  0.65303298934E+02  0.00000000000E+00 0.  1.
<scales pt_clust_3="56.74753" pt_clust_4="107.39380" pt_clust_5="43.16886" pt_clust_6="43.16886"></scales>
<clustering>
<clus scale="   43.169">  5  6 -1 -1</clus>
<clus scale="   56.748">  1  3  2 -1</clus>
<clus scale="  107.394">  2  4  1 -1</clus>
<clus scale="   56.748">  1  3  2 -1</clus>
</clustering>
</event>
<event>
 6    0  0.2666600E+002  0.1706289E+03  0.7546771E-02  0.1177194E+00
         21   -1    0    0  503  501  0.00000000000E+00  0.00000000000E+00  0.89165511465E+02  0.89165511465E+02  0.00000000000E+00 0.  1.
         21   -1    0    0  501  502 -0.00000000000E+00 -0.00000000000E+00 -0.77012361763E+03  0.77012361763E+03  0.00000000000E+00 0.  1.
         21    1    1    2  503  504  0.16757224195E+02  0.98792580370E+02 -0.31254534783E+02  0.10496487243E+03  0.00000000000E+00 0.  1.
         21    1    1    2  504  505  0.15747699227E+02  0.59964800360E+02  0.18483908013E+02  0.64694838809E+02  0.00000000000E+00 0.  1.
         21    1    1    2  505  506 -0.26842199960E+02 -0.30706755800E+02 -0.20596595279E+03  0.20996519297E+03  0.00000000000E+00 0. -1.
         21    1    1    2  506  502 -0.56627234619E+01 -0.12805062493E+03 -0.46222152660E+03  0.47966422489E+03  0.00000000000E+00 0.  1.
<scales pt_clust_3="169.17839" pt_clust_4="38.21922" pt_clust_5="30.13386" pt_clust_6="30.13386"></scales>
<clustering>
<clus scale="   30.134">  5  6 -1 -1</clus>
<clus scale="   38.219">  3  4 -1 -1</clus>
<clus scale="  169.178">  1  3  2 -1</clus>
<clus scale="  169.178">  1  3  2 -1</clus>
</clustering>
</event>
<event>
 6    0  0.2666600E+002  0.1342236E+03  0.7546771E-02  0.1221320E+00
         21   -1    0    0  503  501  0.00000000000E+00  0.00000000000E+00  0.75679006267E+02  0.75679006267E+02  0.00000000000E+00 0. -1.
         21   -1    0    0  505  502 -0.00000000000E+00 -0.00000000000E+00 -0.90324307316E+03  0.90324307316E+03  0.00000000000E+00 0.  1.
         21    1    1    2  503  502 -0.40336490148E+02  0.97455329117E+02 -0.15108515337E+03  0.18425877775E+03  0.00000000000E+00 0. -1.
         21    1    1    2  504  506  0.41174548630E+02 -0.14682418324E+03 -0.47408939552E+03  0.49800947700E+03  0.00000000000E+00 0.  1.
         21    1    1    2  505  504  0.55536921272E+02 -0.87854334302E+01 -0.20799970152E+03  0.21546556406E+03  0.00000000000E+00 0. -1.
         21    1    1    2  506  501 -0.56374979755E+02  0.58154287550E+02  0.56101835090E+01  0.81188260615E+02  0.00000000000E+00 0. -1.
<scales pt_clust_3="134.22362" pt_clust_4="14000.00000" pt_clust_5="56.22752" pt_clust_6="78.55872"></scales>
<clustering>
<clus scale="   56.228">  2  5  1 -1</clus>
<clus scale="   78.559">  1  6  2 -1</clus>
<clus scale="  134.224">  1  3  2 -1</clus>
<clus scale="   78.559">  1  3  2 -1</clus>
</clustering>
</event>
<event>
 6    0  0.2666600E+002  0.2164105E+03  0.7546771E-02  0.1136588E+00
         21   -1    0    0  506  501  0.00000000000E+00  0.00000000000E+00  0.75486656507E+02  0.75486656507E+02  0.00000000000E+00 0.  1.
         21   -1    0    0  503  502 -0.00000000000E+00 -0.00000000000E+00 -0.87738299185E+03  0.87738299185E+03  0.00000000000E+00 0.  1.
         21    1    1    2  503  505 -0.88181407205E+02 -0.17620725484E+03 -0.45617101465E+03  0.49690738759E+03  0.00000000000E+00 0.  1.
         21    1    1    2  504  501  0.81151299128E+02  0.14048651548E+03 -0.17799163747E+03  0.24083815601E+03  0.00000000000E+00 0.  1.
         21    1    1    2  505  504  0.38115628221E+02  0.69301175635E+02 -0.14221851135E+03  0.16273155511E+03  0.00000000000E+00 0. -1.
         21    1    1    2  506  502 -0.31085520144E+02 -0.33580436274E+02 -0.25515171883E+02  0.52392549653E+02  0.00000000000E+00 0.  1.
<scales pt_clust_3="211.50655" pt_clust_4="31.98447" pt_clust_5="31.98447" pt_clust_6="45.75976"></scales>
<clustering>
<clus scale="   31.984">  4  5 -1 -1</clus>
<clus scale="   45.760">  1  6  2 -1</clus>
<clus scale="  211.507">  2  3  1 -1</clus>
<clus scale="   45.760">  1  3  2 -1</clus>
</clustering>
</event>
<event>
 6    0  0.2666600E+002  0.1698567E+03  0.7546771E-02  0.1177997E+00
         21   -1    0    0  504  501  0.00000000000E+00  0.00000000000E+00  0.78644889648E+03  0.78644889648E+03  0.00000000000E+00 0. -1.
         21   -1    0    0  506  502 -0.00000000000E+00 -0.00000000000E+00 -0.16389536157E+03  0.16389536157E+03  0.00000000000E+00 0. -1.
         21    1    1    2  503  505  0.47758183559E+02  0.39431297451E+02 -0.41579174396E+01  0.62072212728E+02  0.00000000000E+00 0. -1.
         21    1    1    2  504  503 -0.14681559819E+02 -0.28528557947E+02  0.45898437075E+03  0.46010442228E+03  0.00000000000E+00 0. -1.
         21    1    1    2  505  502  0.68134003912E+02  0.75492852026E+02 -0.91488825367E+02  0.13679041766E+03  0.00000000000E+00 0. -1.
         21    1    1    2  506  501 -0.10121062765E+03 -0.86395591530E+02  0.25921590697E+03  0.29137720538E+03  0.00000000000E+00 0. -1.
<scales pt_clust_3="47.33658" pt_clust_4="32.08468" pt_clust_5="47.33658" pt_clust_6="158.40396"></scales>
<clustering>
<clus scale="   32.085">  1  4  2 -1</clus>
<clus scale="   47.337">  3  5 -1 -1</clus>
<clus scale="  158.404">  1  6  2 -1</clus>
<clus scale="   32.085">  1  3  2 -1</clus>
</clustering>
</event>
<event>
 6    0  0.2666600E+002  0.1413761E+03  0.7546771E-02  0.1211489E+00
         21   -1    0    0  505  501  0.00000000000E+00  0.00000000000E+00  0.27997490695E+03  0.27997490695E+03  0.00000000000E+00 0. -1.
         21   -1    0    0  503  502 -0.00000000000E+00 -0.00000000000E+00 -0.27517043880E+03  0.27517043880E+03  0.00000000000E+00 0. -1.
         21    1    1    2  503  504 -0.49291101144E+02 -0.94406438422E+02 -0.31417256709E+01  0.10654604032E+03  0.00000000000E+00 0. -1.
         21    1    1    2  504  501 -0.12195238566E+03 -0.52397755224E+02  0.11400686272E+03  0.17497278036E+03  0.00000000000E+00 0. -1.
         21    1    1    2  505  506  0.12236475183E+03  0.14861803051E+03 -0.49348469604E+02  0.19873530873E+03  0.00000000000E+00 0. -1.
         21    1    1    2  506  502  0.48878734968E+02 -0.18138368660E+01 -0.56712199291E+02  0.74891216339E+02  0.00000000000E+00 0.  1.
<scales pt_clust_3="101.65550" pt_clust_4="141.37609" pt_clust_5="14000.00000" pt_clust_6="48.91238"></scales>
<clustering>
<clus scale="   48.912">  2  6  1 -1</clus>
<clus scale="  101.656">  2  3  1 -1</clus>
<clus scale="  141.376">  1  4  2 -1</clus>
<clus scale="  141.376">  1  3  2 -1</clus>
</clustering>
</event>
<event>
 6    0  0.2666600E+002  0.9232185E+02  0.7546771E-02  0.1297324E+00
         21   -1    0    0  504  501  0.00000000000E+00  0.00000000000E+00  0.26510366954E+03  0.26510366954E+03  0.00000000000E+00 0.  1.
         21   -1    0    0  505  502 -0.00000000000E+00 -0.00000000000E+00 -0.17423428463E+03  0.17423428463E+03  0.00000000000E+00 0.  1.
         21    1    1    2  503  502 -0.50286113162E+02  0.35735429394E+02 -0.11349420319E+03  0.12917681002E+03  0.00000000000E+00 0.  1.
         21    1    1    2  504  503 -0.44625088740E+02  0.22998909326E+01  0.65033935868E+02  0.78905645285E+02  0.00000000000E+00 0.  1.
         21    1    1    2  505  506  0.10573428237E+01  0.44193627079E+02 -0.16193815541E-01  0.44206276823E+02  0.00000000000E+00 0.  1.
         21    1    1    2  506  501  0.93853859079E+02 -0.82228947406E+02  0.13934584604E+03  0.18704922204E+03  0.00000000000E+00 0.  1.
<scales pt_clust_3="92.32185" pt_clust_4="44.78522" pt_clust_5="44.20627" pt_clust_6="14000.00000"></scales>
<clustering>
<clus scale="   44.206">  2  5  1 -1</clus>
<clus scale="   44.785">  1  4  2 -1</clus>
<clus scale="   92.322">  2  3  1 -1</clus>
<clus scale="   44.785">  1  3  2 -1</clus>
</clustering>
</event>
<event>
 6    0  0.4501964E+002  0.1103644E+03  0.7546771E-02  0.1259897E+00
         21   -1    0    0  506  501  0.00000000000E+00  0.00000000000E+00  0.64896907237E+03  0.64896907237E+03  0.00000000000E+00 0. -1.
         21   -1    0    0  504  502 -0.00000000000E+00 -0.00000000000E+00 -0.62724453835E+03  0.62724453835E+03  0.00000000000E+00 0. -1.
         21    1    1    2  503  505 -0.10771012102E+03 -0.44803800252E+00 -0.51631446426E+03  0.52742989762E+03  0.00000000000E+00 0. -1.
         21    1    1    2  504  503  0.46233811097E+01  0.42200372837E+02 -0.79361739542E+02  0.90002960083E+02  0.00000000000E+00 0. -1.
         21    1    1    2  505  501  0.96828321074E+01 -0.38999300809E+02  0.64169262594E+01  0.40692501077E+02  0.00000000000E+00 0.  1.
         21    1    1    2  506  502  0.93403907799E+02 -0.27530340250E+01  0.61098381156E+03  0.61808825193E+03  0.00000000000E+00 0. -1.
<scales pt_clust_3="14000.00000" pt_clust_4="42.13221" pt_clust_5="40.18336" pt_clust_6="110.36441"></scales>
<clustering>
<clus scale="   40.183">  1  5  2 -1</clus>
<clus scale="   42.132">  2  4  1 -1</clus>
<clus scale="  110.364">  1  6  2 -1</clus>
<clus scale="   40.183">  1  3  2 -1</clus>
</clustering>
</event>
<event>
 6    0  0.2666600E+002  0.9621168E+02  0.7546771E-02  0.1288470E+00
         21   -1    0    0  506  501  0.00000000000E+00  0.00000000000E+00  0.68344208693E+02  0.68344208693E+02  0.00000000000E+00 0.  1.
         21   -1    0    0  504  502 -0.00000000000E+00 -0.00000000000E+00 -0.43826320841E+03  0.43826320841E+03  0.00000000000E+00 0.  1.
         21    1    1    2  503  502 -0.36502713536E+02 -0.19320478740E+02 -0.13063665398E+03  0.13700972359E+03  0.00000000000E+00 0.  1.
         21    1    1    2  504  501  0.13651553996E+02 -0.55652232950E+02 -0.40556544591E+02  0.70202345174E+02  0.00000000000E+00 0.  1.
         21    1    1    2  505  503 -0.36361550298E+02  0.10929586651E+03 -0.20016247825E+03  0.23093888039E+03  0.00000000000E+00 0.  1.
         21    1    1    2  506  505  0.59212709838E+02 -0.34323154821E+02  0.14366771042E+01  0.68456467951E+02  0.00000000000E+00 0.  1.
<scales pt_clust_3="41.30047" pt_clust_4="59.58074" pt_clust_5="14000.00000" pt_clust_6="96.21168"></scales>
<clustering>
<clus scale="   41.300">  2  3  1 -1</clus>
<clus scale="   59.581">  1  4  2 -1</clus>
<clus scale="   96.212">  1  6  2 -1</clus>
<clus scale="   59.581">  1  3  2 -1</clus>
</clustering>
</event>
<event>
 6    0  0.2666600E+002  0.1152334E+03  0.7546771E-02  0.1251174E+00
         21   -1    0    0  504  501  0.00000000000E+00  0.00000000000E+00  0.12147317228E+04  0.12147317228E+04  0.00000000000E+00 0. -1.
         21   -1    0    0  506  502 -0.00000000000E+00 -0.00000000000E+00 -0.71486173562E+02  0.71486173562E+02  0.00000000000E+00 0.  1.
         21    1    1    2  503  501  0.30757329161E+02  0.25180373117E+02  0.83159305911E+03  0.83254253972E+03  0.00000000000E+00 0. -1.
         21    1    1    2  504  505  0.54380408401E+02  0.75713116465E+02  0.28946244054E+03  0.30410230073E+03  0.00000000000E+00 0. -1.
         21    1    1    2  505  502 -0.79485528494E+02 -0.54995446590E+02 -0.34077754220E+01  0.96716396329E+02  0.00000000000E+00 0.  1.
         21    1    1    2  506  503 -0.56522090683E+01 -0.45898042991E+02  0.25597825018E+02  0.52856659594E+02  0.00000000000E+00 0. -1.
<scales pt_clust_3="39.75002" pt_clust_4="14000.00000" pt_clust_5="115.23343" pt_clust_6="43.38882"></scales>
<clustering>
<clus scale="   39.750">  1  3  2 -1</clus>
<clus scale="   43.389">  2  6  1 -1</clus>
<clus scale="  115.233">  2  5  1 -1</clus>
<clus scale="   39.750">  1  3  2 -1</clus>
</clustering>
</event>
<event>
 6    0  0.3402164E+002  0.1141859E+03  0.7546771E-02  0.1253009E+00
         21   -1    0    0  503  501  0.00000000000E+00  0.00000000000E+00  0.45002243353E+03  0.45002243353E+03  0.00000000000E+00 0.  1.
         21   -1    0    0  501  502 -0.00000000000E+00 -0.00000000000E+00 -0.42509425378E+03  0.42509425378E+03  0.00000000000E+00 0.  1.
         21    1    1    2  503  506  0.17262140440E+02  0.39670621230E+02  0.12944284855E+02  0.45158545058E+02  0.00000000000E+00 0. -1.
         21    1    1    2  504  502  0.14493023834E+02  0.38195272565E+02 -0.24250927120E+03  0.24592615396E+03  0.00000000000E+00 0.  1.
         21    1    1    2  505  504  0.25533517347E+02  0.56937812991E+02 -0.14536418349E+03  0.15819172197E+03  0.00000000000E+00 0.  1.
         21    1    1    2  506  505 -0.57288681621E+02 -0.13480370679E+03  0.39985734958E+03  0.42584026632E+03  0.00000000000E+00 0.  1.
<scales pt_clust_3="43.26361" pt_clust_4="38.06324" pt_clust_5="38.06324" pt_clust_6="104.04527"></scales>
<clustering>
<clus scale="   38.063">  4  5 -1 -1</clus>
<clus scale="   43.264">  1  3  2 -1</clus>
<clus scale="  104.045">  1  6  2 -1</clus>
<clus scale="   43.264">  1  3  2 -1</clus>
</clustering>
</event>
<event>
 6    0  0.2666600E+002  0.2405313E+03  0.7546771E-02  0.1119439E+00
         21   -1    0    0  505  501  0.00000000000E+00  0.00000000000E+00  0.75769616166E+03  0.75769616166E+03  0.00000000000E+00 0. -1.
         21   -1    0    0  503  502 -0.00000000000E+00 -0.00000000000E+00 -0.17876475666E+03  0.17876475666E+03  0.00000000000E+00 0. -1.
         21    1    1    2  503  501 -0.45902534127E+02  0.44726788082E-01 -0.23513366697E+02  0.51574441860E+02  0.00000000000E+00 0. -1.
         21    1    1    2  504  502 -0.34643111843E+02 -0.22497033055E+03 -0.81226782737E+01  0.22776692633E+03  0.00000000000E+00 0. -1.
         21    1    1    2  505  506  0.48329122558E+02  0.11908536876E+03  0.26987926783E+03  0.29891779529E+03  0.00000000000E+00 0. -1.
         21    1    1    2  506  504  0.32216523412E+02  0.10584023500E+03  0.34068818215E+03  0.35820175485E+03  0.00000000000E+00 0. -1.
<scales pt_clust_3="45.90256" pt_clust_4="236.47605" pt_clust_5="40.80675" pt_clust_6="40.80675"></scales>
<clustering>
<clus scale="   40.807">  5  6 -1 -1</clus>
<clus scale="   45.903">  2  3  1 -1</clus>
<clus scale="  236.476">  2  4  1 -1</clus>
<clus scale="  240.531">  1  3  2 -1</clus>
</clustering>
</event>
<event>
 6    0  0.2666600E+002  0.7332525E+02  0.7546771E-02  0.1349137E+00
         21   -1    0    0  502  501  0.00000000000E+00  0.00000000000E+00  0.45456920179E+02  0.45456920179E+02  0.00000000000E+00 0. -1.
         21   -1    0    0  506  502 -0.00000000000E+00 -0.00000000000E+00 -0.47044014318E+03  0.47044014318E+03  0.00000000000E+00 0. -1.
         21    1    1    2  503  501 -0.21773929143E+02 -0.34610896460E+02 -0.24677207230E+02  0.47759634638E+02  0.00000000000E+00 0. -1.
         21    1    1    2  504  505  0.31531400814E+02  0.57730583896E+02 -0.13254343627E+03  0.14796895639E+03  0.00000000000E+00 0. -1.
         21    1    1    2  505  503 -0.11098410710E+02  0.62609331845E+02 -0.36032234054E+02  0.73085053501E+02  0.00000000000E+00 0. -1.
         21    1    1    2  506  504  0.13409390395E+01 -0.85729019281E+02 -0.23173034545E+03  0.24708341884E+03  0.00000000000E+00 0. -1.
<scales pt_clust_3="40.89032" pt_clust_4="14000.00000" pt_clust_5="49.38236" pt_clust_6="73.32525"></scales>
<clustering>
<clus scale="   40.890">  1  3  2 -1</clus>
<clus scale="   49.382">  1  5  2 -1</clus>
<clus scale="   73.325">  2  6  1 -1</clus>
<clus scale="   40.890">  1  3  2 -1</clus>
</clustering>
</event>
<event>
 6    0  0.2666600E+002  0.1759924E+03  0.7546771E-02  0.1171739E+00
         21   -1    0    0  504  501  0.00000000000E+00  0.00000000000E+00  0.45462273306E+02  0.45462273306E+02  0.00000000000E+00 0.  1.
         21   -1    0    0  506  502 -0.00000000000E+00 -0.00000000000E+00 -0.22769244326E+04  0.22769244326E+04  0.00000000000E+00 0. -1.
         21    1    1    2  503  505  0.24023407014E+02 -0.81378367577E+02 -0.78055251777E+03  0.78515081086E+03  0.00000000000E+00 0. -1.
         21    1    1    2  504  502 -0.21338419810E+02  0.49196845723E+02 -0.99372789899E+02  0.11291859529E+03  0.00000000000E+00 0.  1.
         21    1    1    2  505  501  0.24879347277E+02  0.12002259072E+03 -0.73402918096E+02  0.14287194472E+03  0.00000000000E+00 0.  1.
         21    1    1    2  506  503 -0.27564334481E+02 -0.87841068865E+02 -0.12781339335E+04  0.12814453550E+04  0.00000000000E+00 0. -1.
<scales pt_clust_3="60.00530" pt_clust_4="53.62516" pt_clust_5="164.29018" pt_clust_6="60.00530"></scales>
<clustering>
<clus scale="   53.625">  1  4  2 -1</clus>
<clus scale="   60.005">  3  6 -1 -1</clus>
<clus scale="  164.290">  1  5  2 -1</clus>
<clus scale="   53.625">  1  3  2 -1</clus>
</clustering>
</event>
<event>
 6    0  0.2666600E+002  0.1492646E+03  0.7546771E-02  0.1201380E+00
         21   -1    0    0  503  501  0.00000000000E+00  0.00000000000E+00  0.25328482318E+03  0.25328482318E+03  0.00000000000E+00 0. -1.
         21   -1    0    0  505  502 -0.00000000000E+00 -0.00000000000E+00 -0.13509538835E+04  0.13509538835E+04  0.00000000000E+00 0.  1.
         21    1    1    2  503  504  0.93444282821E+02 -0.12147878692E+03  0.16132136752E+03  0.22251632138E+03  0.00000000000E+00 0. -1.
         21    1    1    2  504  502  0.11440286352E+02  0.12757096119E+03 -0.11353536749E+04  0.11425555555E+04  0.00000000000E+00 0.  1.
         21    1    1    2  505  506 -0.27415485191E+02  0.22877045845E+02 -0.14855526295E+03  0.15278623696E+03  0.00000000000E+00 0.  1.
         21    1    1    2  506  501 -0.77469083982E+02 -0.28969220119E+02  0.24918509969E+02  0.86380592881E+02  0.00000000000E+00 0.  1.
<scales pt_clust_3="149.26457" pt_clust_4="14000.00000" pt_clust_5="35.70669" pt_clust_6="83.16447"></scales>
<clustering>
<clus scale="   35.707">  2  5  1 -1</clus>
<clus scale="   83.164">  1  6  2 -1</clus>
<clus scale="  149.265">  1  3  2 -1</clus>
<clus scale="   83.164">  1  3  2 -1</clus>
</clustering>
</event>
<event>
 6    0  0.2666600E+002  0.1435426E+03  0.7546771E-02  0.1208640E+00
         21   -1    0    0  504  501  0.00000000000E+00  0.00000000000E+00  0.38235912660E+03  0.38235912660E+03  0.00000000000E+00 0.  1.
         21   -1    0    0  503  502 -0.00000000000E+00 -0.00000000000E+00 -0.16258763285E+03  0.16258763285E+03  0.00000000000E+00 0.  1.
         21    1    1    2  503  505 -0.72022555419E+02  0.14998408140E+03 -0.57704797021E+02  0.17610314240E+03  0.00000000000E+00 0.  1.
         21    1    1    2  504  506 -0.27715338129E+02 -0.73181230946E+02  0.27745662065E+02  0.83026828759E+02  0.00000000000E+00 0.  1.
         21    1    1    2  505  501  0.32595365960E+02 -0.11082005812E+02  0.12503110886E+03  0.12968441278E+03  0.00000000000E+00 0.  1.
         21    1    1    2  506  502  0.67142527588E+02 -0.65720844646E+02  0.12469951985E+03  0.15613237551E+03  0.00000000000E+00 0.  1.
<scales pt_clust_3="14000.00000" pt_clust_4="78.35440" pt_clust_5="34.42773" pt_clust_6="143.54260"></scales>
<clustering>
<clus scale="   34.428">  1  5  2 -1</clus>
<clus scale="   78.354">  1  4  2 -1</clus>
<clus scale="  143.543">  1  6  2 -1</clus>
<clus scale="   34.428">  1  3  2 -1</clus>
</clustering>
</event>
<event>
 6    0  0.2666600E+002  0.1751326E+03  0.7546771E-02  0.1172599E+00
         21   -1    0    0  506  501  0.00000000000E+00  0.00000000000E+00  0.11869083860E+04  0.11869083860E+04  0.00000000000E+00 0.  1.
         21   -1    0    0  503  502 -0.00000000000E+00 -0.00000000000E+00 -0.24287296769E+03  0.24287296769E+03  0.00000000000E+00 0.  1.
         21    1    1    2  503  501  0.75958138399E+00 -0.50174421349E+02  0.45443115718E+03  0.45719331375E+03  0.00000000000E+00 0.  1.
         21    1    1    2  504  502 -0.10721994187E+03  0.64443899847E+02 -0.18870634400E+03  0.22640498322E+03  0.00000000000E+00 0.  1.
         21    1    1    2  505  504 -0.32401125370E+02  0.21736119552E+02 -0.12238457691E+02  0.40890972905E+02  0.00000000000E+00 0. -1.
         21    1    1    2  506  505  0.13886148586E+03 -0.36005598051E+02  0.69054906286E+03  0.70529208386E+03  0.00000000000E+00 0.  1.
<scales pt_clust_3="50.18017" pt_clust_4="35.96528" pt_clust_5="35.96528" pt_clust_6="162.86242"></scales>
<clustering>
<clus scale="   35.965">  4  5 -1 -1</clus>
<clus scale="   50.180">  1  3  2 -1</clus>
<clus scale="  162.862">  1  6  2 -1</clus>
<clus scale="   50.180">  1  3  2 -1</clus>
</clustering>
</event>
<event>
 6    0  0.2666600E+002  0.1577899E+03  0.7546771E-02  0.1191215E+00
         21   -1    0    0  503  501  0.00000000000E+00  0.00000000000E+00  0.12369310298E+04  0.12369310298E+04  0.00000000000E+00 0.  1.
         21   -1    0    0  504  502 -0.00000000000E+00 -0.00000000000E+00 -0.21075342775E+04  0.21075342775E+04  0.00000000000E+00 0.  1.
         21    1    1    2  503  506  0.22522157048E+02  0.77703132236E+02 -0.10119644830E+04  0.10151931536E+04  0.00000000000E+00 0.  1.
         21    1    1    2  504  505 -0.83730030862E+02 -0.90311036928E+02  0.74235218384E+03  0.75249821682E+03  0.00000000000E+00 0.  1.
         21    1    1    2  505  501  0.52003688345E+01 -0.39801079521E+02  0.48571177332E+03  0.48736751688E+03  0.00000000000E+00 0.  1.
         21    1    1    2  506  502  0.56007504980E+02  0.52408984213E+02 -0.10867027218E+04  0.10894064200E+04  0.00000000000E+00 0.  1.
<scales pt_clust_3="41.76826" pt_clust_4="151.84987" pt_clust_5="40.13938" pt_clust_6="41.76826"></scales>
<clustering>
<clus scale="   40.139">  1  5  2 -1</clus>
<clus scale="   41.768">  3  6 -1 -1</clus>
<clus scale="  151.850">  1  4  2 -1</clus>
<clus scale="   40.139">  1  3  2 -1</clus>
</clustering>
</event>
<event>
 6    0  0.2666600E+002  0.9060419E+02  0.7546771E-02  0.1301395E+00
         21   -1    0    0  504  501  0.00000000000E+00  0.00000000000E+00  0.26088225779E+03  0.26088225779E+03  0.00000000000E+00 0. -1.
         21   -1    0    0  503  502 -0.00000000000E+00 -0.00000000000E+00 -0.30921571355E+03  0.30921571355E+03  0.00000000000E+00 0. -1.
         21    1    1    2  503  501  0.98933214772E+02 -0.15974769520E+02  0.11179873381E+03  0.15013970537E+03  0.00000000000E+00 0. -1.
         21    1    1    2  504  505 -0.98119963066E+01  0.38891879561E+02  0.11385065596E+03  0.12070967413E+03  0.00000000000E+00 0. -1.
         21    1    1    2  505  506 -0.79582449642E+02  0.13433400489E+02 -0.21095706839E+03  0.22586878324E+03  0.00000000000E+00 0. -1.
         21    1    1    2  506  502 -0.95387688234E+01 -0.36350510530E+02 -0.63025777138E+02  0.73379808601E+02  0.00000000000E+00 0.  1.
<scales pt_clust_3="90.60419" pt_clust_4="39.64302" pt_clust_5="14000.00000" pt_clust_6="37.58122"></scales>
<clustering>
<clus scale="   37.581">  2  6  1 -1</clus>
<clus scale="   39.643">  1  4  2 -1</clus>
<clus scale="   90.604">  1  3  2 -1</clus>
<clus scale="   39.643">  1  3  2 -1</clus>
</clustering>
</event>
<event>
 6    0  0.2666600E+002  0.2377015E+03  0.7546771E-02  0.1121334E+00
         21   -1    0    0  506  501  0.00000000000E+00  0.00000000000E+00  0.25000837078E+04  0.25000837078E+04  0.00000000000E+00 0. -1.
         21   -1    0    0  503  502 -0.00000000000E+00 -0.00000000000E+00 -0.47198366874E+02  0.47198366874E+02  0.00000000000E+00 0. -1.
         21    1    1    2  503  505 -0.63819328933E+01  0.39052054773E+02  0.13238756641E+03  0.13817474368E+03  0.00000000000E+00 0. -1.
         21    1    1    2  504  502 -0.74720009464E+02 -0.11088693189E+03  0.10665539472E+04  0.10749029322E+04  0.00000000000E+00 0. -1.
         21    1    1    2  505  501  0.11366252456E+03  0.17526788864E+03  0.25612968474E+03  0.33051538191E+03  0.00000000000E+00 0. -1.
         21    1    1    2  506  504 -0.32560582202E+02 -0.10343301152E+03  0.99781414257E+03  0.10036890168E+04  0.00000000000E+00 0. -1.
<scales pt_clust_3="39.57009" pt_clust_4="34.72299" pt_clust_5="234.55337" pt_clust_6="34.72299"></scales>
<clustering>
<clus scale="   34.723">  4  6 -1 -1</clus>
<clus scale="   39.570">  2  3  1 -1</clus>
<clus scale="  234.553">  2  5  1 -1</clus>
<clus scale="  237.701">  1  3  2 -1</clus>
</clustering>
</event>
<event>
 6    0  0.2666600E+002  0.8325222E+02  0.7546771E-02  0.1320067E+00
         21   -1    0    0  506  501  0.00000000000E+00  0.00000000000E+00  0.29026321669E+03  0.29026321669E+03  0.00000000000E+00 0. -1.
         21   -1    0    0  503  502 -0.00000000000E+00 -0.00000000000E+00 -0.37725333166E+03  0.37725333166E+03  0.00000000000E+00 0. -1.
         21    1    1    2  503  501  0.90528076031E+02 -0.10102325374E+02  0.20019407411E+03  0.21994330369E+03  0.00000000000E+00 0. -1.
         21    1    1    2  504  502 -0.45564120224E+02 -0.72535056555E+01 -0.23281624768E+03  0.23734385937E+03  0.00000000000E+00 0. -1.
         21    1    1    2  505  504 -0.27965064806E+02 -0.49676453441E+02 -0.10839588102E+03  0.12247229033E+03  0.00000000000E+00 0. -1.
         21    1    1    2  506  505 -0.16998891001E+02  0.67032284470E+02  0.54027939619E+02  0.87757094961E+02  0.00000000000E+00 0. -1.
<scales pt_clust_3="83.25222" pt_clust_4="46.13786" pt_clust_5="14000.00000" pt_clust_6="69.86160"></scales>
<clustering>
<clus scale="   46.138">  2  4  1 -1</clus>
<clus scale="   69.862">  1  6  2 -1</clus>
<clus scale="   83.252">  1  3  2 -1</clus>
<clus scale="   69.862">  1  3  2 -1</clus>
</clustering>
</event>
<event>
 6    0  0.2666600E+002  0.9452697E+02  0.7546771E-02  0.1292245E+00
         21   -1    0    0  503  501  0.00000000000E+00  0.00000000000E+00  0.31700841249E+03  0.31700841249E+03  0.00000000000E+00 0. -1.
         21   -1    0    0  504  502 -0.00000000000E+00 -0.00000000000E+00 -0.17702977805E+03  0.17702977805E+03  0.00000000000E+00 0. -1.
         21    1    1    2  503  506  0.16172237888E+02  0.60428188107E+02  0.23437480232E+03  0.24257917297E+03  0.00000000000E+00 0. -1.
         21    1    1    2  504  505 -0.14304680340E+02 -0.10658519827E+03 -0.79077723962E+02  0.13348526060E+03  0.00000000000E+00 0. -1.
         21    1    1    2  505  501  0.33936655425E+02  0.24737508996E+02  0.33525338036E+02  0.53736293352E+02  0.00000000000E+00 0. -1.
         21    1    1    2  506  502 -0.35804212973E+02  0.21419501168E+02 -0.48843781949E+02  0.64237463617E+02  0.00000000000E+00 0.  1.
<scales pt_clust_3="14000.00000" pt_clust_4="94.52697" pt_clust_5="40.75473" pt_clust_6="41.72214"></scales>
<clustering>
<clus scale="   41.722">  2  6  1 -1</clus>
<clus scale="   40.755">  1  5  2 -1</clus>
<clus scale="   94.527">  2  4  1 -1</clus>
<clus scale="   40.755">  1  3  2 -1</clus>
</clustering>
</event>
<event>
 6    0  0.2666600E+002  0.1156131E+03  0.7546771E-02  0.1250515E+00
         21   -1    0    0  506  501  0.00000000000E+00  0.00000000000E+00  0.21411675374E+03  0.21411675374E+03  0.00000000000E+00 0.  1.
         21   -1    0    0  501  502 -0.00000000000E+00 -0.00000000000E+00 -0.88619383070E+03  0.88619383070E+03  0.00000000000E+00 0.  1.
         21    1    1    2  503  505 -0.60294234048E+02 -0.16173844245E+03 -0.55067790061E+02  0.18118272524E+03  0.00000000000E+00 0.  1.
         21    1    1    2  504  502  0.17745896527E+02  0.77389407315E+02 -0.50251998261E+03  0.50875374213E+03  0.00000000000E+00 0.  1.
         21    1    1    2  505  504  0.91220969048E+02 -0.10293592861E+01 -0.23662878770E+03  0.25360502349E+03  0.00000000000E+00 0.  1.
         21    1    1    2  506  503 -0.48672631527E+02  0.85378394419E+02  0.12213948341E+03  0.15676909358E+03  0.00000000000E+00 0.  1.
<scales pt_clust_3="14000.00000" pt_clust_4="79.39797" pt_clust_5="115.61306" pt_clust_6="100.96633"></scales>
<clustering>
<clus scale="   79.398">  2  4  1 -1</clus>
<clus scale="  100.966">  1  6  2 -1</clus>
<clus scale="  115.613">  2  5  1 -1</clus>
<clus scale="  100.966">  1  3  2 -1</clus>
</clustering>
</event>
<event>
 6    0  0.2666600E+002  0.1350200E+03  0.7546771E-02  0.1220192E+00
         21   -1    0    0  504  501  0.00000000000E+00  0.00000000000E+00  0.46396533830E+03  0.46396533830E+03  0.00000000000E+00 0.  1.
         21   -1    0    0  503  502 -0.00000000000E+00 -0.00000000000E+00 -0.28086136482E+03  0.28086136482E+03  0.00000000000E+00 0.  1.
         21    1    1    2  503  506 -0.85586107709E+02 -0.34968641153E+02 -0.19076089421E+03  0.21198468448E+03  0.00000000000E+00 0.  1.
         21    1    1    2  504  505  0.52428133208E+02 -0.47424225265E+01  0.55477124153E+02  0.76478173535E+02  0.00000000000E+00 0.  1.
         21    1    1    2  505  502 -0.25277178346E+02 -0.55936224555E+02 -0.44982096914E+02  0.76099842348E+02  0.00000000000E+00 0.  1.
         21    1    1    2  506  501  0.58435152848E+02  0.95647288235E+02  0.36336984045E+03  0.38026400275E+03  0.00000000000E+00 0.  1.
<scales pt_clust_3="14000.00000" pt_clust_4="52.64219" pt_clust_5="60.73842" pt_clust_6="135.01996"></scales>
<clustering>
<clus scale="   52.642">  1  4  2 -1</clus>
<clus scale="   60.738">  2  5  1 -1</clus>
<clus scale="  135.020">  1  6  2 -1</clus>
<clus scale="   52.642">  1  3  2 -1</clus>
</clustering>
</event>
<event>
 6    0  0.2666600E+002  0.7390159E+02  0.7546771E-02  0.1347307E+00
         21   -1    0    0  505  501  0.00000000000E+00  0.00000000000E+00  0.60075757205E+02  0.60075757205E+02  0.00000000000E+00 0. -1.
         21   -1    0    0  503  502 -0.00000000000E+00 -0.00000000000E+00 -0.96480316385E+03  0.96480316385E+03  0.00000000000E+00 0. -1.
         21    1    1    2  503  504 -0.12170744379E+02  0.33419136579E+02 -0.18277183526E+03  0.18620018655E+03  0.00000000000E+00 0. -1.
         21    1    1    2  504  506 -0.63787277909E+02  0.13454279394E+02 -0.57793647237E+03  0.58160158232E+03  0.00000000000E+00 0. -1.
         21    1    1    2  505  502  0.13911163176E+02 -0.85714562597E+02 -0.16009723865E+03  0.18213081158E+03  0.00000000000E+00 0. -1.
         21    1    1    2  506  501  0.62046859112E+02  0.38841146624E+02  0.16078139633E+02  0.74946340610E+02  0.00000000000E+00 0. -1.
<scales pt_clust_3="35.56636" pt_clust_4="14000.00000" pt_clust_5="73.90159" pt_clust_6="73.49288"></scales>
<clustering>
<clus scale="   35.566">  2  3  1 -1</clus>
<clus scale="   73.493">  1  6  2 -1</clus>
<clus scale="   73.902">  1  5  2 -1</clus>
<clus scale="   73.493">  1  3  2 -1</clus>
</clustering>
</event>
<event>
 6    0  0.2666600E+002  0.2503605E+03  0.7546771E-02  0.1113077E+00
         21   -1    0    0  504  501  0.00000000000E+00  0.00000000000E+00  0.60755487441E+03  0.60755487441E+03  0.00000000000E+00 0.  1.
         21   -1    0    0  506  502 -0.00000000000E+00 -0.00000000000E+00 -0.22994955833E+03  0.22994955833E+03  0.00000000000E+00 0. -1.
         21    1    1    2  503  502  0.31173955274E+02  0.28082576170E+01 -0.98247035968E+01  0.32805892748E+02  0.00000000000E+00 0. -1.
         21    1    1    2  504  503  0.20320416750E+03  0.11831115125E+03  0.46386121203E+03  0.52005450313E+03  0.00000000000E+00 0.  1.
         21    1    1    2  505  501 -0.13169112101E+03 -0.59867520409E+02 -0.37296831549E+01  0.14470861028E+03  0.00000000000E+00 0. -1.
         21    1    1    2  506  505 -0.10268700177E+03 -0.61251888458E+02 -0.72701509207E+02  0.13993542658E+03  0.00000000000E+00 0. -1.
<scales pt_clust_3="31.30019" pt_clust_4="238.96211" pt_clust_5="66.19069" pt_clust_6="66.19069"></scales>
<clustering>
<clus scale="   31.300">  2  3  1 -1</clus>
<clus scale="   66.191">  5  6 -1 -1</clus>
<clus scale="  238.962">  1  4  2 -1</clus>
<clus scale="  238.962">  1  3  2 -1</clus>
</clustering>
</event>
<event>
 6    0  0.2666600E+002  0.1914730E+03  0.7546771E-02  0.1157139E+00
         21   -1    0    0  504  501  0.00000000000E+00  0.00000000000E+00  0.44182525908E+03  0.44182525908E+03  0.00000000000E+00 0. -1.
         21   -1    0    0  506  502 -0.00000000000E+00 -0.00000000000E+00 -0.58243200051E+03  0.58243200051E+03  0.00000000000E+00 0.  1.
         21    1    1    2  503  505 -0.66214960753E+01 -0.14939468319E+03  0.15028780714E+03  0.21201188776E+03  0.00000000000E+00 0. -1.
         21    1    1    2  504  503  0.87389858746E+02 -0.36257081742E+02  0.22842474115E+03  0.24724365666E+03  0.00000000000E+00 0. -1.
         21    1    1    2  505  502 -0.67994661213E+02  0.15775828147E+03 -0.50014105482E+03  0.52882135362E+03  0.00000000000E+00 0.  1.
         21    1    1    2  506  501 -0.12773701458E+02  0.27893483470E+02 -0.19178234892E+02  0.36180361559E+02  0.00000000000E+00 0. -1.
<scales pt_clust_3="14000.00000" pt_clust_4="94.23194" pt_clust_5="191.47296" pt_clust_6="30.67921"></scales>
<clustering>
<clus scale="   30.679">  2  6  1 -1</clus>
<clus scale="   94.232">  1  4  2 -1</clus>
<clus scale="  191.473">  2  5  1 -1</clus>
<clus scale="   94.232">  1  3  2 -1</clus>
</clustering>
</event>
<event>
 6    0  0.2666600E+002  0.2203928E+03  0.7546771E-02  0.1133591E+00
         21   -1    0    0  504  501  0.00000000000E+00  0.00000000000E+00  0.76196808437E+02  0.76196808437E+02  0.00000000000E+00 0.  1.
         21   -1    0    0  506  502 -0.00000000000E+00 -0.00000000000E+00 -0.17833991334E+04  0.17833991334E+04  0.00000000000E+00 0. -1.
         21    1    1    2  503  501 -0.14479503558E+03 -0.43581973620E+01 -0.50762887407E+03  0.52789361618E+03  0.00000000000E+00 0. -1.
         21    1    1    2  504  505  0.67490178268E+02  0.41583176675E+02 -0.10735978821E+03  0.13345489451E+03  0.00000000000E+00 0. -1.
         21    1    1    2  505  502  0.15174450898E+03  0.23433984071E+02 -0.65296952957E+02  0.16685095050E+03  0.00000000000E+00 0.  1.
         21    1    1    2  506  503 -0.74439651674E+02 -0.60658963383E+02 -0.10269167097E+04  0.10313964806E+04  0.00000000000E+00 0. -1.
<scales pt_clust_3="201.22329" pt_clust_4="64.59651" pt_clust_5="64.59651" pt_clust_6="96.02485"></scales>
<clustering>
<clus scale="   64.597">  4  5 -1 -1</clus>
<clus scale="   96.025">  2  6  1 -1</clus>
<clus scale="  201.223">  2  3  1 -1</clus>
<clus scale="  220.393">  1  3  2 -1</clus>
</clustering>
</event>
<event>
 6    0  0.2666600E+002  0.1074861E+03  0.7546771E-02  0.1265297E+00
         21   -1    0    0  504  501  0.00000000000E+00  0.00000000000E+00  0.10095682207E+04  0.10095682207E+04  0.00000000000E+00 0.  1.
         21   -1    0    0  503  502 -0.00000000000E+00 -0.00000000000E+00 -0.12355057510E+03  0.12355057510E+03  0.00000000000E+00 0. -1.
         21    1    1    2  503  505  0.15751425485E+02 -0.12675410267E+03 -0.53712005864E+02  0.13856294426E+03  0.00000000000E+00 0. -1.
         21    1    1    2  504  506  0.14142701679E+02  0.10064643464E+03  0.70480559665E+03  0.71209595553E+03  0.00000000000E+00 0.  1.
         21    1    1    2  505  501 -0.61914275522E+02 -0.36699316014E+01  0.23028149268E+03  0.23848776024E+03  0.00000000000E+00 0.  1.
         21    1    1    2  506  502  0.32020148358E+02  0.29777599622E+02  0.46425621194E+01  0.43972135759E+02  0.00000000000E+00 0. -1.
<scales pt_clust_3="107.48608" pt_clust_4="14000.00000" pt_clust_5="60.70084" pt_clust_6="43.72637"></scales>
<clustering>
<clus scale="   43.726">  2  6  1 -1</clus>
<clus scale="   60.701">  1  5  2 -1</clus>
<clus scale="  107.486">  2  3  1 -1</clus>
<clus scale="   60.701">  1  3  2 -1</clus>
</clustering>
</event>
<event>
 6    0  0.2666600E+002  0.2679778E+03  0.7546771E-02  0.1102443E+00
         21   -1    0    0  505  501  0.00000000000E+00  0.00000000000E+00  0.26626776232E+03  0.26626776232E+03  0.00000000000E+00 0.  1.
         21   -1    0    0  504  502 -0.00000000000E+00 -0.00000000000E+00 -0.27093315632E+03  0.27093315632E+03  0.00000000000E+00 0. -1.
         21    1    1    2  503  502  0.44125292755E+01  0.86998670567E+02  0.10131196748E+01  0.87116390573E+02  0.00000000000E+00 0. -1.
         21    1    1    2  504  506 -0.60625156821E+02 -0.17493511356E+03  0.39933096180E+02  0.18939998882E+03  0.00000000000E+00 0.  1.
         21    1    1    2  505  503  0.96862312348E+02  0.15186560307E+03 -0.22783201175E+02  0.18156140340E+03  0.00000000000E+00 0. -1.
         21    1    1    2  506  501 -0.40649684803E+02 -0.63929160075E+02 -0.22828408682E+02  0.79123135842E+02  0.00000000000E+00 0. -1.
<scales pt_clust_3="46.13459" pt_clust_4="42.90797" pt_clust_5="267.79436" pt_clust_6="42.90797"></scales>
<clustering>
<clus scale="   42.908">  4  6 -1 -1</clus>
<clus scale="   46.135">  3  5 -1 -1</clus>
<clus scale="  267.794">  2  3  1 -1</clus>
<clus scale="  267.978">  1  3  2 -1</clus>
</clustering>
</event>
<event>
 6    0  0.2666600E+002  0.1027825E+03  0.7546771E-02  0.1274551E+00
         21   -1    0    0  506  501  0.00000000000E+00  0.00000000000E+00  0.11845647011E+03  0.11845647011E+03  0.00000000000E+00 0.  1.
         21   -1    0    0  504  502 -0.00000000000E+00 -0.00000000000E+00 -0.98825413732E+03  0.98825413732E+03  0.00000000000E+00 0.  1.
         21    1    1    2  503  505  0.12064706211E+03 -0.61681963302E+02  0.47868991533E+02  0.14370740601E+03  0.00000000000E+00 0.  1.
         21    1    1    2  504  503 -0.49594364888E+02  0.51626625866E+01 -0.20353287405E+03  0.20955162832E+03  0.00000000000E+00 0.  1.
         21    1    1    2  505  501 -0.27306270581E+02  0.15510167395E+02  0.50198440912E+01  0.31802461232E+02  0.00000000000E+00 0.  1.
         21    1    1    2  506  502 -0.43746426639E+02  0.41009133321E+02 -0.71915362879E+03  0.72164911186E+03  0.00000000000E+00 0.  1.
<scales pt_clust_3="14000.00000" pt_clust_4="50.72903" pt_clust_5="31.40378" pt_clust_6="102.78248"></scales>
<clustering>
<clus scale="   31.404">  1  5  2 -1</clus>
<clus scale="   50.729">  2  4  1 -1</clus>
<clus scale="  102.782">  2  6  1 -1</clus>
<clus scale="   31.404">  1  3  2 -1</clus>
</clustering>
</event>
<event>
 6    0  0.2666600E+002  0.7982594E+02  0.7546771E-02  0.1329546E+00
         21   -1    0    0  504  501  0.00000000000E+00  0.00000000000E+00  0.86246603218E+02  0.86246603218E+02  0.00000000000E+00 0.  1.
         21   -1    0    0  506  502 -0.00000000000E+00 -0.00000000000E+00 -0.48271420830E+03  0.48271420830E+03  0.00000000000E+00 0.  1.
         21    1    1    2  503  502 -0.31206293639E+02  0.35332616851E+02 -0.51112388797E+02  0.69532027619E+02  0.00000000000E+00 0.  1.
         21    1    1    2  504  505 -0.41511253497E+02 -0.23298063682E+02  0.12146231435E+02  0.49127536843E+02  0.00000000000E+00 0.  1.
         21    1    1    2  505  503 -0.28818186449E+02  0.62183984360E+02  0.28866318536E+01  0.68597874781E+02  0.00000000000E+00 0.  1.
         21    1    1    2  506  501  0.10153573359E+03 -0.74218537528E+02 -0.36038807958E+03  0.38170337228E+03  0.00000000000E+00 0.  1.
<scales pt_clust_3="47.14050" pt_clust_4="48.07897" pt_clust_5="14000.00000" pt_clust_6="79.82594"></scales>
<clustering>
<clus scale="   47.140">  2  3  1 -1</clus>
<clus scale="   48.079">  1  4  2 -1</clus>
<clus scale="   79.826">  2  6  1 -1</clus>
<clus scale="   48.079">  1  3  2 -1</clus>
</clustering>
</event>
<event>
 6    0  0.2666600E+002  0.2185356E+03  0.7546771E-02  0.1134980E+00
         21   -1    0    0  503  501  0.00000000000E+00  0.00000000000E+00  0.31570159327E+03  0.31570159327E+03  0.00000000000E+00 0.  1.
         21   -1    0    0  504  502 -0.00000000000E+00 -0.00000000000E+00 -0.23822715218E+03  0.23822715218E+03  0.00000000000E+00 0. -1.
         21    1    1    2  503  505  0.34274813524E+02 -0.11410016533E+03  0.84891672223E+02  0.14628809447E+03  0.00000000000E+00 0.  1.
         21    1    1    2  504  506  0.20990328360E+02  0.22205671758E+02 -0.27295841675E+02  0.40972536114E+02  0.00000000000E+00 0. -1.
         21    1    1    2  505  502  0.69658041304E+01 -0.10203105776E+03  0.10441442359E+03  0.14615481870E+03  0.00000000000E+00 0.  1.
         21    1    1    2  506  501 -0.62230946015E+02  0.19392555133E+03 -0.84535813048E+02  0.22051329617E+03  0.00000000000E+00 0. -1.
<scales pt_clust_3="33.02077" pt_clust_4="30.55627" pt_clust_5="33.02077" pt_clust_6="215.60437"></scales>
<clustering>
<clus scale="   30.556">  2  4  1 -1</clus>
<clus scale="   33.021">  3  5 -1 -1</clus>
<clus scale="  215.604">  2  6  1 -1</clus>
<clus scale="  218.536">  1  3  2 -1</clus>
</clustering>
</event>
<event>
 6    0  0.2666600E+002  0.1062867E+03  0.7546771E-02  0.1267605E+00
         21   -1    0    0  506  501  0.00000000000E+00  0.00000000000E+00  0.62517452265E+03  0.62517452265E+03  0.00000000000E+00 0.  1.
         21   -1    0    0  504  502 -0.00000000000E+00 -0.00000000000E+00 -0.34849687584E+03  0.34849687584E+03  0.00000000000E+00 0. -1.
         21    1    1    2  503  502 -0.33148525267E+02  0.25942895734E+02 -0.19676178328E+03  0.20121396057E+03  0.00000000000E+00 0. -1.
         21    1    1    2  504  501  0.80399644157E+02 -0.14785079184E+03  0.47576007182E+03  0.50464998303E+03  0.00000000000E+00 0.  1.
         21    1    1    2  505  503 -0.42430068777E+02  0.36217568457E+02 -0.11402446645E+03  0.12693936328E+03  0.00000000000E+00 0. -1.
         21    1    1    2  506  505 -0.48210501123E+01  0.85690327654E+02  0.11170382472E+03  0.14086809161E+03  0.00000000000E+00 0.  1.
<scales pt_clust_3="33.87151" pt_clust_4="98.87562" pt_clust_5="33.87151" pt_clust_6="85.82584"></scales>
<clustering>
<clus scale="   33.872">  3  5 -1 -1</clus>
<clus scale="   85.826">  1  6  2 -1</clus>
<clus scale="   98.876">  1  4  2 -1</clus>
<clus scale="   85.826">  1  3  2 -1</clus>
</clustering>
</event>
<event>
 6    0  0.2666600E+002  0.2353351E+03  0.7546771E-02  0.1122940E+00
         21   -1    0    0  503  501  0.00000000000E+00  0.00000000000E+00  0.51314044526E+03  0.51314044526E+03  0.00000000000E+00 0. -1.
         21   -1    0    0  505  502 -0.00000000000E+00 -0.00000000000E+00 -0.20534217594E+03  0.20534217594E+03  0.00000000000E+00 0. -1.
         21    1    1    2  503  502  0.23668686575E+02 -0.20945613455E+03  0.35475553479E+01  0.21081903181E+03  0.00000000000E+00 0. -1.
         21    1    1    2  504  501 -0.48982678469E+02  0.53077202593E+02  0.13181016269E+03  0.15030106857E+03  0.00000000000E+00 0. -1.
         21    1    1    2  505  506  0.83384467378E+02 -0.36904534348E+01 -0.33679806104E+02  0.90005100887E+02  0.00000000000E+00 0. -1.
         21    1    1    2  506  504 -0.58070475485E+02  0.16006938539E+03  0.20612035739E+03  0.26735741993E+03  0.00000000000E+00 0. -1.
<scales pt_clust_3="228.10713" pt_clust_4="37.69390" pt_clust_5="83.46609" pt_clust_6="37.69390"></scales>
<clustering>
<clus scale="   37.694">  4  6 -1 -1</clus>
<clus scale="   83.466">  2  5  1 -1</clus>
<clus scale="  228.107">  2  3  1 -1</clus>
<clus scale="  235.335">  1  3  2 -1</clus>
</clustering>
</event>
<event>
 6    0  0.2666600E+002  0.9474789E+02  0.7546771E-02  0.1291745E+00
         21   -1    0    0  505  501  0.00000000000E+00  0.00000000000E+00  0.13572984815E+03  0.13572984815E+03  0.00000000000E+00 0. -1.
         21   -1    0    0  504  502 -0.00000000000E+00 -0.00000000000E+00 -0.24663690072E+03  0.24663690072E+03  0.00000000000E+00 0. -1.
         21    1    1    2  503  502  0.41790922691E+02 -0.38985476166E+02 -0.63975630066E+02  0.85785953475E+02  0.00000000000E+00 0. -1.
         21    1    1    2  504  506  0.33167502431E+02  0.78036309477E+02 -0.36809011314E+01  0.84872244270E+02  0.00000000000E+00 0. -1.
         21    1    1    2  505  503 -0.63826953670E+02 -0.73246229767E+02 -0.10324041560E+03  0.14176555859E+03  0.00000000000E+00 0. -1.
         21    1    1    2  506  501 -0.11131471452E+02  0.34195396456E+02  0.59989894229E+02  0.69942992537E+02  0.00000000000E+00 0. -1.
<scales pt_clust_3="52.37169" pt_clust_4="94.74789" pt_clust_5="14000.00000" pt_clust_6="35.96157"></scales>
<clustering>
<clus scale="   35.962">  1  6  2 -1</clus>
<clus scale="   52.372">  2  3  1 -1</clus>
<clus scale="   94.748">  1  4  2 -1</clus>
<clus scale="   35.962">  1  3  2 -1</clus>
</clustering>
</event>
<event>
 6    0  0.2666600E+002  0.1273914E+03  0.7546771E-02  0.1231379E+00
         21   -1    0    0  503  501  0.00000000000E+00  0.00000000000E+00  0.11191288025E+04  0.11191288025E+04  0.00000000000E+00 0.  1.
         21   -1    0    0  506  502 -0.00000000000E+00 -0.00000000000E+00 -0.26987699452E+03  0.26987699452E+03  0.00000000000E+00 0. -1.
         21    1    1    2  503  505 -0.90355714199E+02  0.67916900210E+02  0.75162191157E+03  0.76007391639E+03  0.00000000000E+00 0.  1.
         21    1    1    2  504  501  0.10373515739E+02  0.33125159406E+02  0.34033312132E+03  0.34209869845E+03  0.00000000000E+00 0.  1.
         21    1    1    2  505  502  0.45184247183E+02 -0.85870268279E+02 -0.22482859773E+03  0.24487388086E+03  0.00000000000E+00 0. -1.
         21    1    1    2  506  504  0.34797951277E+02 -0.15171791337E+02 -0.17874627229E+02  0.41959301281E+02  0.00000000000E+00 0. -1.
<scales pt_clust_3="127.39137" pt_clust_4="34.71147" pt_clust_5="14000.00000" pt_clust_6="37.90759"></scales>
<clustering>
<clus scale="   34.711">  1  4  2 -1</clus>
<clus scale="   37.908">  2  6  1 -1</clus>
<clus scale="  127.391">  1  3  2 -1</clus>
<clus scale="   34.711">  1  3  2 -1</clus>
</clustering>
</event>
<event>
 6    0  0.2666600E+002  0.1710733E+03  0.7546771E-02  0.1176733E+00
         21   -1    0    0  506  501  0.00000000000E+00  0.00000000000E+00  0.97273862851E+03  0.97273862851E+03  0.00000000000E+00 0.  1.
         21   -1    0    0  505  502 -0.00000000000E+00 -0.00000000000E+00 -0.41517789902E+03  0.41517789902E+03  0.00000000000E+00 0.  1.
         21    1    1    2  503  501 -0.33910841472E+02 -0.62813592620E+02  0.69678527073E+03  0.70043215667E+03  0.00000000000E+00 0.  1.
         21    1    1    2  504  502  0.84187658405E+01  0.17635676902E+03 -0.35457896047E+03  0.39610456298E+03  0.00000000000E+00 0.  1.
         21    1    1    2  505  503 -0.47042280736E+02  0.15380715172E+01  0.15367377060E+02  0.49512605652E+02  0.00000000000E+00 0. -1.
         21    1    1    2  506  504  0.72534356367E+02 -0.11508124792E+03  0.19998704218E+03  0.24186720223E+03  0.00000000000E+00 0.  1.
<scales pt_clust_3="71.47914" pt_clust_4="14000.00000" pt_clust_5="47.06742" pt_clust_6="171.07329"></scales>
<clustering>
<clus scale="   47.067">  2  5  1 -1</clus>
<clus scale="   71.479">  1  3  2 -1</clus>
<clus scale="  171.073">  1  6  2 -1</clus>
<clus scale="   71.479">  1  3  2 -1</clus>
</clustering>
</event>
<event>
 6    0  0.2666600E+002  0.1111381E+03  0.7546771E-02  0.1258477E+00
         21   -1    0    0  504  501  0.00000000000E+00  0.00000000000E+00  0.24750067982E+02  0.24750067982E+02  0.00000000000E+00 0.  1.
         21   -1    0    0  503  502 -0.00000000000E+00 -0.00000000000E+00 -0.12679634057E+04  0.12679634057E+04  0.00000000000E+00 0.  1.
         21    1    1    2  503  505  0.10012031706E+03 -0.22093718807E+02 -0.99140134352E+03  0.99668893554E+03  0.00000000000E+00 0.  1.
         21    1    1    2  504  502 -0.25210561435E+02 -0.39976122330E+02 -0.74385323831E+02  0.88129672448E+02  0.00000000000E+00 0.  1.
         21    1    1    2  505  506 -0.35767228763E+02  0.58310942485E+01 -0.37820667046E+02  0.52380331894E+02  0.00000000000E+00 0.  1.
         21    1    1    2  506  501 -0.39142526858E+02  0.56238746888E+02 -0.13960600336E+03  0.15551453383E+03  0.00000000000E+00 0.  1.
<scales pt_clust_3="100.37805" pt_clust_4="47.26164" pt_clust_5="34.69456" pt_clust_6="34.69456"></scales>
<clustering>
<clus scale="   34.695">  5  6 -1 -1</clus>
<clus scale="   47.262">  1  4  2 -1</clus>
<clus scale="  100.378">  2  3  1 -1</clus>
<clus scale="   47.262">  1  3  2 -1</clus>
</clustering>
</event>
<event>
 6    0  0.2666600E+002  0.1316859E+03  0.7546771E-02  0.1224975E+00
         21   -1    0    0  506  501  0.00000000000E+00  0.00000000000E+00  0.15550421803E+02  0.15550421803E+02  0.00000000000E+00 0.  1.
         21   -1    0    0  503  502 -0.00000000000E+00 -0.00000000000E+00 -0.11768765419E+04  0.11768765419E+04  0.00000000000E+00 0.  1.
         21    1    1    2  503  504  0.34784558604E+02 -0.13272653357E+02 -0.13361227668E+03  0.13870244887E+03  0.00000000000E+00 0.  1.
         21    1    1    2  504  501  0.52944509231E+02 -0.70412225418E+02 -0.59283549072E+03  0.59934541093E+03  0.00000000000E+00 0.  1.
         21    1    1    2  505  502 -0.28736130559E+02  0.50969020337E+02 -0.13724782211E+03  0.14919976845E+03  0.00000000000E+00 0.  1.
         21    1    1    2  506  505 -0.58992937276E+02  0.32715858439E+02 -0.29763053058E+03  0.30517933543E+03  0.00000000000E+00 0.  1.
<scales pt_clust_3="31.10064" pt_clust_4="130.33911" pt_clust_5="47.86776" pt_clust_6="47.86776"></scales>
<clustering>
<clus scale="   31.101">  3  4 -1 -1</clus>
<clus scale="   47.868">  5  6 -1 -1</clus>
<clus scale="  130.339">  2  3  1 -1</clus>
<clus scale="  131.686">  1  3  2 -1</clus>
</clustering>
</event>
<event>
 6    0  0.2666600E+002  0.1629515E+03  0.7546771E-02  0.1185404E+00
         21   -1    0    0  506  501  0.00000000000E+00  0.00000000000E+00  0.39645491358E+03  0.39645491358E+03  0.00000000000E+00 0. -1.
         21   -1    0    0  505  502 -0.00000000000E+00 -0.00000000000E+00 -0.21474190373E+03  0.21474190373E+03  0.00000000000E+00 0.  1.
         21    1    1    2  503  501  0.38705397735E+02  0.15293701612E+02  0.21585049629E+02  0.46881974044E+02  0.00000000000E+00 0. -1.
         21    1    1    2  504  503 -0.25649667748E+01 -0.13847083873E+03 -0.13399883082E+03  0.19270817028E+03  0.00000000000E+00 0.  1.
         21    1    1    2  505  504 -0.30006677951E+02 -0.30304548244E+02  0.33827301937E+01  0.42780944701E+02  0.00000000000E+00 0. -1.
         21    1    1    2  506  502 -0.61337530095E+01  0.15348168536E+03  0.29074406085E+03  0.32882572829E+03  0.00000000000E+00 0. -1.
<scales pt_clust_3="41.61737" pt_clust_4="14000.00000" pt_clust_5="40.23324" pt_clust_6="162.95149"></scales>
<clustering>
<clus scale="   41.617">  1  3  2 -1</clus>
<clus scale="   40.233">  2  5  1 -1</clus>
<clus scale="  162.951">  1  6  2 -1</clus>
<clus scale="   41.617">  1  3  2 -1</clus>
</clustering>
</event>
<event>
 6    0  0.2666600E+002  0.9639155E+02  0.7546771E-02  0.1288072E+00
         21   -1    0    0  503  501  0.00000000000E+00  0.00000000000E+00  0.37897206147E+03  0.37897206147E+03  0.00000000000E+00 0.  1.
         21   -1    0    0  505  502 -0.00000000000E+00 -0.00000000000E+00 -0.27175741388E+04  0.27175741388E+04  0.00000000000E+00 0. -1.
         21    1    1    2  503  502  0.94151729434E+02 -0.47937393844E+01  0.22458767870E+03  0.24357165992E+03  0.00000000000E+00 0.  1.
         21    1    1    2  504  501 -0.10443859177E+03  0.99645192543E+02  0.10447612109E+03  0.17819047036E+03  0.00000000000E+00 0.  1.
         21    1    1    2  505  506  0.25059237174E+02  0.17500321244E+02 -0.17336119431E+04  0.17338813673E+04  0.00000000000E+00 0. -1.
         21    1    1    2  506  504 -0.14772374836E+02 -0.11235177440E+03 -0.93405393397E+03  0.94090270264E+03  0.00000000000E+00 0. -1.
<scales pt_clust_3="94.50673" pt_clust_4="96.39155" pt_clust_5="30.56512" pt_clust_6="14000.00000"></scales>
<clustering>
<clus scale="   30.565">  2  5  1 -1</clus>
<clus scale="   94.507">  1  3  2 -1</clus>
<clus scale="   96.392">  1  4  2 -1</clus>
<clus scale="   94.507">  1  3  2 -1</clus>
</clustering>
</event>
<event>
 6    0  0.2666600E+002  0.6408122E+02  0.7546771E-02  0.1381461E+00
         21   -1    0    0  505  501  0.00000000000E+00  0.00000000000E+00  0.86360863035E+02  0.86360863035E+02  0.00000000000E+00 0. -1.
         21   -1    0    0  506  502 -0.00000000000E+00 -0.00000000000E+00 -0.28353303007E+03  0.28353303007E+03  0.00000000000E+00 0. -1.
         21    1    1    2  503  501  0.54733231838E+01 -0.75971450947E+02 -0.33168160681E+01  0.76240539705E+02  0.00000000000E+00 0. -1.
         21    1    1    2  504  502  0.54631886242E+02  0.15295200524E+02 -0.10188349716E+03  0.11661403495E+03  0.00000000000E+00 0. -1.
         21    1    1    2  505  504  0.33751375830E+02  0.43604740968E+02 -0.25393498133E+02  0.60707154049E+02  0.00000000000E+00 0.  1.
         21    1    1    2  506  503 -0.93856585256E+02  0.17071509455E+02 -0.66578355680E+02  0.11633216441E+03  0.00000000000E+00 0. -1.
<scales pt_clust_3="57.77449" pt_clust_4="64.08122" pt_clust_5="55.14099" pt_clust_6="14000.00000"></scales>
<clustering>
<clus scale="   55.141">  1  5  2 -1</clus>
<clus scale="   57.774">  1  3  2 -1</clus>
<clus scale="   64.081">  2  4  1 -1</clus>
<clus scale="   55.141">  1  3  2 -1</clus>
</clustering>
</event>
<event>
 6    0  0.2666600E+002  0.1173510E+03  0.7546771E-02  0.1247532E+00
         21   -1    0    0  505  501  0.00000000000E+00  0.00000000000E+00  0.33718110329E+03  0.33718110329E+03  0.00000000000E+00 0. -1.
         21   -1    0    0  504  502 -0.00000000000E+00 -0.00000000000E+00 -0.21469366383E+03  0.21469366383E+03  0.00000000000E+00 0. -1.
         21    1    1    2  503  506  0.56874068017E+02 -0.23749588846E+02 -0.60313166218E+02  0.86234451366E+02  0.00000000000E+00 0. -1.
         21    1    1    2  504  503  0.55826862394E+02 -0.14233474931E+02 -0.11102733982E+03  0.12508517322E+03  0.00000000000E+00 0. -1.
         21    1    1    2  505  502 -0.54838970230E+02  0.70228129333E+02  0.91742933659E+02  0.12789084675E+03  0.00000000000E+00 0. -1.
         21    1    1    2  506  501 -0.57861960181E+02 -0.32245065555E+02  0.20208501184E+03  0.21266429578E+03  0.00000000000E+00 0. -1.
<scales pt_clust_3="32.84668" pt_clust_4="32.84668" pt_clust_5="112.32563" pt_clust_6="66.24010"></scales>
<clustering>
<clus scale="   32.847">  3  4 -1 -1</clus>
<clus scale="   66.240">  1  6  2 -1</clus>
<clus scale="  112.326">  1  5  2 -1</clus>
<clus scale="   66.240">  1  3  2 -1</clus>
</clustering>
</event>
<event>
 6    0  0.2666600E+002  0.2414682E+03  0.7546771E-02  0.1118819E+00
         21   -1    0    0  504  501  0.00000000000E+00  0.00000000000E+00  0.18038009249E+03  0.18038009249E+03  0.00000000000E+00 0.  1.
         21   -1    0    0  505  502 -0.00000000000E+00 -0.00000000000E+00 -0.10217812291E+04  0.10217812291E+04  0.00000000000E+00 0. -1.
         21    1    1    2  503  501  0.16264828134E+03 -0.66364826140E+00 -0.61395641145E+03  0.63513571700E+03  0.00000000000E+00 0. -1.
         21    1    1    2  504  506 -0.50161255630E+02 -0.38894906068E+02  0.16416922952E+02  0.65562799236E+02  0.00000000000E+00 0.  1.
         21    1    1    2  505  503  0.68691661404E+02 -0.46949981981E+02 -0.28467440049E+03  0.29658448956E+03  0.00000000000E+00 0. -1.
         21    1    1    2  506  502 -0.18117868711E+03  0.86508536311E+02  0.40812752391E+02  0.20487831578E+03  0.00000000000E+00 0.  1.
<scales pt_clust_3="49.44902" pt_clust_4="63.47413" pt_clust_5="49.44902" pt_clust_6="231.35882"></scales>
<clustering>
<clus scale="   49.449">  3  5 -1 -1</clus>
<clus scale="   63.474">  1  4  2 -1</clus>
<clus scale="  231.359">  1  6  2 -1</clus>
<clus scale="   63.474">  1  3  2 -1</clus>
</clustering>
</event>
<event>
 6    0  0.2666600E+002  0.1328574E+03  0.7546771E-02  0.1223276E+00
         21   -1    0    0  504  501  0.00000000000E+00  0.00000000000E+00  0.13017892668E+03  0.13017892668E+03  0.00000000000E+00 0.  1.
         21   -1    0    0  503  502 -0.00000000000E+00 -0.00000000000E+00 -0.52341125700E+03  0.52341125700E+03  0.00000000000E+00 0.  1.
         21    1    1    2  503  505  0.64231678696E+02 -0.50941608369E+02 -0.41331408958E+03  0.42136598422E+03  0.00000000000E+00 0.  1.
         21    1    1    2  504  502  0.14096950872E+02 -0.50670393795E+02 -0.55003619053E+02  0.76102634252E+02  0.00000000000E+00 0.  1.
         21    1    1    2  505  506 -0.39357458232E+02  0.86415976255E+02  0.54776068161E+02  0.10962275363E+03  0.00000000000E+00 0.  1.
         21    1    1    2  506  501 -0.38971171337E+02  0.15196025909E+02  0.20309310157E+02  0.46498811574E+02  0.00000000000E+00 0. -1.
<scales pt_clust_3="123.99732" pt_clust_4="52.59480" pt_clust_5="31.66210" pt_clust_6="31.66210"></scales>
<clustering>
<clus scale="   31.662">  5  6 -1 -1</clus>
<clus scale="   52.595">  2  4  1 -1</clus>
<clus scale="  123.997">  2  3  1 -1</clus>
<clus scale="  132.857">  1  3  2 -1</clus>
</clustering>
</event>
<event>
 6    0  0.2666600E+002  0.3298313E+03  0.7546771E-02  0.1071212E+00
         21   -1    0    0  505  501  0.00000000000E+00  0.00000000000E+00  0.24558942821E+03  0.24558942821E+03  0.00000000000E+00 0.  1.
         21   -1    0    0  501  502 -0.00000000000E+00 -0.00000000000E+00 -0.61195627636E+03  0.61195627636E+03  0.00000000000E+00 0.  1.
         21    1    1    2  503  506 -0.44766171346E+01 -0.25658838762E+03  0.67750506412E+02  0.26541999149E+03  0.00000000000E+00 0.  1.
         21    1    1    2  504  502 -0.14687638338E+02  0.12013160060E+03 -0.93277042985E+02  0.15280031063E+03  0.00000000000E+00 0.  1.
         21    1    1    2  505  503 -0.23116662669E+01 -0.59686347109E+02 -0.20611452134E+02  0.63187307201E+02  0.00000000000E+00 0.  1.
         21    1    1    2  506  504  0.21475921739E+02  0.19614313413E+03 -0.32022885944E+03  0.37613809525E+03  0.00000000000E+00 0.  1.
<scales pt_clust_3="325.20865" pt_clust_4="73.10397" pt_clust_5="36.37552" pt_clust_6="73.10397"></scales>
<clustering>
<clus scale="   36.376">  3  5 -1 -1</clus>
<clus scale="   73.104">  4  6 -1 -1</clus>
<clus scale="  325.209">  1  3  2 -1</clus>
<clus scale="  325.209">  1  3  2 -1</clus>
</clustering>
</event>
<event>
 6    0  0.4859292E+002  0.9831413E+02  0.7546771E-02  0.1283882E+00
         21   -1    0    0  504  501  0.00000000000E+00  0.00000000000E+00  0.80499389319E+03  0.80499389319E+03  0.00000000000E+00 0.  1.
         21   -1    0    0  503  502 -0.00000000000E+00 -0.00000000000E+00 -0.10995528145E+04  0.10995528145E+04  0.00000000000E+00 0.  1.
         21    1    1    2  503  505 -0.78490718852E+02  0.59632007505E+02 -0.10443504443E+04  0.10489921924E+04  0.00000000000E+00 0.  1.
         21    1    1    2  504  506  0.40942264655E+02 -0.56913760198E+02  0.67889763057E+03  0.68250819624E+03  0.00000000000E+00 0.  1.
         21    1    1    2  505  501 -0.49778300166E+02  0.27427634866E+02  0.39463982312E+00  0.56835816721E+02  0.00000000000E+00 0. -1.
         21    1    1    2  506  502  0.87326754363E+02 -0.30145882174E+02  0.70499252565E+02  0.11621050233E+03  0.00000000000E+00 0. -1.
<scales pt_clust_3="14000.00000" pt_clust_4="32.97698" pt_clust_5="56.83445" pt_clust_6="98.31413"></scales>
<clustering>
<clus scale="   56.834">  1  5  2 -1</clus>
<clus scale="   32.977">  1  4  2 -1</clus>
<clus scale="   98.314">  1  6  2 -1</clus>
<clus scale="   56.834">  1  3  2 -1</clus>
</clustering>
</event>
<event>
 6    0  0.2666600E+002  0.1785087E+03  0.7546771E-02  0.1169254E+00
         21   -1    0    0  505  501  0.00000000000E+00  0.00000000000E+00  0.19154107069E+03  0.19154107069E+03  0.00000000000E+00 0. -1.
         21   -1    0    0  506  502 -0.00000000000E+00 -0.00000000000E+00 -0.23781722744E+03  0.23781722744E+03  0.00000000000E+00 0. -1.
         21    1    1    2  503  504 -0.48817013474E+02  0.28163765801E+02 -0.21391600412E+02  0.60281830403E+02  0.00000000000E+00 0. -1.
         21    1    1    2  504  502 -0.17893768950E+02  0.35501155172E+02 -0.64123439000E+02  0.75447560696E+02  0.00000000000E+00 0.  1.
         21    1    1    2  505  503 -0.91671108415E+02  0.40679148165E+02  0.25414818552E+02  0.10346157845E+03  0.00000000000E+00 0. -1.
         21    1    1    2  506  501  0.15838189084E+03 -0.10434406914E+03  0.13824064111E+02  0.19016732858E+03  0.00000000000E+00 0. -1.
<scales pt_clust_3="36.10286" pt_clust_4="39.75574" pt_clust_5="36.10286" pt_clust_6="171.88919"></scales>
<clustering>
<clus scale="   36.103">  3  5 -1 -1</clus>
<clus scale="   39.756">  2  4  1 -1</clus>
<clus scale="  171.889">  2  6  1 -1</clus>
<clus scale="  178.509">  1  3  2 -1</clus>
</clustering>
</event>
<event>
 6    0  0.2666600E+002  0.7445088E+02  0.7546771E-02  0.1345580E+00
         21   -1    0    0  504  501  0.00000000000E+00  0.00000000000E+00  0.65606222478E+03  0.65606222478E+03  0.00000000000E+00 0. -1.
         21   -1    0    0  506  502 -0.00000000000E+00 -0.00000000000E+00 -0.55344829444E+02  0.55344829444E+02  0.00000000000E+00 0. -1.
         21    1    1    2  503  502 -0.72117770107E+02  0.26221987349E+01  0.44026086276E+02  0.84534874248E+02  0.00000000000E+00 0. -1.
         21    1    1    2  504  503 -0.32375479518E+02 -0.36890118932E+01  0.13835818561E+03  0.14214347684E+03  0.00000000000E+00 0. -1.
         21    1    1    2  505  501  0.37558374414E+02 -0.53871694490E+02  0.38716663461E+03  0.39269682187E+03  0.00000000000E+00 0. -1.
         21    1    1    2  506  505  0.66934875210E+02  0.54938507648E+02  0.31166488841E+02  0.92031881262E+02  0.00000000000E+00 0. -1.
<scales pt_clust_3="74.45088" pt_clust_4="32.58497" pt_clust_5="58.15146" pt_clust_6="14000.00000"></scales>
<clustering>
<clus scale="   32.585">  1  4  2 -1</clus>
<clus scale="   58.151">  1  5  2 -1</clus>
<clus scale="   74.451">  1  3  2 -1</clus>
<clus scale="   32.585">  1  3  2 -1</clus>
</clustering>
</event>
<event>
 6    0  0.2666600E+002  0.1886106E+03  0.7546771E-02  0.1159721E+00
         21   -1    0    0  505  501  0.00000000000E+00  0.00000000000E+00  0.98310759762E+03  0.98310759762E+03  0.00000000000E+00 0. -1.
         21   -1    0    0  506  502 -0.00000000000E+00 -0.00000000000E+00 -0.26002844484E+03  0.26002844484E+03  0.00000000000E+00 0.  1.
         21    1    1    2  503  502  0.76340865853E+02 -0.75367036534E+02 -0.15507664249E+03  0.18856532831E+03  0.00000000000E+00 0.  1.
         21    1    1    2  504  501 -0.73691418229E+02  0.13151346882E+03  0.85285952255E+03  0.86608058678E+03  0.00000000000E+00 0. -1.
         21    1    1    2  505  503  0.26957817795E+02 -0.67020567224E+02 -0.62297250354E+02  0.95390920810E+02  0.00000000000E+00 0.  1.
         21    1    1    2  506  504 -0.29607265420E+02  0.10874134936E+02  0.87593523074E+02  0.93099206552E+02  0.00000000000E+00 0.  1.
<scales pt_clust_3="182.70124" pt_clust_4="31.12106" pt_clust_5="40.49254" pt_clust_6="31.12106"></scales>
<clustering>
<clus scale="   31.121">  4  6 -1 -1</clus>
<clus scale="   40.493">  3  5 -1 -1</clus>
<clus scale="  182.701">  2  3  1 -1</clus>
<clus scale="  188.611">  1  3  2 -1</clus>
</clustering>
</event>
<event>
 6    0  0.2666600E+002  0.3173723E+03  0.7546771E-02  0.1076865E+00
         21   -1    0    0  504  501  0.00000000000E+00  0.00000000000E+00  0.31108099963E+03  0.31108099963E+03  0.00000000000E+00 0. -1.
         21   -1    0    0  501  502 -0.00000000000E+00 -0.00000000000E+00 -0.70849811967E+03  0.70849811967E+03  0.00000000000E+00 0. -1.
         21    1    1    2  503  502  0.20047981720E+03 -0.14596187184E+03 -0.45956073297E+03  0.52220024169E+03  0.00000000000E+00 0. -1.
         21    1    1    2  504  506 -0.58703516420E+02 -0.93923617937E+00  0.92024320674E+02  0.10915796169E+03  0.00000000000E+00 0. -1.
         21    1    1    2  505  503  0.24886558835E+02 -0.68820515919E+02 -0.82825143962E+02  0.11052424483E+03  0.00000000000E+00 0. -1.
         21    1    1    2  506  505 -0.16666285961E+03  0.21572162394E+03  0.52944436215E+02  0.27769667109E+03  0.00000000000E+00 0. -1.
<scales pt_clust_3="52.20823" pt_clust_4="58.71103" pt_clust_5="52.20823" pt_clust_6="302.47114"></scales>
<clustering>
<clus scale="   52.208">  3  5 -1 -1</clus>
<clus scale="   58.711">  1  4  2 -1</clus>
<clus scale="  302.471">  1  6  2 -1</clus>
<clus scale="   58.711">  1  3  2 -1</clus>
</clustering>
</event>
<event>
 6    0  0.2666600E+002  0.2683117E+03  0.7546771E-02  0.1102250E+00
         21   -1    0    0  506  501  0.00000000000E+00  0.00000000000E+00  0.24321049702E+04  0.24321049702E+04  0.00000000000E+00 0.  1.
         21   -1    0    0  504  502 -0.00000000000E+00 -0.00000000000E+00 -0.74377350918E+02  0.74377350918E+02  0.00000000000E+00 0. -1.
         21    1    1    2  503  505 -0.10940317832E+03  0.19229840909E+03  0.17197369345E+04  0.17339097028E+04  0.00000000000E+00 0.  1.
         21    1    1    2  504  501  0.83632079221E+02 -0.20519031256E+03  0.39289061760E+03  0.45106587817E+03  0.00000000000E+00 0. -1.
         21    1    1    2  505  502  0.60793392897E+02 -0.29279089059E+02 -0.28819291083E+01  0.67538190614E+02  0.00000000000E+00 0. -1.
         21    1    1    2  506  503 -0.35022293793E+02  0.42170992535E+02  0.24798199622E+03  0.25396854947E+03  0.00000000000E+00 0.  1.
<scales pt_clust_3="31.11558" pt_clust_4="260.92840" pt_clust_5="67.47668" pt_clust_6="31.11558"></scales>
<clustering>
<clus scale="   31.116">  3  6 -1 -1</clus>
<clus scale="   67.477">  2  5  1 -1</clus>
<clus scale="  260.928">  2  4  1 -1</clus>
<clus scale="  268.312">  1  3  2 -1</clus>
</clustering>
</event>
<event>
 6    0  0.2666600E+002  0.1107198E+03  0.7546771E-02  0.1259243E+00
         21   -1    0    0  505  501  0.00000000000E+00  0.00000000000E+00  0.22386388805E+03  0.22386388805E+03  0.00000000000E+00 0.  1.
         21   -1    0    0  504  502 -0.00000000000E+00 -0.00000000000E+00 -0.32604187044E+03  0.32604187044E+03  0.00000000000E+00 0. -1.
         21    1    1    2  503  506 -0.99899246147E+02 -0.64657675273E+01 -0.76417670837E+02  0.12594175617E+03  0.00000000000E+00 0. -1.
         21    1    1    2  504  503 -0.36425769625E+02  0.46833959967E+02 -0.17962396707E+03  0.18916930524E+03  0.00000000000E+00 0. -1.
         21    1    1    2  505  502  0.24547466341E+02 -0.24639180615E+02 -0.96582100214E+01  0.36096375801E+02  0.00000000000E+00 0. -1.
         21    1    1    2  506  501  0.11177754943E+03 -0.15729011825E+02  0.16352186554E+03  0.19869832128E+03  0.00000000000E+00 0.  1.
<scales pt_clust_3="14000.00000" pt_clust_4="38.42260" pt_clust_5="34.78027" pt_clust_6="110.71982"></scales>
<clustering>
<clus scale="   34.780">  2  5  1 -1</clus>
<clus scale="   38.423">  2  4  1 -1</clus>
<clus scale="  110.720">  1  6  2 -1</clus>
<clus scale="  110.720">  1  3  2 -1</clus>
</clustering>
</event>
<event>
 6    0  0.2666600E+002  0.1307939E+03  0.7546771E-02  0.1226283E+00
         21   -1    0    0  504  501  0.00000000000E+00  0.00000000000E+00  0.92064310162E+03  0.92064310162E+03  0.00000000000E+00 0. -1.
         21   -1    0    0  505  502 -0.00000000000E+00 -0.00000000000E+00 -0.64354054261E+03  0.64354054261E+03  0.00000000000E+00 0. -1.
         21    1    1    2  503  501  0.73945071257E+02  0.50686697660E+02  0.29798511790E+03  0.31117863900E+03  0.00000000000E+00 0. -1.
         21    1    1    2  504  502 -0.21991732605E+02 -0.24347848360E+02 -0.25155989381E+02  0.41343413314E+02  0.00000000000E+00 0. -1.
         21    1    1    2  505  506 -0.79660240579E+02  0.10765546574E+03 -0.58837440396E+03  0.60342347689E+03  0.00000000000E+00 0. -1.
         21    1    1    2  506  503  0.27706901927E+02 -0.13399431504E+03  0.59264783445E+03  0.60823811502E+03  0.00000000000E+00 0. -1.
<scales pt_clust_3="89.30457" pt_clust_4="32.80936" pt_clust_5="130.79387" pt_clust_6="14000.00000"></scales>
<clustering>
<clus scale="   32.809">  2  4  1 -1</clus>
<clus scale="   89.305">  1  3  2 -1</clus>
<clus scale="  130.794">  2  5  1 -1</clus>
<clus scale="   89.305">  1  3  2 -1</clus>
</clustering>
</event>
<event>
 6    0  0.2666600E+002  0.1264807E+03  0.7546771E-02  0.1232773E+00
         21   -1    0    0  506  501  0.00000000000E+00  0.00000000000E+00  0.47357310292E+03  0.47357310292E+03  0.00000000000E+00 0.  1.
         21   -1    0    0  503  502 -0.00000000000E+00 -0.00000000000E+00 -0.11596664601E+04  0.11596664601E+04  0.00000000000E+00 0.  1.
         21    1    1    2  503  504 -0.52590320188E+02  0.62558479649E+02 -0.94797871720E+03  0.95149511476E+03  0.00000000000E+00 0.  1.
         21    1    1    2  504  505 -0.30328868569E+02  0.21799150852E+02 -0.19798612378E+03  0.20147840693E+03  0.00000000000E+00 0.  1.
         21    1    1    2  505  501  0.53817471859E+02 -0.14192541781E+02  0.12409787520E+03  0.13600746726E+03  0.00000000000E+00 0.  1.
         21    1    1    2  506  502  0.29101716897E+02 -0.70165088720E+02  0.33577360859E+03  0.34425857408E+03  0.00000000000E+00 0.  1.
<scales pt_clust_3="31.13193" pt_clust_4="31.13193" pt_clust_5="55.65742" pt_clust_6="117.79920"></scales>
<clustering>
<clus scale="   31.132">  3  4 -1 -1</clus>
<clus scale="   55.657">  1  5  2 -1</clus>
<clus scale="  117.799">  1  6  2 -1</clus>
<clus scale="   55.657">  1  3  2 -1</clus>
</clustering>
</event>
<event>
 6    0  0.2666600E+002  0.2908898E+03  0.7546771E-02  0.1089885E+00
         21   -1    0    0  503  501  0.00000000000E+00  0.00000000000E+00  0.20747548291E+03  0.20747548291E+03  0.00000000000E+00 0. -1.
         21   -1    0    0  506  502 -0.00000000000E+00 -0.00000000000E+00 -0.13332870892E+04  0.13332870892E+04  0.00000000000E+00 0. -1.
         21    1    1    2  503  505 -0.33565281973E+03 -0.11553449087E+03 -0.21947793160E+03  0.41735068759E+03  0.00000000000E+00 0. -1.
         21    1    1    2  504  502  0.16752006761E+02  0.56545701667E+02 -0.48769933036E+03  0.49125215821E+03  0.00000000000E+00 0. -1.
         21    1    1    2  505  504  0.71948499240E+02 -0.16882595374E+02 -0.35965357191E+03  0.36716794571E+03  0.00000000000E+00 0. -1.
         21    1    1    2  506  501  0.24695231373E+03  0.75871384579E+02 -0.58980772377E+02  0.26499178056E+03  0.00000000000E+00 0. -1.
<scales pt_clust_3="290.88981" pt_clust_4="58.97496" pt_clust_5="79.51491" pt_clust_6="14000.00000"></scales>
<clustering>
<clus scale="   58.975">  2  4  1 -1</clus>
<clus scale="   79.515">  2  5  1 -1</clus>
<clus scale="  290.890">  2  3  1 -1</clus>
<clus scale="  290.890">  1  3  2 -1</clus>
</clustering>
</event>
<event>
 6    0  0.2666600E+002  0.1145473E+03  0.7546771E-02  0.1252373E+00
         21   -1    0    0  504  501  0.00000000000E+00  0.00000000000E+00  0.11064542433E+04  0.11064542433E+04  0.00000000000E+00 0.  1.
         21   -1    0    0  506  502 -0.00000000000E+00 -0.00000000000E+00 -0.14514903943E+03  0.14514903943E+03  0.00000000000E+00 0. -1.
         21    1    1    2  503  505 -0.17967181304E+02 -0.47483834364E+02  0.24401917558E+02  0.56329279335E+02  0.00000000000E+00 0.  1.
         21    1    1    2  504  503 -0.64640678694E+02 -0.50260305698E+02  0.11607439936E+03  0.14204851938E+03  0.00000000000E+00 0.  1.
         21    1    1    2  505  502  0.56490071243E+02  0.35054742038E+01 -0.10657945988E+03  0.12067558894E+03  0.00000000000E+00 0. -1.
         21    1    1    2  506  501  0.26117788755E+02  0.94238665858E+02  0.92740834687E+03  0.93254989511E+03  0.00000000000E+00 0.  1.
<scales pt_clust_3="44.83610" pt_clust_4="44.83610" pt_clust_5="56.59873" pt_clust_6="99.39272"></scales>
<clustering>
<clus scale="   44.836">  3  4 -1 -1</clus>
<clus scale="   56.599">  2  5  1 -1</clus>
<clus scale="   99.393">  1  6  2 -1</clus>
<clus scale="   99.393">  1  3  2 -1</clus>
</clustering>
</event>
<event>
 6    0  0.2666600E+002  0.1533764E+03  0.7546771E-02  0.1196384E+00
         21   -1    0    0  504  501  0.00000000000E+00  0.00000000000E+00  0.16589373638E+02  0.16589373638E+02  0.00000000000E+00 0. -1.
         21   -1    0    0  505  502 -0.00000000000E+00 -0.00000000000E+00 -0.17784638994E+04  0.17784638994E+04  0.00000000000E+00 0.  1.
         21    1    1    2  503  501 -0.61636919537E+02 -0.12240317457E+02 -0.43672223828E+03  0.44122018157E+03  0.00000000000E+00 0.  1.
         21    1    1    2  504  506  0.78164310995E+00 -0.39646258922E+02 -0.18587597581E+03  0.19005871513E+03  0.00000000000E+00 0. -1.
         21    1    1    2  505  503 -0.84511011669E+02  0.32486649532E+02 -0.46524770045E+03  0.47397564945E+03  0.00000000000E+00 0. -1.
         21    1    1    2  506  502  0.14536628810E+03  0.19399926847E+02 -0.67402861124E+03  0.68979872691E+03  0.00000000000E+00 0. -1.
<scales pt_clust_3="39.64483" pt_clust_4="39.65396" pt_clust_5="39.64483" pt_clust_6="145.80744"></scales>
<clustering>
<clus scale="   39.645">  3  5 -1 -1</clus>
<clus scale="   39.654">  1  4  2 -1</clus>
<clus scale="  145.807">  1  6  2 -1</clus>
<clus scale="   39.654">  1  3  2 -1</clus>
</clustering>
</event>
<event>
 6    0  0.2666600E+002  0.2308709E+03  0.7546771E-02  0.1126028E+00
         21   -1    0    0  505  501  0.00000000000E+00  0.00000000000E+00  0.29933760380E+03  0.29933760380E+03  0.00000000000E+00 0. -1.
         21   -1    0    0  504  502 -0.00000000000E+00 -0.00000000000E+00 -0.27808292625E+03  0.27808292625E+03  0.00000000000E+00 0.  1.
         21    1    1    2  503  506 -0.10460286642E+03  0.35673409911E+01  0.44934181718E+02  0.11390156395E+03  0.00000000000E+00 0. -1.
         21    1    1    2  504  503  0.10256695028E+02  0.45166174704E+02 -0.32315930068E+02  0.56475680310E+02  0.00000000000E+00 0. -1.
         21    1    1    2  505  502  0.17268209701E+03 -0.13725032219E+03 -0.10390857930E+03  0.24383139753E+03  0.00000000000E+00 0.  1.
         21    1    1    2  506  501 -0.78335925619E+02  0.88516806495E+02  0.11254500520E+03  0.16321188826E+03  0.00000000000E+00 0. -1.
<scales pt_clust_3="92.66535" pt_clust_4="46.31612" pt_clust_5="207.97903" pt_clust_6="92.66535"></scales>
<clustering>
<clus scale="   46.316">  2  4  1 -1</clus>
<clus scale="   92.665">  3  6 -1 -1</clus>
<clus scale="  207.979">  2  5  1 -1</clus>
<clus scale="  230.871">  1  3  2 -1</clus>
</clustering>
</event>
<event>
 6    0  0.2666600E+002  0.1071805E+03  0.7546771E-02  0.1265882E+00
         21   -1    0    0  506  501  0.00000000000E+00  0.00000000000E+00  0.80225429271E+03  0.80225429271E+03  0.00000000000E+00 0. -1.
         21   -1    0    0  504  502 -0.00000000000E+00 -0.00000000000E+00 -0.31697148068E+03  0.31697148068E+03  0.00000000000E+00 0. -1.
         21    1    1    2  503  502  0.30487147451E+01 -0.38296967260E+02 -0.11872243600E+03  0.12478368953E+03  0.00000000000E+00 0. -1.
         21    1    1    2  504  505  0.91184868245E+02 -0.21157876273E+02 -0.17672951674E+03  0.19998914474E+03  0.00000000000E+00 0. -1.
         21    1    1    2  505  501 -0.72897842867E+02  0.92707934604E+01  0.24058461315E+03  0.25155714895E+03  0.00000000000E+00 0.  1.
         21    1    1    2  506  503 -0.21335740123E+02  0.50184050073E+02  0.54015015163E+03  0.54289579017E+03  0.00000000000E+00 0. -1.
<scales pt_clust_3="38.41813" pt_clust_4="107.18049" pt_clust_5="14000.00000" pt_clust_6="54.27504"></scales>
<clustering>
<clus scale="   38.418">  2  3  1 -1</clus>
<clus scale="   54.275">  1  6  2 -1</clus>
<clus scale="  107.180">  2  4  1 -1</clus>
<clus scale="   54.275">  1  3  2 -1</clus>
</clustering>
</event>
<event>
 6    0  0.2666600E+002  0.1608582E+03  0.7546771E-02  0.1187731E+00
         21   -1    0    0  506  501  0.00000000000E+00  0.00000000000E+00  0.14480222497E+02  0.14480222497E+02  0.00000000000E+00 0. -1.
         21   -1    0    0  505  502 -0.00000000000E+00 -0.00000000000E+00 -0.17687434598E+04  0.17687434598E+04  0.00000000000E+00 0. -1.
         21    1    1    2  503  501 -0.10643449173E+03 -0.60491705943E+02 -0.71026561280E+03  0.72073905697E+03  0.00000000000E+00 0. -1.
         21    1    1    2  504  502  0.99803502060E+02  0.60845883116E+02 -0.68212798836E+03  0.69207048269E+03  0.00000000000E+00 0. -1.
         21    1    1    2  505  503 -0.39935421599E+01 -0.38199871820E+02 -0.21340747943E+03  0.21683618439E+03  0.00000000000E+00 0. -1.
         21    1    1    2  506  504  0.10624531827E+02  0.37845694647E+02 -0.14846215673E+03  0.15357795825E+03  0.00000000000E+00 0. -1.
<scales pt_clust_3="35.16254" pt_clust_4="158.87510" pt_clust_5="35.16254" pt_clust_6="33.34802"></scales>
<clustering>
<clus scale="   33.348">  4  6 -1 -1</clus>
<clus scale="   35.163">  3  5 -1 -1</clus>
<clus scale="  158.875">  1  4  2 -1</clus>
<clus scale="  158.875">  1  3  2 -1</clus>
</clustering>
</event>
<event>
 6    0  0.2666600E+002  0.1508436E+03  0.7546771E-02  0.1199440E+00
         21   -1    0    0  504  501  0.00000000000E+00  0.00000000000E+00  0.40306262064E+03  0.40306262064E+03  0.00000000000E+00 0.  1.
         21   -1    0    0  505  502 -0.00000000000E+00 -0.00000000000E+00 -0.61671499819E+03  0.61671499819E+03  0.00000000000E+00 0. -1.
         21    1    1    2  503  502 -0.35460106820E+02  0.14907777569E+02 -0.55142359410E+02  0.67233479823E+02  0.00000000000E+00 0.  1.
         21    1    1    2  504  503  0.35197902385E+02  0.20166265222E+02  0.57181989928E+02  0.70109561098E+02  0.00000000000E+00 0. -1.
         21    1    1    2  505  506 -0.11533012841E+03  0.14485366874E+02 -0.53068293995E+03  0.54326351537E+03  0.00000000000E+00 0. -1.
         21    1    1    2  506  501  0.11559233284E+03 -0.49559409665E+02  0.31499093188E+03  0.33917106254E+03  0.00000000000E+00 0.  1.
<scales pt_clust_3="38.46636" pt_clust_4="40.29544" pt_clust_5="14000.00000" pt_clust_6="150.84355"></scales>
<clustering>
<clus scale="   38.466">  2  3  1 -1</clus>
<clus scale="   40.295">  1  4  2 -1</clus>
<clus scale="  150.844">  1  6  2 -1</clus>
<clus scale="   40.295">  1  3  2 -1</clus>
</clustering>
</event>
<event>
 6    0  0.2666600E+002  0.8642628E+02  0.7546771E-02  0.1311744E+00
         21   -1    0    0  506  501  0.00000000000E+00  0.00000000000E+00  0.40854119473E+02  0.40854119473E+02  0.00000000000E+00 0.  1.
         21   -1    0    0  503  502 -0.00000000000E+00 -0.00000000000E+00 -0.42962384100E+03  0.42962384100E+03  0.00000000000E+00 0.  1.
         21    1    1    2  503  505 -0.27638799667E+02  0.26589939738E+02 -0.77424185650E+02  0.86402735292E+02  0.00000000000E+00 0.  1.
         21    1    1    2  504  502  0.21697070542E+02  0.87661274842E+02 -0.16986675519E+03  0.19237977153E+03  0.00000000000E+00 0.  1.
         21    1    1    2  505  501  0.27196843239E+02 -0.84161624352E+02 -0.11992770198E+03  0.14901510325E+03  0.00000000000E+00 0.  1.
         21    1    1    2  506  504 -0.21255114114E+02 -0.30089590229E+02 -0.21551078710E+02  0.42680350394E+02  0.00000000000E+00 0.  1.
<scales pt_clust_3="37.91723" pt_clust_4="86.42628" pt_clust_5="14000.00000" pt_clust_6="36.83970"></scales>
<clustering>
<clus scale="   36.840">  1  6  2 -1</clus>
<clus scale="   37.917">  2  3  1 -1</clus>
<clus scale="   86.426">  1  4  2 -1</clus>
<clus scale="   36.840">  1  3  2 -1</clus>
</clustering>
</event>
<event>
 6    0  0.2666600E+002  0.1743008E+03  0.7546771E-02  0.1173436E+00
         21   -1    0    0  505  501  0.00000000000E+00  0.00000000000E+00  0.25749801963E+03  0.25749801963E+03  0.00000000000E+00 0.  1.
         21   -1    0    0  504  502 -0.00000000000E+00 -0.00000000000E+00 -0.63056086871E+03  0.63056086871E+03  0.00000000000E+00 0. -1.
         21    1    1    2  503  501  0.12606244303E+03 -0.18297252217E+02  0.14549543423E+03  0.19337903290E+03  0.00000000000E+00 0.  1.
         21    1    1    2  504  506 -0.51995059331E+02 -0.66909736039E+01 -0.19816124263E+03  0.20497837301E+03  0.00000000000E+00 0. -1.
         21    1    1    2  505  502  0.26331688224E+02  0.10058945178E+03  0.37378564576E+02  0.11049322469E+03  0.00000000000E+00 0.  1.
         21    1    1    2  506  503 -0.10039907193E+03 -0.75601225954E+02 -0.35777560526E+03  0.37920825773E+03  0.00000000000E+00 0. -1.
<scales pt_clust_3="167.83477" pt_clust_4="30.37730" pt_clust_5="103.97882" pt_clust_6="30.37730"></scales>
<clustering>
<clus scale="   30.377">  4  6 -1 -1</clus>
<clus scale="  103.979">  1  5  2 -1</clus>
<clus scale="  167.835">  1  3  2 -1</clus>
<clus scale="  103.979">  1  3  2 -1</clus>
</clustering>
</event>
<event>
 6    0  0.2666600E+002  0.9026191E+02  0.7546771E-02  0.1302219E+00
         21   -1    0    0  502  501  0.00000000000E+00  0.00000000000E+00  0.10836691759E+04  0.10836691759E+04  0.00000000000E+00 0.  1.
         21   -1    0    0  505  502 -0.00000000000E+00 -0.00000000000E+00 -0.34771604436E+02  0.34771604436E+02  0.00000000000E+00 0.  1.
         21    1    1    2  503  504  0.70917376637E+02 -0.21077086436E+02  0.16356437242E+03  0.17951830493E+03  0.00000000000E+00 0.  1.
         21    1    1    2  504  501 -0.87475506770E+02  0.41646803445E+02  0.75064895215E+03  0.75687533312E+03  0.00000000000E+00 0.  1.
         21    1    1    2  505  506 -0.47705372110E+02 -0.87072521597E+01  0.91984478616E+02  0.10398443669E+03  0.00000000000E+00 0. -1.
         21    1    1    2  506  503  0.64263502243E+02 -0.11862464850E+02  0.42699768283E+02  0.78062705591E+02  0.00000000000E+00 0.  1.
<scales pt_clust_3="90.26191" pt_clust_4="14000.00000" pt_clust_5="48.49349" pt_clust_6="38.95579"></scales>
<clustering>
<clus scale="   48.493">  2  5  1 -1</clus>
<clus scale="   38.956">  2  6  1 -1</clus>
<clus scale="   90.262">  2  3  1 -1</clus>
<clus scale="   90.262">  1  3  2 -1</clus>
</clustering>
</event>
<event>
 6    0  0.2666600E+002  0.1945430E+03  0.7546771E-02  0.1154426E+00
         21   -1    0    0  502  501  0.00000000000E+00  0.00000000000E+00  0.13106951390E+04  0.13106951390E+04  0.00000000000E+00 0.  1.
         21   -1    0    0  504  502 -0.00000000000E+00 -0.00000000000E+00 -0.25213043695E+03  0.25213043695E+03  0.00000000000E+00 0.  1.
         21    1    1    2  503  506 -0.31856120566E+02 -0.92238559597E+02  0.45947927940E+03  0.46972755134E+03  0.00000000000E+00 0.  1.
         21    1    1    2  504  505 -0.14700261803E+02  0.10703015537E+03 -0.14641941016E+03  0.18196207167E+03  0.00000000000E+00 0.  1.
         21    1    1    2  505  503  0.18637776357E+02  0.66672473685E+02 -0.65659331060E+02  0.95413485473E+02  0.00000000000E+00 0. -1.
         21    1    1    2  506  501  0.27918606012E+02 -0.81464069458E+02  0.81116416388E+03  0.81572246748E+03  0.00000000000E+00 0.  1.
<scales pt_clust_3="82.21141" pt_clust_4="178.77306" pt_clust_5="33.69422" pt_clust_6="82.21141"></scales>
<clustering>
<clus scale="   33.694">  4  5 -1 -1</clus>
<clus scale="   82.211">  3  6 -1 -1</clus>
<clus scale="  178.773">  2  4  1 -1</clus>
<clus scale="  194.543">  1  3  2 -1</clus>
</clustering>
</event>
<event>
 6    0  0.2666600E+002  0.1183872E+03  0.7546771E-02  0.1245782E+00
         21   -1    0    0  503  501  0.00000000000E+00  0.00000000000E+00  0.58393990728E+03  0.58393990728E+03  0.00000000000E+00 0.  1.
         21   -1    0    0  506  502 -0.00000000000E+00 -0.00000000000E+00 -0.17349776690E+03  0.17349776690E+03  0.00000000000E+00 0. -1.
         21    1    1    2  503  504 -0.11166522465E+03 -0.62737019058E+02  0.48974210236E+03  0.50621377182E+03  0.00000000000E+00 0.  1.
         21    1    1    2  504  505  0.35406492966E+02  0.53646342283E+02  0.42613902174E+02  0.77120000279E+02  0.00000000000E+00 0. -1.
         21    1    1    2  505  502  0.22950880350E+02 -0.27715581271E+02 -0.99088744676E+02  0.10542047086E+03  0.00000000000E+00 0. -1.
         21    1    1    2  506  501  0.53307851337E+02  0.36806258045E+02 -0.22825119476E+02  0.68683431223E+02  0.00000000000E+00 0. -1.
<scales pt_clust_3="14000.00000" pt_clust_4="62.29714" pt_clust_5="35.98467" pt_clust_6="118.38722"></scales>
<clustering>
<clus scale="   35.985">  2  5  1 -1</clus>
<clus scale="   62.297">  2  4  1 -1</clus>
<clus scale="  118.387">  2  6  1 -1</clus>
<clus scale="  118.387">  1  3  2 -1</clus>
</clustering>
</event>
<event>
 6    0  0.2666600E+002  0.2055057E+03  0.7546771E-02  0.1145175E+00
         21   -1    0    0  506  501  0.00000000000E+00  0.00000000000E+00  0.13412629772E+03  0.13412629772E+03  0.00000000000E+00 0.  1.
         21   -1    0    0  503  502 -0.00000000000E+00 -0.00000000000E+00 -0.91342446586E+03  0.91342446586E+03  0.00000000000E+00 0.  1.
         21    1    1    2  503  505  0.41311299555E+02 -0.51455371419E+02 -0.18374530415E+03  0.19523477025E+03  0.00000000000E+00 0.  1.
         21    1    1    2  504  502 -0.23322975009E+03  0.53490082060E+02 -0.29841329756E+03  0.38250202793E+03  0.00000000000E+00 0.  1.
         21    1    1    2  505  501  0.16804689417E+02 -0.13763790181E+03 -0.14796906116E+03  0.20278420220E+03  0.00000000000E+00 0.  1.
         21    1    1    2  506  504  0.17511376112E+03  0.13560319117E+03 -0.14917050528E+03  0.26702976320E+03  0.00000000000E+00 0.  1.
<scales pt_clust_3="65.98696" pt_clust_4="205.50571" pt_clust_5="152.47914" pt_clust_6="14000.00000"></scales>
<clustering>
<clus scale="   65.987">  2  3  1 -1</clus>
<clus scale="  152.479">  1  5  2 -1</clus>
<clus scale="  205.506">  2  4  1 -1</clus>
<clus scale="  152.479">  1  3  2 -1</clus>
</clustering>
</event>
<event>
 6    0  0.2666600E+002  0.2043185E+03  0.7546771E-02  0.1146146E+00
         21   -1    0    0  506  501  0.00000000000E+00  0.00000000000E+00  0.27285779938E+03  0.27285779938E+03  0.00000000000E+00 0. -1.
         21   -1    0    0  505  502 -0.00000000000E+00 -0.00000000000E+00 -0.23377076072E+03  0.23377076072E+03  0.00000000000E+00 0. -1.
         21    1    1    2  503  502 -0.10525335107E+03 -0.18195469353E+02 -0.10361318040E+03  0.14881207669E+03  0.00000000000E+00 0. -1.
         21    1    1    2  504  501  0.12985257018E+03 -0.78567708878E+01  0.15029132079E+03  0.19877348902E+03  0.00000000000E+00 0. -1.
         21    1    1    2  505  504  0.57775319599E+02 -0.11776706410E+02  0.23123198598E+02  0.63335303600E+02  0.00000000000E+00 0. -1.
         21    1    1    2  506  503 -0.82374538712E+02  0.37828946650E+02 -0.30714300318E+02  0.95707690792E+02  0.00000000000E+00 0. -1.
<scales pt_clust_3="72.28019" pt_clust_4="196.54115" pt_clust_5="37.11204" pt_clust_6="72.28019"></scales>
<clustering>
<clus scale="   37.112">  4  5 -1 -1</clus>
<clus scale="   72.280">  3  6 -1 -1</clus>
<clus scale="  196.541">  1  4  2 -1</clus>
<clus scale="  196.541">  1  3  2 -1</clus>
</clustering>
</event>
<event>
 6    0  0.2666600E+002  0.8995656E+02  0.7546771E-02  0.1302957E+00
         21   -1    0    0  506  501  0.00000000000E+00  0.00000000000E+00  0.97893682903E+02  0.97893682903E+02  0.00000000000E+00 0. -1.
         21   -1    0    0  504  502 -0.00000000000E+00 -0.00000000000E+00 -0.56479487131E+03  0.56479487131E+03  0.00000000000E+00 0. -1.
         21    1    1    2  503  501 -0.43786801483E+02  0.16873318183E+02 -0.44857243322E+02  0.64916601337E+02  0.00000000000E+00 0. -1.
         21    1    1    2  504  503  0.54203376590E+02  0.15073038121E+02 -0.41019652095E+03  0.41403669924E+03  0.00000000000E+00 0. -1.
         21    1    1    2  505  502 -0.69978456771E+02 -0.79458674126E+02  0.38239435165E+01  0.10594945894E+03  0.00000000000E+00 0. -1.
         21    1    1    2  506  505  0.59561881664E+02  0.47512317822E+02 -0.15671367642E+02  0.77785794693E+02  0.00000000000E+00 0. -1.
<scales pt_clust_3="46.92540" pt_clust_4="55.44041" pt_clust_5="14000.00000" pt_clust_6="89.95656"></scales>
<clustering>
<clus scale="   46.925">  1  3  2 -1</clus>
<clus scale="   55.440">  2  4  1 -1</clus>
<clus scale="   89.957">  1  6  2 -1</clus>
<clus scale="   46.925">  1  3  2 -1</clus>
</clustering>
</event>
<event>
 6    0  0.2666600E+002  0.1389539E+03  0.7546771E-02  0.1214744E+00
         21   -1    0    0  506  501  0.00000000000E+00  0.00000000000E+00  0.20285363024E+03  0.20285363024E+03  0.00000000000E+00 0. -1.
         21   -1    0    0  504  502 -0.00000000000E+00 -0.00000000000E+00 -0.30118687665E+03  0.30118687665E+03  0.00000000000E+00 0. -1.
         21    1    1    2  503  505  0.15405719936E+01  0.93736954005E+02 -0.35113969285E+02  0.10010984341E+03  0.00000000000E+00 0. -1.
         21    1    1    2  504  503  0.10915378824E+03  0.77938485117E+02 -0.11498251260E+03  0.17666333845E+03  0.00000000000E+00 0. -1.
         21    1    1    2  505  501 -0.24175325635E+02 -0.38079102404E+02  0.51021714181E+02  0.68100511946E+02  0.00000000000E+00 0. -1.
         21    1    1    2  506  502 -0.86519034598E+02 -0.13359633672E+03  0.74152129747E+00  0.15916681308E+03  0.00000000000E+00 0. -1.
<scales pt_clust_3="85.19209" pt_clust_4="14000.00000" pt_clust_5="45.10504" pt_clust_6="138.95389"></scales>
<clustering>
<clus scale="   45.105">  1  5  2 -1</clus>
<clus scale="   85.192">  1  3  2 -1</clus>
<clus scale="  138.954">  1  6  2 -1</clus>
<clus scale="   45.105">  1  3  2 -1</clus>
</clustering>
</event>
<event>
 6    0  0.2666600E+002  0.1059470E+03  0.7546771E-02  0.1268265E+00
         21   -1    0    0  505  501  0.00000000000E+00  0.00000000000E+00  0.13039845666E+03  0.13039845666E+03  0.00000000000E+00 0.  1.
         21   -1    0    0  503  502 -0.00000000000E+00 -0.00000000000E+00 -0.52041082039E+03  0.52041082039E+03  0.00000000000E+00 0.  1.
         21    1    1    2  503  504 -0.62814535467E+02  0.99180172892E+02 -0.36805767089E+03  0.38632735039E+03  0.00000000000E+00 0.  1.
         21    1    1    2  504  501 -0.38705955726E+02 -0.29796628055E+02  0.59092155975E+02  0.76667287352E+02  0.00000000000E+00 0.  1.
         21    1    1    2  505  506  0.35819570044E+02 -0.99795696873E+01  0.28564468158E+02  0.46888828632E+02  0.00000000000E+00 0.  1.
         21    1    1    2  506  502  0.65700921148E+02 -0.59403975150E+02 -0.10961131697E+03  0.14092581067E+03  0.00000000000E+00 0.  1.
<scales pt_clust_3="105.94699" pt_clust_4="39.14540" pt_clust_5="37.18378" pt_clust_6="14000.00000"></scales>
<clustering>
<clus scale="   37.184">  1  5  2 -1</clus>
<clus scale="   39.145">  1  4  2 -1</clus>
<clus scale="  105.947">  2  3  1 -1</clus>
<clus scale="   37.184">  1  3  2 -1</clus>
</clustering>
</event>
<event>
 6    0  0.2666600E+002  0.2035280E+03  0.7546771E-02  0.1146796E+00
         21   -1    0    0  504  501  0.00000000000E+00  0.00000000000E+00  0.74062246629E+03  0.74062246629E+03  0.00000000000E+00 0. -1.
         21   -1    0    0  503  502 -0.00000000000E+00 -0.00000000000E+00 -0.86862286823E+02  0.86862286823E+02  0.00000000000E+00 0. -1.
         21    1    1    2  503  506 -0.44972384234E+02 -0.10136575191E+03  0.24729403545E+03  0.27102005641E+03  0.00000000000E+00 0. -1.
         21    1    1    2  504  505  0.66369728918E+02  0.16995220911E+03  0.10213178813E+03  0.20909231561E+03  0.00000000000E+00 0. -1.
         21    1    1    2  505  502  0.52098858208E+02 -0.13884394632E+01  0.42532781553E+02  0.67270025251E+02  0.00000000000E+00 0. -1.
         21    1    1    2  506  501 -0.73496202891E+02 -0.67198017739E+02  0.26180157434E+03  0.28010235585E+03  0.00000000000E+00 0. -1.
<scales pt_clust_3="43.51952" pt_clust_4="198.27920" pt_clust_5="52.11736" pt_clust_6="43.51952"></scales>
<clustering>
<clus scale="   43.520">  3  6 -1 -1</clus>
<clus scale="   52.117">  2  5  1 -1</clus>
<clus scale="  198.279">  2  4  1 -1</clus>
<clus scale="  203.528">  1  3  2 -1</clus>
</clustering>
</event>
<event>
 6    0  0.4421908E+002  0.1080283E+03  0.7546771E-02  0.1264265E+00
         21   -1    0    0  503  501  0.00000000000E+00  0.00000000000E+00  0.67535148921E+03  0.67535148921E+03  0.00000000000E+00 0.  1.
         21   -1    0    0  505  502 -0.00000000000E+00 -0.00000000000E+00 -0.40395389945E+03  0.40395389945E+03  0.00000000000E+00 0.  1.
         21    1    1    2  503  504 -0.41461501162E+02  0.10061236781E+03  0.63072877962E+03  0.64004741862E+03  0.00000000000E+00 0.  1.
         21    1    1    2  504  502 -0.13136431648E+01  0.33216715538E+02  0.83659171420E+01  0.34279212639E+02  0.00000000000E+00 0. -1.
         21    1    1    2  505  506  0.51136460461E+02 -0.41872794933E+02 -0.22907944720E+03  0.23842328258E+03  0.00000000000E+00 0.  1.
         21    1    1    2  506  501 -0.83613161346E+01 -0.91956288411E+02 -0.13861765980E+03  0.16655547482E+03  0.00000000000E+00 0.  1.
<scales pt_clust_3="14000.00000" pt_clust_4="33.24268" pt_clust_5="54.95346" pt_clust_6="108.02833"></scales>
<clustering>
<clus scale="   33.243">  2  4  1 -1</clus>
<clus scale="   54.953">  2  5  1 -1</clus>
<clus scale="  108.028">  2  6  1 -1</clus>
<clus scale="  108.028">  1  3  2 -1</clus>
</clustering>
</event>
<event>
 6    0  0.2666600E+002  0.2145920E+03  0.7546771E-02  0.1137980E+00
         21   -1    0    0  503  501  0.00000000000E+00  0.00000000000E+00  0.55092657957E+03  0.55092657957E+03  0.00000000000E+00 0. -1.
         21   -1    0    0  505  502 -0.00000000000E+00 -0.00000000000E+00 -0.34237892895E+03  0.34237892895E+03  0.00000000000E+00 0. -1.
         21    1    1    2  503  506  0.14311718404E+03 -0.11707571116E+02 -0.54414129252E+02  0.15355941212E+03  0.00000000000E+00 0. -1.
         21    1    1    2  504  501 -0.10695051082E+03  0.85317717528E+01  0.17582192278E+03  0.20597221032E+03  0.00000000000E+00 0. -1.
         21    1    1    2  505  504 -0.11432455846E+03  0.39936787436E+02  0.28946971249E+03  0.31377980513E+03  0.00000000000E+00 0. -1.
         21    1    1    2  506  502  0.78157885230E+02 -0.36760988073E+02 -0.20232985540E+03  0.21999408095E+03  0.00000000000E+00 0. -1.
<scales pt_clust_3="209.08311" pt_clust_4="45.47358" pt_clust_5="45.47358" pt_clust_6="86.37144"></scales>
<clustering>
<clus scale="   45.474">  4  5 -1 -1</clus>
<clus scale="   86.371">  2  6  1 -1</clus>
<clus scale="  209.083">  2  3  1 -1</clus>
<clus scale="  214.592">  1  3  2 -1</clus>
</clustering>
</event>
<event>
 6    0  0.2666600E+002  0.1941534E+03  0.7546771E-02  0.1154768E+00
         21   -1    0    0  502  501  0.00000000000E+00  0.00000000000E+00  0.14130430409E+03  0.14130430409E+03  0.00000000000E+00 0. -1.
         21   -1    0    0  503  502 -0.00000000000E+00 -0.00000000000E+00 -0.44699418562E+03  0.44699418562E+03  0.00000000000E+00 0. -1.
         21    1    1    2  503  506 -0.26253611160E+02  0.39933007819E+02 -0.15166489665E+03  0.15901615669E+03  0.00000000000E+00 0. -1.
         21    1    1    2  504  501 -0.11540565420E+02 -0.65827259841E+02  0.27831890677E+02  0.72394937165E+02  0.00000000000E+00 0.  1.
         21    1    1    2  505  504  0.53790003299E+02 -0.10973156439E+03  0.86227147475E+01  0.12251012974E+03  0.00000000000E+00 0. -1.
         21    1    1    2  506  505 -0.15995826719E+02  0.13562581642E+03 -0.19047959031E+03  0.23437726612E+03  0.00000000000E+00 0. -1.
<scales pt_clust_3="42.20275" pt_clust_4="47.08019" pt_clust_5="191.46552" pt_clust_6="42.20275"></scales>
<clustering>
<clus scale="   42.203">  3  6 -1 -1</clus>
<clus scale="   47.080">  4  5 -1 -1</clus>
<clus scale="  191.466">  1  4  2 -1</clus>
<clus scale="  191.466">  1  3  2 -1</clus>
</clustering>
</event>
<event>
 6    0  0.6398340E+002  0.1252140E+03  0.7546771E-02  0.1234735E+00
         21   -1    0    0  506  501  0.00000000000E+00  0.00000000000E+00  0.12021945431E+04  0.12021945431E+04  0.00000000000E+00 0.  1.
         21   -1    0    0  503  502 -0.00000000000E+00 -0.00000000000E+00 -0.67900082520E+03  0.67900082520E+03  0.00000000000E+00 0.  1.
         21    1    1    2  503  501  0.58960502670E+02  0.22478343707E+02  0.41298069393E+02  0.75413177539E+02  0.00000000000E+00 0. -1.
         21    1    1    2  504  505 -0.20592486773E+02 -0.87321220491E+02 -0.98964556526E+02  0.13357780320E+03  0.00000000000E+00 0.  1.
         21    1    1    2  505  502  0.58230720580E+01 -0.53961525954E+02 -0.54074363632E+03  0.54346061004E+03  0.00000000000E+00 0.  1.
         21    1    1    2  506  504 -0.44191087955E+02  0.11880440274E+03  0.11216038414E+04  0.11287437775E+04  0.00000000000E+00 0.  1.
<scales pt_clust_3="61.73036" pt_clust_4="14000.00000" pt_clust_5="54.27480" pt_clust_6="125.21396"></scales>
<clustering>
<clus scale="   54.275">  2  5  1 -1</clus>
<clus scale="   61.730">  2  3  1 -1</clus>
<clus scale="  125.214">  1  6  2 -1</clus>
<clus scale="  125.214">  1  3  2 -1</clus>
</clustering>
</event>
<event>
 6    0  0.2666600E+002  0.2939696E+03  0.7546771E-02  0.1088295E+00
         21   -1    0    0  505  501  0.00000000000E+00  0.00000000000E+00  0.67761476241E+03  0.67761476241E+03  0.00000000000E+00 0. -1.
         21   -1    0    0  504  502 -0.00000000000E+00 -0.00000000000E+00 -0.13773451211E+03  0.13773451211E+03  0.00000000000E+00 0. -1.
         21    1    1    2  503  501  0.30913509217E+02  0.67293260392E+02  0.77443357665E+02  0.10715176897E+03  0.00000000000E+00 0. -1.
         21    1    1    2  504  503  0.16958788803E+02  0.21071608691E+03  0.80447822104E+02  0.22618736013E+03  0.00000000000E+00 0. -1.
         21    1    1    2  505  506  0.88184505750E+01 -0.11564881027E+03  0.10775857738E+03  0.15831716075E+03  0.00000000000E+00 0. -1.
         21    1    1    2  506  502 -0.56690748595E+02 -0.16236053703E+03  0.27423049314E+03  0.32369298468E+03  0.00000000000E+00 0. -1.
<scales pt_clust_3="48.09962" pt_clust_4="293.57342" pt_clust_5="67.90598" pt_clust_6="67.90598"></scales>
<clustering>
<clus scale="   48.100">  3  4 -1 -1</clus>
<clus scale="   67.906">  5  6 -1 -1</clus>
<clus scale="  293.573">  2  3  1 -1</clus>
<clus scale="  293.970">  1  3  2 -1</clus>
</clustering>
</event>
<event>
 6    0  0.2666600E+002  0.7991769E+02  0.7546771E-02  0.1329285E+00
         21   -1    0    0  506  501  0.00000000000E+00  0.00000000000E+00  0.18884817943E+03  0.18884817943E+03  0.00000000000E+00 0.  1.
         21   -1    0    0  505  502 -0.00000000000E+00 -0.00000000000E+00 -0.34975053847E+04  0.34975053847E+04  0.00000000000E+00 0. -1.
         21    1    1    2  503  502 -0.39100689763E+02  0.31861265118E+01 -0.72650378239E+03  0.72756220433E+03  0.00000000000E+00 0. -1.
         21    1    1    2  504  503 -0.16586168099E+02  0.54440936311E+02 -0.27206411149E+04  0.27212362985E+04  0.00000000000E+00 0. -1.
         21    1    1    2  505  501 -0.54162478977E+02 -0.25021907427E+02  0.10042762075E+03  0.11681342812E+03  0.00000000000E+00 0.  1.
         21    1    1    2  506  504  0.10984933684E+03 -0.32605155396E+02  0.38060071213E+02  0.12074163318E+03  0.00000000000E+00 0. -1.
<scales pt_clust_3="39.23029" pt_clust_4="79.91769" pt_clust_5="59.76401" pt_clust_6="14000.00000"></scales>
<clustering>
<clus scale="   39.230">  2  3  1 -1</clus>
<clus scale="   59.764">  1  5  2 -1</clus>
<clus scale="   79.918">  2  4  1 -1</clus>
<clus scale="   59.764">  1  3  2 -1</clus>
</clustering>
</event>
<event>
 6    0  0.2666600E+002  0.4694498E+03  0.7546771E-02  0.1022076E+00
         21   -1    0    0  503  501  0.00000000000E+00  0.00000000000E+00  0.22318910168E+03  0.22318910168E+03  0.00000000000E+00 0. -1.
         21   -1    0    0  505  502 -0.00000000000E+00 -0.00000000000E+00 -0.11004703845E+04  0.11004703845E+04  0.00000000000E+00 0. -1.
         21    1    1    2  503  506  0.30882861873E+03  0.66626689908E+02 -0.15629792700E+03  0.35248159319E+03  0.00000000000E+00 0. -1.
         21    1    1    2  504  501 -0.21441018398E+03 -0.17424714176E+02 -0.34114444176E+03  0.40330494393E+03  0.00000000000E+00 0. -1.
         21    1    1    2  505  504 -0.24645334526E+03 -0.29899447668E+02 -0.31598959941E+03  0.40184904541E+03  0.00000000000E+00 0. -1.
         21    1    1    2  506  502  0.15203491051E+03 -0.19302528064E+02 -0.63849314655E+02  0.16602390365E+03  0.00000000000E+00 0. -1.
<scales pt_clust_3="52.80587" pt_clust_4="39.63566" pt_clust_5="465.23951" pt_clust_6="52.80587"></scales>
<clustering>
<clus scale="   39.636">  4  5 -1 -1</clus>
<clus scale="   52.806">  3  6 -1 -1</clus>
<clus scale="  465.240">  2  4  1 -1</clus>
<clus scale="  469.450">  1  3  2 -1</clus>
</clustering>
</event>
<event>
 6    0  0.2666600E+002  0.1325164E+03  0.7546771E-02  0.1223769E+00
         21   -1    0    0  506  501  0.00000000000E+00  0.00000000000E+00  0.80566352336E+02  0.80566352336E+02  0.00000000000E+00 0. -1.
         21   -1    0    0  505  502 -0.00000000000E+00 -0.00000000000E+00 -0.53752124131E+03  0.53752124131E+03  0.00000000000E+00 0.  1.
         21    1    1    2  503  504  0.73970510849E+02  0.10186865678E+02 -0.19299884063E+03  0.20693951095E+03  0.00000000000E+00 0.  1.
         21    1    1    2  504  502  0.47729890184E+02  0.36486085126E+02 -0.25267642407E+03  0.25972052693E+03  0.00000000000E+00 0.  1.
         21    1    1    2  505  501 -0.19081190121E+02 -0.43456238603E+02  0.39914777780E+01  0.47628440923E+02  0.00000000000E+00 0.  1.
         21    1    1    2  506  503 -0.10261921091E+03 -0.32167122009E+01 -0.15271102053E+02  0.10379911485E+03  0.00000000000E+00 0. -1.
<scales pt_clust_3="41.64788" pt_clust_4="41.64788" pt_clust_5="47.46089" pt_clust_6="124.11612"></scales>
<clustering>
<clus scale="   41.648">  3  4 -1 -1</clus>
<clus scale="   47.461">  1  5  2 -1</clus>
<clus scale="  124.116">  1  6  2 -1</clus>
<clus scale="   47.461">  1  3  2 -1</clus>
</clustering>
</event>
<event>
 6    0  0.2666600E+002  0.1265020E+03  0.7546771E-02  0.1232740E+00
         21   -1    0    0  504  501  0.00000000000E+00  0.00000000000E+00  0.55878038602E+03  0.55878038602E+03  0.00000000000E+00 0. -1.
         21   -1    0    0  503  502 -0.00000000000E+00 -0.00000000000E+00 -0.42337677346E+03  0.42337677346E+03  0.00000000000E+00 0. -1.
         21    1    1    2  503  505 -0.31137732393E+02  0.13656210593E+02 -0.30177238634E+03  0.30368178020E+03  0.00000000000E+00 0. -1.
         21    1    1    2  504  506  0.10426910541E+03 -0.10315055814E+03  0.49108797205E+03  0.51252266319E+03  0.00000000000E+00 0. -1.
         21    1    1    2  505  501 -0.50156429193E+02  0.55557139127E+02  0.23424704680E+02  0.78428182988E+02  0.00000000000E+00 0. -1.
         21    1    1    2  506  502 -0.22974943822E+02  0.33937208422E+02 -0.77336677826E+02  0.87524533111E+02  0.00000000000E+00 0. -1.
<scales pt_clust_3="34.00074" pt_clust_4="14000.00000" pt_clust_5="126.50196" pt_clust_6="61.88732"></scales>
<clustering>
<clus scale="   34.001">  2  3  1 -1</clus>
<clus scale="   61.887">  2  6  1 -1</clus>
<clus scale="  126.502">  2  5  1 -1</clus>
<clus scale="  126.502">  1  3  2 -1</clus>
</clustering>
</event>
<event>
 6    0  0.2666600E+002  0.1307416E+03  0.7546771E-02  0.1226360E+00
         21   -1    0    0  506  501  0.00000000000E+00  0.00000000000E+00  0.21753340454E+03  0.21753340454E+03  0.00000000000E+00 0. -1.
         21   -1    0    0  503  502 -0.00000000000E+00 -0.00000000000E+00 -0.12716265989E+04  0.12716265989E+04  0.00000000000E+00 0. -1.
         21    1    1    2  503  504 -0.11160971189E+02  0.68803331652E+02 -0.64432656811E+03  0.64808579069E+03  0.00000000000E+00 0. -1.
         21    1    1    2  504  505 -0.40535336575E+02  0.47084684249E+02 -0.58840357506E+03  0.59167461340E+03  0.00000000000E+00 0. -1.
         21    1    1    2  505  501  0.36778459001E+02 -0.56506951071E+02  0.17559951164E+03  0.18809805702E+03  0.00000000000E+00 0. -1.
         21    1    1    2  506  502  0.14917848763E+02 -0.59381064830E+02  0.30374371430E+01  0.61301542366E+02  0.00000000000E+00 0.  1.
<scales pt_clust_3="33.77386" pt_clust_4="33.77386" pt_clust_5="125.75231" pt_clust_6="61.22624"></scales>
<clustering>
<clus scale="   33.774">  3  4 -1 -1</clus>
<clus scale="   61.226">  1  6  2 -1</clus>
<clus scale="  125.752">  1  5  2 -1</clus>
<clus scale="   61.226">  1  3  2 -1</clus>
</clustering>
</event>
<event>
 6    0  0.2666600E+002  0.1021294E+03  0.7546771E-02  0.1275881E+00
         21   -1    0    0  502  501  0.00000000000E+00  0.00000000000E+00  0.19227410616E+04  0.19227410616E+04  0.00000000000E+00 0. -1.
         21   -1    0    0  506  502 -0.00000000000E+00 -0.00000000000E+00 -0.20793511986E+02  0.20793511986E+02  0.00000000000E+00 0.  1.
         21    1    1    2  503  501 -0.51311055055E+02  0.27408247788E+01  0.81284982095E+03  0.81447232482E+03  0.00000000000E+00 0. -1.
         21    1    1    2  504  503 -0.42433398843E+02 -0.30865775165E+02  0.76682667135E+03  0.76861982365E+03  0.00000000000E+00 0. -1.
         21    1    1    2  505  504  0.60218283118E+02  0.79686428196E+02  0.20369577167E+03  0.22686589840E+03  0.00000000000E+00 0.  1.
         21    1    1    2  506  505  0.33526170780E+02 -0.51561477811E+02  0.11857528561E+03  0.13357652667E+03  0.00000000000E+00 0.  1.
<scales pt_clust_3="34.61975" pt_clust_4="34.61975" pt_clust_5="95.95061" pt_clust_6="61.50277"></scales>
<clustering>
<clus scale="   34.620">  3  4 -1 -1</clus>
<clus scale="   61.503">  2  6  1 -1</clus>
<clus scale="   95.951">  2  5  1 -1</clus>
<clus scale="  102.129">  1  3  2 -1</clus>
</clustering>
</event>
<event>
 6    0  0.2666600E+002  0.1323798E+03  0.7546771E-02  0.1223967E+00
         21   -1    0    0  502  501  0.00000000000E+00  0.00000000000E+00  0.26940553934E+02  0.26940553934E+02  0.00000000000E+00 0. -1.
         21   -1    0    0  504  502 -0.00000000000E+00 -0.00000000000E+00 -0.15245668390E+04  0.15245668390E+04  0.00000000000E+00 0. -1.
         21    1    1    2  503  505 -0.70247526104E+02 -0.75546226615E+02 -0.13132931802E+03  0.16700100913E+03  0.00000000000E+00 0. -1.
         21    1    1    2  504  506  0.35758006813E+02  0.47528308623E+02 -0.81797943137E+03  0.82013896708E+03  0.00000000000E+00 0. -1.
         21    1    1    2  505  501 -0.33261184040E+02  0.14234790549E+02 -0.52536994269E+02  0.63789273334E+02  0.00000000000E+00 0. -1.
         21    1    1    2  506  503  0.67750703330E+02  0.13783127443E+02 -0.49578054139E+03  0.50057814338E+03  0.00000000000E+00 0. -1.
<scales pt_clust_3="116.91504" pt_clust_4="58.81510" pt_clust_5="36.17922" pt_clust_6="58.81510"></scales>
<clustering>
<clus scale="   36.179">  1  5  2 -1</clus>
<clus scale="   58.815">  4  6 -1 -1</clus>
<clus scale="  116.915">  1  3  2 -1</clus>
<clus scale="   36.179">  1  3  2 -1</clus>
</clustering>
</event>
<event>
 6    0  0.2666600E+002  0.1647542E+03  0.7546771E-02  0.1183431E+00
         21   -1    0    0  506  501  0.00000000000E+00  0.00000000000E+00  0.40409419018E+03  0.40409419018E+03  0.00000000000E+00 0.  1.
         21   -1    0    0  503  502 -0.00000000000E+00 -0.00000000000E+00 -0.55076958898E+03  0.55076958898E+03  0.00000000000E+00 0.  1.
         21    1    1    2  503  505  0.14356136820E+03  0.53120978264E+02 -0.34995704364E+03  0.38197072815E+03  0.00000000000E+00 0.  1.
         21    1    1    2  504  502 -0.36744742565E+01 -0.36228011443E+02 -0.11379806695E+03  0.11948209328E+03  0.00000000000E+00 0.  1.
         21    1    1    2  505  501 -0.13327428756E+03 -0.98437489956E+02  0.33125416292E+03  0.37037993412E+03  0.00000000000E+00 0.  1.
         21    1    1    2  506  504 -0.66126063872E+01  0.81544523136E+02 -0.14174451126E+02  0.83031023608E+02  0.00000000000E+00 0.  1.
<scales pt_clust_3="164.75424" pt_clust_4="36.41388" pt_clust_5="14000.00000" pt_clust_6="77.80633"></scales>
<clustering>
<clus scale="   36.414">  2  4  1 -1</clus>
<clus scale="   77.806">  2  6  1 -1</clus>
<clus scale="  164.754">  2  3  1 -1</clus>
<clus scale="  164.754">  1  3  2 -1</clus>
</clustering>
</event>
<event>
 6    0  0.2666600E+002  0.2631693E+03  0.7546771E-02  0.1105254E+00
         21   -1    0    0  506  501  0.00000000000E+00  0.00000000000E+00  0.72429062418E+02  0.72429062418E+02  0.00000000000E+00 0. -1.
         21   -1    0    0  505  502 -0.00000000000E+00 -0.00000000000E+00 -0.45070799121E+04  0.45070799121E+04  0.00000000000E+00 0.  1.
         21    1    1    2  503  502 -0.64232414716E+02 -0.30160794217E+02 -0.96922247886E+03  0.97181669575E+03  0.00000000000E+00 0.  1.
         21    1    1    2  504  501  0.25065147148E+03  0.95488634109E+02 -0.25611967377E+03  0.37086591471E+03  0.00000000000E+00 0. -1.
         21    1    1    2  505  504  0.66024411480E+02 -0.51301591048E+02 -0.19811289059E+04  0.19828925382E+04  0.00000000000E+00 0.  1.
         21    1    1    2  506  503 -0.25244346824E+03 -0.14026248844E+02 -0.12281797911E+04  0.12539338259E+04  0.00000000000E+00 0.  1.
<scales pt_clust_3="70.96109" pt_clust_4="14000.00000" pt_clust_5="74.52160" pt_clust_6="263.16926"></scales>
<clustering>
<clus scale="   70.961">  2  3  1 -1</clus>
<clus scale="   74.522">  2  5  1 -1</clus>
<clus scale="  263.169">  2  6  1 -1</clus>
<clus scale="  263.169">  1  3  2 -1</clus>
</clustering>
</event>
<event>
 6    0  0.2666600E+002  0.1656249E+03  0.7546771E-02  0.1182489E+00
         21   -1    0    0  505  501  0.00000000000E+00  0.00000000000E+00  0.26076188782E+04  0.26076188782E+04  0.00000000000E+00 0. -1.
         21   -1    0    0  504  502 -0.00000000000E+00 -0.00000000000E+00 -0.13577797449E+03  0.13577797449E+03  0.00000000000E+00 0. -1.
         21    1    1    2  503  502 -0.71320198048E+02  0.10510359332E+03 -0.91581638062E+02  0.15659033306E+03  0.00000000000E+00 0. -1.
         21    1    1    2  504  501 -0.15506160290E+02  0.37718247296E+02  0.49714266124E+02  0.64300975438E+02  0.00000000000E+00 0. -1.
         21    1    1    2  505  506 -0.24823738700E+02 -0.18035191688E+02  0.81189141351E+03  0.81247101700E+03  0.00000000000E+00 0. -1.
         21    1    1    2  506  503  0.11165009704E+03 -0.12478664893E+03  0.17018168622E+04  0.17100345272E+04  0.00000000000E+00 0. -1.
<scales pt_clust_3="14000.00000" pt_clust_4="40.56232" pt_clust_5="30.68365" pt_clust_6="165.62494"></scales>
<clustering>
<clus scale="   30.684">  1  5  2 -1</clus>
<clus scale="   40.562">  2  4  1 -1</clus>
<clus scale="  165.625">  1  6  2 -1</clus>
<clus scale="   30.684">  1  3  2 -1</clus>
</clustering>
</event>
<event>
 6    0  0.2666600E+002  0.1247241E+03  0.7546771E-02  0.1235501E+00
         21   -1    0    0  505  501  0.00000000000E+00  0.00000000000E+00  0.27272133608E+03  0.27272133608E+03  0.00000000000E+00 0.  1.
         21   -1    0    0  504  502 -0.00000000000E+00 -0.00000000000E+00 -0.75538390763E+03  0.75538390763E+03  0.00000000000E+00 0. -1.
         21    1    1    2  503  502  0.23428525585E+01 -0.84198489396E+02 -0.15040996533E+03  0.17238918831E+03  0.00000000000E+00 0.  1.
         21    1    1    2  504  506 -0.49504048316E+01 -0.60740829509E+02 -0.56594536819E+03  0.56921710679E+03  0.00000000000E+00 0. -1.
         21    1    1    2  505  503 -0.35529963394E+02  0.88677019980E+02  0.11287523851E+03  0.14787431027E+03  0.00000000000E+00 0.  1.
         21    1    1    2  506  501  0.38137515667E+02  0.56262298925E+02  0.12081752347E+03  0.13862463835E+03  0.00000000000E+00 0.  1.
<scales pt_clust_3="124.72408" pt_clust_4="60.94223" pt_clust_5="14000.00000" pt_clust_6="65.47006"></scales>
<clustering>
<clus scale="   60.942">  2  4  1 -1</clus>
<clus scale="   65.470">  1  6  2 -1</clus>
<clus scale="  124.724">  2  3  1 -1</clus>
<clus scale="   65.470">  1  3  2 -1</clus>
</clustering>
</event>
<event>
 6    0  0.2666600E+002  0.1235004E+03  0.7546771E-02  0.1237432E+00
         21   -1    0    0  505  501  0.00000000000E+00  0.00000000000E+00  0.14579794864E+03  0.14579794864E+03  0.00000000000E+00 0. -1.
         21   -1    0    0  501  502 -0.00000000000E+00 -0.00000000000E+00 -0.27587125256E+03  0.27587125256E+03  0.00000000000E+00 0.  1.
         21    1    1    2  503  506  0.48521448552E+02 -0.45991830839E+02 -0.89144106101E+02  0.11142823307E+03  0.00000000000E+00 0.  1.
         21    1    1    2  504  502 -0.71896303323E+02  0.11539060122E+02 -0.31644541405E+02  0.79395247596E+02  0.00000000000E+00 0. -1.
         21    1    1    2  505  503 -0.67192867795E+01  0.11222642279E+03  0.55372267709E+02  0.12532360839E+03  0.00000000000E+00 0. -1.
         21    1    1    2  506  504  0.30094141551E+02 -0.77773652077E+02 -0.64656924128E+02  0.10552211214E+03  0.00000000000E+00 0.  1.
<scales pt_clust_3="39.17572" pt_clust_4="72.81640" pt_clust_5="115.49009" pt_clust_6="39.17572"></scales>
<clustering>
<clus scale="   39.176">  3  6 -1 -1</clus>
<clus scale="   72.816">  2  4  1 -1</clus>
<clus scale="  115.490">  1  5  2 -1</clus>
<clus scale="  115.490">  1  3  2 -1</clus>
</clustering>
</event>
<event>
 6    0  0.2666600E+002  0.8429874E+02  0.7546771E-02  0.1317277E+00
         21   -1    0    0  503  501  0.00000000000E+00  0.00000000000E+00  0.36803039787E+02  0.36803039787E+02  0.00000000000E+00 0.  1.
         21   -1    0    0  506  502 -0.00000000000E+00 -0.00000000000E+00 -0.27901728657E+04  0.27901728657E+04  0.00000000000E+00 0.  1.
         21    1    1    2  503  505  0.42864743243E+02  0.32499077688E+02 -0.11007423373E+02  0.54906644709E+02  0.00000000000E+00 0.  1.
         21    1    1    2  504  501  0.31546976613E+02 -0.11281203453E+03 -0.74776989594E+03  0.75688941342E+03  0.00000000000E+00 0.  1.
         21    1    1    2  505  502 -0.30572144469E+02  0.55813404499E+02 -0.91664760600E+02  0.11158951777E+03  0.00000000000E+00 0.  1.
         21    1    1    2  506  504 -0.43839575387E+02  0.24499552343E+02 -0.19029277460E+04  0.19035903296E+04  0.00000000000E+00 0.  1.
<scales pt_clust_3="53.07141" pt_clust_4="14000.00000" pt_clust_5="84.29874" pt_clust_6="50.22088"></scales>
<clustering>
<clus scale="   50.221">  2  6  1 -1</clus>
<clus scale="   53.071">  1  3  2 -1</clus>
<clus scale="   84.299">  1  5  2 -1</clus>
<clus scale="   53.071">  1  3  2 -1</clus>
</clustering>
</event>
<event>
 6    0  0.2666600E+002  0.6761747E+02  0.7546771E-02  0.1368388E+00
         21   -1    0    0  503  501  0.00000000000E+00  0.00000000000E+00  0.13638579166E+03  0.13638579166E+03  0.00000000000E+00 0. -1.
         21   -1    0    0  506  502 -0.00000000000E+00 -0.00000000000E+00 -0.25221898803E+03  0.25221898803E+03  0.00000000000E+00 0.  1.
         21    1    1    2  503  502  0.45877272945E+02 -0.57751688225E+02 -0.50664416573E+02  0.89481086115E+02  0.00000000000E+00 0. -1.
         21    1    1    2  504  501 -0.30814447358E+02  0.25578658201E+02  0.58862602211E+02  0.71194127991E+02  0.00000000000E+00 0. -1.
         21    1    1    2  505  504  0.48043821751E+02  0.56835080610E+02  0.12544879136E+02  0.75470584925E+02  0.00000000000E+00 0.  1.
         21    1    1    2  506  505 -0.63106647338E+02 -0.24662050586E+02 -0.13657626114E+03  0.15245898066E+03  0.00000000000E+00 0. -1.
<scales pt_clust_3="63.13519" pt_clust_4="40.04745" pt_clust_5="14000.00000" pt_clust_6="67.61747"></scales>
<clustering>
<clus scale="   40.047">  1  4  2 -1</clus>
<clus scale="   63.135">  1  3  2 -1</clus>
<clus scale="   67.617">  2  6  1 -1</clus>
<clus scale="   40.047">  1  3  2 -1</clus>
</clustering>
</event>
<event>
 6    0  0.2666600E+002  0.1072819E+03  0.7546771E-02  0.1265688E+00
         21   -1    0    0  503  501  0.00000000000E+00  0.00000000000E+00  0.50304343585E+03  0.50304343585E+03  0.00000000000E+00 0. -1.
         21   -1    0    0  506  502 -0.00000000000E+00 -0.00000000000E+00 -0.41594359843E+03  0.41594359843E+03  0.00000000000E+00 0.  1.
         21    1    1    2  503  504 -0.48367459589E+02 -0.20661546638E+02  0.75725306609E+02  0.92198875903E+02  0.00000000000E+00 0.  1.
         21    1    1    2  504  502  0.71387952281E+02 -0.81511794291E+02 -0.33736441052E+03  0.35433763253E+03  0.00000000000E+00 0.  1.
         21    1    1    2  505  501  0.67948015490E+02  0.48443333444E+02  0.35686056602E+03  0.36648758907E+03  0.00000000000E+00 0. -1.
         21    1    1    2  506  505 -0.90968508182E+02  0.53730007485E+02 -0.81216246878E+01  0.10596293679E+03  0.00000000000E+00 0.  1.
<scales pt_clust_3="52.59573" pt_clust_4="107.28187" pt_clust_5="40.29714" pt_clust_6="14000.00000"></scales>
<clustering>
<clus scale="   52.596">  1  3  2 -1</clus>
<clus scale="   40.297">  1  5  2 -1</clus>
<clus scale="  107.282">  2  4  1 -1</clus>
<clus scale="   52.596">  1  3  2 -1</clus>
</clustering>
</event>
<event>
 6    0  0.2666600E+002  0.9786001E+02  0.7546771E-02  0.1284861E+00
         21   -1    0    0  506  501  0.00000000000E+00  0.00000000000E+00  0.73226969232E+03  0.73226969232E+03  0.00000000000E+00 0. -1.
         21   -1    0    0  504  502 -0.00000000000E+00 -0.00000000000E+00 -0.11325940738E+04  0.11325940738E+04  0.00000000000E+00 0. -1.
         21    1    1    2  503  505 -0.58746979146E+02 -0.54562450873E+02  0.59414637064E+03  0.59953163248E+03  0.00000000000E+00 0. -1.
         21    1    1    2  504  503  0.77888688597E+02 -0.40772999217E+02 -0.39735194501E+03  0.40696148894E+03  0.00000000000E+00 0. -1.
         21    1    1    2  505  501 -0.34363833437E+02  0.21237222233E+02  0.12548041619E+03  0.13182271240E+03  0.00000000000E+00 0. -1.
         21    1    1    2  506  502  0.15222123986E+02  0.74098227857E+02 -0.72259922329E+03  0.72654793230E+03  0.00000000000E+00 0. -1.
<scales pt_clust_3="14000.00000" pt_clust_4="97.86001" pt_clust_5="40.39669" pt_clust_6="75.69115"></scales>
<clustering>
<clus scale="   40.397">  1  5  2 -1</clus>
<clus scale="   75.691">  2  6  1 -1</clus>
<clus scale="   97.860">  2  4  1 -1</clus>
<clus scale="   40.397">  1  3  2 -1</clus>
</clustering>
</event>
<event>
 6    0  0.2666600E+002  0.1457083E+03  0.7546771E-02  0.1205848E+00
         21   -1    0    0  502  501  0.00000000000E+00  0.00000000000E+00  0.34663276971E+03  0.34663276971E+03  0.00000000000E+00 0.  1.
         21   -1    0    0  503  502 -0.00000000000E+00 -0.00000000000E+00 -0.54563180004E+03  0.54563180004E+03  0.00000000000E+00 0.  1.
         21    1    1    2  503  504 -0.40055316232E+02 -0.28200768269E+02 -0.75037843482E+02  0.89612441345E+02  0.00000000000E+00 0. -1.
         21    1    1    2  504  505 -0.72032107602E+02 -0.41124044571E+02 -0.44330712898E+03  0.45100002458E+03  0.00000000000E+00 0.  1.
         21    1    1    2  505  506  0.47607312077E+02  0.61686802610E+02  0.21574449055E+03  0.22938483599E+03  0.00000000000E+00 0.  1.
         21    1    1    2  506  501  0.64480111758E+02  0.76380102304E+01  0.10360145158E+03  0.12226726783E+03  0.00000000000E+00 0.  1.
<scales pt_clust_3="48.98685" pt_clust_4="130.08863" pt_clust_5="59.77764" pt_clust_6="59.77764"></scales>
<clustering>
<clus scale="   48.987">  2  3  1 -1</clus>
<clus scale="   59.778">  5  6 -1 -1</clus>
<clus scale="  130.089">  2  4  1 -1</clus>
<clus scale="  145.708">  1  3  2 -1</clus>
</clustering>
</event>
<event>
 6    0  0.2666600E+002  0.1057421E+03  0.7546771E-02  0.1268664E+00
         21   -1    0    0  506  501  0.00000000000E+00  0.00000000000E+00  0.35184752017E+03  0.35184752017E+03  0.00000000000E+00 0.  1.
         21   -1    0    0  504  502 -0.00000000000E+00 -0.00000000000E+00 -0.19816118675E+03  0.19816118675E+03  0.00000000000E+00 0.  1.
         21    1    1    2  503  501 -0.52016999674E+02 -0.56438648001E+02  0.83696517473E+01  0.77208421261E+02  0.00000000000E+00 0.  1.
         21    1    1    2  504  503  0.33972189230E+02 -0.18914778209E+02  0.24295191681E+00  0.38883640538E+02  0.00000000000E+00 0. -1.
         21    1    1    2  505  502  0.72154115572E+02  0.10544892108E+03 -0.11174311531E+03  0.16974161295E+03  0.00000000000E+00 0.  1.
         21    1    1    2  506  505 -0.54109305128E+02 -0.30095494865E+02  0.25681684506E+03  0.26417503217E+03  0.00000000000E+00 0.  1.
<scales pt_clust_3="105.74207" pt_clust_4="38.88288" pt_clust_5="14000.00000" pt_clust_6="61.49785"></scales>
<clustering>
<clus scale="   38.883">  2  4  1 -1</clus>
<clus scale="   61.498">  1  6  2 -1</clus>
<clus scale="  105.742">  1  3  2 -1</clus>
<clus scale="   61.498">  1  3  2 -1</clus>
</clustering>
</event>
<event>
 6    0  0.2666600E+002  0.6846583E+02  0.7546771E-02  0.1365389E+00
         21   -1    0    0  504  501  0.00000000000E+00  0.00000000000E+00  0.22152928897E+04  0.22152928897E+04  0.00000000000E+00 0.  1.
         21   -1    0    0  505  502 -0.00000000000E+00 -0.00000000000E+00 -0.10781627857E+03  0.10781627857E+03  0.00000000000E+00 0. -1.
         21    1    1    2  503  506  0.54048103851E+02 -0.43668554785E+02  0.17198553938E+04  0.17212584686E+04  0.00000000000E+00 0.  1.
         21    1    1    2  504  503 -0.56049874750E+02 -0.24309934102E+02  0.45233833835E+03  0.45644554297E+03  0.00000000000E+00 0. -1.
         21    1    1    2  505  501 -0.23342804340E+02  0.89714495740E+02 -0.30482707638E+02  0.97584695139E+02  0.00000000000E+00 0. -1.
         21    1    1    2  506  502  0.25344575240E+02 -0.21736006853E+02 -0.34234413353E+02  0.47820461579E+02  0.00000000000E+00 0. -1.
<scales pt_clust_3="14000.00000" pt_clust_4="60.65271" pt_clust_5="68.46583" pt_clust_6="33.38864"></scales>
<clustering>
<clus scale="   33.389">  2  6  1 -1</clus>
<clus scale="   60.653">  1  4  2 -1</clus>
<clus scale="   68.466">  2  5  1 -1</clus>
<clus scale="   60.653">  1  3  2 -1</clus>
</clustering>
</event>
<event>
 6    0  0.2666600E+002  0.1485415E+03  0.7546771E-02  0.1202277E+00
         21   -1    0    0  504  501  0.00000000000E+00  0.00000000000E+00  0.35076874038E+03  0.35076874038E+03  0.00000000000E+00 0. -1.
         21   -1    0    0  501  502 -0.00000000000E+00 -0.00000000000E+00 -0.71408356659E+02  0.71408356659E+02  0.00000000000E+00 0. -1.
         21    1    1    2  503  505  0.72516691606E+02  0.58946091888E+02  0.51827731982E+02  0.10686171491E+03  0.00000000000E+00 0. -1.
         21    1    1    2  504  506 -0.73551119319E+02 -0.17726735019E+02  0.91054427598E+02  0.11838459812E+03  0.00000000000E+00 0. -1.
         21    1    1    2  505  502  0.53114399048E+02  0.26838414579E+00  0.10074434474E+02  0.54062053663E+02  0.00000000000E+00 0. -1.
         21    1    1    2  506  503 -0.52079971335E+02 -0.41487741015E+02  0.12640378966E+03  0.14286873034E+03  0.00000000000E+00 0. -1.
<scales pt_clust_3="39.71459" pt_clust_4="144.79373" pt_clust_5="39.71459" pt_clust_6="38.40265"></scales>
<clustering>
<clus scale="   38.403">  4  6 -1 -1</clus>
<clus scale="   39.715">  3  5 -1 -1</clus>
<clus scale="  144.794">  1  4  2 -1</clus>
<clus scale="  144.794">  1  3  2 -1</clus>
</clustering>
</event>
<event>
 6    0  0.2666600E+002  0.9127169E+02  0.7546771E-02  0.1299801E+00
         21   -1    0    0  504  501  0.00000000000E+00  0.00000000000E+00  0.23186828240E+02  0.23186828240E+02  0.00000000000E+00 0.  1.
         21   -1    0    0  506  502 -0.00000000000E+00 -0.00000000000E+00 -0.97956846980E+03  0.97956846980E+03  0.00000000000E+00 0.  1.
         21    1    1    2  503  502 -0.29169869379E+02  0.97311264085E+02 -0.53493174603E+03  0.54449273301E+03  0.00000000000E+00 0.  1.
         21    1    1    2  504  503 -0.54616478378E+01 -0.51698784850E+02 -0.65686506271E+02  0.83769392132E+02  0.00000000000E+00 0.  1.
         21    1    1    2  505  501  0.18816421440E+02  0.31785219927E+02 -0.91475462675E+02  0.98651498688E+02  0.00000000000E+00 0.  1.
         21    1    1    2  506  505  0.15815095777E+02 -0.77397699162E+02 -0.26428792659E+03  0.27584167421E+03  0.00000000000E+00 0.  1.
<scales pt_clust_3="91.27169" pt_clust_4="37.17505" pt_clust_5="36.93722" pt_clust_6="14000.00000"></scales>
<clustering>
<clus scale="   36.937">  1  5  2 -1</clus>
<clus scale="   37.175">  1  4  2 -1</clus>
<clus scale="   91.272">  2  3  1 -1</clus>
<clus scale="   36.937">  1  3  2 -1</clus>
</clustering>
</event>
<event>
 6    0  0.2666600E+002  0.1141415E+03  0.7546771E-02  0.1253087E+00
         21   -1    0    0  504  501  0.00000000000E+00  0.00000000000E+00  0.53539396909E+03  0.53539396909E+03  0.00000000000E+00 0.  1.
         21   -1    0    0  506  502 -0.00000000000E+00 -0.00000000000E+00 -0.16210375730E+03  0.16210375730E+03  0.00000000000E+00 0.  1.
         21    1    1    2  503  502  0.47959250504E+02  0.57859596832E+02  0.91889184491E+02  0.11870739185E+03  0.00000000000E+00 0.  1.
         21    1    1    2  504  503 -0.22478396633E+02  0.51223867806E+02  0.40286022028E+03  0.40672536192E+03  0.00000000000E+00 0.  1.
         21    1    1    2  505  501 -0.37075497547E+02 -0.69097876097E+02 -0.64630596601E+02  0.10161802506E+03  0.00000000000E+00 0.  1.
         21    1    1    2  506  505  0.11594643676E+02 -0.39985588542E+02 -0.56828596379E+02  0.70446947552E+02  0.00000000000E+00 0. -1.
<scales pt_clust_3="103.55066" pt_clust_4="55.93892" pt_clust_5="34.98654" pt_clust_6="34.98654"></scales>
<clustering>
<clus scale="   34.987">  5  6 -1 -1</clus>
<clus scale="   55.939">  1  4  2 -1</clus>
<clus scale="  103.551">  1  3  2 -1</clus>
<clus scale="   55.939">  1  3  2 -1</clus>
</clustering>
</event>
<event>
 6    0  0.2666600E+002  0.2541647E+03  0.7546771E-02  0.1110701E+00
         21   -1    0    0  502  501  0.00000000000E+00  0.00000000000E+00  0.66513309305E+03  0.66513309305E+03  0.00000000000E+00 0.  1.
         21   -1    0    0  506  502 -0.00000000000E+00 -0.00000000000E+00 -0.25363730279E+03  0.25363730279E+03  0.00000000000E+00 0. -1.
         21    1    1    2  503  501  0.81482482332E+02 -0.16741444106E+02  0.14782951934E+03  0.16962675987E+03  0.00000000000E+00 0.  1.
         21    1    1    2  504  505 -0.12655438548E+03 -0.93248619181E+01 -0.57731176008E+02  0.13941253250E+03  0.00000000000E+00 0. -1.
         21    1    1    2  505  503  0.16797568777E+03  0.11863835120E+02  0.41937007611E+03  0.45191574768E+03  0.00000000000E+00 0.  1.
         21    1    1    2  506  504 -0.12290378462E+03  0.14202470904E+02 -0.97972629186E+02  0.15781535579E+03  0.00000000000E+00 0. -1.
<scales pt_clust_3="34.04644" pt_clust_4="253.18124" pt_clust_5="34.04644" pt_clust_6="42.44213"></scales>
<clustering>
<clus scale="   34.046">  3  5 -1 -1</clus>
<clus scale="   42.442">  4  6 -1 -1</clus>
<clus scale="  253.181">  2  4  1 -1</clus>
<clus scale="  254.165">  1  3  2 -1</clus>
</clustering>
</event>
<event>
 6    0  0.2666600E+002  0.1629670E+03  0.7546771E-02  0.1185387E+00
         21   -1    0    0  503  501  0.00000000000E+00  0.00000000000E+00  0.75536952426E+03  0.75536952426E+03  0.00000000000E+00 0.  1.
         21   -1    0    0  505  502 -0.00000000000E+00 -0.00000000000E+00 -0.21338640627E+04  0.21338640627E+04  0.00000000000E+00 0. -1.
         21    1    1    2  503  506 -0.69634036162E+02 -0.53408263953E+02  0.30415875295E+03  0.31656577302E+03  0.00000000000E+00 0.  1.
         21    1    1    2  504  501  0.11641739029E+03  0.32379543827E+02 -0.12894445927E+04  0.12950941284E+04  0.00000000000E+00 0. -1.
         21    1    1    2  505  504  0.20555964485E+02  0.32969282588E+02 -0.83229094122E+03  0.83319729483E+03  0.00000000000E+00 0. -1.
         21    1    1    2  506  502 -0.67339318612E+02 -0.11940562462E+02  0.43908224259E+03  0.44437639071E+03  0.00000000000E+00 0.  1.
<scales pt_clust_3="52.95199" pt_clust_4="151.54083" pt_clust_5="38.85256" pt_clust_6="52.95199"></scales>
<clustering>
<clus scale="   38.853">  2  5  1 -1</clus>
<clus scale="   52.952">  3  6 -1 -1</clus>
<clus scale="  151.541">  2  4  1 -1</clus>
<clus scale="  162.967">  1  3  2 -1</clus>
</clustering>
</event>
<event>
 6    0  0.2666600E+002  0.1617821E+03  0.7546771E-02  0.1186699E+00
         21   -1    0    0  503  501  0.00000000000E+00  0.00000000000E+00  0.23659165491E+04  0.23659165491E+04  0.00000000000E+00 0. -1.
         21   -1    0    0  506  502 -0.00000000000E+00 -0.00000000000E+00 -0.60291953649E+03  0.60291953649E+03  0.00000000000E+00 0.  1.
         21    1    1    2  503  505  0.57047102950E+02 -0.69821257449E+02  0.17983810362E+04  0.18006398116E+04  0.00000000000E+00 0. -1.
         21    1    1    2  504  501 -0.89031936649E+02  0.90434497961E+02 -0.40943520586E+03  0.42865169072E+03  0.00000000000E+00 0.  1.
         21    1    1    2  505  502  0.18805246148E+02 -0.57609808389E+02  0.55301322554E+03  0.55632378606E+03  0.00000000000E+00 0.  1.
         21    1    1    2  506  504  0.13179587550E+02  0.36996567876E+02 -0.17896204329E+03  0.18322079713E+03  0.00000000000E+00 0.  1.
<scales pt_clust_3="53.28434" pt_clust_4="148.13263" pt_clust_5="53.28434" pt_clust_6="39.27401"></scales>
<clustering>
<clus scale="   39.274">  2  6  1 -1</clus>
<clus scale="   53.284">  3  5 -1 -1</clus>
<clus scale="  148.133">  2  4  1 -1</clus>
<clus scale="  161.782">  1  3  2 -1</clus>
</clustering>
</event>
<event>
 6    0  0.2666600E+002  0.1161350E+03  0.7546771E-02  0.1249613E+00
         21   -1    0    0  506  501  0.00000000000E+00  0.00000000000E+00  0.17353517261E+03  0.17353517261E+03  0.00000000000E+00 0.  1.
         21   -1    0    0  505  502 -0.00000000000E+00 -0.00000000000E+00 -0.30467718174E+03  0.30467718174E+03  0.00000000000E+00 0.  1.
         21    1    1    2  503  502  0.12427529234E+02  0.71391079066E+02 -0.20010144119E+03  0.21281850582E+03  0.00000000000E+00 0.  1.
         21    1    1    2  504  501 -0.32340807891E+02 -0.66095250041E+01 -0.58165605197E+01  0.33517846770E+02  0.00000000000E+00 0.  1.
         21    1    1    2  505  504  0.24074481679E+02  0.51233560737E+02 -0.39461468849E+02  0.69004825466E+02  0.00000000000E+00 0. -1.
         21    1    1    2  506  503 -0.41612030225E+01 -0.11601511480E+03  0.11423746143E+03  0.16287117629E+03  0.00000000000E+00 0.  1.
<scales pt_clust_3="14000.00000" pt_clust_4="33.00930" pt_clust_5="54.83690" pt_clust_6="116.13504"></scales>
<clustering>
<clus scale="   33.009">  1  4  2 -1</clus>
<clus scale="   54.837">  2  5  1 -1</clus>
<clus scale="  116.135">  1  6  2 -1</clus>
<clus scale="   33.009">  1  3  2 -1</clus>
</clustering>
</event>
<event>
 6    0  0.2666600E+002  0.2210482E+03  0.7546771E-02  0.1133104E+00
         21   -1    0    0  502  501  0.00000000000E+00  0.00000000000E+00  0.95937031835E+03  0.95937031835E+03  0.00000000000E+00 0.  1.
         21   -1    0    0  505  502 -0.00000000000E+00 -0.00000000000E+00 -0.11001825078E+03  0.11001825078E+03  0.00000000000E+00 0.  1.
         21    1    1    2  503  506 -0.14779578430E+02  0.61515722856E+02  0.20216553672E+03  0.21183371860E+03  0.00000000000E+00 0. -1.
         21    1    1    2  504  503 -0.12102233999E+02 -0.19078829348E+03  0.18935560486E+02  0.19210724205E+03  0.00000000000E+00 0.  1.
         21    1    1    2  505  504 -0.28245930592E+02 -0.22333570488E+02  0.33411383442E+02  0.49121701001E+02  0.00000000000E+00 0. -1.
         21    1    1    2  506  501  0.55127743021E+02  0.15160614111E+03  0.59483958692E+03  0.61632590748E+03  0.00000000000E+00 0.  1.
<scales pt_clust_3="37.65188" pt_clust_4="212.79102" pt_clust_5="36.00862" pt_clust_6="37.65188"></scales>
<clustering>
<clus scale="   36.009">  2  5  1 -1</clus>
<clus scale="   37.652">  3  6 -1 -1</clus>
<clus scale="  212.791">  2  4  1 -1</clus>
<clus scale="  221.048">  1  3  2 -1</clus>
</clustering>
</event>
<event>
 6    0  0.2666600E+002  0.9544942E+02  0.7546771E-02  0.1290167E+00
         21   -1    0    0  506  501  0.00000000000E+00  0.00000000000E+00  0.25061360802E+04  0.25061360802E+04  0.00000000000E+00 0.  1.
         21   -1    0    0  503  502 -0.00000000000E+00 -0.00000000000E+00 -0.14283894105E+03  0.14283894105E+03  0.00000000000E+00 0.  1.
         21    1    1    2  503  501  0.77365651563E+01 -0.38429544625E+02  0.71247981306E+02  0.81320103177E+02  0.00000000000E+00 0. -1.
         21    1    1    2  504  502  0.84313106973E+01  0.32118056937E+02 -0.77789217136E+02  0.84580251147E+02  0.00000000000E+00 0.  1.
         21    1    1    2  505  504 -0.10779229005E+03  0.32002153675E+02  0.11224210151E+01  0.11244810119E+03  0.00000000000E+00 0.  1.
         21    1    1    2  506  505  0.91624414193E+02 -0.25690665987E+02  0.23687159540E+04  0.23706265657E+04  0.00000000000E+00 0.  1.
<scales pt_clust_3="36.78395" pt_clust_4="33.20627" pt_clust_5="14000.00000" pt_clust_6="95.44942"></scales>
<clustering>
<clus scale="   33.206">  2  4  1 -1</clus>
<clus scale="   36.784">  2  3  1 -1</clus>
<clus scale="   95.449">  1  6  2 -1</clus>
<clus scale="   95.449">  1  3  2 -1</clus>
</clustering>
</event>
<event>
 6    0  0.2666600E+002  0.1450870E+03  0.7546771E-02  0.1206643E+00
         21   -1    0    0  503  501  0.00000000000E+00  0.00000000000E+00  0.35489631426E+04  0.35489631426E+04  0.00000000000E+00 0.  1.
         21   -1    0    0  506  502 -0.00000000000E+00 -0.00000000000E+00 -0.63884022477E+02  0.63884022477E+02  0.00000000000E+00 0.  1.
         21    1    1    2  503  504 -0.32841237287E+02  0.54876634771E+02  0.50559251262E+03  0.50962121299E+03  0.00000000000E+00 0. -1.
         21    1    1    2  504  502  0.49602875853E+02  0.13200315892E+03  0.29900504136E+03  0.33058931322E+03  0.00000000000E+00 0.  1.
         21    1    1    2  505  501  0.74717765084E+02 -0.69882824822E+02  0.26032146130E+04  0.26052241123E+04  0.00000000000E+00 0.  1.
         21    1    1    2  506  505 -0.91479403650E+02 -0.11699696887E+03  0.77266953092E+02  0.16741252658E+03  0.00000000000E+00 0.  1.
<scales pt_clust_3="63.95304" pt_clust_4="14000.00000" pt_clust_5="51.91709" pt_clust_6="145.08697"></scales>
<clustering>
<clus scale="   63.953">  1  3  2 -1</clus>
<clus scale="   51.917">  1  5  2 -1</clus>
<clus scale="  145.087">  2  6  1 -1</clus>
<clus scale="   63.953">  1  3  2 -1</clus>
</clustering>
</event>
<event>
 6    0  0.2666600E+002  0.7296724E+02  0.7546771E-02  0.1350284E+00
         21   -1    0    0  504  501  0.00000000000E+00  0.00000000000E+00  0.10021748097E+04  0.10021748097E+04  0.00000000000E+00 0.  1.
         21   -1    0    0  505  502 -0.00000000000E+00 -0.00000000000E+00 -0.97496370697E+02  0.97496370697E+02  0.00000000000E+00 0. -1.
         21    1    1    2  503  501 -0.11426013548E+02 -0.50055580722E+02  0.58838811005E+03  0.59062397766E+03  0.00000000000E+00 0.  1.
         21    1    1    2  504  502  0.85043081881E+02  0.52572194371E+02  0.37320743877E+03  0.38636764067E+03  0.00000000000E+00 0.  1.
         21    1    1    2  505  506 -0.20382295553E+02 -0.31917567049E+02  0.21105796325E+01  0.37929191986E+02  0.00000000000E+00 0. -1.
         21    1    1    2  506  503 -0.53234772780E+02  0.29400953400E+02 -0.59027689497E+02  0.84750370036E+02  0.00000000000E+00 0. -1.
<scales pt_clust_3="51.84423" pt_clust_4="72.96724" pt_clust_5="37.87042" pt_clust_6="14000.00000"></scales>
<clustering>
<clus scale="   37.870">  2  5  1 -1</clus>
<clus scale="   51.844">  1  3  2 -1</clus>
<clus scale="   72.967">  1  4  2 -1</clus>
<clus scale="   51.844">  1  3  2 -1</clus>
</clustering>
</event>
<event>
 6    0  0.2666600E+002  0.9785547E+02  0.7546771E-02  0.1284871E+00
         21   -1    0    0  506  501  0.00000000000E+00  0.00000000000E+00  0.75487676468E+03  0.75487676468E+03  0.00000000000E+00 0.  1.
         21   -1    0    0  503  502 -0.00000000000E+00 -0.00000000000E+00 -0.11539741085E+04  0.11539741085E+04  0.00000000000E+00 0. -1.
         21    1    1    2  503  501 -0.65526094149E+02 -0.11329178400E+03  0.27387913093E+03  0.30354320236E+03  0.00000000000E+00 0.  1.
         21    1    1    2  504  505  0.61235809966E+02  0.15354224057E+02 -0.94649832819E+02  0.11377243722E+03  0.00000000000E+00 0.  1.
         21    1    1    2  505  502  0.32676527102E+02  0.27895899511E+02 -0.10313533881E+04  0.10322479100E+04  0.00000000000E+00 0. -1.
         21    1    1    2  506  504 -0.28386242919E+02  0.70041660436E+02  0.45302674609E+03  0.45928732364E+03  0.00000000000E+00 0.  1.
<scales pt_clust_3="14000.00000" pt_clust_4="97.85547" pt_clust_5="42.96436" pt_clust_6="75.93034"></scales>
<clustering>
<clus scale="   42.964">  2  5  1 -1</clus>
<clus scale="   75.930">  1  6  2 -1</clus>
<clus scale="   97.855">  2  4  1 -1</clus>
<clus scale="   75.930">  1  3  2 -1</clus>
</clustering>
</event>
<event>
 6    0  0.2666600E+002  0.1354509E+03  0.7546771E-02  0.1219585E+00
         21   -1    0    0  504  501  0.00000000000E+00  0.00000000000E+00  0.52563106617E+03  0.52563106617E+03  0.00000000000E+00 0. -1.
         21   -1    0    0  501  502 -0.00000000000E+00 -0.00000000000E+00 -0.33150135684E+03  0.33150135684E+03  0.00000000000E+00 0. -1.
         21    1    1    2  503  502 -0.23605298700E+02 -0.62579394053E+02 -0.12968443988E+03  0.14591588205E+03  0.00000000000E+00 0. -1.
         21    1    1    2  504  505 -0.10357659549E+02  0.54015333137E+02  0.38392100165E+03  0.38784052500E+03  0.00000000000E+00 0. -1.
         21    1    1    2  505  506  0.19756529385E+02  0.81077212274E+02  0.10990763866E+03  0.13799827477E+03  0.00000000000E+00 0.  1.
         21    1    1    2  506  503  0.14206428864E+02 -0.72513151358E+02 -0.17001449110E+03  0.18537774118E+03  0.00000000000E+00 0. -1.
<scales pt_clust_3="38.02826" pt_clust_4="54.99943" pt_clust_5="129.41900" pt_clust_6="38.02826"></scales>
<clustering>
<clus scale="   38.028">  3  6 -1 -1</clus>
<clus scale="   54.999">  1  4  2 -1</clus>
<clus scale="  129.419">  1  5  2 -1</clus>
<clus scale="   54.999">  1  3  2 -1</clus>
</clustering>
</event>
<event>
 6    0  0.2666600E+002  0.1098702E+03  0.7546771E-02  0.1260810E+00
         21   -1    0    0  505  501  0.00000000000E+00  0.00000000000E+00  0.99734335992E+03  0.99734335992E+03  0.00000000000E+00 0.  1.
         21   -1    0    0  504  502 -0.00000000000E+00 -0.00000000000E+00 -0.19481319855E+03  0.19481319855E+03  0.00000000000E+00 0. -1.
         21    1    1    2  503  506  0.67643261537E+01  0.12198729575E+03  0.53889247757E+03  0.55256832955E+03  0.00000000000E+00 0.  1.
         21    1    1    2  504  501 -0.62239296144E+02 -0.14011790252E+03 -0.15861267175E+01  0.15332733739E+03  0.00000000000E+00 0. -1.
         21    1    1    2  505  503  0.39285806850E+02 -0.28250097067E+02  0.36862298792E+03  0.37178535451E+03  0.00000000000E+00 0. -1.
         21    1    1    2  506  502  0.16189163140E+02  0.46380703842E+02 -0.10339917740E+03  0.11447553703E+03  0.00000000000E+00 0. -1.
<scales pt_clust_3="14000.00000" pt_clust_4="109.87019" pt_clust_5="48.38846" pt_clust_6="49.00544"></scales>
<clustering>
<clus scale="   48.388">  1  5  2 -1</clus>
<clus scale="   49.005">  2  6  1 -1</clus>
<clus scale="  109.870">  2  4  1 -1</clus>
<clus scale="   48.388">  1  3  2 -1</clus>
</clustering>
</event>
<event>
 6    0  0.2666600E+002  0.2236576E+03  0.7546771E-02  0.1131185E+00
         21   -1    0    0  506  501  0.00000000000E+00  0.00000000000E+00  0.13969270317E+04  0.13969270317E+04  0.00000000000E+00 0.  1.
         21   -1    0    0  505  502 -0.00000000000E+00 -0.00000000000E+00 -0.78198073752E+03  0.78198073752E+03  0.00000000000E+00 0. -1.
         21    1    1    2  503  502  0.16375438431E+03 -0.11458940444E+03 -0.56459739433E+03  0.59892941794E+03  0.00000000000E+00 0. -1.
         21    1    1    2  504  501 -0.15436586367E+03  0.13987454770E+03  0.13187906462E+04  0.13351413698E+04  0.00000000000E+00 0.  1.
         21    1    1    2  505  504 -0.81166840874E+02 -0.24179093860E+02  0.38114601320E+01  0.84777425449E+02  0.00000000000E+00 0. -1.
         21    1    1    2  506  503  0.71778320233E+02 -0.11060494017E+01 -0.14305841774E+03  0.16005955606E+03  0.00000000000E+00 0. -1.
<scales pt_clust_3="48.04388" pt_clust_4="208.79724" pt_clust_5="84.69170" pt_clust_6="48.04388"></scales>
<clustering>
<clus scale="   48.044">  3  6 -1 -1</clus>
<clus scale="   84.692">  2  5  1 -1</clus>
<clus scale="  208.797">  1  4  2 -1</clus>
<clus scale="  208.797">  1  3  2 -1</clus>
</clustering>
</event>
<event>
 6    0  0.2666600E+002  0.1317014E+03  0.7546771E-02  0.1224953E+00
         21   -1    0    0  505  501  0.00000000000E+00  0.00000000000E+00  0.11078470373E+04  0.11078470373E+04  0.00000000000E+00 0.  1.
         21   -1    0    0  506  502 -0.00000000000E+00 -0.00000000000E+00 -0.15650634874E+03  0.15650634874E+03  0.00000000000E+00 0. -1.
         21    1    1    2  503  504 -0.43418141600E+02  0.50358273542E+02 -0.72305974241E+02  0.98230568791E+02  0.00000000000E+00 0. -1.
         21    1    1    2  504  501  0.95147422202E+02 -0.11541853904E+03  0.10001252026E+04  0.10112491740E+04  0.00000000000E+00 0.  1.
         21    1    1    2  505  502 -0.35733416680E+02  0.37535255253E+01  0.68377945165E+02  0.77243183560E+02  0.00000000000E+00 0.  1.
         21    1    1    2  506  503 -0.15995863923E+02  0.61306739969E+02 -0.44856484949E+02  0.77630459681E+02  0.00000000000E+00 0. -1.
<scales pt_clust_3="33.82881" pt_clust_4="127.06026" pt_clust_5="35.93002" pt_clust_6="33.82881"></scales>
<clustering>
<clus scale="   33.829">  3  6 -1 -1</clus>
<clus scale="   35.930">  1  5  2 -1</clus>
<clus scale="  127.060">  1  4  2 -1</clus>
<clus scale="   35.930">  1  3  2 -1</clus>
</clustering>
</event>
<event>
 6    0  0.2666600E+002  0.1379143E+03  0.7546771E-02  0.1216163E+00
         21   -1    0    0  504  501  0.00000000000E+00  0.00000000000E+00  0.84136809590E+02  0.84136809590E+02  0.00000000000E+00 0. -1.
         21   -1    0    0  506  502 -0.00000000000E+00 -0.00000000000E+00 -0.22970177218E+04  0.22970177218E+04  0.00000000000E+00 0. -1.
         21    1    1    2  503  501 -0.55695410426E+02 -0.97751214841E+00 -0.72343299662E+03  0.72557441719E+03  0.00000000000E+00 0. -1.
         21    1    1    2  504  505 -0.45697207213E+02 -0.10365657659E+03 -0.74959548257E+02  0.13583760338E+03  0.00000000000E+00 0. -1.
         21    1    1    2  505  502  0.13413851998E+03  0.12373269286E+03 -0.10667995547E+03  0.21138480249E+03  0.00000000000E+00 0. -1.
         21    1    1    2  506  503 -0.32745902343E+02 -0.19098604122E+02 -0.13078084118E+04  0.13083577083E+04  0.00000000000E+00 0. -1.
<scales pt_clust_3="81.07924" pt_clust_4="137.91427" pt_clust_5="14000.00000" pt_clust_6="37.90845"></scales>
<clustering>
<clus scale="   37.908">  2  6  1 -1</clus>
<clus scale="   81.079">  2  3  1 -1</clus>
<clus scale="  137.914">  1  4  2 -1</clus>
<clus scale="  137.914">  1  3  2 -1</clus>
</clustering>
</event>
<event>
 6    0  0.2666600E+002  0.1768179E+03  0.7546771E-02  0.1170919E+00
         21   -1    0    0  506  501  0.00000000000E+00  0.00000000000E+00  0.15978364056E+03  0.15978364056E+03  0.00000000000E+00 0. -1.
         21   -1    0    0  505  502 -0.00000000000E+00 -0.00000000000E+00 -0.23550133821E+03  0.23550133821E+03  0.00000000000E+00 0. -1.
         21    1    1    2  503  501 -0.27427628649E+02  0.17307062933E+02  0.30068270048E+02  0.44225672458E+02  0.00000000000E+00 0. -1.
         21    1    1    2  504  503  0.13748789064E+02 -0.11570845279E+03 -0.20376229403E+02  0.11829059968E+03  0.00000000000E+00 0. -1.
         21    1    1    2  505  504  0.55337768360E+02 -0.40268467032E+02 -0.46823288499E+02  0.82923087195E+02  0.00000000000E+00 0. -1.
         21    1    1    2  506  502 -0.41658928775E+02  0.13866985689E+03 -0.38586449800E+02  0.14984561944E+03  0.00000000000E+00 0. -1.
<scales pt_clust_3="32.43161" pt_clust_4="63.39630" pt_clust_5="63.39630" pt_clust_6="156.18942"></scales>
<clustering>
<clus scale="   32.432">  1  3  2 -1</clus>
<clus scale="   63.396">  4  5 -1 -1</clus>
<clus scale="  156.189">  2  6  1 -1</clus>
<clus scale="   32.432">  1  3  2 -1</clus>
</clustering>
</event>
<event>
 6    0  0.2666600E+002  0.1135122E+03  0.7546771E-02  0.1254201E+00
         21   -1    0    0  503  501  0.00000000000E+00  0.00000000000E+00  0.34236293582E+03  0.34236293582E+03  0.00000000000E+00 0. -1.
         21   -1    0    0  506  502 -0.00000000000E+00 -0.00000000000E+00 -0.37621950389E+03  0.37621950389E+03  0.00000000000E+00 0.  1.
         21    1    1    2  503  505  0.40843534157E+02 -0.29529501767E+02  0.15748984092E+03  0.16535790199E+03  0.00000000000E+00 0. -1.
         21    1    1    2  504  502 -0.34131136402E+02 -0.50698687851E+01 -0.34434652562E+02  0.48748162413E+02  0.00000000000E+00 0. -1.
         21    1    1    2  505  504 -0.83625765307E+02 -0.98091860190E+01 -0.31341553118E+03  0.32452855643E+03  0.00000000000E+00 0.  1.
         21    1    1    2  506  501  0.76913367552E+02  0.44408556571E+02  0.15650377475E+03  0.17994781887E+03  0.00000000000E+00 0. -1.
<scales pt_clust_3="50.11080" pt_clust_4="34.50562" pt_clust_5="14000.00000" pt_clust_6="113.51223"></scales>
<clustering>
<clus scale="   34.506">  2  4  1 -1</clus>
<clus scale="   50.111">  1  3  2 -1</clus>
<clus scale="  113.512">  1  6  2 -1</clus>
<clus scale="   50.111">  1  3  2 -1</clus>
</clustering>
</event>
<event>
 6    0  0.2666600E+002  0.1448472E+03  0.7546771E-02  0.1206952E+00
         21   -1    0    0  505  501  0.00000000000E+00  0.00000000000E+00  0.18499755820E+04  0.18499755820E+04  0.00000000000E+00 0. -1.
         21   -1    0    0  506  502 -0.00000000000E+00 -0.00000000000E+00 -0.21586809566E+02  0.21586809566E+02  0.00000000000E+00 0. -1.
         21    1    1    2  503  502  0.56537466779E+02 -0.64771115100E+02  0.18852616269E+03  0.20720496259E+03  0.00000000000E+00 0. -1.
         21    1    1    2  504  503  0.68083830679E+02 -0.15872081935E+02  0.17269936246E+03  0.18631264256E+03  0.00000000000E+00 0. -1.
         21    1    1    2  505  504 -0.18585648063E+02  0.60817751072E+02  0.35399025735E+03  0.35965723607E+03  0.00000000000E+00 0. -1.
         21    1    1    2  506  501 -0.10603564940E+03  0.19825445963E+02  0.11131729899E+04  0.11183875503E+04  0.00000000000E+00 0. -1.
<scales pt_clust_3="43.60568" pt_clust_4="43.60568" pt_clust_5="63.59422" pt_clust_6="136.53670"></scales>
<clustering>
<clus scale="   43.606">  3  4 -1 -1</clus>
<clus scale="   63.594">  1  5  2 -1</clus>
<clus scale="  136.537">  1  6  2 -1</clus>
<clus scale="   63.594">  1  3  2 -1</clus>
</clustering>
</event>
<event>
 6    0  0.2666600E+002  0.1196159E+03  0.7546771E-02  0.1243732E+00
         21   -1    0    0  504  501  0.00000000000E+00  0.00000000000E+00  0.56078116452E+03  0.56078116452E+03  0.00000000000E+00 0. -1.
         21   -1    0    0  503  502 -0.00000000000E+00 -0.00000000000E+00 -0.11232462107E+03  0.11232462107E+03  0.00000000000E+00 0.  1.
         21    1    1    2  503  505  0.13029299228E+03 -0.28059117393E+02 -0.25489655495E+02  0.13569561689E+03  0.00000000000E+00 0.  1.
         21    1    1    2  504  506 -0.97075201143E+02 -0.12688335267E+02  0.36081639547E+03  0.37386235404E+03  0.00000000000E+00 0. -1.
         21    1    1    2  505  501 -0.13646895968E+02  0.71120393441E+02  0.10320409090E+03  0.12607708956E+03  0.00000000000E+00 0.  1.
         21    1    1    2  506  502 -0.19570895172E+02 -0.30372940782E+02  0.99257125676E+01  0.37470725100E+02  0.00000000000E+00 0. -1.
<scales pt_clust_3="14000.00000" pt_clust_4="119.61591" pt_clust_5="69.44472" pt_clust_6="36.13219"></scales>
<clustering>
<clus scale="   36.132">  2  6  1 -1</clus>
<clus scale="   69.445">  1  5  2 -1</clus>
<clus scale="  119.616">  1  4  2 -1</clus>
<clus scale="   69.445">  1  3  2 -1</clus>
</clustering>
</event>
<event>
 6    0  0.2666600E+002  0.1312379E+03  0.7546771E-02  0.1225630E+00
         21   -1    0    0  506  501  0.00000000000E+00  0.00000000000E+00  0.68402483594E+03  0.68402483594E+03  0.00000000000E+00 0.  1.
         21   -1    0    0  503  502 -0.00000000000E+00 -0.00000000000E+00 -0.57957785465E+03  0.57957785465E+03  0.00000000000E+00 0. -1.
         21    1    1    2  503  505  0.58826496457E+02 -0.70328573740E+02  0.30498042495E+03  0.31846463630E+03  0.00000000000E+00 0. -1.
         21    1    1    2  504  502  0.20304572744E+02  0.13152872969E+03 -0.53149168395E+03  0.54790098788E+03  0.00000000000E+00 0. -1.
         21    1    1    2  505  501 -0.74970529609E+01 -0.44461192069E+02  0.31964386315E+03  0.32280830635E+03  0.00000000000E+00 0.  1.
         21    1    1    2  506  504 -0.71634016240E+02 -0.16738963877E+02  0.11314377146E+02  0.74428760063E+02  0.00000000000E+00 0.  1.
<scales pt_clust_3="14000.00000" pt_clust_4="131.23790" pt_clust_5="45.08884" pt_clust_6="75.78145"></scales>
<clustering>
<clus scale="   45.089">  1  5  2 -1</clus>
<clus scale="   75.781">  1  6  2 -1</clus>
<clus scale="  131.238">  2  4  1 -1</clus>
<clus scale="   45.089">  1  3  2 -1</clus>
</clustering>
</event>
<event>
 6    0  0.2666600E+002  0.1122967E+03  0.7546771E-02  0.1256375E+00
         21   -1    0    0  505  501  0.00000000000E+00  0.00000000000E+00  0.29506720845E+03  0.29506720845E+03  0.00000000000E+00 0. -1.
         21   -1    0    0  503  502 -0.00000000000E+00 -0.00000000000E+00 -0.12243789608E+03  0.12243789608E+03  0.00000000000E+00 0. -1.
         21    1    1    2  503  504  0.50307603642E+02  0.21397939234E+02 -0.46460627996E+02  0.71744802888E+02  0.00000000000E+00 0. -1.
         21    1    1    2  504  506  0.85421011885E+02 -0.29597998178E+02  0.21057982718E+02  0.92823646792E+02  0.00000000000E+00 0.  1.
         21    1    1    2  505  502 -0.11763280685E+03  0.36765710983E+02  0.16154897994E+03  0.20319268607E+03  0.00000000000E+00 0. -1.
         21    1    1    2  506  501 -0.18095808673E+02 -0.28565652039E+02  0.36482977705E+02  0.49743968782E+02  0.00000000000E+00 0. -1.
<scales pt_clust_3="53.28141" pt_clust_4="112.29674" pt_clust_5="14000.00000" pt_clust_6="33.81501"></scales>
<clustering>
<clus scale="   33.815">  1  6  2 -1</clus>
<clus scale="   53.281">  2  3  1 -1</clus>
<clus scale="  112.297">  2  4  1 -1</clus>
<clus scale="   33.815">  1  3  2 -1</clus>
</clustering>
</event>
<event>
 6    0  0.3840603E+002  0.1496111E+03  0.7546771E-02  0.1200952E+00
         21   -1    0    0  503  501  0.00000000000E+00  0.00000000000E+00  0.18544620644E+03  0.18544620644E+03  0.00000000000E+00 0.  1.
         21   -1    0    0  505  502 -0.00000000000E+00 -0.00000000000E+00 -0.13459569562E+04  0.13459569562E+04  0.00000000000E+00 0. -1.
         21    1    1    2  503  504  0.33925419843E+02 -0.13723709673E+02  0.21311728692E+01  0.36658098921E+02  0.00000000000E+00 0. -1.
         21    1    1    2  504  502 -0.28205380571E+02 -0.18019630452E+02 -0.80982822197E+02  0.87626868401E+02  0.00000000000E+00 0. -1.
         21    1    1    2  505  506 -0.12301618458E+03  0.34402540438E+02 -0.12194624037E+04  0.12261341976E+04  0.00000000000E+00 0. -1.
         21    1    1    2  506  501  0.11729614531E+03 -0.26592003131E+01  0.13780330325E+03  0.18098399774E+03  0.00000000000E+00 0.  1.
<scales pt_clust_3="36.33270" pt_clust_4="33.47014" pt_clust_5="14000.00000" pt_clust_6="149.61113"></scales>
<clustering>
<clus scale="   33.470">  2  4  1 -1</clus>
<clus scale="   36.333">  1  3  2 -1</clus>
<clus scale="  149.611">  1  6  2 -1</clus>
<clus scale="   36.333">  1  3  2 -1</clus>
</clustering>
</event>
<event>
 6    0  0.2666600E+002  0.1130034E+03  0.7546771E-02  0.1255107E+00
         21   -1    0    0  505  501  0.00000000000E+00  0.00000000000E+00  0.58792900951E+03  0.58792900951E+03  0.00000000000E+00 0.  1.
         21   -1    0    0  503  502 -0.00000000000E+00 -0.00000000000E+00 -0.12201944393E+03  0.12201944393E+03  0.00000000000E+00 0.  1.
         21    1    1    2  503  506 -0.53482772854E+02  0.19547891426E+02 -0.75890641716E+02  0.94878430381E+02  0.00000000000E+00 0.  1.
         21    1    1    2  504  501  0.34188239091E+02  0.99780382009E+01  0.38354727034E+02  0.52340061371E+02  0.00000000000E+00 0. -1.
         21    1    1    2  505  502  0.16814932845E+02 -0.12602051875E+03  0.40652566144E+03  0.42594251551E+03  0.00000000000E+00 0.  1.
         21    1    1    2  506  504  0.24796009186E+01  0.96494589122E+02  0.96919818824E+02  0.13678744618E+03  0.00000000000E+00 0.  1.
<scales pt_clust_3="56.44248" pt_clust_4="35.61456" pt_clust_5="113.00337" pt_clust_6="14000.00000"></scales>
<clustering>
<clus scale="   35.615">  1  4  2 -1</clus>
<clus scale="   56.442">  2  3  1 -1</clus>
<clus scale="  113.003">  1  5  2 -1</clus>
<clus scale="   35.615">  1  3  2 -1</clus>
</clustering>
</event>
<event>
 6    0  0.2666600E+002  0.9489392E+02  0.7546771E-02  0.1291415E+00
         21   -1    0    0  506  501  0.00000000000E+00  0.00000000000E+00  0.48923343438E+03  0.48923343438E+03  0.00000000000E+00 0.  1.
         21   -1    0    0  503  502 -0.00000000000E+00 -0.00000000000E+00 -0.89587076915E+02  0.89587076915E+02  0.00000000000E+00 0.  1.
         21    1    1    2  503  504  0.68387538221E+02  0.69405321910E+02 -0.29679230060E+02  0.10185681514E+03  0.00000000000E+00 0.  1.
         21    1    1    2  504  501 -0.71900750088E+02  0.33306693962E+02  0.21710088110E+03  0.23111003073E+03  0.00000000000E+00 0.  1.
         21    1    1    2  505  502 -0.23916966948E+02 -0.90510506165E+02  0.15102836345E+03  0.17769000985E+03  0.00000000000E+00 0.  1.
         21    1    1    2  506  505  0.27430178815E+02 -0.12201509707E+02  0.61196342970E+02  0.68163655578E+02  0.00000000000E+00 0.  1.
<scales pt_clust_3="94.89392" pt_clust_4="63.39558" pt_clust_5="14000.00000" pt_clust_6="30.02152"></scales>
<clustering>
<clus scale="   30.022">  1  6  2 -1</clus>
<clus scale="   63.396">  1  4  2 -1</clus>
<clus scale="   94.894">  2  3  1 -1</clus>
<clus scale="   30.022">  1  3  2 -1</clus>
</clustering>
</event>
<event>
 6    0  0.2666600E+002  0.1277034E+03  0.7546771E-02  0.1230904E+00
         21   -1    0    0  504  501  0.00000000000E+00  0.00000000000E+00  0.11498750001E+03  0.11498750001E+03  0.00000000000E+00 0. -1.
         21   -1    0    0  506  502 -0.00000000000E+00 -0.00000000000E+00 -0.71043681966E+03  0.71043681966E+03  0.00000000000E+00 0.  1.
         21    1    1    2  503  501  0.47075666930E+01 -0.29989945421E+02 -0.17266929769E+01  0.30406240793E+02  0.00000000000E+00 0.  1.
         21    1    1    2  504  502 -0.13498805401E+03  0.36169050272E+02  0.37739158959E+02  0.14475572197E+03  0.00000000000E+00 0. -1.
         21    1    1    2  505  503  0.98038065902E+02  0.12412447053E+02 -0.56927734950E+03  0.57779082016E+03  0.00000000000E+00 0.  1.
         21    1    1    2  506  505  0.32242421419E+02 -0.18591551904E+02 -0.62184436131E+02  0.72471536744E+02  0.00000000000E+00 0. -1.
<scales pt_clust_3="30.35717" pt_clust_4="127.70340" pt_clust_5="14000.00000" pt_clust_6="38.21162"></scales>
<clustering>
<clus scale="   30.357">  1  3  2 -1</clus>
<clus scale="   38.212">  2  6  1 -1</clus>
<clus scale="  127.703">  1  4  2 -1</clus>
<clus scale="   30.357">  1  3  2 -1</clus>
</clustering>
</event>
<event>
 6    0  0.2666600E+002  0.2007750E+03  0.7546771E-02  0.1149087E+00
         21   -1    0    0  506  501  0.00000000000E+00  0.00000000000E+00  0.39421965250E+03  0.39421965250E+03  0.00000000000E+00 0. -1.
         21   -1    0    0  504  502 -0.00000000000E+00 -0.00000000000E+00 -0.19311619115E+03  0.19311619115E+03  0.00000000000E+00 0.  1.
         21    1    1    2  503  502 -0.46043525611E+02 -0.12094276966E+02 -0.18828986313E+02  0.51193832749E+02  0.00000000000E+00 0.  1.
         21    1    1    2  504  505  0.19221491986E+03 -0.16660720561E+02  0.14529333632E+03  0.24152496477E+03  0.00000000000E+00 0. -1.
         21    1    1    2  505  501 -0.43324920769E+01 -0.30761841504E+02  0.12806824660E+03  0.13178215800E+03  0.00000000000E+00 0. -1.
         21    1    1    2  506  503 -0.14183890218E+03  0.59516839030E+02 -0.53429135259E+02  0.16283488813E+03  0.00000000000E+00 0.  1.
<scales pt_clust_3="30.66487" pt_clust_4="193.06021" pt_clust_5="31.06544" pt_clust_6="30.66487"></scales>
<clustering>
<clus scale="   30.665">  3  6 -1 -1</clus>
<clus scale="   31.065">  1  5  2 -1</clus>
<clus scale="  193.060">  1  4  2 -1</clus>
<clus scale="   31.065">  1  3  2 -1</clus>
</clustering>
</event>
<event>
 6    0  0.2666600E+002  0.1693501E+03  0.7546771E-02  0.1178527E+00
         21   -1    0    0  506  501  0.00000000000E+00  0.00000000000E+00  0.52619434311E+03  0.52619434311E+03  0.00000000000E+00 0.  1.
         21   -1    0    0  504  502 -0.00000000000E+00 -0.00000000000E+00 -0.13230828181E+03  0.13230828181E+03  0.00000000000E+00 0. -1.
         21    1    1    2  503  502 -0.26183284233E+02 -0.52318168745E+02  0.17696195994E+02  0.61122095078E+02  0.00000000000E+00 0.  1.
         21    1    1    2  504  505  0.29678198311E+02 -0.96359678954E+01  0.60885727159E+01  0.31791792179E+02  0.00000000000E+00 0.  1.
         21    1    1    2  505  501  0.51676005976E+02  0.14827335354E+03  0.42234697927E+03  0.45059113159E+03  0.00000000000E+00 0.  1.
         21    1    1    2  506  503 -0.55170920054E+02 -0.86319216896E+02 -0.52245686687E+02  0.11499760607E+03  0.00000000000E+00 0. -1.
<scales pt_clust_3="48.23938" pt_clust_4="31.20332" pt_clust_5="157.14263" pt_clust_6="48.23938"></scales>
<clustering>
<clus scale="   31.203">  2  4  1 -1</clus>
<clus scale="   48.239">  3  6 -1 -1</clus>
<clus scale="  157.143">  1  5  2 -1</clus>
<clus scale="  157.143">  1  3  2 -1</clus>
</clustering>
</event>
<event>
 6    0  0.2666600E+002  0.1284666E+03  0.7546771E-02  0.1229749E+00
         21   -1    0    0  506  501  0.00000000000E+00  0.00000000000E+00  0.51582318200E+03  0.51582318200E+03  0.00000000000E+00 0.  1.
         21   -1    0    0  503  502 -0.00000000000E+00 -0.00000000000E+00 -0.54452511420E+03  0.54452511420E+03  0.00000000000E+00 0.  1.
         21    1    1    2  503  504  0.54996331066E+02  0.16807789019E+02 -0.10699673492E+02  0.58494283612E+02  0.00000000000E+00 0. -1.
         21    1    1    2  504  501 -0.46749009257E+02 -0.95276763718E+02  0.40804834885E+03  0.42162375000E+03  0.00000000000E+00 0.  1.
         21    1    1    2  505  502  0.63366301748E+02  0.47655826407E+02 -0.47930357511E+03  0.48581712928E+03  0.00000000000E+00 0.  1.
         21    1    1    2  506  505 -0.71613623557E+02  0.30813148292E+02  0.53252967557E+02  0.94413133304E+02  0.00000000000E+00 0.  1.
<scales pt_clust_3="57.50738" pt_clust_4="14000.00000" pt_clust_5="128.46657" pt_clust_6="76.20529"></scales>
<clustering>
<clus scale="   57.507">  2  3  1 -1</clus>
<clus scale="   76.205">  1  6  2 -1</clus>
<clus scale="  128.467">  2  5  1 -1</clus>
<clus scale="   76.205">  1  3  2 -1</clus>
</clustering>
</event>
<event>
 6    0  0.2666600E+002  0.1382471E+03  0.7546771E-02  0.1215707E+00
         21   -1    0    0  506  501  0.00000000000E+00  0.00000000000E+00  0.81490928753E+03  0.81490928753E+03  0.00000000000E+00 0. -1.
         21   -1    0    0  504  502 -0.00000000000E+00 -0.00000000000E+00 -0.10468965754E+04  0.10468965754E+04  0.00000000000E+00 0. -1.
         21    1    1    2  503  501  0.32728188841E+02 -0.70169727907E+01  0.52164859172E+03  0.52272136507E+03  0.00000000000E+00 0. -1.
         21    1    1    2  504  505 -0.68538686479E+02 -0.10318714573E+03 -0.23717080706E+03  0.26757266361E+03  0.00000000000E+00 0. -1.
         21    1    1    2  505  503  0.11866297101E+02 -0.36346138852E+02  0.26921793736E+03  0.27191937888E+03  0.00000000000E+00 0.  1.
         21    1    1    2  506  502  0.23944200537E+02  0.14655025737E+03 -0.78568300987E+03  0.79959245537E+03  0.00000000000E+00 0. -1.
<scales pt_clust_3="33.47196" pt_clust_4="138.24713" pt_clust_5="60.07040" pt_clust_6="14000.00000"></scales>
<clustering>
<clus scale="   33.472">  1  3  2 -1</clus>
<clus scale="   60.070">  1  5  2 -1</clus>
<clus scale="  138.247">  1  4  2 -1</clus>
<clus scale="   33.472">  1  3  2 -1</clus>
</clustering>
</event>
<event>
 6    0  0.2666600E+002  0.7048237E+02  0.7546771E-02  0.1358460E+00
         21   -1    0    0  504  501  0.00000000000E+00  0.00000000000E+00  0.15870012517E+04  0.15870012517E+04  0.00000000000E+00 0.  1.
         21   -1    0    0  503  502 -0.00000000000E+00 -0.00000000000E+00 -0.35265417996E+02  0.35265417996E+02  0.00000000000E+00 0.  1.
         21    1    1    2  503  506 -0.12781005366E+02 -0.51262313427E+02  0.67814778197E+02  0.85965243081E+02  0.00000000000E+00 0.  1.
         21    1    1    2  504  505 -0.10903120264E+02 -0.34246729595E+02  0.51672633644E+03  0.51797473229E+03  0.00000000000E+00 0.  1.
         21    1    1    2  505  502 -0.49431380332E+02  0.71324710820E+02  0.93185863942E+03  0.93589059168E+03  0.00000000000E+00 0.  1.
         21    1    1    2  506  501  0.73115505962E+02  0.14184332202E+02  0.35336079620E+02  0.82436102619E+02  0.00000000000E+00 0.  1.
<scales pt_clust_3="55.41010" pt_clust_4="35.94046" pt_clust_5="70.48237" pt_clust_6="14000.00000"></scales>
<clustering>
<clus scale="   35.940">  1  4  2 -1</clus>
<clus scale="   55.410">  2  3  1 -1</clus>
<clus scale="   70.482">  1  5  2 -1</clus>
<clus scale="   35.940">  1  3  2 -1</clus>
</clustering>
</event>
<event>
 6    0  0.2666600E+002  0.9428747E+02  0.7546771E-02  0.1292789E+00
         21   -1    0    0  505  501  0.00000000000E+00  0.00000000000E+00  0.39183898832E+03  0.39183898832E+03  0.00000000000E+00 0.  1.
         21   -1    0    0  506  502 -0.00000000000E+00 -0.00000000000E+00 -0.82570057505E+02  0.82570057505E+02  0.00000000000E+00 0.  1.
         21    1    1    2  503  501  0.84894927202E+01 -0.50171866668E+02  0.60994073413E+02  0.79432768321E+02  0.00000000000E+00 0.  1.
         21    1    1    2  504  502 -0.71422790719E+02  0.67788334471E+02  0.10249498928E+03  0.14213267095E+03  0.00000000000E+00 0.  1.
         21    1    1    2  505  504 -0.91118048799E+01  0.41041373086E+02  0.15394387514E+03  0.15958112666E+03  0.00000000000E+00 0.  1.
         21    1    1    2  506  503  0.72045102879E+02 -0.58657840889E+02 -0.81640070095E+01  0.93262479899E+02  0.00000000000E+00 0.  1.
<scales pt_clust_3="38.34974" pt_clust_4="94.28747" pt_clust_5="42.04069" pt_clust_6="14000.00000"></scales>
<clustering>
<clus scale="   42.041">  1  5  2 -1</clus>
<clus scale="   38.350">  1  3  2 -1</clus>
<clus scale="   94.287">  1  4  2 -1</clus>
<clus scale="   42.041">  1  3  2 -1</clus>
</clustering>
</event>
<event>
 6    0  0.2666600E+002  0.7389683E+02  0.7546771E-02  0.1347322E+00
         21   -1    0    0  504  501  0.00000000000E+00  0.00000000000E+00  0.21684191281E+03  0.21684191281E+03  0.00000000000E+00 0. -1.
         21   -1    0    0  506  502 -0.00000000000E+00 -0.00000000000E+00 -0.92728162282E+02  0.92728162282E+02  0.00000000000E+00 0. -1.
         21    1    1    2  503  502  0.37007646569E+02 -0.50576059159E+02  0.29886875191E+02  0.69431469618E+02  0.00000000000E+00 0. -1.
         21    1    1    2  504  503  0.71190541870E+02  0.35518668058E+02  0.53579387755E+02  0.95918818929E+02  0.00000000000E+00 0. -1.
         21    1    1    2  505  501 -0.70580769906E+02 -0.98764376625E+01  0.61843151389E+02  0.94359760889E+02  0.00000000000E+00 0. -1.
         21    1    1    2  506  505 -0.37617418534E+02  0.24933828764E+02 -0.21195663810E+02  0.49860025655E+02  0.00000000000E+00 0. -1.
<scales pt_clust_3="48.33867" pt_clust_4="73.89683" pt_clust_5="14000.00000" pt_clust_6="45.13054"></scales>
<clustering>
<clus scale="   45.131">  2  6  1 -1</clus>
<clus scale="   48.339">  2  3  1 -1</clus>
<clus scale="   73.897">  2  4  1 -1</clus>
<clus scale="   73.897">  1  3  2 -1</clus>
</clustering>
</event>
<event>
 6    0  0.2666600E+002  0.7109511E+02  0.7546771E-02  0.1356408E+00
         21   -1    0    0  506  501  0.00000000000E+00  0.00000000000E+00  0.17319749440E+03  0.17319749440E+03  0.00000000000E+00 0.  1.
         21   -1    0    0  505  502 -0.00000000000E+00 -0.00000000000E+00 -0.23458666255E+03  0.23458666255E+03  0.00000000000E+00 0.  1.
         21    1    1    2  503  501  0.73299216053E+02 -0.61125933700E+02  0.11104595462E+03  0.14642526723E+03  0.00000000000E+00 0.  1.
         21    1    1    2  504  502  0.44542019927E+02  0.28249716566E+01 -0.23230876374E+02  0.50315461055E+02  0.00000000000E+00 0.  1.
         21    1    1    2  505  503 -0.90630530178E+02  0.37043232209E+02 -0.14676722724E+03  0.17642764252E+03  0.00000000000E+00 0.  1.
         21    1    1    2  506  504 -0.27210705803E+02  0.21257729834E+02 -0.24370191533E+01  0.34615786143E+02  0.00000000000E+00 0.  1.
<scales pt_clust_3="71.09511" pt_clust_4="42.45277" pt_clust_5="14000.00000" pt_clust_6="34.52989"></scales>
<clustering>
<clus scale="   34.530">  1  6  2 -1</clus>
<clus scale="   42.453">  2  4  1 -1</clus>
<clus scale="   71.095">  1  3  2 -1</clus>
<clus scale="   34.530">  1  3  2 -1</clus>
</clustering>
</event>
<event>
 6    0  0.2666600E+002  0.1242077E+03  0.7546771E-02  0.1236313E+00
         21   -1    0    0  504  501  0.00000000000E+00  0.00000000000E+00  0.47203752891E+03  0.47203752891E+03  0.00000000000E+00 0. -1.
         21   -1    0    0  501  502 -0.00000000000E+00 -0.00000000000E+00 -0.35704304326E+03  0.35704304326E+03  0.00000000000E+00 0.  1.
         21    1    1    2  503  505  0.10049792107E+02 -0.10968510468E+03 -0.23426039360E+03  0.25886242006E+03  0.00000000000E+00 0.  1.
         21    1    1    2  504  506  0.20782820705E+02  0.53101189752E+02  0.13081819511E+03  0.14270620926E+03  0.00000000000E+00 0. -1.
         21    1    1    2  505  502 -0.37828768990E+02 -0.41089099140E-01 -0.98482416178E+02  0.10549788504E+03  0.00000000000E+00 0.  1.
         21    1    1    2  506  503  0.69961561779E+01  0.56625004031E+02  0.31691910032E+03  0.32201405781E+03  0.00000000000E+00 0. -1.
<scales pt_clust_3="112.88412" pt_clust_4="51.67653" pt_clust_5="37.82879" pt_clust_6="51.67653"></scales>
<clustering>
<clus scale="   37.829">  2  5  1 -1</clus>
<clus scale="   51.677">  4  6 -1 -1</clus>
<clus scale="  112.884">  2  3  1 -1</clus>
<clus scale="  124.208">  1  3  2 -1</clus>
</clustering>
</event>
<event>
 6    0  0.2666600E+002  0.1116915E+03  0.7546771E-02  0.1257469E+00
         21   -1    0    0  504  501  0.00000000000E+00  0.00000000000E+00  0.32679774863E+03  0.32679774863E+03  0.00000000000E+00 0. -1.
         21   -1    0    0  503  502 -0.00000000000E+00 -0.00000000000E+00 -0.40413833662E+03  0.40413833662E+03  0.00000000000E+00 0. -1.
         21    1    1    2  503  506  0.32504268642E+02  0.60328139812E+02 -0.30055574671E+03  0.30826898776E+03  0.00000000000E+00 0. -1.
         21    1    1    2  504  502 -0.33155803077E+02 -0.11124650393E+03  0.27230569108E+03  0.29601601529E+03  0.00000000000E+00 0. -1.
         21    1    1    2  505  501 -0.29994442236E+02  0.32238002842E+02  0.20331108451E+02  0.48500611987E+02  0.00000000000E+00 0. -1.
         21    1    1    2  506  505  0.30645976671E+02  0.18680361272E+02 -0.69421640809E+02  0.78150470222E+02  0.00000000000E+00 0.  1.
<scales pt_clust_3="33.99407" pt_clust_4="101.33384" pt_clust_5="44.03357" pt_clust_6="33.99407"></scales>
<clustering>
<clus scale="   33.994">  3  6 -1 -1</clus>
<clus scale="   44.034">  1  5  2 -1</clus>
<clus scale="  101.334">  1  4  2 -1</clus>
<clus scale="   44.034">  1  3  2 -1</clus>
</clustering>
</event>
<event>
 6    0  0.2666600E+002  0.1275711E+03  0.7546771E-02  0.1231105E+00
         21   -1    0    0  506  501  0.00000000000E+00  0.00000000000E+00  0.12406930725E+03  0.12406930725E+03  0.00000000000E+00 0.  1.
         21   -1    0    0  503  502 -0.00000000000E+00 -0.00000000000E+00 -0.10667158914E+04  0.10667158914E+04  0.00000000000E+00 0.  1.
         21    1    1    2  503  505 -0.25686213957E+02  0.13484900648E+03 -0.75416932032E+03  0.76656076070E+03  0.00000000000E+00 0.  1.
         21    1    1    2  504  502 -0.47534040455E+01 -0.11227562335E+03 -0.27583757381E+03  0.29785026032E+03  0.00000000000E+00 0.  1.
         21    1    1    2  505  501  0.33669061513E+02  0.23392976835E+02  0.60359602727E+02  0.72966558845E+02  0.00000000000E+00 0.  1.
         21    1    1    2  506  504 -0.32294435101E+01 -0.45966359967E+02  0.27000707238E+02  0.53407618795E+02  0.00000000000E+00 0.  1.
<scales pt_clust_3="127.57108" pt_clust_4="14000.00000" pt_clust_5="40.99801" pt_clust_6="35.90696"></scales>
<clustering>
<clus scale="   40.998">  1  5  2 -1</clus>
<clus scale="   35.907">  1  6  2 -1</clus>
<clus scale="  127.571">  2  3  1 -1</clus>
<clus scale="   40.998">  1  3  2 -1</clus>
</clustering>
</event>
<event>
 6    0  0.2666600E+002  0.1732407E+03  0.7546771E-02  0.1174510E+00
         21   -1    0    0  502  501  0.00000000000E+00  0.00000000000E+00  0.20733091055E+03  0.20733091055E+03  0.00000000000E+00 0.  1.
         21   -1    0    0  503  502 -0.00000000000E+00 -0.00000000000E+00 -0.18974055706E+04  0.18974055706E+04  0.00000000000E+00 0. -1.
         21    1    1    2  503  505  0.34226169284E+02 -0.10642527717E+03 -0.14644381428E+04  0.14686990312E+04  0.00000000000E+00 0. -1.
         21    1    1    2  504  501 -0.25752893344E+02  0.47722453403E+02  0.19000264689E+02  0.57460022038E+02  0.00000000000E+00 0.  1.
         21    1    1    2  505  506  0.30931216521E+02 -0.41844788152E+02 -0.39224528918E+03  0.39568180819E+03  0.00000000000E+00 0. -1.
         21    1    1    2  506  504 -0.39404492461E+02  0.10054761192E+03  0.14760850724E+03  0.18289561968E+03  0.00000000000E+00 0.  1.
<scales pt_clust_3="169.24109" pt_clust_4="43.58351" pt_clust_5="33.51400" pt_clust_6="43.58351"></scales>
<clustering>
<clus scale="   33.514">  3  5 -1 -1</clus>
<clus scale="   43.584">  4  6 -1 -1</clus>
<clus scale="  169.241">  2  3  1 -1</clus>
<clus scale="  173.241">  1  3  2 -1</clus>
</clustering>
</event>
<event>
 6    0  0.2666600E+002  0.2123420E+03  0.7546771E-02  0.1139725E+00
         21   -1    0    0  505  501  0.00000000000E+00  0.00000000000E+00  0.13114175639E+04  0.13114175639E+04  0.00000000000E+00 0.  1.
         21   -1    0    0  503  502 -0.00000000000E+00 -0.00000000000E+00 -0.18704683857E+03  0.18704683857E+03  0.00000000000E+00 0.  1.
         21    1    1    2  503  504  0.13681458201E+03  0.11109413195E+03 -0.89298197165E+02  0.19757101008E+03  0.00000000000E+00 0.  1.
         21    1    1    2  504  501 -0.48797733220E+02 -0.15014515325E+03  0.10349674911E+04  0.10469395844E+04  0.00000000000E+00 0.  1.
         21    1    1    2  505  506 -0.93150949328E+02 -0.27915958220E+02  0.15451406708E+03  0.18256778743E+03  0.00000000000E+00 0.  1.
         21    1    1    2  506  502  0.51341005355E+01  0.66966979517E+02  0.24187364302E+02  0.71386020521E+02  0.00000000000E+00 0.  1.
<scales pt_clust_3="212.34199" pt_clust_4="14000.00000" pt_clust_5="95.32403" pt_clust_6="67.16350"></scales>
<clustering>
<clus scale="   67.163">  2  6  1 -1</clus>
<clus scale="   95.324">  1  5  2 -1</clus>
<clus scale="  212.342">  2  3  1 -1</clus>
<clus scale="   95.324">  1  3  2 -1</clus>
</clustering>
</event>
<event>
 6    0  0.2666600E+002  0.1621726E+03  0.7546771E-02  0.1186266E+00
         21   -1    0    0  504  501  0.00000000000E+00  0.00000000000E+00  0.58378180222E+03  0.58378180222E+03  0.00000000000E+00 0.  1.
         21   -1    0    0  506  502 -0.00000000000E+00 -0.00000000000E+00 -0.25733762052E+04  0.25733762052E+04  0.00000000000E+00 0.  1.
         21    1    1    2  503  505  0.36923966015E+02 -0.25683871871E+02 -0.64681089981E+03  0.64837287162E+03  0.00000000000E+00 0.  1.
         21    1    1    2  504  502  0.51030758403E+02 -0.10211171246E+02 -0.44596351628E+01  0.52233080200E+02  0.00000000000E+00 0.  1.
         21    1    1    2  505  501 -0.20388208002E+03  0.21912614524E+02  0.53843718431E+03  0.57616201426E+03  0.00000000000E+00 0.  1.
         21    1    1    2  506  503  0.11592735560E+03  0.13982428593E+02 -0.18767610523E+04  0.18803900413E+04  0.00000000000E+00 0.  1.
<scales pt_clust_3="32.40446" pt_clust_4="52.04235" pt_clust_5="153.53805" pt_clust_6="32.40446"></scales>
<clustering>
<clus scale="   32.404">  3  6 -1 -1</clus>
<clus scale="   52.042">  1  4  2 -1</clus>
<clus scale="  153.538">  1  5  2 -1</clus>
<clus scale="   52.042">  1  3  2 -1</clus>
</clustering>
</event>
<event>
 6    0  0.2666600E+002  0.1769380E+03  0.7546771E-02  0.1170800E+00
         21   -1    0    0  506  501  0.00000000000E+00  0.00000000000E+00  0.79210822436E+02  0.79210822436E+02  0.00000000000E+00 0.  1.
         21   -1    0    0  503  502 -0.00000000000E+00 -0.00000000000E+00 -0.44006277406E+03  0.44006277406E+03  0.00000000000E+00 0.  1.
         21    1    1    2  503  504 -0.54610204036E+02 -0.29516761508E+02 -0.16867171112E+03  0.17973218890E+03  0.00000000000E+00 0.  1.
         21    1    1    2  504  501 -0.98416011574E+02 -0.27763357254E+02 -0.10843254088E+03  0.14904405812E+03  0.00000000000E+00 0.  1.
         21    1    1    2  505  502  0.33400445754E+02  0.27316502065E+02 -0.42229339031E+02  0.60374648129E+02  0.00000000000E+00 0.  1.
         21    1    1    2  506  505  0.11962576986E+03  0.29963616697E+02 -0.41518360594E+02  0.13012270135E+03  0.00000000000E+00 0.  1.
<scales pt_clust_3="52.89587" pt_clust_4="52.89587" pt_clust_5="30.03066" pt_clust_6="171.10103"></scales>
<clustering>
<clus scale="   30.031">  5  6 -1 -1</clus>
<clus scale="   52.896">  3  4 -1 -1</clus>
<clus scale="  171.101">  1  5  2 -1</clus>
<clus scale="  171.101">  1  3  2 -1</clus>
</clustering>
</event>
<event>
 6    0  0.2666600E+002  0.1957883E+03  0.7546771E-02  0.1153342E+00
         21   -1    0    0  504  501  0.00000000000E+00  0.00000000000E+00  0.12117350220E+03  0.12117350220E+03  0.00000000000E+00 0. -1.
         21   -1    0    0  503  502 -0.00000000000E+00 -0.00000000000E+00 -0.17920108016E+04  0.17920108016E+04  0.00000000000E+00 0. -1.
         21    1    1    2  503  506 -0.44888929839E+02 -0.16737937681E+03  0.27526979762E+02  0.17546682426E+03  0.00000000000E+00 0. -1.
         21    1    1    2  504  505  0.72142168911E+02  0.93713966896E+02 -0.13125756741E+04  0.13178929017E+04  0.00000000000E+00 0. -1.
         21    1    1    2  505  502  0.14307173487E+02  0.65849413249E+02 -0.36770973724E+03  0.37383323996E+03  0.00000000000E+00 0. -1.
         21    1    1    2  506  501 -0.41560412559E+02  0.78159966615E+01 -0.18078867778E+02  0.45991337837E+02  0.00000000000E+00 0.  1.
<scales pt_clust_3="180.80030" pt_clust_4="56.81368" pt_clust_5="56.81368" pt_clust_6="42.28898"></scales>
<clustering>
<clus scale="   42.289">  1  6  2 -1</clus>
<clus scale="   56.814">  4  5 -1 -1</clus>
<clus scale="  180.800">  1  3  2 -1</clus>
<clus scale="   42.289">  1  3  2 -1</clus>
</clustering>
</event>
<event>
 6    0  0.2666600E+002  0.6952097E+02  0.7546771E-02  0.1361730E+00
         21   -1    0    0  506  501  0.00000000000E+00  0.00000000000E+00  0.13297545798E+03  0.13297545798E+03  0.00000000000E+00 0. -1.
         21   -1    0    0  504  502 -0.00000000000E+00 -0.00000000000E+00 -0.25648234618E+03  0.25648234618E+03  0.00000000000E+00 0. -1.
         21    1    1    2  503  501 -0.60139229015E+01  0.63580143003E+02  0.62985374966E+02  0.89698156685E+02  0.00000000000E+00 0. -1.
         21    1    1    2  504  505 -0.32324055587E+02  0.22750747685E+02 -0.27950725279E+02  0.48411611556E+02  0.00000000000E+00 0. -1.
         21    1    1    2  505  503  0.60086222214E+01 -0.13493986200E+03 -0.12490235266E+03  0.18397137711E+03  0.00000000000E+00 0. -1.
         21    1    1    2  506  502  0.32329356267E+02  0.48608971313E+02 -0.33639185232E+02  0.67376658806E+02  0.00000000000E+00 0. -1.
<scales pt_clust_3="14000.00000" pt_clust_4="39.52773" pt_clust_5="69.52097" pt_clust_6="59.32813"></scales>
<clustering>
<clus scale="   39.528">  2  4  1 -1</clus>
<clus scale="   59.328">  2  6  1 -1</clus>
<clus scale="   69.521">  2  5  1 -1</clus>
<clus scale="   69.521">  1  3  2 -1</clus>
</clustering>
</event>
<event>
 6    0  0.2666600E+002  0.1379249E+03  0.7546771E-02  0.1216149E+00
         21   -1    0    0  502  501  0.00000000000E+00  0.00000000000E+00  0.19777039851E+03  0.19777039851E+03  0.00000000000E+00 0. -1.
         21   -1    0    0  505  502 -0.00000000000E+00 -0.00000000000E+00 -0.19549870650E+03  0.19549870650E+03  0.00000000000E+00 0. -1.
         21    1    1    2  503  504 -0.82493419521E+02 -0.59770460432E+02 -0.51476814199E+02  0.11413822587E+03  0.00000000000E+00 0. -1.
         21    1    1    2  504  506  0.49952584166E+02 -0.61023494616E+01  0.34481268263E+02  0.61003747384E+02  0.00000000000E+00 0. -1.
         21    1    1    2  505  503 -0.33490829056E+02 -0.11348704960E+01 -0.76724034595E+02  0.83722763012E+02  0.00000000000E+00 0.  1.
         21    1    1    2  506  501  0.66031664410E+02  0.67007680389E+02  0.95991272540E+02  0.13440436875E+03  0.00000000000E+00 0. -1.
<scales pt_clust_3="122.57173" pt_clust_4="45.44006" pt_clust_5="33.51005" pt_clust_6="45.44006"></scales>
<clustering>
<clus scale="   33.510">  2  5  1 -1</clus>
<clus scale="   45.440">  4  6 -1 -1</clus>
<clus scale="  122.572">  2  3  1 -1</clus>
<clus scale="  137.925">  1  3  2 -1</clus>
</clustering>
</event>
<event>
 6    0  0.2666600E+002  0.1752312E+03  0.7546771E-02  0.1172500E+00
         21   -1    0    0  504  501  0.00000000000E+00  0.00000000000E+00  0.83295182338E+03  0.83295182338E+03  0.00000000000E+00 0.  1.
         21   -1    0    0  506  502 -0.00000000000E+00 -0.00000000000E+00 -0.24017779214E+03  0.24017779214E+03  0.00000000000E+00 0. -1.
         21    1    1    2  503  502 -0.45639534923E+01  0.22279016708E+03 -0.12606034331E+03  0.25602245678E+03  0.00000000000E+00 0. -1.
         21    1    1    2  504  503 -0.59514110311E+02 -0.36367736723E+02  0.33208253613E+03  0.33932779492E+03  0.00000000000E+00 0.  1.
         21    1    1    2  505  501  0.21882457093E+02 -0.13890071780E+03  0.38956512164E+03  0.41416570999E+03  0.00000000000E+00 0.  1.
         21    1    1    2  506  505  0.42195606710E+02 -0.47521712564E+02 -0.28132832136E+01  0.63613653825E+02  0.00000000000E+00 0.  1.
<scales pt_clust_3="175.23120" pt_clust_4="69.55839" pt_clust_5="14000.00000" pt_clust_6="63.55142"></scales>
<clustering>
<clus scale="   63.551">  2  6  1 -1</clus>
<clus scale="   69.558">  1  4  2 -1</clus>
<clus scale="  175.231">  2  3  1 -1</clus>
<clus scale="   69.558">  1  3  2 -1</clus>
</clustering>
</event>
<event>
 6    0  0.2666600E+002  0.1478548E+03  0.7546771E-02  0.1203134E+00
         21   -1    0    0  506  501  0.00000000000E+00  0.00000000000E+00  0.19117342482E+03  0.19117342482E+03  0.00000000000E+00 0.  1.
         21   -1    0    0  505  502 -0.00000000000E+00 -0.00000000000E+00 -0.80364008518E+03  0.80364008518E+03  0.00000000000E+00 0. -1.
         21    1    1    2  503  502 -0.60718493795E+02 -0.10148899937E+03 -0.13308787966E+03  0.17804251232E+03  0.00000000000E+00 0. -1.
         21    1    1    2  504  503  0.62414138211E+02  0.60948026894E+01  0.36506706730E+02  0.72563151149E+02  0.00000000000E+00 0.  1.
         21    1    1    2  505  501 -0.59964422670E+02  0.29082415925E+02 -0.61089445544E+03  0.61451896194E+03  0.00000000000E+00 0. -1.
         21    1    1    2  506  504  0.58268778255E+02  0.66311780751E+02  0.95008968007E+02  0.12968888459E+03  0.00000000000E+00 0.  1.
<scales pt_clust_3="134.38227" pt_clust_4="51.97368" pt_clust_5="66.64472" pt_clust_6="51.97368"></scales>
<clustering>
<clus scale="   51.974">  4  6 -1 -1</clus>
<clus scale="   66.645">  2  5  1 -1</clus>
<clus scale="  134.382">  2  3  1 -1</clus>
<clus scale="  147.855">  1  3  2 -1</clus>
</clustering>
</event>
<event>
 6    0  0.2666600E+002  0.1074084E+03  0.7546771E-02  0.1265446E+00
         21   -1    0    0  506  501  0.00000000000E+00  0.00000000000E+00  0.97550244814E+03  0.97550244814E+03  0.00000000000E+00 0.  1.
         21   -1    0    0  505  502 -0.00000000000E+00 -0.00000000000E+00 -0.94518014601E+02  0.94518014601E+02  0.00000000000E+00 0. -1.
         21    1    1    2  503  502  0.99575356138E+02 -0.63480976316E+01  0.19885170668E+02  0.10173971646E+03  0.00000000000E+00 0. -1.
         21    1    1    2  504  501 -0.52994537908E+02  0.70927696900E+02  0.35868573890E+03  0.36945178105E+03  0.00000000000E+00 0.  1.
         21    1    1    2  505  504 -0.36720628920E+02 -0.10251424186E+03  0.15091538063E+02  0.10993329292E+03  0.00000000000E+00 0.  1.
         21    1    1    2  506  503 -0.98601893096E+01  0.37934642590E+02  0.48732198592E+03  0.48889567230E+03  0.00000000000E+00 0.  1.
<scales pt_clust_3="98.35835" pt_clust_4="14000.00000" pt_clust_5="107.40836" pt_clust_6="39.19516"></scales>
<clustering>
<clus scale="   39.195">  1  6  2 -1</clus>
<clus scale="   98.358">  2  3  1 -1</clus>
<clus scale="  107.408">  2  5  1 -1</clus>
<clus scale="   39.195">  1  3  2 -1</clus>
</clustering>
</event>
<event>
 6    0  0.2666600E+002  0.1279574E+03  0.7546771E-02  0.1230518E+00
         21   -1    0    0  502  501  0.00000000000E+00  0.00000000000E+00  0.61596792346E+03  0.61596792346E+03  0.00000000000E+00 0.  1.
         21   -1    0    0  503  502 -0.00000000000E+00 -0.00000000000E+00 -0.10722672656E+03  0.10722672656E+03  0.00000000000E+00 0. -1.
         21    1    1    2  503  506 -0.46019433009E+02 -0.21988756823E+02 -0.79470567713E+01  0.51618304431E+02  0.00000000000E+00 0. -1.
         21    1    1    2  504  501  0.71936097085E+02 -0.41385038315E+02  0.44451939633E+03  0.45220019591E+03  0.00000000000E+00 0.  1.
         21    1    1    2  505  504  0.31846944483E+02 -0.24686940437E+02  0.10220490607E+03  0.10986134773E+03  0.00000000000E+00 0.  1.
         21    1    1    2  506  505 -0.57763608560E+02  0.88060735574E+02 -0.30036048726E+02  0.10951480195E+03  0.00000000000E+00 0. -1.
<scales pt_clust_3="51.00288" pt_clust_4="30.12640" pt_clust_5="30.12640" pt_clust_6="120.43171"></scales>
<clustering>
<clus scale="   30.126">  4  5 -1 -1</clus>
<clus scale="   51.003">  2  3  1 -1</clus>
<clus scale="  120.432">  2  6  1 -1</clus>
<clus scale="  127.957">  1  3  2 -1</clus>
</clustering>
</event>
<event>
 6    0  0.2666600E+002  0.9295645E+02  0.7546771E-02  0.1295846E+00
         21   -1    0    0  503  501  0.00000000000E+00  0.00000000000E+00  0.13582136391E+03  0.13582136391E+03  0.00000000000E+00 0. -1.
         21   -1    0    0  505  502 -0.00000000000E+00 -0.00000000000E+00 -0.15563678653E+03  0.15563678653E+03  0.00000000000E+00 0. -1.
         21    1    1    2  503  506 -0.50019140068E+02  0.48432437966E+02  0.55575126817E+01  0.69846269533E+02  0.00000000000E+00 0. -1.
         21    1    1    2  504  501  0.80552761165E+00 -0.64211168082E+02  0.47780426685E+02  0.80041815043E+02  0.00000000000E+00 0. -1.
         21    1    1    2  505  504  0.56110164426E+02 -0.37086943286E+02 -0.47936142331E+02  0.82593375375E+02  0.00000000000E+00 0. -1.
         21    1    1    2  506  502 -0.68965519694E+01  0.52865673402E+02 -0.25217219660E+02  0.58976690486E+02  0.00000000000E+00 0. -1.
<scales pt_clust_3="45.53792" pt_clust_4="64.21622" pt_clust_5="77.02437" pt_clust_6="45.53792"></scales>
<clustering>
<clus scale="   45.538">  3  6 -1 -1</clus>
<clus scale="   64.216">  1  4  2 -1</clus>
<clus scale="   77.024">  2  5  1 -1</clus>
<clus scale="   64.216">  1  3  2 -1</clus>
</clustering>
</event>
<event>
 6    0  0.2666600E+002  0.1316178E+03  0.7546771E-02  0.1225075E+00
         21   -1    0    0  505  501  0.00000000000E+00  0.00000000000E+00  0.19678337251E+03  0.19678337251E+03  0.00000000000E+00 0.  1.
         21   -1    0    0  503  502 -0.00000000000E+00 -0.00000000000E+00 -0.30484311733E+03  0.30484311733E+03  0.00000000000E+00 0.  1.
         21    1    1    2  503  504 -0.28757150623E+01  0.79088489757E+02 -0.46564853799E+02  0.91823442314E+02  0.00000000000E+00 0. -1.
         21    1    1    2  504  501 -0.39197470298E+02 -0.98605760193E+02 -0.41989667043E+01  0.10619401557E+03  0.00000000000E+00 0.  1.
         21    1    1    2  505  506  0.14292529581E+03 -0.34018130157E+01  0.52939431542E+02  0.15245260223E+03  0.00000000000E+00 0.  1.
         21    1    1    2  506  502 -0.10085211045E+03  0.22919083452E+02 -0.11023535586E+03  0.15115642973E+03  0.00000000000E+00 0.  1.
<scales pt_clust_3="79.14075" pt_clust_4="89.45738" pt_clust_5="14000.00000" pt_clust_6="131.61776"></scales>
<clustering>
<clus scale="   79.141">  2  3  1 -1</clus>
<clus scale="   89.457">  2  4  1 -1</clus>
<clus scale="  131.618">  2  6  1 -1</clus>
<clus scale="  131.618">  1  3  2 -1</clus>
</clustering>
</event>
<event>
 6    0  0.2666600E+002  0.2025909E+03  0.7546771E-02  0.1147571E+00
         21   -1    0    0  505  501  0.00000000000E+00  0.00000000000E+00  0.26939245393E+03  0.26939245393E+03  0.00000000000E+00 0. -1.
         21   -1    0    0  503  502 -0.00000000000E+00 -0.00000000000E+00 -0.11967380918E+04  0.11967380918E+04  0.00000000000E+00 0. -1.
         21    1    1    2  503  501 -0.58794135383E+01 -0.44742683419E+02 -0.87450062616E+02  0.98407259258E+02  0.00000000000E+00 0. -1.
         21    1    1    2  504  506  0.66239346528E+02  0.11118987429E+03  0.91295036958E+02  0.15838441510E+03  0.00000000000E+00 0. -1.
         21    1    1    2  505  504  0.48264260308E+02  0.34854612943E+02  0.12727088092E+03  0.14050679698E+03  0.00000000000E+00 0. -1.
         21    1    1    2  506  502 -0.10862419330E+03 -0.10130180382E+03 -0.10584614931E+04  0.10688320744E+04  0.00000000000E+00 0. -1.
<scales pt_clust_3="45.12732" pt_clust_4="57.43874" pt_clust_5="57.43874" pt_clust_6="184.16910"></scales>
<clustering>
<clus scale="   45.127">  2  3  1 -1</clus>
<clus scale="   57.439">  4  5 -1 -1</clus>
<clus scale="  184.169">  2  6  1 -1</clus>
<clus scale="  202.591">  1  3  2 -1</clus>
</clustering>
</event>
<event>
 6    0  0.2666600E+002  0.1260486E+03  0.7546771E-02  0.1233439E+00
         21   -1    0    0  506  501  0.00000000000E+00  0.00000000000E+00  0.41865294510E+03  0.41865294510E+03  0.00000000000E+00 0.  1.
         21   -1    0    0  505  502 -0.00000000000E+00 -0.00000000000E+00 -0.73746026444E+02  0.73746026444E+02  0.00000000000E+00 0. -1.
         21    1    1    2  503  501  0.76280019367E+02  0.22527122255E+02 -0.10139913744E+02  0.80180611387E+02  0.00000000000E+00 0.  1.
         21    1    1    2  504  502 -0.62081596934E+02 -0.24204206226E+02  0.10952675105E+03  0.12820326624E+03  0.00000000000E+00 0.  1.
         21    1    1    2  505  503  0.47686336954E+02  0.35325514147E+02  0.55088715035E+02  0.80973114094E+02  0.00000000000E+00 0. -1.
         21    1    1    2  506  504 -0.61884759388E+02 -0.33648430176E+02  0.19043136631E+03  0.20304197983E+03  0.00000000000E+00 0.  1.
<scales pt_clust_3="121.87823" pt_clust_4="31.27397" pt_clust_5="59.34542" pt_clust_6="31.27397"></scales>
<clustering>
<clus scale="   31.274">  4  6 -1 -1</clus>
<clus scale="   59.345">  2  5  1 -1</clus>
<clus scale="  121.878">  2  3  1 -1</clus>
<clus scale="  126.049">  1  3  2 -1</clus>
</clustering>
</event>
<event>
 6    0  0.2666600E+002  0.1364417E+03  0.7546771E-02  0.1218199E+00
         21   -1    0    0  503  501  0.00000000000E+00  0.00000000000E+00  0.21759625939E+04  0.21759625939E+04  0.00000000000E+00 0.  1.
         21   -1    0    0  504  502 -0.00000000000E+00 -0.00000000000E+00 -0.14003282165E+03  0.14003282165E+03  0.00000000000E+00 0. -1.
         21    1    1    2  503  502 -0.61448454844E+02  0.87705214376E+02  0.16614104911E+04  0.16648582333E+04  0.00000000000E+00 0.  1.
         21    1    1    2  504  506  0.73887670428E+01 -0.82653104982E+02 -0.82600184491E+02  0.11708509777E+03  0.00000000000E+00 0. -1.
         21    1    1    2  505  501  0.20332392895E+02  0.32344024667E+02  0.47800852453E+03  0.47953278476E+03  0.00000000000E+00 0. -1.
         21    1    1    2  506  505  0.33727294906E+02 -0.37396134061E+02 -0.20889058824E+02  0.54519299729E+02  0.00000000000E+00 0. -1.
<scales pt_clust_3="126.41461" pt_clust_4="40.02774" pt_clust_5="38.20395" pt_clust_6="40.02774"></scales>
<clustering>
<clus scale="   38.204">  1  5  2 -1</clus>
<clus scale="   40.028">  4  6 -1 -1</clus>
<clus scale="  126.415">  1  3  2 -1</clus>
<clus scale="   38.204">  1  3  2 -1</clus>
</clustering>
</event>
<event>
 6    0  0.2666600E+002  0.1698091E+03  0.7546771E-02  0.1178047E+00
         21   -1    0    0  504  501  0.00000000000E+00  0.00000000000E+00  0.11313904410E+03  0.11313904410E+03  0.00000000000E+00 0.  1.
         21   -1    0    0  506  502 -0.00000000000E+00 -0.00000000000E+00 -0.11679583783E+04  0.11679583783E+04  0.00000000000E+00 0.  1.
         21    1    1    2  503  501 -0.11296288502E+03 -0.48822918546E+02  0.39335856025E+02  0.12919597648E+03  0.00000000000E+00 0.  1.
         21    1    1    2  504  505 -0.17463748757E+02 -0.70858825195E+02 -0.51362164473E+02  0.89241400527E+02  0.00000000000E+00 0.  1.
         21    1    1    2  505  502  0.14411083735E+03  0.92759013146E+02 -0.94107160194E+03  0.95655001329E+03  0.00000000000E+00 0.  1.
         21    1    1    2  506  503 -0.13684203569E+02  0.26922730595E+02 -0.10172142383E+03  0.10611003212E+03  0.00000000000E+00 0.  1.
<scales pt_clust_3="169.80911" pt_clust_4="71.48027" pt_clust_5="14000.00000" pt_clust_6="30.20084"></scales>
<clustering>
<clus scale="   30.201">  2  6  1 -1</clus>
<clus scale="   71.480">  1  4  2 -1</clus>
<clus scale="  169.809">  1  3  2 -1</clus>
<clus scale="   71.480">  1  3  2 -1</clus>
</clustering>
</event>
<event>
 6    0  0.2666600E+002  0.1674747E+03  0.7546771E-02  0.1180507E+00
         21   -1    0    0  502  501  0.00000000000E+00  0.00000000000E+00  0.96323662355E+02  0.96323662355E+02  0.00000000000E+00 0. -1.
         21   -1    0    0  505  502 -0.00000000000E+00 -0.00000000000E+00 -0.39778420883E+03  0.39778420883E+03  0.00000000000E+00 0. -1.
         21    1    1    2  503  501  0.13858864770E+03 -0.91854521144E+01 -0.10876435705E+03  0.17641108573E+03  0.00000000000E+00 0. -1.
         21    1    1    2  504  506 -0.43836221615E+02  0.71249406861E+01 -0.62748259437E+01  0.44852564540E+02  0.00000000000E+00 0. -1.
         21    1    1    2  505  504  0.32299903535E+02  0.52924965819E+02 -0.65931828580E+02  0.90506031817E+02  0.00000000000E+00 0. -1.
         21    1    1    2  506  503 -0.12705232962E+03 -0.50864454391E+02 -0.12048953490E+03  0.18233818910E+03  0.00000000000E+00 0. -1.
<scales pt_clust_3="153.67953" pt_clust_4="37.91729" pt_clust_5="62.00271" pt_clust_6="37.91729"></scales>
<clustering>
<clus scale="   37.917">  4  6 -1 -1</clus>
<clus scale="   62.003">  2  5  1 -1</clus>
<clus scale="  153.680">  1  3  2 -1</clus>
<clus scale="  153.680">  1  3  2 -1</clus>
</clustering>
</event>
<event>
 6    0  0.2666600E+002  0.1422847E+03  0.7546771E-02  0.1210287E+00
         21   -1    0    0  502  501  0.00000000000E+00  0.00000000000E+00  0.11385027575E+03  0.11385027575E+03  0.00000000000E+00 0.  1.
         21   -1    0    0  506  502 -0.00000000000E+00 -0.00000000000E+00 -0.20451529761E+04  0.20451529761E+04  0.00000000000E+00 0.  1.
         21    1    1    2  503  505  0.48849808139E+02  0.53782983435E+02 -0.12115093080E+04  0.12136860041E+04  0.00000000000E+00 0. -1.
         21    1    1    2  504  501 -0.37227790842E+02 -0.14357902131E+02 -0.11237049285E+02  0.41452732614E+02  0.00000000000E+00 0.  1.
         21    1    1    2  505  504 -0.43536427963E+02 -0.99396652669E+02  0.65555213391E+02  0.12677776274E+03  0.00000000000E+00 0.  1.
         21    1    1    2  506  503  0.31914410665E+02  0.59971571365E+02 -0.77411155640E+03  0.77708675238E+03  0.00000000000E+00 0.  1.
<scales pt_clust_3="30.92758" pt_clust_4="39.90060" pt_clust_5="138.64325" pt_clust_6="30.92758"></scales>
<clustering>
<clus scale="   30.928">  3  6 -1 -1</clus>
<clus scale="   39.901">  1  4  2 -1</clus>
<clus scale="  138.643">  1  5  2 -1</clus>
<clus scale="   39.901">  1  3  2 -1</clus>
</clustering>
</event>
<event>
 6    0  0.2666600E+002  0.1562012E+03  0.7546771E-02  0.1193054E+00
         21   -1    0    0  503  501  0.00000000000E+00  0.00000000000E+00  0.41951486637E+03  0.41951486637E+03  0.00000000000E+00 0.  1.
         21   -1    0    0  504  502 -0.00000000000E+00 -0.00000000000E+00 -0.46791911083E+03  0.46791911083E+03  0.00000000000E+00 0.  1.
         21    1    1    2  503  506 -0.10091303049E+03 -0.14244733935E+02 -0.30154342780E+03  0.31829984451E+03  0.00000000000E+00 0.  1.
         21    1    1    2  504  505 -0.31731755398E+02  0.10481410715E+03 -0.80676524020E+02  0.13602059728E+03  0.00000000000E+00 0.  1.
         21    1    1    2  505  501  0.15239693004E+03 -0.48055352338E+02  0.34899560883E+03  0.38383860691E+03  0.00000000000E+00 0.  1.
         21    1    1    2  506  502 -0.19752144153E+02 -0.42514020873E+02 -0.15179901471E+02  0.49274928494E+02  0.00000000000E+00 0. -1.
<scales pt_clust_3="156.20125" pt_clust_4="101.11505" pt_clust_5="14000.00000" pt_clust_6="46.87845"></scales>
<clustering>
<clus scale="   46.878">  2  6  1 -1</clus>
<clus scale="  101.115">  2  4  1 -1</clus>
<clus scale="  156.201">  2  3  1 -1</clus>
<clus scale="  156.201">  1  3  2 -1</clus>
</clustering>
</event>
<event>
 6    0  0.2666600E+002  0.7023028E+02  0.7546771E-02  0.1359312E+00
         21   -1    0    0  506  501  0.00000000000E+00  0.00000000000E+00  0.47836830831E+02  0.47836830831E+02  0.00000000000E+00 0. -1.
         21   -1    0    0  504  502 -0.00000000000E+00 -0.00000000000E+00 -0.10351977611E+04  0.10351977611E+04  0.00000000000E+00 0. -1.
         21    1    1    2  503  502 -0.43876392279E+02  0.18504559901E+02 -0.21561346126E+03  0.22080924169E+03  0.00000000000E+00 0. -1.
         21    1    1    2  504  505  0.10906344370E+03 -0.22708502323E+02 -0.69517579516E+03  0.70404537993E+03  0.00000000000E+00 0. -1.
         21    1    1    2  505  501 -0.67862633704E+01  0.45420257461E+02 -0.73457632588E+02  0.86631847168E+02  0.00000000000E+00 0. -1.
         21    1    1    2  506  503 -0.58400788047E+02 -0.41216315039E+02 -0.31140412395E+01  0.71548123125E+02  0.00000000000E+00 0. -1.
<scales pt_clust_3="49.18631" pt_clust_4="14000.00000" pt_clust_5="45.92443" pt_clust_6="70.23028"></scales>
<clustering>
<clus scale="   45.924">  1  5  2 -1</clus>
<clus scale="   49.186">  2  3  1 -1</clus>
<clus scale="   70.230">  1  6  2 -1</clus>
<clus scale="   45.924">  1  3  2 -1</clus>
</clustering>
</event>
<event>
 6    0  0.2666600E+002  0.2250172E+03  0.7546771E-02  0.1130197E+00
         21   -1    0    0  505  501  0.00000000000E+00  0.00000000000E+00  0.16056427085E+03  0.16056427085E+03  0.00000000000E+00 0.  1.
         21   -1    0    0  504  502 -0.00000000000E+00 -0.00000000000E+00 -0.11979096529E+04  0.11979096529E+04  0.00000000000E+00 0.  1.
         21    1    1    2  503  501  0.94973579730E+02 -0.19187154273E+03 -0.94585201530E+02  0.23405347702E+03  0.00000000000E+00 0.  1.
         21    1    1    2  504  503  0.36947381553E+02  0.26804988855E+02 -0.20723840909E+03  0.21220597219E+03  0.00000000000E+00 0. -1.
         21    1    1    2  505  506 -0.91529277060E+02  0.21741342142E+03 -0.73759254348E+02  0.24715709978E+03  0.00000000000E+00 0.  1.
         21    1    1    2  506  502 -0.40391684223E+02 -0.52346867540E+02 -0.66176251705E+03  0.66505737472E+03  0.00000000000E+00 0.  1.
<scales pt_clust_3="225.01716" pt_clust_4="45.64665" pt_clust_5="14000.00000" pt_clust_6="37.72268"></scales>
<clustering>
<clus scale="   45.647">  2  4  1 -1</clus>
<clus scale="   37.723">  2  6  1 -1</clus>
<clus scale="  225.017">  2  3  1 -1</clus>
<clus scale="  225.017">  1  3  2 -1</clus>
</clustering>
</event>
<event>
 6    0  0.2666600E+002  0.9040824E+02  0.7546771E-02  0.1301866E+00
         21   -1    0    0  504  501  0.00000000000E+00  0.00000000000E+00  0.55306360830E+02  0.55306360830E+02  0.00000000000E+00 0.  1.
         21   -1    0    0  506  502 -0.00000000000E+00 -0.00000000000E+00 -0.63991126521E+03  0.63991126521E+03  0.00000000000E+00 0.  1.
         21    1    1    2  503  501 -0.36544857731E+02  0.67361653219E+01 -0.42751423295E+02  0.56644388456E+02  0.00000000000E+00 0.  1.
         21    1    1    2  504  502  0.67080500586E+02 -0.52273597484E+02 -0.17917329214E+02  0.86910029565E+02  0.00000000000E+00 0.  1.
         21    1    1    2  505  503  0.45556697752E+02 -0.45659727224E+01 -0.45208264609E+02  0.64343204815E+02  0.00000000000E+00 0.  1.
         21    1    1    2  506  505 -0.76092340607E+02  0.50103404885E+02 -0.47872788727E+03  0.48732000321E+03  0.00000000000E+00 0.  1.
<scales pt_clust_3="37.16050" pt_clust_4="90.40824" pt_clust_5="38.46284" pt_clust_6="14000.00000"></scales>
<clustering>
<clus scale="   37.160">  1  3  2 -1</clus>
<clus scale="   38.463">  1  5  2 -1</clus>
<clus scale="   90.408">  1  4  2 -1</clus>
<clus scale="   37.160">  1  3  2 -1</clus>
</clustering>
</event>
<event>
 6    0  0.2666600E+002  0.1224803E+03  0.7546771E-02  0.1239060E+00
         21   -1    0    0  503  501  0.00000000000E+00  0.00000000000E+00  0.70471818028E+02  0.70471818028E+02  0.00000000000E+00 0.  1.
         21   -1    0    0  505  502 -0.00000000000E+00 -0.00000000000E+00 -0.90701844039E+03  0.90701844039E+03  0.00000000000E+00 0. -1.
         21    1    1    2  503  502 -0.97694460050E+02  0.68225359435E+02 -0.70310066255E+03  0.71312653076E+03  0.00000000000E+00 0. -1.
         21    1    1    2  504  501  0.69710008149E+02 -0.38725350073E+01  0.20631855714E+02  0.72802165034E+02  0.00000000000E+00 0.  1.
         21    1    1    2  505  506 -0.14677693906E+02 -0.57076048192E+02 -0.12830020524E+03  0.14118800459E+03  0.00000000000E+00 0. -1.
         21    1    1    2  506  504  0.42662145808E+02 -0.72767762358E+01 -0.25777610294E+02  0.50373558041E+02  0.00000000000E+00 0.  1.
<scales pt_clust_3="112.28294" pt_clust_4="38.52232" pt_clust_5="58.93310" pt_clust_6="38.52232"></scales>
<clustering>
<clus scale="   38.522">  4  6 -1 -1</clus>
<clus scale="   58.933">  2  5  1 -1</clus>
<clus scale="  112.283">  2  3  1 -1</clus>
<clus scale="  122.480">  1  3  2 -1</clus>
</clustering>
</event>
<event>
 6    0  0.2666600E+002  0.1033156E+03  0.7546771E-02  0.1273474E+00
         21   -1    0    0  503  501  0.00000000000E+00  0.00000000000E+00  0.39562477305E+03  0.39562477305E+03  0.00000000000E+00 0.  1.
         21   -1    0    0  504  502 -0.00000000000E+00 -0.00000000000E+00 -0.42270230918E+03  0.42270230918E+03  0.00000000000E+00 0.  1.
         21    1    1    2  503  506  0.17068137400E+02 -0.12778338914E+03  0.30403688778E+03  0.33023982949E+03  0.00000000000E+00 0.  1.
         21    1    1    2  504  501 -0.56433457295E+02  0.41727310925E+02  0.54554621100E+02  0.88893814536E+02  0.00000000000E+00 0.  1.
         21    1    1    2  505  502  0.21701482066E+02  0.31290820973E+02 -0.23198781331E+03  0.23509235489E+03  0.00000000000E+00 0.  1.
         21    1    1    2  506  505  0.17663837830E+02  0.54765257238E+02 -0.15368123170E+03  0.16410108331E+03  0.00000000000E+00 0.  1.
<scales pt_clust_3="94.94526" pt_clust_4="70.18478" pt_clust_5="33.13901" pt_clust_6="33.13901"></scales>
<clustering>
<clus scale="   33.139">  5  6 -1 -1</clus>
<clus scale="   70.185">  1  4  2 -1</clus>
<clus scale="   94.945">  1  3  2 -1</clus>
<clus scale="   70.185">  1  3  2 -1</clus>
</clustering>
</event>
<event>
 6    0  0.2666600E+002  0.1096302E+03  0.7546771E-02  0.1261256E+00
         21   -1    0    0  503  501  0.00000000000E+00  0.00000000000E+00  0.25358579292E+03  0.25358579292E+03  0.00000000000E+00 0.  1.
         21   -1    0    0  506  502 -0.00000000000E+00 -0.00000000000E+00 -0.13565482632E+04  0.13565482632E+04  0.00000000000E+00 0.  1.
         21    1    1    2  503  505 -0.37536966414E+02  0.39967769532E+01  0.16950769196E+02  0.41380268848E+02  0.00000000000E+00 0.  1.
         21    1    1    2  504  502 -0.53829340247E+01  0.53058697035E+02 -0.73220412013E+03  0.73414376987E+03  0.00000000000E+00 0.  1.
         21    1    1    2  505  504  0.25052243056E+02  0.49544406554E+02 -0.59672432003E+03  0.59930140765E+03  0.00000000000E+00 0.  1.
         21    1    1    2  506  501  0.17867657382E+02 -0.10659988054E+03  0.20901520067E+03  0.23530860975E+03  0.00000000000E+00 0.  1.
<scales pt_clust_3="37.74915" pt_clust_4="32.66801" pt_clust_5="32.66801" pt_clust_6="104.44049"></scales>
<clustering>
<clus scale="   32.668">  4  5 -1 -1</clus>
<clus scale="   37.749">  1  3  2 -1</clus>
<clus scale="  104.440">  1  6  2 -1</clus>
<clus scale="   37.749">  1  3  2 -1</clus>
</clustering>
</event>
<event>
 6    0  0.2666600E+002  0.1080997E+03  0.7546771E-02  0.1264130E+00
         21   -1    0    0  506  501  0.00000000000E+00  0.00000000000E+00  0.63478243900E+03  0.63478243900E+03  0.00000000000E+00 0.  1.
         21   -1    0    0  503  502 -0.00000000000E+00 -0.00000000000E+00 -0.33197395167E+02  0.33197395167E+02  0.00000000000E+00 0.  1.
         21    1    1    2  503  504  0.11372320357E+02 -0.57274027232E+02  0.11485683154E+03  0.12884772259E+03  0.00000000000E+00 0.  1.
         21    1    1    2  504  501  0.67045731317E+02  0.91877239040E+02  0.38542005592E+03  0.40185218259E+03  0.00000000000E+00 0.  1.
         21    1    1    2  505  502 -0.34973934963E+02 -0.34469979879E+02  0.50701153054E+02  0.70583018926E+02  0.00000000000E+00 0.  1.
         21    1    1    2  506  505 -0.43444116710E+02 -0.13323192988E+00  0.50607003318E+02  0.66696910066E+02  0.00000000000E+00 0.  1.
<scales pt_clust_3="58.39216" pt_clust_4="102.22468" pt_clust_5="33.06369" pt_clust_6="33.06369"></scales>
<clustering>
<clus scale="   33.064">  5  6 -1 -1</clus>
<clus scale="   58.392">  2  3  1 -1</clus>
<clus scale="  102.225">  1  4  2 -1</clus>
<clus scale="  102.225">  1  3  2 -1</clus>
</clustering>
</event>
<event>
 6    0  0.2666600E+002  0.2214100E+03  0.7546771E-02  0.1132836E+00
         21   -1    0    0  503  501  0.00000000000E+00  0.00000000000E+00  0.53364589324E+03  0.53364589324E+03  0.00000000000E+00 0.  1.
         21   -1    0    0  504  502 -0.00000000000E+00 -0.00000000000E+00 -0.17486969715E+03  0.17486969715E+03  0.00000000000E+00 0.  1.
         21    1    1    2  503  502  0.34271318609E+02 -0.20985925472E+02  0.40990325033E+02  0.57403302112E+02  0.00000000000E+00 0. -1.
         21    1    1    2  504  505 -0.13010458189E+03 -0.52122225733E+02 -0.39152393940E+02  0.14552263946E+03  0.00000000000E+00 0.  1.
         21    1    1    2  505  506 -0.85721769258E+02 -0.44827022575E+01 -0.12458409527E+02  0.86738274782E+02  0.00000000000E+00 0. -1.
         21    1    1    2  506  501  0.18155503254E+03  0.77590853462E+02  0.36939667452E+03  0.41885137403E+03  0.00000000000E+00 0.  1.
<scales pt_clust_3="40.18622" pt_clust_4="30.27248" pt_clust_5="30.27248" pt_clust_6="218.00468"></scales>
<clustering>
<clus scale="   30.272">  4  5 -1 -1</clus>
<clus scale="   40.186">  1  3  2 -1</clus>
<clus scale="  218.005">  1  6  2 -1</clus>
<clus scale="   40.186">  1  3  2 -1</clus>
</clustering>
</event>
<event>
 6    0  0.2666600E+002  0.2598874E+03  0.7546771E-02  0.1107211E+00
         21   -1    0    0  503  501  0.00000000000E+00  0.00000000000E+00  0.37724707318E+03  0.37724707318E+03  0.00000000000E+00 0. -1.
         21   -1    0    0  506  502 -0.00000000000E+00 -0.00000000000E+00 -0.93527144813E+03  0.93527144813E+03  0.00000000000E+00 0.  1.
         21    1    1    2  503  504 -0.14185958268E+03  0.16647355171E+02  0.17822988413E+03  0.22840132931E+03  0.00000000000E+00 0. -1.
         21    1    1    2  504  502 -0.98907714195E+02 -0.38530354174E+02  0.13682909020E+03  0.17317483664E+03  0.00000000000E+00 0. -1.
         21    1    1    2  505  501  0.63508654468E+02  0.28502592774E+02 -0.13556966606E+03  0.15239711724E+03  0.00000000000E+00 0. -1.
         21    1    1    2  506  505  0.17725864241E+03 -0.66195937705E+01 -0.73751368322E+03  0.75854523811E+03  0.00000000000E+00 0.  1.
<scales pt_clust_3="249.00052" pt_clust_4="51.38889" pt_clust_5="59.73860" pt_clust_6="59.73860"></scales>
<clustering>
<clus scale="   51.389">  3  4 -1 -1</clus>
<clus scale="   59.739">  5  6 -1 -1</clus>
<clus scale="  249.001">  1  3  2 -1</clus>
<clus scale="  249.001">  1  3  2 -1</clus>
</clustering>
</event>
<event>
 6    0  0.2666600E+002  0.1628499E+03  0.7546771E-02  0.1185516E+00
         21   -1    0    0  503  501  0.00000000000E+00  0.00000000000E+00  0.74622616303E+03  0.74622616303E+03  0.00000000000E+00 0. -1.
         21   -1    0    0  506  502 -0.00000000000E+00 -0.00000000000E+00 -0.22187970780E+03  0.22187970780E+03  0.00000000000E+00 0. -1.
         21    1    1    2  503  502 -0.32016241635E+02 -0.15468966140E+03 -0.17629573298E+03  0.23671526470E+03  0.00000000000E+00 0. -1.
         21    1    1    2  504  505  0.93280783279E+01  0.72313251092E+02  0.52880211365E+03  0.53380510932E+03  0.00000000000E+00 0. -1.
         21    1    1    2  505  501  0.16714423685E+02  0.41205279787E+02  0.41709472780E+02  0.60966606933E+02  0.00000000000E+00 0. -1.
         21    1    1    2  506  504  0.59737396225E+01  0.41171130520E+02  0.13013060179E+03  0.13661888989E+03  0.00000000000E+00 0. -1.
<scales pt_clust_3="156.06706" pt_clust_4="35.13197" pt_clust_5="44.46625" pt_clust_6="35.13197"></scales>
<clustering>
<clus scale="   35.132">  4  6 -1 -1</clus>
<clus scale="   44.466">  1  5  2 -1</clus>
<clus scale="  156.067">  2  3  1 -1</clus>
<clus scale="   44.466">  1  3  2 -1</clus>
</clustering>
</event>
<event>
 6    0  0.2666600E+002  0.1670543E+03  0.7546771E-02  0.1180955E+00
         21   -1    0    0  506  501  0.00000000000E+00  0.00000000000E+00  0.91006505455E+03  0.91006505455E+03  0.00000000000E+00 0. -1.
         21   -1    0    0  503  502 -0.00000000000E+00 -0.00000000000E+00 -0.56125424450E+02  0.56125424450E+02  0.00000000000E+00 0.  1.
         21    1    1    2  503  501  0.33528892737E+02 -0.21799629112E+02  0.11745161340E+03  0.12407373602E+03  0.00000000000E+00 0. -1.
         21    1    1    2  504  505 -0.12016216338E+03  0.24714825521E+02  0.35215991075E+03  0.37291603727E+03  0.00000000000E+00 0. -1.
         21    1    1    2  505  502  0.14765073342E+03 -0.43862073060E+02  0.12117265765E+03  0.19597814545E+03  0.00000000000E+00 0.  1.
         21    1    1    2  506  504 -0.61017462781E+02  0.40946876651E+02  0.26315544829E+03  0.27322256026E+03  0.00000000000E+00 0. -1.
<scales pt_clust_3="39.99263" pt_clust_4="32.32637" pt_clust_5="161.74849" pt_clust_6="32.32637"></scales>
<clustering>
<clus scale="   32.326">  4  6 -1 -1</clus>
<clus scale="   39.993">  1  3  2 -1</clus>
<clus scale="  161.748">  2  5  1 -1</clus>
<clus scale="   39.993">  1  3  2 -1</clus>
</clustering>
</event>
<event>
 6    0  0.2666600E+002  0.1268957E+03  0.7546771E-02  0.1232136E+00
         21   -1    0    0  503  501  0.00000000000E+00  0.00000000000E+00  0.65826668795E+02  0.65826668795E+02  0.00000000000E+00 0. -1.
         21   -1    0    0  506  502 -0.00000000000E+00 -0.00000000000E+00 -0.88345414361E+03  0.88345414361E+03  0.00000000000E+00 0.  1.
         21    1    1    2  503  504  0.65058120084E+02  0.38061425406E+02 -0.29354612762E+02  0.80888345163E+02  0.00000000000E+00 0. -1.
         21    1    1    2  504  502  0.68787788459E+02 -0.11229545844E+01 -0.98928334151E+01  0.69504597122E+02  0.00000000000E+00 0. -1.
         21    1    1    2  505  501 -0.15583054920E+02 -0.35314770797E+02 -0.63664583825E+02  0.74452292582E+02  0.00000000000E+00 0. -1.
         21    1    1    2  506  505 -0.11826285362E+03 -0.16237000244E+01 -0.71471544481E+03  0.72443557753E+03  0.00000000000E+00 0.  1.
<scales pt_clust_3="42.05097" pt_clust_4="42.05097" pt_clust_5="38.60006" pt_clust_6="119.59939"></scales>
<clustering>
<clus scale="   38.600">  1  5  2 -1</clus>
<clus scale="   42.051">  3  4 -1 -1</clus>
<clus scale="  119.599">  2  6  1 -1</clus>
<clus scale="   38.600">  1  3  2 -1</clus>
</clustering>
</event>
<event>
 6    0  0.2666600E+002  0.1129316E+03  0.7546771E-02  0.1255235E+00
         21   -1    0    0  504  501  0.00000000000E+00  0.00000000000E+00  0.97732309066E+02  0.97732309066E+02  0.00000000000E+00 0.  1.
         21   -1    0    0  506  502 -0.00000000000E+00 -0.00000000000E+00 -0.13913473517E+04  0.13913473517E+04  0.00000000000E+00 0.  1.
         21    1    1    2  503  505  0.10014500203E+03  0.18843446529E+02 -0.10409670219E+04  0.10459428463E+04  0.00000000000E+00 0.  1.
         21    1    1    2  504  503 -0.69134120423E+02 -0.55926189913E+02  0.57333892937E+02  0.10580378351E+03  0.00000000000E+00 0.  1.
         21    1    1    2  505  502 -0.66531462097E+00  0.39162356818E+02 -0.30377467617E+03  0.30628938394E+03  0.00000000000E+00 0.  1.
         21    1    1    2  506  501 -0.30345566986E+02 -0.20796134341E+01 -0.62072375241E+01  0.31043647102E+02  0.00000000000E+00 0.  1.
<scales pt_clust_3="14000.00000" pt_clust_4="112.93162" pt_clust_5="39.14752" pt_clust_6="30.41674"></scales>
<clustering>
<clus scale="   30.417">  1  6  2 -1</clus>
<clus scale="   39.148">  2  5  1 -1</clus>
<clus scale="  112.932">  1  4  2 -1</clus>
<clus scale="   30.417">  1  3  2 -1</clus>
</clustering>
</event>
<event>
 6    0  0.2666600E+002  0.1097635E+03  0.7546771E-02  0.1261009E+00
         21   -1    0    0  503  501  0.00000000000E+00  0.00000000000E+00  0.50743071285E+02  0.50743071285E+02  0.00000000000E+00 0. -1.
         21   -1    0    0  504  502 -0.00000000000E+00 -0.00000000000E+00 -0.14009716512E+04  0.14009716512E+04  0.00000000000E+00 0.  1.
         21    1    1    2  503  505  0.10565829404E+02 -0.63569422169E+02 -0.54269529365E+02  0.84248976275E+02  0.00000000000E+00 0. -1.
         21    1    1    2  504  501  0.11501006238E+03  0.15671643661E+02 -0.80179985477E+02  0.14107354442E+03  0.00000000000E+00 0. -1.
         21    1    1    2  505  506 -0.75219634521E+02  0.24895140770E+02 -0.35049774177E+03  0.35934165975E+03  0.00000000000E+00 0.  1.
         21    1    1    2  506  502 -0.50356257261E+02  0.23002637738E+02 -0.86528132332E+03  0.86705054205E+03  0.00000000000E+00 0.  1.
<scales pt_clust_3="60.72534" pt_clust_4="109.76348" pt_clust_5="14000.00000" pt_clust_6="55.36130"></scales>
<clustering>
<clus scale="   55.361">  2  6  1 -1</clus>
<clus scale="   60.725">  1  3  2 -1</clus>
<clus scale="  109.763">  1  4  2 -1</clus>
<clus scale="   60.725">  1  3  2 -1</clus>
</clustering>
</event>
<event>
 6    0  0.2666600E+002  0.2151681E+03  0.7546771E-02  0.1137538E+00
         21   -1    0    0  502  501  0.00000000000E+00  0.00000000000E+00  0.15872500164E+03  0.15872500164E+03  0.00000000000E+00 0. -1.
         21   -1    0    0  503  502 -0.00000000000E+00 -0.00000000000E+00 -0.32570575397E+03  0.32570575397E+03  0.00000000000E+00 0. -1.
         21    1    1    2  503  505  0.15660560965E+02 -0.29433271141E+02 -0.49826734670E+02  0.59952265242E+02  0.00000000000E+00 0. -1.
         21    1    1    2  504  506 -0.87192858479E+02 -0.75781621766E+01 -0.35469494869E+01  0.87593401363E+02  0.00000000000E+00 0. -1.
         21    1    1    2  505  504  0.16528895093E+03 -0.64828107732E+02 -0.78180768501E+02  0.19399833354E+03  0.00000000000E+00 0. -1.
         21    1    1    2  506  501 -0.93756653416E+02  0.10183954105E+03 -0.35426299675E+02  0.14288675547E+03  0.00000000000E+00 0. -1.
<scales pt_clust_3="33.34023" pt_clust_4="81.66783" pt_clust_5="190.58611" pt_clust_6="81.66783"></scales>
<clustering>
<clus scale="   33.340">  2  3  1 -1</clus>
<clus scale="   81.668">  4  6 -1 -1</clus>
<clus scale="  190.586">  2  5  1 -1</clus>
<clus scale="  215.168">  1  3  2 -1</clus>
</clustering>
</event>
<event>
 6    0  0.2666600E+002  0.1398922E+03  0.7546771E-02  0.1213474E+00
         21   -1    0    0  503  501  0.00000000000E+00  0.00000000000E+00  0.36892973909E+02  0.36892973909E+02  0.00000000000E+00 0. -1.
         21   -1    0    0  501  502 -0.00000000000E+00 -0.00000000000E+00 -0.12057691387E+04  0.12057691387E+04  0.00000000000E+00 0. -1.
         21    1    1    2  503  505 -0.21286553654E+02 -0.88279757797E+02 -0.93971019628E+02  0.13067894066E+03  0.00000000000E+00 0. -1.
         21    1    1    2  504  502  0.42967381185E+02  0.52686672771E+02 -0.21888717286E+03  0.22920225953E+03  0.00000000000E+00 0. -1.
         21    1    1    2  505  506 -0.45442701003E+02 -0.41500464303E+02 -0.72400802846E+02  0.95022123027E+02  0.00000000000E+00 0. -1.
         21    1    1    2  506  504  0.23761873471E+02  0.77093549329E+02 -0.78361716944E+03  0.78775878937E+03  0.00000000000E+00 0. -1.
<scales pt_clust_3="36.49841" pt_clust_4="67.98589" pt_clust_5="36.49841" pt_clust_6="132.68064"></scales>
<clustering>
<clus scale="   36.498">  3  5 -1 -1</clus>
<clus scale="   67.986">  2  4  1 -1</clus>
<clus scale="  132.681">  2  6  1 -1</clus>
<clus scale="  139.892">  1  3  2 -1</clus>
</clustering>
</event>
<event>
 6    0  0.2666600E+002  0.1136390E+03  0.7546771E-02  0.1253976E+00
         21   -1    0    0  505  501  0.00000000000E+00  0.00000000000E+00  0.16156923189E+03  0.16156923189E+03  0.00000000000E+00 0.  1.
         21   -1    0    0  504  502 -0.00000000000E+00 -0.00000000000E+00 -0.65760118505E+03  0.65760118505E+03  0.00000000000E+00 0.  1.
         21    1    1    2  503  501  0.22319983118E+01 -0.55732410211E+02 -0.32444822630E+02  0.64527125148E+02  0.00000000000E+00 0. -1.
         21    1    1    2  504  503 -0.70778476209E+02 -0.17621088059E+02 -0.41466976562E+03  0.42103575853E+03  0.00000000000E+00 0.  1.
         21    1    1    2  505  506  0.13015090615E+03  0.24381666034E+02  0.99489380725E+02  0.16562566494E+03  0.00000000000E+00 0.  1.
         21    1    1    2  506  502 -0.61604428255E+02  0.48971832236E+02 -0.14840674563E+03  0.16798186831E+03  0.00000000000E+00 0.  1.
<scales pt_clust_3="55.77709" pt_clust_4="73.19585" pt_clust_5="113.63904" pt_clust_6="14000.00000"></scales>
<clustering>
<clus scale="   55.777">  1  3  2 -1</clus>
<clus scale="   73.196">  2  4  1 -1</clus>
<clus scale="  113.639">  1  5  2 -1</clus>
<clus scale="   55.777">  1  3  2 -1</clus>
</clustering>
</event>
<event>
 6    0  0.2666600E+002  0.1131053E+03  0.7546771E-02  0.1254925E+00
         21   -1    0    0  506  501  0.00000000000E+00  0.00000000000E+00  0.34685130843E+02  0.34685130843E+02  0.00000000000E+00 0. -1.
         21   -1    0    0  505  502 -0.00000000000E+00 -0.00000000000E+00 -0.14917547362E+04  0.14917547362E+04  0.00000000000E+00 0. -1.
         21    1    1    2  503  502  0.83760585176E+01 -0.42057302633E+02 -0.30351366881E+03  0.30652817524E+03  0.00000000000E+00 0.  1.
         21    1    1    2  504  501  0.62993188277E+02 -0.56704638898E+02 -0.46579872015E+02  0.96712162207E+02  0.00000000000E+00 0. -1.
         21    1    1    2  505  504 -0.10543438404E+03  0.10152349812E+03 -0.10061023677E+04  0.10166933679E+04  0.00000000000E+00 0. -1.
         21    1    1    2  506  503  0.34065137248E+02 -0.27615565905E+01 -0.10087369686E+03  0.10650616174E+03  0.00000000000E+00 0. -1.
<scales pt_clust_3="43.35394" pt_clust_4="113.10528" pt_clust_5="14000.00000" pt_clust_6="34.17689"></scales>
<clustering>
<clus scale="   34.177">  1  6  2 -1</clus>
<clus scale="   43.354">  2  3  1 -1</clus>
<clus scale="  113.105">  1  4  2 -1</clus>
<clus scale="   34.177">  1  3  2 -1</clus>
</clustering>
</event>
<event>
 6    0  0.3244504E+002  0.1433713E+03  0.7546771E-02  0.1208863E+00
         21   -1    0    0  504  501  0.00000000000E+00  0.00000000000E+00  0.31897981925E+03  0.31897981925E+03  0.00000000000E+00 0.  1.
         21   -1    0    0  505  502 -0.00000000000E+00 -0.00000000000E+00 -0.63900963986E+03  0.63900963986E+03  0.00000000000E+00 0.  1.
         21    1    1    2  503  501 -0.52631677463E+02  0.12715050427E+03  0.27225916763E+03  0.30506130296E+03  0.00000000000E+00 0.  1.
         21    1    1    2  504  502  0.59436808778E+02 -0.87912795919E+01 -0.47563696165E+03  0.47941687509E+03  0.00000000000E+00 0.  1.
         21    1    1    2  505  506 -0.11562635209E+02 -0.39902904458E+02 -0.71965246182E+02  0.83095926345E+02  0.00000000000E+00 0. -1.
         21    1    1    2  506  503  0.47575038933E+01 -0.78456320216E+02 -0.44686780402E+02  0.90415354713E+02  0.00000000000E+00 0. -1.
<scales pt_clust_3="134.58111" pt_clust_4="60.08345" pt_clust_5="35.93586" pt_clust_6="35.93586"></scales>
<clustering>
<clus scale="   35.936">  5  6 -1 -1</clus>
<clus scale="   60.083">  2  4  1 -1</clus>
<clus scale="  134.581">  1  3  2 -1</clus>
<clus scale="  134.581">  1  3  2 -1</clus>
</clustering>
</event>
<event>
 6    0  0.3200628E+002  0.2116573E+03  0.7546771E-02  0.1140260E+00
         21   -1    0    0  503  501  0.00000000000E+00  0.00000000000E+00  0.45819047329E+03  0.45819047329E+03  0.00000000000E+00 0. -1.
         21   -1    0    0  504  502 -0.00000000000E+00 -0.00000000000E+00 -0.45661684389E+03  0.45661684389E+03  0.00000000000E+00 0. -1.
         21    1    1    2  503  505  0.30583850631E+02 -0.95181625685E+01  0.44075707158E+01  0.32332553529E+02  0.00000000000E+00 0.  1.
         21    1    1    2  504  506 -0.11765275502E+02 -0.36556370786E+02 -0.35091740912E+02  0.52021344013E+02  0.00000000000E+00 0.  1.
         21    1    1    2  505  502 -0.18869941393E+03 -0.43747985761E+02 -0.35146109496E+03  0.40130568940E+03  0.00000000000E+00 0. -1.
         21    1    1    2  506  501  0.16988083880E+03  0.89822519115E+02  0.38371889455E+03  0.42914773023E+03  0.00000000000E+00 0. -1.
<scales pt_clust_3="32.03072" pt_clust_4="38.40199" pt_clust_5="211.65735" pt_clust_6="14000.00000"></scales>
<clustering>
<clus scale="   32.031">  1  3  2 -1</clus>
<clus scale="   38.402">  2  4  1 -1</clus>
<clus scale="  211.657">  2  5  1 -1</clus>
<clus scale="   32.031">  1  3  2 -1</clus>
</clustering>
</event>
<event>
 6    0  0.2666600E+002  0.1715651E+03  0.7546771E-02  0.1176225E+00
         21   -1    0    0  505  501  0.00000000000E+00  0.00000000000E+00  0.23510940548E+03  0.23510940548E+03  0.00000000000E+00 0. -1.
         21   -1    0    0  506  502 -0.00000000000E+00 -0.00000000000E+00 -0.15113940605E+04  0.15113940605E+04  0.00000000000E+00 0. -1.
         21    1    1    2  503  501 -0.30933852853E+02 -0.90743001828E+01  0.17472587504E+02  0.36667935451E+02  0.00000000000E+00 0. -1.
         21    1    1    2  504  502  0.41410016401E+01 -0.35639175291E+02 -0.29921244449E+03  0.30135591192E+03  0.00000000000E+00 0. -1.
         21    1    1    2  505  504  0.74656183561E+02  0.18789986969E+03 -0.11640551969E+04  0.11814839856E+04  0.00000000000E+00 0. -1.
         21    1    1    2  506  503 -0.47863332348E+02 -0.14318639422E+03  0.16951039888E+03  0.22699563300E+03  0.00000000000E+00 0. -1.
<scales pt_clust_3="32.23734" pt_clust_4="35.90736" pt_clust_5="171.56512" pt_clust_6="14000.00000"></scales>
<clustering>
<clus scale="   32.237">  1  3  2 -1</clus>
<clus scale="   35.907">  2  4  1 -1</clus>
<clus scale="  171.565">  2  5  1 -1</clus>
<clus scale="   32.237">  1  3  2 -1</clus>
</clustering>
</event>
<event>
 6    0  0.2666600E+002  0.8354970E+02  0.7546771E-02  0.1319269E+00
         21   -1    0    0  506  501  0.00000000000E+00  0.00000000000E+00  0.14921704721E+04  0.14921704721E+04  0.00000000000E+00 0.  1.
         21   -1    0    0  503  502 -0.00000000000E+00 -0.00000000000E+00 -0.15326277166E+03  0.15326277166E+03  0.00000000000E+00 0. -1.
         21    1    1    2  503  505 -0.25062100209E+02 -0.53417675839E+02 -0.37931391073E+02  0.70145187916E+02  0.00000000000E+00 0. -1.
         21    1    1    2  504  502  0.49279659566E+02 -0.30025077339E+02 -0.84326550230E+02  0.10218100210E+03  0.00000000000E+00 0. -1.
         21    1    1    2  505  501  0.37605235043E+02 -0.97949457000E+01  0.98975767693E+02  0.10633107379E+03  0.00000000000E+00 0. -1.
         21    1    1    2  506  504 -0.61822794400E+02  0.93237698879E+02  0.13621898740E+04  0.13667759799E+04  0.00000000000E+00 0.  1.
<scales pt_clust_3="83.54970" pt_clust_4="57.94518" pt_clust_5="38.85994" pt_clust_6="14000.00000"></scales>
<clustering>
<clus scale="   38.860">  1  5  2 -1</clus>
<clus scale="   57.945">  2  4  1 -1</clus>
<clus scale="   83.550">  2  3  1 -1</clus>
<clus scale="   38.860">  1  3  2 -1</clus>
</clustering>
</event>
<event>
 6    0  0.2666600E+002  0.7737222E+02  0.7546771E-02  0.1336679E+00
         21   -1    0    0  505  501  0.00000000000E+00  0.00000000000E+00  0.86441445209E+02  0.86441445209E+02  0.00000000000E+00 0. -1.
         21   -1    0    0  504  502 -0.00000000000E+00 -0.00000000000E+00 -0.71815658426E+03  0.71815658426E+03  0.00000000000E+00 0.  1.
         21    1    1    2  503  502 -0.45717244907E+02  0.40831796156E+02 -0.35387928767E+03  0.35914878852E+03  0.00000000000E+00 0.  1.
         21    1    1    2  504  506 -0.30592765305E+01 -0.63606131134E+02 -0.27240895073E+03  0.27975299020E+03  0.00000000000E+00 0.  1.
         21    1    1    2  505  503  0.82269432575E+02 -0.37134327438E+02  0.20090599327E+02  0.92470806160E+02  0.00000000000E+00 0. -1.
         21    1    1    2  506  501 -0.33492911137E+02  0.59908662416E+02 -0.25517499985E+02  0.73225444583E+02  0.00000000000E+00 0.  1.
<scales pt_clust_3="61.29684" pt_clust_4="49.92988" pt_clust_5="77.37222" pt_clust_6="14000.00000"></scales>
<clustering>
<clus scale="   61.297">  2  3  1 -1</clus>
<clus scale="   49.930">  2  4  1 -1</clus>
<clus scale="   77.372">  1  5  2 -1</clus>
<clus scale="   77.372">  1  3  2 -1</clus>
</clustering>
</event>
<event>
 6    0  0.2666600E+002  0.1330323E+03  0.7546771E-02  0.1223024E+00
         21   -1    0    0  503  501  0.00000000000E+00  0.00000000000E+00  0.17525230958E+03  0.17525230958E+03  0.00000000000E+00 0. -1.
         21   -1    0    0  504  502 -0.00000000000E+00 -0.00000000000E+00 -0.26243419991E+03  0.26243419991E+03  0.00000000000E+00 0. -1.
         21    1    1    2  503  505  0.35052258351E+02 -0.35838978663E+02 -0.79568262889E+02  0.94043615766E+02  0.00000000000E+00 0. -1.
         21    1    1    2  504  506 -0.27482757150E+02 -0.18838897720E+02  0.31173434354E+02  0.45628817838E+02  0.00000000000E+00 0.  1.
         21    1    1    2  505  502  0.80756703711E+02  0.18633246080E+02 -0.13762109743E+03  0.16064995958E+03  0.00000000000E+00 0. -1.
         21    1    1    2  506  501 -0.88326204911E+02  0.36044630304E+02  0.98834035634E+02  0.13736411630E+03  0.00000000000E+00 0. -1.
<scales pt_clust_3="49.12576" pt_clust_4="31.69790" pt_clust_5="49.12576" pt_clust_6="128.78071"></scales>
<clustering>
<clus scale="   31.698">  4  6 -1 -1</clus>
<clus scale="   49.126">  3  5 -1 -1</clus>
<clus scale="  128.781">  1  4  2 -1</clus>
<clus scale="  128.781">  1  3  2 -1</clus>
</clustering>
</event>
<event>
 6    0  0.2666600E+002  0.1361909E+03  0.7546771E-02  0.1218548E+00
         21   -1    0    0  504  501  0.00000000000E+00  0.00000000000E+00  0.37160924390E+03  0.37160924390E+03  0.00000000000E+00 0.  1.
         21   -1    0    0  505  502 -0.00000000000E+00 -0.00000000000E+00 -0.14822812999E+03  0.14822812999E+03  0.00000000000E+00 0. -1.
         21    1    1    2  503  501  0.27370223981E+02 -0.35249345696E+02  0.29273036714E+02  0.53371867226E+02  0.00000000000E+00 0.  1.
         21    1    1    2  504  502 -0.15154170248E+03  0.47507029105E+02  0.27021289964E+03  0.31342752996E+03  0.00000000000E+00 0.  1.
         21    1    1    2  505  506  0.57549695471E+02  0.15182649263E+02 -0.24263034291E+02  0.64274218163E+02  0.00000000000E+00 0. -1.
         21    1    1    2  506  503  0.66621783029E+02 -0.27440332673E+02 -0.51841788156E+02  0.88763758541E+02  0.00000000000E+00 0. -1.
<scales pt_clust_3="44.62786" pt_clust_4="128.40598" pt_clust_5="41.25011" pt_clust_6="41.25011"></scales>
<clustering>
<clus scale="   41.250">  5  6 -1 -1</clus>
<clus scale="   44.628">  1  3  2 -1</clus>
<clus scale="  128.406">  1  4  2 -1</clus>
<clus scale="   44.628">  1  3  2 -1</clus>
</clustering>
</event>
<event>
 6    0  0.2666600E+002  0.9563243E+02  0.7546771E-02  0.1289758E+00
         21   -1    0    0  504  501  0.00000000000E+00  0.00000000000E+00  0.39778820166E+03  0.39778820166E+03  0.00000000000E+00 0.  1.
         21   -1    0    0  506  502 -0.00000000000E+00 -0.00000000000E+00 -0.14093812074E+03  0.14093812074E+03  0.00000000000E+00 0.  1.
         21    1    1    2  503  502 -0.27859696697E+02 -0.18032721105E+02  0.15962191846E+02  0.36825715187E+02  0.00000000000E+00 0.  1.
         21    1    1    2  504  505 -0.51365172537E+02 -0.71851024189E+02  0.25546971409E+03  0.27030672475E+03  0.00000000000E+00 0.  1.
         21    1    1    2  505  503  0.92317088216E+02 -0.32719402485E+02  0.26783494122E+02  0.10153994107E+03  0.00000000000E+00 0.  1.
         21    1    1    2  506  501 -0.13092218982E+02  0.12260314778E+03 -0.41365319144E+02  0.13005394139E+03  0.00000000000E+00 0.  1.
<scales pt_clust_3="33.18647" pt_clust_4="90.08053" pt_clust_5="14000.00000" pt_clust_6="95.63243"></scales>
<clustering>
<clus scale="   33.186">  2  3  1 -1</clus>
<clus scale="   90.081">  1  4  2 -1</clus>
<clus scale="   95.632">  2  6  1 -1</clus>
<clus scale="   90.081">  1  3  2 -1</clus>
</clustering>
</event>
<event>
 6    0  0.2666600E+002  0.1406050E+03  0.7546771E-02  0.1212517E+00
         21   -1    0    0  506  501  0.00000000000E+00  0.00000000000E+00  0.48128011637E+03  0.48128011637E+03  0.00000000000E+00 0. -1.
         21   -1    0    0  505  502 -0.00000000000E+00 -0.00000000000E+00 -0.59242520527E+03  0.59242520527E+03  0.00000000000E+00 0.  1.
         21    1    1    2  503  504 -0.10085420545E+03 -0.39288950361E+02 -0.17707918744E+03  0.20753850486E+03  0.00000000000E+00 0.  1.
         21    1    1    2  504  501 -0.31422732732E+02  0.85823730680E+01  0.49376696950E+02  0.59153220212E+02  0.00000000000E+00 0. -1.
         21    1    1    2  505  503 -0.18686983120E+02 -0.38836165333E+02 -0.37717854658E+03  0.37963285827E+03  0.00000000000E+00 0.  1.
         21    1    1    2  506  502  0.15096392130E+03  0.69542742626E+02  0.39373594817E+03  0.42738073830E+03  0.00000000000E+00 0. -1.
<scales pt_clust_3="140.60501" pt_clust_4="32.57369" pt_clust_5="43.11518" pt_clust_6="14000.00000"></scales>
<clustering>
<clus scale="   32.574">  1  4  2 -1</clus>
<clus scale="   43.115">  2  5  1 -1</clus>
<clus scale="  140.605">  2  3  1 -1</clus>
<clus scale="   32.574">  1  3  2 -1</clus>
</clustering>
</event>
<event>
 6    0  0.2666600E+002  0.1216102E+03  0.7546771E-02  0.1240464E+00
         21   -1    0    0  504  501  0.00000000000E+00  0.00000000000E+00  0.16024237701E+04  0.16024237701E+04  0.00000000000E+00 0. -1.
         21   -1    0    0  503  502 -0.00000000000E+00 -0.00000000000E+00 -0.74892153407E+02  0.74892153407E+02  0.00000000000E+00 0.  1.
         21    1    1    2  503  506  0.79371315479E+01 -0.30683094495E+02  0.59755671277E+02  0.67640155194E+02  0.00000000000E+00 0. -1.
         21    1    1    2  504  502  0.68053984627E+02  0.11420655029E+03 -0.39273913001E+01  0.13300340355E+03  0.00000000000E+00 0.  1.
         21    1    1    2  505  501 -0.20699658245E+02 -0.33217571204E+02  0.77104819072E+03  0.77204092851E+03  0.00000000000E+00 0. -1.
         21    1    1    2  506  505 -0.55291457930E+02 -0.50305884588E+02  0.70065514595E+03  0.70463143621E+03  0.00000000000E+00 0. -1.
<scales pt_clust_3="31.69306" pt_clust_4="113.53102" pt_clust_5="31.53866" pt_clust_6="31.53866"></scales>
<clustering>
<clus scale="   31.539">  5  6 -1 -1</clus>
<clus scale="   31.693">  2  3  1 -1</clus>
<clus scale="  113.531">  2  4  1 -1</clus>
<clus scale="  121.610">  1  3  2 -1</clus>
</clustering>
</event>
<event>
 6    0  0.2666600E+002  0.1441906E+03  0.7546771E-02  0.1207799E+00
         21   -1    0    0  505  501  0.00000000000E+00  0.00000000000E+00  0.10693440445E+04  0.10693440445E+04  0.00000000000E+00 0. -1.
         21   -1    0    0  506  502 -0.00000000000E+00 -0.00000000000E+00 -0.32890048598E+03  0.32890048598E+03  0.00000000000E+00 0. -1.
         21    1    1    2  503  501 -0.13310882715E+03  0.57102225160E+02  0.87293328816E+03  0.88486787124E+03  0.00000000000E+00 0. -1.
         21    1    1    2  504  503  0.16882475553E+03  0.54198616247E+02  0.12975220052E+03  0.21971554707E+03  0.00000000000E+00 0. -1.
         21    1    1    2  505  502  0.14423387769E+02 -0.29575783421E+02 -0.99218679230E+02  0.10453280532E+03  0.00000000000E+00 0. -1.
         21    1    1    2  506  504 -0.50139316147E+02 -0.81725057987E+02 -0.16302325091E+03  0.18912830688E+03  0.00000000000E+00 0. -1.
<scales pt_clust_3="14000.00000" pt_clust_4="144.19061" pt_clust_5="32.90534" pt_clust_6="111.67702"></scales>
<clustering>
<clus scale="   32.905">  2  5  1 -1</clus>
<clus scale="  111.677">  2  6  1 -1</clus>
<clus scale="  144.191">  2  4  1 -1</clus>
<clus scale="  144.191">  1  3  2 -1</clus>
</clustering>
</event>
<event>
 6    0  0.2666600E+002  0.1218573E+03  0.7546771E-02  0.1240064E+00
         21   -1    0    0  503  501  0.00000000000E+00  0.00000000000E+00  0.10038101934E+04  0.10038101934E+04  0.00000000000E+00 0.  1.
         21   -1    0    0  501  502 -0.00000000000E+00 -0.00000000000E+00 -0.26022273522E+03  0.26022273522E+03  0.00000000000E+00 0.  1.
         21    1    1    2  503  505 -0.12458239109E+02  0.29582836138E+02  0.70102471609E+03  0.70175922116E+03  0.00000000000E+00 0.  1.
         21    1    1    2  504  502  0.11268737505E+03 -0.83502324321E+02 -0.20422838542E+03  0.24775051175E+03  0.00000000000E+00 0.  1.
         21    1    1    2  505  506 -0.22742472574E+02  0.28122424914E+02  0.22782999674E+03  0.23068289546E+03  0.00000000000E+00 0.  1.
         21    1    1    2  506  504 -0.77486663363E+02  0.25797063270E+02  0.18961130809E+02  0.83840300298E+02  0.00000000000E+00 0.  1.
<scales pt_clust_3="32.09910" pt_clust_4="14000.00000" pt_clust_5="59.92613" pt_clust_6="121.85729"></scales>
<clustering>
<clus scale="   32.099">  1  3  2 -1</clus>
<clus scale="   59.926">  1  5  2 -1</clus>
<clus scale="  121.857">  1  6  2 -1</clus>
<clus scale="   32.099">  1  3  2 -1</clus>
</clustering>
</event>
<event>
 6    0  0.2666600E+002  0.1306894E+03  0.7546771E-02  0.1226436E+00
         21   -1    0    0  502  501  0.00000000000E+00  0.00000000000E+00  0.13784007901E+03  0.13784007901E+03  0.00000000000E+00 0. -1.
         21   -1    0    0  504  502 -0.00000000000E+00 -0.00000000000E+00 -0.31890716202E+03  0.31890716202E+03  0.00000000000E+00 0. -1.
         21    1    1    2  503  501  0.37323483278E+02 -0.67199820599E+01  0.25458727740E+02  0.45676551764E+02  0.00000000000E+00 0. -1.
         21    1    1    2  504  505 -0.32087321811E+02  0.71938654842E+02 -0.19225053027E+03  0.20776196156E+03  0.00000000000E+00 0. -1.
         21    1    1    2  505  506 -0.34452999485E+02  0.37728999642E+02 -0.66800495720E+02  0.84099897836E+02  0.00000000000E+00 0. -1.
         21    1    1    2  506  503  0.29216838019E+02 -0.10294767242E+03  0.52525215251E+02  0.11920882987E+03  0.00000000000E+00 0. -1.
<scales pt_clust_3="37.92361" pt_clust_4="32.42881" pt_clust_5="32.42881" pt_clust_6="124.33192"></scales>
<clustering>
<clus scale="   32.429">  4  5 -1 -1</clus>
<clus scale="   37.924">  1  3  2 -1</clus>
<clus scale="  124.332">  1  6  2 -1</clus>
<clus scale="   37.924">  1  3  2 -1</clus>
</clustering>
</event>
<event>
 6    0  0.2666600E+002  0.1581068E+03  0.7546771E-02  0.1190851E+00
         21   -1    0    0  505  501  0.00000000000E+00  0.00000000000E+00  0.17725782142E+03  0.17725782142E+03  0.00000000000E+00 0. -1.
         21   -1    0    0  506  502 -0.00000000000E+00 -0.00000000000E+00 -0.12980026080E+04  0.12980026080E+04  0.00000000000E+00 0.  1.
         21    1    1    2  503  502  0.34689812157E+02 -0.63745765973E+02 -0.81508211679E+03  0.81830664354E+03  0.00000000000E+00 0.  1.
         21    1    1    2  504  503 -0.85406497910E+02  0.52422621585E+02  0.76253472890E+02  0.12592455387E+03  0.00000000000E+00 0. -1.
         21    1    1    2  505  504 -0.30252389188E+02  0.55407580388E+02  0.55467586717E+02  0.84034874857E+02  0.00000000000E+00 0. -1.
         21    1    1    2  506  501  0.80969074942E+02 -0.44084436000E+02 -0.43738372944E+03  0.44699435720E+03  0.00000000000E+00 0.  1.
<scales pt_clust_3="72.57345" pt_clust_4="32.99511" pt_clust_5="32.99511" pt_clust_6="152.54370"></scales>
<clustering>
<clus scale="   32.995">  4  5 -1 -1</clus>
<clus scale="   72.573">  2  3  1 -1</clus>
<clus scale="  152.544">  2  6  1 -1</clus>
<clus scale="  158.107">  1  3  2 -1</clus>
</clustering>
</event>
<event>
 6    0  0.2666600E+002  0.1989278E+03  0.7546771E-02  0.1150647E+00
         21   -1    0    0  505  501  0.00000000000E+00  0.00000000000E+00  0.75399841929E+02  0.75399841929E+02  0.00000000000E+00 0.  1.
         21   -1    0    0  506  502 -0.00000000000E+00 -0.00000000000E+00 -0.18592462808E+04  0.18592462808E+04  0.00000000000E+00 0. -1.
         21    1    1    2  503  501 -0.11214330428E+03  0.99418147407E+02 -0.91893248097E+02  0.17579663755E+03  0.00000000000E+00 0.  1.
         21    1    1    2  504  503  0.82939458612E+02 -0.84853593689E+02 -0.83732653989E+03  0.84569191823E+03  0.00000000000E+00 0. -1.
         21    1    1    2  505  502  0.19593728950E+02  0.68091895418E+02 -0.18946079358E+02  0.73344218306E+02  0.00000000000E+00 0.  1.
         21    1    1    2  506  504  0.96101167219E+01 -0.82656449136E+02 -0.83568057157E+03  0.83981334869E+03  0.00000000000E+00 0. -1.
<scales pt_clust_3="184.99216" pt_clust_4="61.25428" pt_clust_5="70.85493" pt_clust_6="61.25428"></scales>
<clustering>
<clus scale="   61.254">  4  6 -1 -1</clus>
<clus scale="   70.855">  1  5  2 -1</clus>
<clus scale="  184.992">  1  3  2 -1</clus>
<clus scale="   70.855">  1  3  2 -1</clus>
</clustering>
</event>
<event>
 6    0  0.2666600E+002  0.1744595E+03  0.7546771E-02  0.1173275E+00
         21   -1    0    0  504  501  0.00000000000E+00  0.00000000000E+00  0.57276835968E+03  0.57276835968E+03  0.00000000000E+00 0. -1.
         21   -1    0    0  501  502 -0.00000000000E+00 -0.00000000000E+00 -0.10375499737E+03  0.10375499737E+03  0.00000000000E+00 0. -1.
         21    1    1    2  503  505  0.41023677591E+02  0.12885838804E+03  0.99969312019E+01  0.13560001816E+03  0.00000000000E+00 0. -1.
         21    1    1    2  504  506  0.49603336445E+02 -0.35697717221E+02  0.93714487859E+02  0.11188039701E+03  0.00000000000E+00 0. -1.
         21    1    1    2  505  502 -0.25729053659E+02  0.36361672389E+02  0.10443790440E+02  0.45751810673E+02  0.00000000000E+00 0. -1.
         21    1    1    2  506  503 -0.64897960377E+02 -0.12952234321E+03  0.35485815280E+03  0.38329113121E+03  0.00000000000E+00 0. -1.
<scales pt_clust_3="40.33465" pt_clust_4="61.11316" pt_clust_5="40.33465" pt_clust_6="159.67796"></scales>
<clustering>
<clus scale="   40.335">  3  5 -1 -1</clus>
<clus scale="   61.113">  1  4  2 -1</clus>
<clus scale="  159.678">  1  6  2 -1</clus>
<clus scale="   61.113">  1  3  2 -1</clus>
</clustering>
</event>
<event>
 6    0  0.2666600E+002  0.1477577E+03  0.7546771E-02  0.1203256E+00
         21   -1    0    0  505  501  0.00000000000E+00  0.00000000000E+00  0.11345353493E+04  0.11345353493E+04  0.00000000000E+00 0.  1.
         21   -1    0    0  504  502 -0.00000000000E+00 -0.00000000000E+00 -0.31499609339E+03  0.31499609339E+03  0.00000000000E+00 0.  1.
         21    1    1    2  503  506  0.87995544561E+02 -0.54323900053E+02  0.10065299276E+04  0.10118284425E+04  0.00000000000E+00 0.  1.
         21    1    1    2  504  501 -0.41255334316E+02 -0.18853631213E+01 -0.13784873220E+03  0.14390215486E+03  0.00000000000E+00 0.  1.
         21    1    1    2  505  503  0.29561734305E+02 -0.40657613898E+02  0.92945191987E+02  0.10566809555E+03  0.00000000000E+00 0.  1.
         21    1    1    2  506  502 -0.76301944549E+02  0.96866877072E+02 -0.14208713144E+03  0.18813274977E+03  0.00000000000E+00 0.  1.
<scales pt_clust_3="147.75771" pt_clust_4="41.29839" pt_clust_5="49.45403" pt_clust_6="14000.00000"></scales>
<clustering>
<clus scale="   41.298">  2  4  1 -1</clus>
<clus scale="   49.454">  1  5  2 -1</clus>
<clus scale="  147.758">  1  3  2 -1</clus>
<clus scale="   49.454">  1  3  2 -1</clus>
</clustering>
</event>
<event>
 6    0  0.2666600E+002  0.6644513E+02  0.7546771E-02  0.1372616E+00
         21   -1    0    0  506  501  0.00000000000E+00  0.00000000000E+00  0.14483711405E+04  0.14483711405E+04  0.00000000000E+00 0.  1.
         21   -1    0    0  504  502 -0.00000000000E+00 -0.00000000000E+00 -0.10791826054E+03  0.10791826054E+03  0.00000000000E+00 0.  1.
         21    1    1    2  503  501 -0.45812631390E+01  0.55021850680E+02  0.11394993782E+04  0.11408361955E+04  0.00000000000E+00 0.  1.
         21    1    1    2  504  505  0.50546672798E+02 -0.25894626190E+02  0.57323111926E+01  0.57082021584E+02  0.00000000000E+00 0.  1.
         21    1    1    2  505  503  0.18699067818E+02 -0.10503864080E+03  0.22936776161E+03  0.25296707545E+03  0.00000000000E+00 0.  1.
         21    1    1    2  506  502 -0.64664477476E+02  0.75911416309E+02 -0.34146571049E+02  0.10540410850E+03  0.00000000000E+00 0.  1.
<scales pt_clust_3="55.21225" pt_clust_4="54.03312" pt_clust_5="14000.00000" pt_clust_6="66.44513"></scales>
<clustering>
<clus scale="   55.212">  1  3  2 -1</clus>
<clus scale="   54.033">  2  4  1 -1</clus>
<clus scale="   66.445">  2  6  1 -1</clus>
<clus scale="   55.212">  1  3  2 -1</clus>
</clustering>
</event>
<event>
 6    0  0.2666600E+002  0.8647294E+02  0.7546771E-02  0.1311625E+00
         21   -1    0    0  506  501  0.00000000000E+00  0.00000000000E+00  0.15105827715E+04  0.15105827715E+04  0.00000000000E+00 0.  1.
         21   -1    0    0  505  502 -0.00000000000E+00 -0.00000000000E+00 -0.10665879837E+03  0.10665879837E+03  0.00000000000E+00 0. -1.
         21    1    1    2  503  501 -0.27231060726E+02 -0.13174761906E+02  0.66865300085E+03  0.66933694098E+03  0.00000000000E+00 0. -1.
         21    1    1    2  504  502  0.64112860857E+02 -0.88923821934E+02 -0.19050267528E+02  0.11126912297E+03  0.00000000000E+00 0. -1.
         21    1    1    2  505  503  0.23088731105E+02  0.71200816357E+02 -0.43439668228E+01  0.74976768413E+02  0.00000000000E+00 0. -1.
         21    1    1    2  506  504 -0.59970531236E+02  0.30897767483E+02  0.75866520659E+03  0.76165873746E+03  0.00000000000E+00 0.  1.
<scales pt_clust_3="30.25070" pt_clust_4="14000.00000" pt_clust_5="73.97811" pt_clust_6="86.47294"></scales>
<clustering>
<clus scale="   30.251">  1  3  2 -1</clus>
<clus scale="   73.978">  2  5  1 -1</clus>
<clus scale="   86.473">  1  6  2 -1</clus>
<clus scale="   30.251">  1  3  2 -1</clus>
</clustering>
</event>
<event>
 6    0  0.2666600E+002  0.1187692E+03  0.7546771E-02  0.1245141E+00
         21   -1    0    0  504  501  0.00000000000E+00  0.00000000000E+00  0.11078273143E+03  0.11078273143E+03  0.00000000000E+00 0. -1.
         21   -1    0    0  505  502 -0.00000000000E+00 -0.00000000000E+00 -0.35199232496E+03  0.35199232496E+03  0.00000000000E+00 0. -1.
         21    1    1    2  503  506 -0.83044516032E+02 -0.10102244023E+02 -0.19365274990E+03  0.21094983887E+03  0.00000000000E+00 0. -1.
         21    1    1    2  504  503  0.79340493379E+02  0.30130245104E+02 -0.50661936817E+02  0.98840160874E+02  0.00000000000E+00 0. -1.
         21    1    1    2  505  501  0.51336046053E+02 -0.29805974842E+02  0.55667999346E+02  0.81380046152E+02  0.00000000000E+00 0. -1.
         21    1    1    2  506  502 -0.47632023399E+02  0.97779737611E+01 -0.52562906152E+02  0.71605010489E+02  0.00000000000E+00 0. -1.
<scales pt_clust_3="35.25726" pt_clust_4="109.39602" pt_clust_5="59.36148" pt_clust_6="35.25726"></scales>
<clustering>
<clus scale="   35.257">  3  6 -1 -1</clus>
<clus scale="   59.361">  1  5  2 -1</clus>
<clus scale="  109.396">  1  4  2 -1</clus>
<clus scale="   59.361">  1  3  2 -1</clus>
</clustering>
</event>
<event>
 6    0  0.2666600E+002  0.9397483E+02  0.7546771E-02  0.1293502E+00
         21   -1    0    0  504  501  0.00000000000E+00  0.00000000000E+00  0.48377075395E+03  0.48377075395E+03  0.00000000000E+00 0. -1.
         21   -1    0    0  505  502 -0.00000000000E+00 -0.00000000000E+00 -0.50614203675E+02  0.50614203675E+02  0.00000000000E+00 0. -1.
         21    1    1    2  503  501 -0.93956628173E+02 -0.92622774685E+02  0.17478049652E+03  0.21898641129E+03  0.00000000000E+00 0. -1.
         21    1    1    2  504  506  0.73444730237E+02  0.36185989857E+02  0.20311821265E+03  0.21899900130E+03  0.00000000000E+00 0. -1.
         21    1    1    2  505  503  0.36462921738E+02  0.27161616768E+02  0.28613572096E+02  0.53721826060E+02  0.00000000000E+00 0. -1.
         21    1    1    2  506  502 -0.15951023802E+02  0.29275168060E+02  0.26644269015E+02  0.42677718972E+02  0.00000000000E+00 0.  1.
<scales pt_clust_3="93.97483" pt_clust_4="14000.00000" pt_clust_5="47.85085" pt_clust_6="33.33873"></scales>
<clustering>
<clus scale="   33.339">  2  6  1 -1</clus>
<clus scale="   47.851">  2  5  1 -1</clus>
<clus scale="   93.975">  2  3  1 -1</clus>
<clus scale="   93.975">  1  3  2 -1</clus>
</clustering>
</event>
<event>
 6    0  0.2666600E+002  0.1265878E+03  0.7546771E-02  0.1232609E+00
         21   -1    0    0  505  501  0.00000000000E+00  0.00000000000E+00  0.61437055339E+03  0.61437055339E+03  0.00000000000E+00 0. -1.
         21   -1    0    0  506  502 -0.00000000000E+00 -0.00000000000E+00 -0.76030218928E+03  0.76030218928E+03  0.00000000000E+00 0. -1.
         21    1    1    2  503  504 -0.37357707289E+02 -0.78024926709E+02  0.53760821974E+02  0.10185142837E+03  0.00000000000E+00 0.  1.
         21    1    1    2  504  501  0.12829011011E+03  0.76404024587E+02  0.51762370326E+03  0.53873019731E+03  0.00000000000E+00 0. -1.
         21    1    1    2  505  502 -0.61785718065E+02  0.51745978850E+02 -0.23787795438E+03  0.25115939653E+03  0.00000000000E+00 0. -1.
         21    1    1    2  506  503 -0.29146684758E+02 -0.50125076728E+02 -0.47943820674E+03  0.48293172046E+03  0.00000000000E+00 0. -1.
<scales pt_clust_3="14000.00000" pt_clust_4="126.58775" pt_clust_5="87.67020" pt_clust_6="57.98321"></scales>
<clustering>
<clus scale="   57.983">  2  6  1 -1</clus>
<clus scale="   87.670">  2  5  1 -1</clus>
<clus scale="  126.588">  1  4  2 -1</clus>
<clus scale="  126.588">  1  3  2 -1</clus>
</clustering>
</event>
<event>
 6    0  0.2666600E+002  0.1282372E+03  0.7546771E-02  0.1230095E+00
         21   -1    0    0  504  501  0.00000000000E+00  0.00000000000E+00  0.49536283519E+03  0.49536283519E+03  0.00000000000E+00 0. -1.
         21   -1    0    0  506  502 -0.00000000000E+00 -0.00000000000E+00 -0.35393496819E+03  0.35393496819E+03  0.00000000000E+00 0. -1.
         21    1    1    2  503  505 -0.35355791729E+02  0.21163990137E+02  0.95872545536E+02  0.10435272625E+03  0.00000000000E+00 0. -1.
         21    1    1    2  504  502  0.36929405000E+02 -0.32527461539E+02 -0.44071862619E+02  0.66061681651E+02  0.00000000000E+00 0. -1.
         21    1    1    2  505  501 -0.82019344740E+02 -0.87938544442E+01  0.37383239156E+03  0.38282523658E+03  0.00000000000E+00 0. -1.
         21    1    1    2  506  503  0.80445731468E+02  0.20157325846E+02 -0.28420520748E+03  0.29605815890E+03  0.00000000000E+00 0. -1.
<scales pt_clust_3="37.33020" pt_clust_4="49.21196" pt_clust_5="37.33020" pt_clust_6="116.85491"></scales>
<clustering>
<clus scale="   37.330">  3  5 -1 -1</clus>
<clus scale="   49.212">  2  4  1 -1</clus>
<clus scale="  116.855">  2  6  1 -1</clus>
<clus scale="  128.237">  1  3  2 -1</clus>
</clustering>
</event>
<event>
 6    0  0.2666600E+002  0.1560581E+03  0.7546771E-02  0.1193220E+00
         21   -1    0    0  503  501  0.00000000000E+00  0.00000000000E+00  0.12244698558E+04  0.12244698558E+04  0.00000000000E+00 0.  1.
         21   -1    0    0  505  502 -0.00000000000E+00 -0.00000000000E+00 -0.10245273503E+03  0.10245273503E+03  0.00000000000E+00 0.  1.
         21    1    1    2  503  504 -0.22489365725E+02  0.99536554754E+02  0.76448358944E+03  0.77126419327E+03  0.00000000000E+00 0.  1.
         21    1    1    2  504  506  0.16792050610E+02  0.41885642868E+02  0.18165690985E+03  0.18717802472E+03  0.00000000000E+00 0.  1.
         21    1    1    2  505  501 -0.10477052504E+03 -0.17855483484E+03  0.10578511894E+03  0.23248480241E+03  0.00000000000E+00 0.  1.
         21    1    1    2  506  502  0.11046784016E+03  0.37132637216E+02  0.70091502576E+02  0.13599557047E+03  0.00000000000E+00 0.  1.
<scales pt_clust_3="38.75804" pt_clust_4="38.75804" pt_clust_5="144.76594" pt_clust_6="116.54174"></scales>
<clustering>
<clus scale="   38.758">  3  4 -1 -1</clus>
<clus scale="  116.542">  2  6  1 -1</clus>
<clus scale="  144.766">  2  5  1 -1</clus>
<clus scale="  156.058">  1  3  2 -1</clus>
</clustering>
</event>
<event>
 6    0  0.2666600E+002  0.9927733E+02  0.7546771E-02  0.1281823E+00
         21   -1    0    0  504  501  0.00000000000E+00  0.00000000000E+00  0.70049941490E+02  0.70049941490E+02  0.00000000000E+00 0.  1.
         21   -1    0    0  506  502 -0.00000000000E+00 -0.00000000000E+00 -0.12717092061E+04  0.12717092061E+04  0.00000000000E+00 0.  1.
         21    1    1    2  503  505 -0.27763858247E+02  0.10110170200E+03 -0.82500676205E+02  0.13341194679E+03  0.00000000000E+00 0.  1.
         21    1    1    2  504  503  0.86174973871E+02 -0.60533403056E+02 -0.26253660716E+02  0.10853420525E+03  0.00000000000E+00 0.  1.
         21    1    1    2  505  502  0.96442361104E+01 -0.34135026762E+02 -0.70778505536E+03  0.70867333514E+03  0.00000000000E+00 0.  1.
         21    1    1    2  506  501 -0.68055351734E+02 -0.64332721791E+01 -0.38511987233E+03  0.39113966042E+03  0.00000000000E+00 0.  1.
<scales pt_clust_3="99.27733" pt_clust_4="14000.00000" pt_clust_5="35.47127" pt_clust_6="68.32439"></scales>
<clustering>
<clus scale="   35.471">  2  5  1 -1</clus>
<clus scale="   68.324">  2  6  1 -1</clus>
<clus scale="   99.277">  2  3  1 -1</clus>
<clus scale="   99.277">  1  3  2 -1</clus>
</clustering>
</event>
<event>
 6    0  0.3018197E+002  0.1183748E+03  0.7546771E-02  0.1245803E+00
         21   -1    0    0  505  501  0.00000000000E+00  0.00000000000E+00  0.12988385435E+04  0.12988385435E+04  0.00000000000E+00 0. -1.
         21   -1    0    0  506  502 -0.00000000000E+00 -0.00000000000E+00 -0.52962259846E+03  0.52962259846E+03  0.00000000000E+00 0.  1.
         21    1    1    2  503  501 -0.25112705749E+02 -0.68608744987E+02  0.11541085491E+04  0.11564187611E+04  0.00000000000E+00 0. -1.
         21    1    1    2  504  503  0.26886300050E+02 -0.68996511307E+02 -0.30622333649E+02  0.80131885171E+02  0.00000000000E+00 0. -1.
         21    1    1    2  505  502  0.31159042097E+02  0.54338744432E+01  0.10667251695E+03  0.11126292630E+03  0.00000000000E+00 0.  1.
         21    1    1    2  506  504 -0.32932636398E+02  0.13217138185E+03 -0.46094278738E+03  0.48064756939E+03  0.00000000000E+00 0.  1.
<scales pt_clust_3="63.54116" pt_clust_4="14000.00000" pt_clust_5="31.62930" pt_clust_6="118.37476"></scales>
<clustering>
<clus scale="   31.629">  1  5  2 -1</clus>
<clus scale="   63.541">  1  3  2 -1</clus>
<clus scale="  118.375">  2  6  1 -1</clus>
<clus scale="   31.629">  1  3  2 -1</clus>
</clustering>
</event>
<event>
 6    0  0.2666600E+002  0.1153061E+03  0.7546771E-02  0.1251048E+00
         21   -1    0    0  503  501  0.00000000000E+00  0.00000000000E+00  0.22158599357E+04  0.22158599357E+04  0.00000000000E+00 0. -1.
         21   -1    0    0  506  502 -0.00000000000E+00 -0.00000000000E+00 -0.14567992376E+03  0.14567992376E+03  0.00000000000E+00 0.  1.
         21    1    1    2  503  502  0.45730174113E+02  0.10125796282E+03  0.19094950477E+04  0.19127246956E+04  0.00000000000E+00 0. -1.
         21    1    1    2  504  505  0.80094800408E+02 -0.48790332468E+02  0.15532193380E+03  0.18144028415E+03  0.00000000000E+00 0.  1.
         21    1    1    2  505  501 -0.43974269322E+01 -0.45725472310E+02  0.10211320389E+03  0.11196991824E+03  0.00000000000E+00 0. -1.
         21    1    1    2  506  504 -0.12142754759E+03 -0.67421580382E+01 -0.96750173428E+02  0.15540496153E+03  0.00000000000E+00 0.  1.
<scales pt_clust_3="72.94524" pt_clust_4="115.30609" pt_clust_5="45.93644" pt_clust_6="14000.00000"></scales>
<clustering>
<clus scale="   45.936">  1  5  2 -1</clus>
<clus scale="   72.945">  1  3  2 -1</clus>
<clus scale="  115.306">  1  4  2 -1</clus>
<clus scale="   45.936">  1  3  2 -1</clus>
</clustering>
</event>
<event>
 6    0  0.2666600E+002  0.1145452E+03  0.7546771E-02  0.1252377E+00
         21   -1    0    0  502  501  0.00000000000E+00  0.00000000000E+00  0.23982663747E+04  0.23982663747E+04  0.00000000000E+00 0.  1.
         21   -1    0    0  506  502 -0.00000000000E+00 -0.00000000000E+00 -0.64181822531E+03  0.64181822531E+03  0.00000000000E+00 0. -1.
         21    1    1    2  503  505 -0.12519996612E+02 -0.10560506294E+03  0.12377290276E+04  0.12422891472E+04  0.00000000000E+00 0.  1.
         21    1    1    2  504  503  0.26718370435E+02  0.49657340527E+02 -0.42662413951E+03  0.43033461306E+03  0.00000000000E+00 0. -1.
         21    1    1    2  505  501 -0.63595426070E+02  0.37995254843E+02  0.11519216455E+04  0.11543013017E+04  0.00000000000E+00 0.  1.
         21    1    1    2  506  504  0.49397052247E+02  0.17952467569E+02 -0.20657838417E+03  0.21315953807E+03  0.00000000000E+00 0. -1.
<scales pt_clust_3="101.71510" pt_clust_4="50.85414" pt_clust_5="74.08116" pt_clust_6="50.85414"></scales>
<clustering>
<clus scale="   50.854">  4  6 -1 -1</clus>
<clus scale="   74.081">  1  5  2 -1</clus>
<clus scale="  101.715">  1  3  2 -1</clus>
<clus scale="   74.081">  1  3  2 -1</clus>
</clustering>
</event>
<event>
 6    0  0.2666600E+002  0.9601575E+02  0.7546771E-02  0.1288905E+00
         21   -1    0    0  505  501  0.00000000000E+00  0.00000000000E+00  0.33338064350E+04  0.33338064350E+04  0.00000000000E+00 0.  1.
         21   -1    0    0  506  502 -0.00000000000E+00 -0.00000000000E+00 -0.33594331355E+03  0.33594331355E+03  0.00000000000E+00 0. -1.
         21    1    1    2  503  502 -0.46109046305E+02 -0.81029491115E+00 -0.31925088260E+03  0.32256445367E+03  0.00000000000E+00 0. -1.
         21    1    1    2  504  501  0.36358167407E+02  0.76738091930E+02  0.10136292143E+04  0.10171798441E+04  0.00000000000E+00 0.  1.
         21    1    1    2  505  503  0.55103828145E+02 -0.19800130299E+02  0.22152355369E+04  0.22160092421E+04  0.00000000000E+00 0.  1.
         21    1    1    2  506  504 -0.45352949247E+02 -0.56127666720E+02  0.88249252851E+02  0.11399620873E+03  0.00000000000E+00 0. -1.
<scales pt_clust_3="46.11617" pt_clust_4="96.01575" pt_clust_5="57.44534" pt_clust_6="14000.00000"></scales>
<clustering>
<clus scale="   46.116">  2  3  1 -1</clus>
<clus scale="   57.445">  1  5  2 -1</clus>
<clus scale="   96.016">  1  4  2 -1</clus>
<clus scale="   57.445">  1  3  2 -1</clus>
</clustering>
</event>
<event>
 6    0  0.2666600E+002  0.1636910E+03  0.7546771E-02  0.1184592E+00
         21   -1    0    0  503  501  0.00000000000E+00  0.00000000000E+00  0.20281797106E+04  0.20281797106E+04  0.00000000000E+00 0. -1.
         21   -1    0    0  504  502 -0.00000000000E+00 -0.00000000000E+00 -0.65583047918E+02  0.65583047918E+02  0.00000000000E+00 0. -1.
         21    1    1    2  503  505  0.10615310579E+02 -0.11571508148E+03  0.16014090579E+04  0.16056193932E+04  0.00000000000E+00 0. -1.
         21    1    1    2  504  506  0.45687208366E+02  0.21370464246E+02 -0.24325727746E+01  0.50496882682E+02  0.00000000000E+00 0. -1.
         21    1    1    2  505  502  0.86515330974E+01 -0.38433825886E+02  0.24492775949E+03  0.24807582584E+03  0.00000000000E+00 0.  1.
         21    1    1    2  506  501 -0.64954052042E+02  0.13277844312E+03  0.11869241807E+03  0.18957065686E+03  0.00000000000E+00 0. -1.
<scales pt_clust_3="32.38354" pt_clust_4="50.43826" pt_clust_5="32.38354" pt_clust_6="153.95297"></scales>
<clustering>
<clus scale="   32.384">  3  5 -1 -1</clus>
<clus scale="   50.438">  2  4  1 -1</clus>
<clus scale="  153.953">  2  6  1 -1</clus>
<clus scale="  163.691">  1  3  2 -1</clus>
</clustering>
</event>
<event>
 6    0  0.2666600E+002  0.1838598E+03  0.7546771E-02  0.1164119E+00
         21   -1    0    0  503  501  0.00000000000E+00  0.00000000000E+00  0.20662074703E+03  0.20662074703E+03  0.00000000000E+00 0. -1.
         21   -1    0    0  505  502 -0.00000000000E+00 -0.00000000000E+00 -0.51649161981E+03  0.51649161981E+03  0.00000000000E+00 0.  1.
         21    1    1    2  503  506  0.13389555457E+02 -0.75478440712E+02  0.42189298651E+02  0.87499783590E+02  0.00000000000E+00 0. -1.
         21    1    1    2  504  502 -0.96661544277E+02  0.21366644458E+03 -0.32282712016E+03  0.39901648236E+03  0.00000000000E+00 0.  1.
         21    1    1    2  505  501  0.29498774390E+02 -0.54198990536E+02 -0.97751135518E+02  0.11559841158E+03  0.00000000000E+00 0.  1.
         21    1    1    2  506  504  0.53773214430E+02 -0.83989013332E+02  0.68518084247E+02  0.12099768931E+03  0.00000000000E+00 0. -1.
<scales pt_clust_3="31.29778" pt_clust_4="180.36087" pt_clust_5="61.70663" pt_clust_6="31.29778"></scales>
<clustering>
<clus scale="   31.298">  3  6 -1 -1</clus>
<clus scale="   61.707">  2  5  1 -1</clus>
<clus scale="  180.361">  2  4  1 -1</clus>
<clus scale="  183.860">  1  3  2 -1</clus>
</clustering>
</event>
<event>
 6    0  0.2666600E+002  0.2156966E+03  0.7546771E-02  0.1137133E+00
         21   -1    0    0  505  501  0.00000000000E+00  0.00000000000E+00  0.51697129178E+03  0.51697129178E+03  0.00000000000E+00 0.  1.
         21   -1    0    0  503  502 -0.00000000000E+00 -0.00000000000E+00 -0.59192920109E+03  0.59192920109E+03  0.00000000000E+00 0. -1.
         21    1    1    2  503  504 -0.23516710444E+02  0.10854290775E+03  0.28404867575E+03  0.30498893208E+03  0.00000000000E+00 0.  1.
         21    1    1    2  504  501 -0.55828161230E+02  0.68958535664E+02  0.19237079268E+03  0.21184566340E+03  0.00000000000E+00 0.  1.
         21    1    1    2  505  506 -0.18249049454E+02 -0.60703003896E+02 -0.17061930569E+03  0.18201326865E+03  0.00000000000E+00 0.  1.
         21    1    1    2  506  502  0.97593921128E+02 -0.11679843952E+03 -0.38075807204E+03  0.41005262875E+03  0.00000000000E+00 0. -1.
<scales pt_clust_3="200.35591" pt_clust_4="43.23742" pt_clust_5="60.27101" pt_clust_6="60.27101"></scales>
<clustering>
<clus scale="   43.237">  3  4 -1 -1</clus>
<clus scale="   60.271">  5  6 -1 -1</clus>
<clus scale="  200.356">  1  3  2 -1</clus>
<clus scale="  200.356">  1  3  2 -1</clus>
</clustering>
</event>
<event>
 6    0  0.2666600E+002  0.7178238E+02  0.7546771E-02  0.1354135E+00
         21   -1    0    0  503  501  0.00000000000E+00  0.00000000000E+00  0.78840475232E+03  0.78840475232E+03  0.00000000000E+00 0.  1.
         21   -1    0    0  505  502 -0.00000000000E+00 -0.00000000000E+00 -0.85085813258E+02  0.85085813258E+02  0.00000000000E+00 0. -1.
         21    1    1    2  503  504  0.40988591561E+02  0.59689634262E+02  0.65904485411E+03  0.66301058574E+03  0.00000000000E+00 0.  1.
         21    1    1    2  504  502 -0.41498437064E+02  0.41989049342E+02  0.65692878102E+02  0.88321881641E+02  0.00000000000E+00 0.  1.
         21    1    1    2  505  506 -0.26323648896E+02 -0.17259681539E+02 -0.87869590877E+01  0.32680908005E+02  0.00000000000E+00 0. -1.
         21    1    1    2  506  501  0.26833494399E+02 -0.84419002065E+02 -0.12631834069E+02  0.89477190184E+02  0.00000000000E+00 0. -1.
<scales pt_clust_3="14000.00000" pt_clust_4="60.37484" pt_clust_5="31.47747" pt_clust_6="71.78238"></scales>
<clustering>
<clus scale="   31.477">  2  5  1 -1</clus>
<clus scale="   60.375">  2  4  1 -1</clus>
<clus scale="   71.782">  2  6  1 -1</clus>
<clus scale="   71.782">  1  3  2 -1</clus>
</clustering>
</event>
<event>
 6    0  0.2666600E+002  0.7238063E+02  0.7546771E-02  0.1352180E+00
         21   -1    0    0  504  501  0.00000000000E+00  0.00000000000E+00  0.17352677458E+03  0.17352677458E+03  0.00000000000E+00 0. -1.
         21   -1    0    0  506  502 -0.00000000000E+00 -0.00000000000E+00 -0.64036453952E+03  0.64036453952E+03  0.00000000000E+00 0. -1.
         21    1    1    2  503  505  0.72140358974E+02 -0.41172305775E+02 -0.26866385438E+03  0.28121105384E+03  0.00000000000E+00 0. -1.
         21    1    1    2  504  502  0.61996367976E+01 -0.59008838899E+02  0.83920259880E+02  0.10277688740E+03  0.00000000000E+00 0. -1.
         21    1    1    2  505  501 -0.50382225272E+02  0.33613992539E+02  0.57022772581E+02  0.83185730210E+02  0.00000000000E+00 0. -1.
         21    1    1    2  506  503 -0.27957770499E+02  0.66567152135E+02 -0.33911694303E+03  0.34671764265E+03  0.00000000000E+00 0. -1.
<scales pt_clust_3="72.38063" pt_clust_4="59.33362" pt_clust_5="48.42361" pt_clust_6="14000.00000"></scales>
<clustering>
<clus scale="   59.334">  1  4  2 -1</clus>
<clus scale="   48.424">  1  5  2 -1</clus>
<clus scale="   72.381">  1  3  2 -1</clus>
<clus scale="   59.334">  1  3  2 -1</clus>
</clustering>
</event>
<event>
 6    0  0.2666600E+002  0.1799381E+03  0.7546771E-02  0.1167863E+00
         21   -1    0    0  506  501  0.00000000000E+00  0.00000000000E+00  0.29885115592E+03  0.29885115592E+03  0.00000000000E+00 0.  1.
         21   -1    0    0  504  502 -0.00000000000E+00 -0.00000000000E+00 -0.12012928399E+04  0.12012928399E+04  0.00000000000E+00 0.  1.
         21    1    1    2  503  501 -0.74571246677E+02 -0.69269302603E+02 -0.86647878869E+03  0.87243601390E+03  0.00000000000E+00 0.  1.
         21    1    1    2  504  503 -0.63348268767E+02 -0.17319971491E+02 -0.26003479338E+03  0.26819969861E+03  0.00000000000E+00 0.  1.
         21    1    1    2  505  502  0.15606587408E+03  0.13742003856E+03  0.22385458499E+03  0.30553510317E+03  0.00000000000E+00 0.  1.
         21    1    1    2  506  505 -0.18146358639E+02 -0.50830764463E+02  0.21731311091E+00  0.53973180124E+02  0.00000000000E+00 0. -1.
<scales pt_clust_3="59.61684" pt_clust_4="59.61684" pt_clust_5="163.95196" pt_clust_6="53.97274"></scales>
<clustering>
<clus scale="   53.973">  1  6  2 -1</clus>
<clus scale="   59.617">  3  4 -1 -1</clus>
<clus scale="  163.952">  1  5  2 -1</clus>
<clus scale="   53.973">  1  3  2 -1</clus>
</clustering>
</event>
<event>
 6    0  0.2666600E+002  0.9012494E+02  0.7546771E-02  0.1302549E+00
         21   -1    0    0  503  501  0.00000000000E+00  0.00000000000E+00  0.47133125134E+03  0.47133125134E+03  0.00000000000E+00 0. -1.
         21   -1    0    0  506  502 -0.00000000000E+00 -0.00000000000E+00 -0.14107422727E+03  0.14107422727E+03  0.00000000000E+00 0. -1.
         21    1    1    2  503  504  0.14444624662E+02 -0.60388247227E+02  0.18778065234E+03  0.19778008236E+03  0.00000000000E+00 0. -1.
         21    1    1    2  504  502  0.78182078334E+02 -0.46104311373E+02 -0.87379806545E+02  0.12598918800E+03  0.00000000000E+00 0. -1.
         21    1    1    2  505  501 -0.35406167703E+02  0.33798622347E+02  0.17358411095E+03  0.18035350609E+03  0.00000000000E+00 0. -1.
         21    1    1    2  506  505 -0.57220535293E+02  0.72693936253E+02  0.56272067322E+02  0.10828270216E+03  0.00000000000E+00 0. -1.
<scales pt_clust_3="39.23970" pt_clust_4="90.12494" pt_clust_5="48.94838" pt_clust_6="14000.00000"></scales>
<clustering>
<clus scale="   48.948">  1  5  2 -1</clus>
<clus scale="   39.240">  1  3  2 -1</clus>
<clus scale="   90.125">  2  4  1 -1</clus>
<clus scale="   48.948">  1  3  2 -1</clus>
</clustering>
</event>
<event>
 6    0  0.2666600E+002  0.1270358E+03  0.7546771E-02  0.1231922E+00
         21   -1    0    0  505  501  0.00000000000E+00  0.00000000000E+00  0.51671964928E+03  0.51671964928E+03  0.00000000000E+00 0.  1.
         21   -1    0    0  503  502 -0.00000000000E+00 -0.00000000000E+00 -0.75154307151E+02  0.75154307151E+02  0.00000000000E+00 0.  1.
         21    1    1    2  503  504  0.39659835585E+02 -0.38517800660E+01 -0.21482866741E+02  0.45268668323E+02  0.00000000000E+00 0.  1.
         21    1    1    2  504  506  0.66378618295E+02 -0.47657681094E+02  0.20759744162E+02  0.84310986898E+02  0.00000000000E+00 0.  1.
         21    1    1    2  505  502 -0.78412689641E+02  0.66738531360E+02  0.33607831088E+03  0.35149852419E+03  0.00000000000E+00 0.  1.
         21    1    1    2  506  501 -0.27625764240E+02 -0.15229070200E+02  0.10621015383E+03  0.11079577702E+03  0.00000000000E+00 0.  1.
<scales pt_clust_3="37.58577" pt_clust_4="37.58577" pt_clust_5="115.08734" pt_clust_6="31.54532"></scales>
<clustering>
<clus scale="   31.545">  1  6  2 -1</clus>
<clus scale="   37.586">  3  4 -1 -1</clus>
<clus scale="  115.087">  1  5  2 -1</clus>
<clus scale="   31.545">  1  3  2 -1</clus>
</clustering>
</event>
<event>
 6    0  0.2666600E+002  0.1663756E+03  0.7546771E-02  0.1181681E+00
         21   -1    0    0  503  501  0.00000000000E+00  0.00000000000E+00  0.36163783235E+03  0.36163783235E+03  0.00000000000E+00 0.  1.
         21   -1    0    0  504  502 -0.00000000000E+00 -0.00000000000E+00 -0.24966869135E+03  0.24966869135E+03  0.00000000000E+00 0.  1.
         21    1    1    2  503  502  0.30159547410E+02  0.28563528729E+02  0.14056298547E+02  0.43852628225E+02  0.00000000000E+00 0.  1.
         21    1    1    2  504  506 -0.78013313575E+00 -0.40157904520E+02 -0.96392734998E+02  0.10442617135E+03  0.00000000000E+00 0.  1.
         21    1    1    2  505  501 -0.27444571341E+02  0.12827731717E+03  0.28597703369E+03  0.31462857212E+03  0.00000000000E+00 0.  1.
         21    1    1    2  506  505 -0.19348429337E+01 -0.11668294137E+03 -0.91671456241E+02  0.14839915200E+03  0.00000000000E+00 0.  1.
<scales pt_clust_3="41.53882" pt_clust_4="36.85327" pt_clust_5="154.06087" pt_clust_6="36.85327"></scales>
<clustering>
<clus scale="   36.853">  4  6 -1 -1</clus>
<clus scale="   41.539">  1  3  2 -1</clus>
<clus scale="  154.061">  1  5  2 -1</clus>
<clus scale="   41.539">  1  3  2 -1</clus>
</clustering>
</event>
<event>
 6    0  0.2666600E+002  0.2199714E+03  0.7546771E-02  0.1133904E+00
         21   -1    0    0  503  501  0.00000000000E+00  0.00000000000E+00  0.83029218121E+02  0.83029218121E+02  0.00000000000E+00 0. -1.
         21   -1    0    0  505  502 -0.00000000000E+00 -0.00000000000E+00 -0.14469021188E+04  0.14469021188E+04  0.00000000000E+00 0. -1.
         21    1    1    2  503  502 -0.59387123640E+02  0.71819987135E+02 -0.41049507822E+03  0.42094079186E+03  0.00000000000E+00 0. -1.
         21    1    1    2  504  506  0.17044866147E+03 -0.31790389701E+02 -0.11009560606E+03  0.20538845524E+03  0.00000000000E+00 0. -1.
         21    1    1    2  505  504 -0.16397709093E+03 -0.57190853761E+02 -0.82785432418E+03  0.84587354975E+03  0.00000000000E+00 0. -1.
         21    1    1    2  506  501  0.52915553107E+02  0.17161256326E+02 -0.15427892205E+02  0.57728540058E+02  0.00000000000E+00 0. -1.
<scales pt_clust_3="93.19303" pt_clust_4="32.87603" pt_clust_5="212.17591" pt_clust_6="32.87603"></scales>
<clustering>
<clus scale="   32.876">  4  6 -1 -1</clus>
<clus scale="   93.193">  2  3  1 -1</clus>
<clus scale="  212.176">  2  5  1 -1</clus>
<clus scale="  219.971">  1  3  2 -1</clus>
</clustering>
</event>
<event>
 6    0  0.2666600E+002  0.4321770E+03  0.7546771E-02  0.1033174E+00
         21   -1    0    0  502  501  0.00000000000E+00  0.00000000000E+00  0.59445669592E+03  0.59445669592E+03  0.00000000000E+00 0.  1.
         21   -1    0    0  504  502 -0.00000000000E+00 -0.00000000000E+00 -0.33438311446E+03  0.33438311446E+03  0.00000000000E+00 0. -1.
         21    1    1    2  503  501  0.24274008387E+03  0.13999018055E+02  0.22307378008E+03  0.32997065352E+03  0.00000000000E+00 0.  1.
         21    1    1    2  504  505 -0.26981296716E+03  0.66404538865E+02 -0.37500588231E+02  0.28038347695E+03  0.00000000000E+00 0. -1.
         21    1    1    2  505  506 -0.13492608901E+03 -0.18978668158E+02  0.28014540537E+02  0.13910447089E+03  0.00000000000E+00 0. -1.
         21    1    1    2  506  503  0.16199897230E+03 -0.61424888761E+02  0.46485849071E+02  0.17938120902E+03  0.00000000000E+00 0. -1.
<scales pt_clust_3="121.49027" pt_clust_4="419.38068" pt_clust_5="69.38304" pt_clust_6="121.49027"></scales>
<clustering>
<clus scale="   69.383">  4  5 -1 -1</clus>
<clus scale="  121.490">  3  6 -1 -1</clus>
<clus scale="  419.381">  2  4  1 -1</clus>
<clus scale="  432.177">  1  3  2 -1</clus>
</clustering>
</event>
<event>
 6    0  0.2666600E+002  0.1253123E+03  0.7546771E-02  0.1234582E+00
         21   -1    0    0  505  501  0.00000000000E+00  0.00000000000E+00  0.65409990091E+03  0.65409990091E+03  0.00000000000E+00 0.  1.
         21   -1    0    0  503  502 -0.00000000000E+00 -0.00000000000E+00 -0.81290494344E+02  0.81290494344E+02  0.00000000000E+00 0.  1.
         21    1    1    2  503  501 -0.70887533909E+02 -0.92384416229E+01  0.48375418581E+02  0.86316698212E+02  0.00000000000E+00 0.  1.
         21    1    1    2  504  502 -0.57837283461E+02 -0.93164324296E+01 -0.37424004581E+02  0.69516209550E+02  0.00000000000E+00 0.  1.
         21    1    1    2  505  506  0.75945500585E+02  0.22173431647E+02  0.43457547284E+03  0.44171848696E+03  0.00000000000E+00 0.  1.
         21    1    1    2  506  504  0.52779316785E+02 -0.36185575941E+01  0.12728251973E+03  0.13783900053E+03  0.00000000000E+00 0.  1.
<scales pt_clust_3="111.42284" pt_clust_4="58.58282" pt_clust_5="46.89016" pt_clust_6="46.89016"></scales>
<clustering>
<clus scale="   46.890">  5  6 -1 -1</clus>
<clus scale="   58.583">  2  4  1 -1</clus>
<clus scale="  111.423">  2  3  1 -1</clus>
<clus scale="  125.312">  1  3  2 -1</clus>
</clustering>
</event>
<event>
 6    0  0.2666600E+002  0.2015138E+03  0.7546771E-02  0.1148468E+00
         21   -1    0    0  504  501  0.00000000000E+00  0.00000000000E+00  0.42629163653E+02  0.42629163653E+02  0.00000000000E+00 0. -1.
         21   -1    0    0  505  502 -0.00000000000E+00 -0.00000000000E+00 -0.94034814427E+03  0.94034814427E+03  0.00000000000E+00 0.  1.
         21    1    1    2  503  501  0.64288810025E+02  0.17544132512E+02 -0.83012646747E+02  0.10645161906E+03  0.00000000000E+00 0. -1.
         21    1    1    2  504  506 -0.10017813891E+03  0.33514276542E+02 -0.21587894543E+03  0.24033848075E+03  0.00000000000E+00 0.  1.
         21    1    1    2  505  503  0.12183219053E+03 -0.20431887190E+02 -0.34982366055E+03  0.37099479530E+03  0.00000000000E+00 0. -1.
         21    1    1    2  506  502 -0.85942861647E+02 -0.30626521864E+02 -0.24900372789E+03  0.26519241281E+03  0.00000000000E+00 0. -1.
<scales pt_clust_3="56.69443" pt_clust_4="198.60912" pt_clust_5="56.69443" pt_clust_6="64.36200"></scales>
<clustering>
<clus scale="   56.694">  3  5 -1 -1</clus>
<clus scale="   64.362">  4  6 -1 -1</clus>
<clus scale="  198.609">  2  4  1 -1</clus>
<clus scale="  201.514">  1  3  2 -1</clus>
</clustering>
</event>
<event>
 6    0  0.2666600E+002  0.1661829E+03  0.7546771E-02  0.1181888E+00
         21   -1    0    0  503  501  0.00000000000E+00  0.00000000000E+00  0.65460920269E+02  0.65460920269E+02  0.00000000000E+00 0. -1.
         21   -1    0    0  505  502 -0.00000000000E+00 -0.00000000000E+00 -0.50461820582E+03  0.50461820582E+03  0.00000000000E+00 0. -1.
         21    1    1    2  503  506  0.10702102179E+03 -0.43274164139E+02 -0.28780219381E+03  0.31009072083E+03  0.00000000000E+00 0. -1.
         21    1    1    2  504  501 -0.85650122926E+02  0.53853692659E+02 -0.40604213924E+02  0.10901773231E+03  0.00000000000E+00 0. -1.
         21    1    1    2  505  504 -0.56973524085E+02  0.14720013044E+02 -0.60653572512E+02  0.84507497236E+02  0.00000000000E+00 0. -1.
         21    1    1    2  506  502  0.35602625220E+02 -0.25299541564E+02 -0.50097305309E+02  0.66463175707E+02  0.00000000000E+00 0. -1.
<scales pt_clust_3="31.20028" pt_clust_4="164.92081" pt_clust_5="35.40329" pt_clust_6="31.20028"></scales>
<clustering>
<clus scale="   31.200">  3  6 -1 -1</clus>
<clus scale="   35.403">  4  5 -1 -1</clus>
<clus scale="  164.921">  1  4  2 -1</clus>
<clus scale="  164.921">  1  3  2 -1</clus>
</clustering>
</event>
<event>
 6    0  0.2666600E+002  0.1928229E+03  0.7546771E-02  0.1155940E+00
         21   -1    0    0  502  501  0.00000000000E+00  0.00000000000E+00  0.32924347927E+03  0.32924347927E+03  0.00000000000E+00 0. -1.
         21   -1    0    0  506  502 -0.00000000000E+00 -0.00000000000E+00 -0.12597539855E+04  0.12597539855E+04  0.00000000000E+00 0.  1.
         21    1    1    2  503  501  0.12668446096E+02  0.71917614535E+02  0.18984200877E+03  0.20340260839E+03  0.00000000000E+00 0. -1.
         21    1    1    2  504  505 -0.74601677717E+02 -0.39212488515E+02 -0.43269857637E+03  0.44082999848E+03  0.00000000000E+00 0.  1.
         21    1    1    2  505  503  0.13601018294E+03  0.47798082503E+02  0.83023099856E+02  0.16636183956E+03  0.00000000000E+00 0.  1.
         21    1    1    2  506  504 -0.74076951315E+02 -0.80503208523E+02 -0.77067703848E+03  0.77840301832E+03  0.00000000000E+00 0.  1.
<scales pt_clust_3="73.02488" pt_clust_4="39.04698" pt_clust_5="187.62084" pt_clust_6="39.04698"></scales>
<clustering>
<clus scale="   39.047">  4  6 -1 -1</clus>
<clus scale="   73.025">  1  3  2 -1</clus>
<clus scale="  187.621">  1  5  2 -1</clus>
<clus scale="   73.025">  1  3  2 -1</clus>
</clustering>
</event>
<event>
 6    0  0.2666600E+002  0.1056235E+03  0.7546771E-02  0.1268896E+00
         21   -1    0    0  504  501  0.00000000000E+00  0.00000000000E+00  0.10736520477E+03  0.10736520477E+03  0.00000000000E+00 0.  1.
         21   -1    0    0  505  502 -0.00000000000E+00 -0.00000000000E+00 -0.19485282207E+04  0.19485282207E+04  0.00000000000E+00 0.  1.
         21    1    1    2  503  501 -0.62859490452E+02 -0.40319830846E+02 -0.63875435027E+01  0.74952018060E+02  0.00000000000E+00 0.  1.
         21    1    1    2  504  506  0.34560358340E+02  0.14446042571E+03 -0.70914018194E+01  0.14870615638E+03  0.00000000000E+00 0.  1.
         21    1    1    2  505  503  0.68065290987E+01 -0.47878762763E+02 -0.35010372136E+03  0.35342795655E+03  0.00000000000E+00 0.  1.
         21    1    1    2  506  502  0.21492603013E+02 -0.56261832105E+02 -0.14775803492E+04  0.14788072945E+04  0.00000000000E+00 0.  1.
<scales pt_clust_3="75.20017" pt_clust_4="105.62349" pt_clust_5="48.36016" pt_clust_6="14000.00000"></scales>
<clustering>
<clus scale="   48.360">  2  5  1 -1</clus>
<clus scale="   75.200">  1  3  2 -1</clus>
<clus scale="  105.623">  1  4  2 -1</clus>
<clus scale="   75.200">  1  3  2 -1</clus>
</clustering>
</event>
<event>
 6    0  0.2666600E+002  0.2760730E+03  0.7546771E-02  0.1097853E+00
         21   -1    0    0  503  501  0.00000000000E+00  0.00000000000E+00  0.39560071884E+03  0.39560071884E+03  0.00000000000E+00 0. -1.
         21   -1    0    0  505  502 -0.00000000000E+00 -0.00000000000E+00 -0.46679075065E+03  0.46679075065E+03  0.00000000000E+00 0. -1.
         21    1    1    2  503  506 -0.42695105495E+02  0.13499924487E+02  0.18739404538E+02  0.48541582966E+02  0.00000000000E+00 0. -1.
         21    1    1    2  504  501  0.22778097164E+03 -0.16981711969E+03  0.14923103689E+03  0.32092355407E+03  0.00000000000E+00 0. -1.
         21    1    1    2  505  504  0.44160191699E+02 -0.82778348167E+02 -0.88708206165E+02  0.12911825315E+03  0.00000000000E+00 0. -1.
         21    1    1    2  506  502 -0.22924605785E+03  0.23909554337E+03 -0.15045226708E+03  0.36380807930E+03  0.00000000000E+00 0. -1.
<scales pt_clust_3="44.77857" pt_clust_4="14000.00000" pt_clust_5="92.05092" pt_clust_6="276.07302"></scales>
<clustering>
<clus scale="   44.779">  1  3  2 -1</clus>
<clus scale="   92.051">  2  5  1 -1</clus>
<clus scale="  276.073">  2  6  1 -1</clus>
<clus scale="   44.779">  1  3  2 -1</clus>
</clustering>
</event>
<event>
 6    0  0.2666600E+002  0.1443278E+03  0.7546771E-02  0.1207621E+00
         21   -1    0    0  503  501  0.00000000000E+00  0.00000000000E+00  0.15638765959E+03  0.15638765959E+03  0.00000000000E+00 0. -1.
         21   -1    0    0  505  502 -0.00000000000E+00 -0.00000000000E+00 -0.16737219206E+03  0.16737219206E+03  0.00000000000E+00 0.  1.
         21    1    1    2  503  506 -0.23293214989E+02  0.72258879024E+02  0.60653184923E+02  0.97173701708E+02  0.00000000000E+00 0. -1.
         21    1    1    2  504  501  0.27537758746E+02 -0.34615359661E+02 -0.59666947840E+01  0.44633538151E+02  0.00000000000E+00 0.  1.
         21    1    1    2  505  504  0.23647198415E+02 -0.91948312798E+02 -0.73953480927E+02  0.12034450366E+03  0.00000000000E+00 0.  1.
         21    1    1    2  506  502 -0.27891742173E+02  0.54304793435E+02  0.82824583225E+01  0.61608108129E+02  0.00000000000E+00 0.  1.
<scales pt_clust_3="143.03685" pt_clust_4="31.95898" pt_clust_5="31.95898" pt_clust_6="38.26901"></scales>
<clustering>
<clus scale="   31.959">  4  5 -1 -1</clus>
<clus scale="   38.269">  3  6 -1 -1</clus>
<clus scale="  143.037">  1  3  2 -1</clus>
<clus scale="  143.037">  1  3  2 -1</clus>
</clustering>
</event>
<event>
 6    0  0.2666600E+002  0.1702616E+03  0.7546771E-02  0.1177575E+00
         21   -1    0    0  503  501  0.00000000000E+00  0.00000000000E+00  0.42908949581E+02  0.42908949581E+02  0.00000000000E+00 0.  1.
         21   -1    0    0  504  502 -0.00000000000E+00 -0.00000000000E+00 -0.22396165880E+04  0.22396165880E+04  0.00000000000E+00 0.  1.
         21    1    1    2  503  502 -0.45989245677E+02 -0.11622171958E+03 -0.16874807790E+03  0.20999622048E+03  0.00000000000E+00 0.  1.
         21    1    1    2  504  505  0.24241590727E+02  0.32887631319E+02 -0.63711493062E+03  0.63842359436E+03  0.00000000000E+00 0.  1.
         21    1    1    2  505  506  0.13381009896E+03  0.30917740566E+02 -0.11922141525E+04  0.12000981771E+04  0.00000000000E+00 0.  1.
         21    1    1    2  506  501 -0.11206244401E+03  0.52416347699E+02 -0.19863047740E+03  0.23400754564E+03  0.00000000000E+00 0.  1.
<scales pt_clust_3="155.95850" pt_clust_4="37.25709" pt_clust_5="37.25709" pt_clust_6="123.71526"></scales>
<clustering>
<clus scale="   37.257">  4  5 -1 -1</clus>
<clus scale="  123.715">  1  6  2 -1</clus>
<clus scale="  155.959">  1  3  2 -1</clus>
<clus scale="  123.715">  1  3  2 -1</clus>
</clustering>
</event>
<event>
 6    0  0.2666600E+002  0.1002699E+03  0.7546771E-02  0.1279729E+00
         21   -1    0    0  503  501  0.00000000000E+00  0.00000000000E+00  0.15185869607E+03  0.15185869607E+03  0.00000000000E+00 0. -1.
         21   -1    0    0  506  502 -0.00000000000E+00 -0.00000000000E+00 -0.18620576966E+03  0.18620576966E+03  0.00000000000E+00 0. -1.
         21    1    1    2  503  504  0.39747652603E+02 -0.64279936543E+02  0.93741914397E+01  0.76155509285E+02  0.00000000000E+00 0. -1.
         21    1    1    2  504  505  0.27822278618E+02  0.16801207096E+02 -0.24439547355E+02  0.40665110627E+02  0.00000000000E+00 0. -1.
         21    1    1    2  505  502  0.86551911249E+01  0.73256560513E+02 -0.88423409808E+02  0.11515266125E+03  0.00000000000E+00 0. -1.
         21    1    1    2  506  501 -0.76225122346E+02 -0.25777831066E+02  0.69141692134E+02  0.10609118456E+03  0.00000000000E+00 0. -1.
<scales pt_clust_3="75.57636" pt_clust_4="30.41915" pt_clust_5="30.41915" pt_clust_6="89.18483"></scales>
<clustering>
<clus scale="   30.419">  4  5 -1 -1</clus>
<clus scale="   75.576">  1  3  2 -1</clus>
<clus scale="   89.185">  1  6  2 -1</clus>
<clus scale="   75.576">  1  3  2 -1</clus>
</clustering>
</event>
<event>
 6    0  0.2666600E+002  0.9833289E+02  0.7546771E-02  0.1283841E+00
         21   -1    0    0  503  501  0.00000000000E+00  0.00000000000E+00  0.34339385504E+03  0.34339385504E+03  0.00000000000E+00 0. -1.
         21   -1    0    0  506  502 -0.00000000000E+00 -0.00000000000E+00 -0.11601424384E+03  0.11601424384E+03  0.00000000000E+00 0. -1.
         21    1    1    2  503  505 -0.53890700459E+01 -0.65463973764E+02  0.21241142082E+03  0.22233574978E+03  0.00000000000E+00 0. -1.
         21    1    1    2  504  502  0.15531053295E+02  0.30236676081E+02 -0.14660713446E+02  0.37019004790E+02  0.00000000000E+00 0. -1.
         21    1    1    2  505  504 -0.57072212077E+02  0.73666337581E+02 -0.45325694337E+02  0.10362618034E+03  0.00000000000E+00 0. -1.
         21    1    1    2  506  501  0.46930228828E+02 -0.38439039898E+02  0.74954598170E+02  0.96427163979E+02  0.00000000000E+00 0. -1.
<scales pt_clust_3="98.33289" pt_clust_4="33.99221" pt_clust_5="14000.00000" pt_clust_6="59.94318"></scales>
<clustering>
<clus scale="   33.992">  2  4  1 -1</clus>
<clus scale="   59.943">  1  6  2 -1</clus>
<clus scale="   98.333">  1  3  2 -1</clus>
<clus scale="   59.943">  1  3  2 -1</clus>
</clustering>
</event>
<event>
 6    0  0.2666600E+002  0.1564866E+03  0.7546771E-02  0.1192721E+00
         21   -1    0    0  503  501  0.00000000000E+00  0.00000000000E+00  0.18584512488E+04  0.18584512488E+04  0.00000000000E+00 0. -1.
         21   -1    0    0  504  502 -0.00000000000E+00 -0.00000000000E+00 -0.27516459527E+02  0.27516459527E+02  0.00000000000E+00 0. -1.
         21    1    1    2  503  506  0.34257652291E+02  0.17423836307E+02  0.10570919487E+03  0.11247937897E+03  0.00000000000E+00 0. -1.
         21    1    1    2  504  505 -0.29251162620E+02  0.11887059442E+02  0.11108137363E+03  0.11548161873E+03  0.00000000000E+00 0. -1.
         21    1    1    2  505  501 -0.14107965952E+03  0.21670280454E+01  0.13659142797E+04  0.13731824299E+04  0.00000000000E+00 0. -1.
         21    1    1    2  506  502  0.13607316985E+03 -0.31477923794E+02  0.24822994104E+03  0.28482428068E+03  0.00000000000E+00 0. -1.
<scales pt_clust_3="30.44002" pt_clust_4="31.57424" pt_clust_5="145.33019" pt_clust_6="30.44002"></scales>
<clustering>
<clus scale="   30.440">  3  6 -1 -1</clus>
<clus scale="   31.574">  2  4  1 -1</clus>
<clus scale="  145.330">  1  5  2 -1</clus>
<clus scale="  145.330">  1  3  2 -1</clus>
</clustering>
</event>
<event>
 6    0  0.2666600E+002  0.6013106E+02  0.7546771E-02  0.1397283E+00
         21   -1    0    0  503  501  0.00000000000E+00  0.00000000000E+00  0.87927059457E+02  0.87927059457E+02  0.00000000000E+00 0.  1.
         21   -1    0    0  504  502 -0.00000000000E+00 -0.00000000000E+00 -0.27823061641E+03  0.27823061641E+03  0.00000000000E+00 0.  1.
         21    1    1    2  503  502 -0.84567410451E+02  0.57113092347E+01 -0.97095824249E+02  0.12888702437E+03  0.00000000000E+00 0.  1.
         21    1    1    2  504  505  0.30248803998E+02 -0.40507041996E+02 -0.52169283469E+02  0.72646023513E+02  0.00000000000E+00 0. -1.
         21    1    1    2  505  506  0.49759662545E+01  0.64582475654E+02 -0.73907215413E+02  0.98274782584E+02  0.00000000000E+00 0.  1.
         21    1    1    2  506  501  0.49342640199E+02 -0.29786742893E+02  0.32868766182E+02  0.66349845398E+02  0.00000000000E+00 0.  1.
<scales pt_clust_3="60.13106" pt_clust_4="50.55503" pt_clust_5="51.33568" pt_clust_6="14000.00000"></scales>
<clustering>
<clus scale="   50.555">  2  4  1 -1</clus>
<clus scale="   51.336">  2  5  1 -1</clus>
<clus scale="   60.131">  2  3  1 -1</clus>
<clus scale="   60.131">  1  3  2 -1</clus>
</clustering>
</event>
<event>
 6    0  0.2666600E+002  0.1364246E+03  0.7546771E-02  0.1218223E+00
         21   -1    0    0  505  501  0.00000000000E+00  0.00000000000E+00  0.40143894964E+03  0.40143894964E+03  0.00000000000E+00 0. -1.
         21   -1    0    0  501  502 -0.00000000000E+00 -0.00000000000E+00 -0.43227835631E+03  0.43227835631E+03  0.00000000000E+00 0. -1.
         21    1    1    2  503  504  0.11864806616E+03  0.66646640032E+02 -0.30660005869E+03  0.33544408508E+03  0.00000000000E+00 0. -1.
         21    1    1    2  504  502  0.47782830544E+01 -0.63159952525E+02 -0.88753695028E+02  0.10903774563E+03  0.00000000000E+00 0. -1.
         21    1    1    2  505  506 -0.49952322111E+02  0.27198304770E+02  0.15047049288E+03  0.16086128028E+03  0.00000000000E+00 0. -1.
         21    1    1    2  506  503 -0.73474027105E+02 -0.30684992277E+02  0.21404385417E+03  0.22837419495E+03  0.00000000000E+00 0. -1.
<scales pt_clust_3="123.38692" pt_clust_4="63.34044" pt_clust_5="49.18969" pt_clust_6="49.18969"></scales>
<clustering>
<clus scale="   49.190">  5  6 -1 -1</clus>
<clus scale="   63.340">  2  4  1 -1</clus>
<clus scale="  123.387">  2  3  1 -1</clus>
<clus scale="  136.425">  1  3  2 -1</clus>
</clustering>
</event>
<event>
 6    0  0.2666600E+002  0.3278324E+03  0.7546771E-02  0.1072100E+00
         21   -1    0    0  506  501  0.00000000000E+00  0.00000000000E+00  0.56449036901E+03  0.56449036901E+03  0.00000000000E+00 0.  1.
         21   -1    0    0  504  502 -0.00000000000E+00 -0.00000000000E+00 -0.29405270738E+03  0.29405270738E+03  0.00000000000E+00 0.  1.
         21    1    1    2  503  501  0.21744161885E+02  0.57334981523E+02  0.60100436960E+02  0.85861348726E+02  0.00000000000E+00 0. -1.
         21    1    1    2  504  505 -0.21974750247E+03  0.39546238025E+02 -0.33058734479E+02  0.22571165169E+03  0.00000000000E+00 0.  1.
         21    1    1    2  505  503 -0.96270778819E+02  0.37442204804E+02 -0.45865535364E+02  0.11302047995E+03  0.00000000000E+00 0.  1.
         21    1    1    2  506  502  0.29427411941E+03 -0.13432342435E+03  0.28926149451E+03  0.43394959602E+03  0.00000000000E+00 0.  1.
<scales pt_clust_3="61.31973" pt_clust_4="35.44497" pt_clust_5="35.44497" pt_clust_6="323.66411"></scales>
<clustering>
<clus scale="   35.445">  4  5 -1 -1</clus>
<clus scale="   61.320">  1  3  2 -1</clus>
<clus scale="  323.664">  1  6  2 -1</clus>
<clus scale="   61.320">  1  3  2 -1</clus>
</clustering>
</event>
<event>
 6    0  0.2666600E+002  0.1036796E+03  0.7546771E-02  0.1272743E+00
         21   -1    0    0  506  501  0.00000000000E+00  0.00000000000E+00  0.11380716316E+03  0.11380716316E+03  0.00000000000E+00 0.  1.
         21   -1    0    0  503  502 -0.00000000000E+00 -0.00000000000E+00 -0.34744357302E+03  0.34744357302E+03  0.00000000000E+00 0.  1.
         21    1    1    2  503  505 -0.45648684628E+02 -0.11422924840E+03 -0.74307005997E+02  0.14371379453E+03  0.00000000000E+00 0.  1.
         21    1    1    2  504  502  0.29843870444E+02  0.90742855633E+02 -0.13983128652E+03  0.16934494720E+03  0.00000000000E+00 0.  1.
         21    1    1    2  505  501  0.55401342364E+02 -0.27548020679E+02  0.28100498737E+02  0.67954692320E+02  0.00000000000E+00 0.  1.
         21    1    1    2  506  504 -0.39596528179E+02  0.51034413450E+02 -0.47598616079E+02  0.80237302127E+02  0.00000000000E+00 0.  1.
<scales pt_clust_3="103.67956" pt_clust_4="14000.00000" pt_clust_5="61.87247" pt_clust_6="51.20509"></scales>
<clustering>
<clus scale="   61.872">  1  5  2 -1</clus>
<clus scale="   51.205">  1  6  2 -1</clus>
<clus scale="  103.680">  1  3  2 -1</clus>
<clus scale="   61.872">  1  3  2 -1</clus>
</clustering>
</event>
<event>
 6    0  0.2666600E+002  0.1448660E+03  0.7546771E-02  0.1206927E+00
         21   -1    0    0  506  501  0.00000000000E+00  0.00000000000E+00  0.17323927894E+04  0.17323927894E+04  0.00000000000E+00 0.  1.
         21   -1    0    0  503  502 -0.00000000000E+00 -0.00000000000E+00 -0.47306286757E+02  0.47306286757E+02  0.00000000000E+00 0.  1.
         21    1    1    2  503  501 -0.98350390981E+02  0.17985597570E+02  0.12262036638E+04  0.12302730210E+04  0.00000000000E+00 0.  1.
         21    1    1    2  504  502 -0.12082001172E+02 -0.43222930555E+02  0.18525502573E+02  0.48552968227E+02  0.00000000000E+00 0.  1.
         21    1    1    2  505  504  0.16408728481E+03  0.28259979628E+02  0.23115565210E+03  0.28487927089E+03  0.00000000000E+00 0.  1.
         21    1    1    2  506  505 -0.53654892659E+02 -0.30226466430E+01  0.20920168414E+03  0.21599381599E+03  0.00000000000E+00 0.  1.
<scales pt_clust_3="14000.00000" pt_clust_4="44.87980" pt_clust_5="144.86601" pt_clust_6="55.44447"></scales>
<clustering>
<clus scale="   44.880">  2  4  1 -1</clus>
<clus scale="   55.444">  1  6  2 -1</clus>
<clus scale="  144.866">  2  5  1 -1</clus>
<clus scale="   55.444">  1  3  2 -1</clus>
</clustering>
</event>
<event>
 6    0  0.2666600E+002  0.1183731E+03  0.7546771E-02  0.1245805E+00
         21   -1    0    0  506  501  0.00000000000E+00  0.00000000000E+00  0.42084949421E+02  0.42084949421E+02  0.00000000000E+00 0. -1.
         21   -1    0    0  504  502 -0.00000000000E+00 -0.00000000000E+00 -0.13158974096E+04  0.13158974096E+04  0.00000000000E+00 0. -1.
         21    1    1    2  503  501  0.53562100396E+02  0.11331335179E+03 -0.93069437250E+02  0.15611128865E+03  0.00000000000E+00 0. -1.
         21    1    1    2  504  503  0.29908575465E+02 -0.36901235311E+01 -0.16618283367E+03  0.16889308483E+03  0.00000000000E+00 0.  1.
         21    1    1    2  505  502 -0.42586367338E+02 -0.16776188790E+02 -0.71968626021E+03  0.72114031390E+03  0.00000000000E+00 0. -1.
         21    1    1    2  506  505 -0.40884308523E+02 -0.92847039473E+02 -0.29487392906E+03  0.31183767165E+03  0.00000000000E+00 0. -1.
<scales pt_clust_3="14000.00000" pt_clust_4="30.13536" pt_clust_5="30.52918" pt_clust_6="118.37314"></scales>
<clustering>
<clus scale="   30.135">  2  4  1 -1</clus>
<clus scale="   30.529">  2  5  1 -1</clus>
<clus scale="  118.373">  2  6  1 -1</clus>
<clus scale="  118.373">  1  3  2 -1</clus>
</clustering>
</event>
<event>
 6    0  0.2666600E+002  0.2560538E+03  0.7546771E-02  0.1109538E+00
         21   -1    0    0  505  501  0.00000000000E+00  0.00000000000E+00  0.19207095182E+03  0.19207095182E+03  0.00000000000E+00 0.  1.
         21   -1    0    0  503  502 -0.00000000000E+00 -0.00000000000E+00 -0.33921992902E+03  0.33921992902E+03  0.00000000000E+00 0.  1.
         21    1    1    2  503  506 -0.16920719993E+02  0.17308526809E+03 -0.28285395241E+02  0.17619558559E+03  0.00000000000E+00 0.  1.
         21    1    1    2  504  502 -0.12842997397E+02 -0.87184870667E+02 -0.50030400392E+02  0.10133698840E+03  0.00000000000E+00 0.  1.
         21    1    1    2  505  504  0.60520468605E+02 -0.14949814932E+03 -0.96035092059E+01  0.16156933855E+03  0.00000000000E+00 0.  1.
         21    1    1    2  506  501 -0.30756751214E+02  0.63597751889E+02 -0.59229672360E+02  0.92188968312E+02  0.00000000000E+00 0. -1.
<scales pt_clust_3="253.71516" pt_clust_4="63.03320" pt_clust_5="63.03320" pt_clust_6="49.69429"></scales>
<clustering>
<clus scale="   49.694">  3  6 -1 -1</clus>
<clus scale="   63.033">  4  5 -1 -1</clus>
<clus scale="  253.715">  2  3  1 -1</clus>
<clus scale="  256.054">  1  3  2 -1</clus>
</clustering>
</event>
<event>
 6    0  0.2666600E+002  0.1154705E+03  0.7546771E-02  0.1250762E+00
         21   -1    0    0  502  501  0.00000000000E+00  0.00000000000E+00  0.91748420958E+03  0.91748420958E+03  0.00000000000E+00 0. -1.
         21   -1    0    0  503  502 -0.00000000000E+00 -0.00000000000E+00 -0.50420908451E+02  0.50420908451E+02  0.00000000000E+00 0. -1.
         21    1    1    2  503  506  0.11303457206E+02  0.48656975856E+02  0.53041211576E+02  0.72860411539E+02  0.00000000000E+00 0. -1.
         21    1    1    2  504  501  0.47113277923E+02 -0.61801445087E+01  0.46273467332E+03  0.46516796218E+03  0.00000000000E+00 0.  1.
         21    1    1    2  505  504  0.22141283084E+02 -0.11495543320E+03  0.27039533840E+03  0.29465000775E+03  0.00000000000E+00 0. -1.
         21    1    1    2  506  505 -0.80558018213E+02  0.72478601856E+02  0.80892077833E+02  0.13522673656E+03  0.00000000000E+00 0. -1.
<scales pt_clust_3="51.02085" pt_clust_4="47.51689" pt_clust_5="115.47049" pt_clust_6="14000.00000"></scales>
<clustering>
<clus scale="   47.517">  1  4  2 -1</clus>
<clus scale="   51.021">  2  3  1 -1</clus>
<clus scale="  115.470">  1  5  2 -1</clus>
<clus scale="   47.517">  1  3  2 -1</clus>
</clustering>
</event>
<event>
 6    0  0.2666600E+002  0.1746727E+03  0.7546771E-02  0.1173061E+00
         21   -1    0    0  506  501  0.00000000000E+00  0.00000000000E+00  0.45819899481E+03  0.45819899481E+03  0.00000000000E+00 0. -1.
         21   -1    0    0  501  502 -0.00000000000E+00 -0.00000000000E+00 -0.17546960959E+03  0.17546960959E+03  0.00000000000E+00 0. -1.
         21    1    1    2  503  504 -0.12777206007E+03 -0.52029598480E+02  0.17572735891E+03  0.22341191356E+03  0.00000000000E+00 0. -1.
         21    1    1    2  504  505  0.67655952002E+02  0.20100201313E+02 -0.14495444782E+02  0.72051813673E+02  0.00000000000E+00 0. -1.
         21    1    1    2  505  502  0.10721627542E+03  0.18624324762E+02 -0.77292923425E+02  0.13347805512E+03  0.00000000000E+00 0. -1.
         21    1    1    2  506  503 -0.47100167353E+02  0.13305072405E+02  0.19879039451E+03  0.20472682205E+03  0.00000000000E+00 0. -1.
<scales pt_clust_3="169.62607" pt_clust_4="33.56957" pt_clust_5="33.56957" pt_clust_6="48.94334"></scales>
<clustering>
<clus scale="   33.570">  4  5 -1 -1</clus>
<clus scale="   48.943">  1  6  2 -1</clus>
<clus scale="  169.626">  1  3  2 -1</clus>
<clus scale="   48.943">  1  3  2 -1</clus>
</clustering>
</event>
<event>
 6    0  0.2666600E+002  0.5181535E+03  0.7546771E-02  0.1009146E+00
         21   -1    0    0  504  501  0.00000000000E+00  0.00000000000E+00  0.23022656101E+04  0.23022656101E+04  0.00000000000E+00 0. -1.
         21   -1    0    0  503  502 -0.00000000000E+00 -0.00000000000E+00 -0.31052913501E+03  0.31052913501E+03  0.00000000000E+00 0. -1.
         21    1    1    2  503  505 -0.47191175333E+02 -0.36847363156E+02  0.31190142820E+01  0.59953844338E+02  0.00000000000E+00 0. -1.
         21    1    1    2  504  506  0.76914560175E+01  0.31005906590E+02  0.78111100325E+02  0.84391165018E+02  0.00000000000E+00 0.  1.
         21    1    1    2  505  501 -0.36292301163E+03  0.34838454038E+03  0.18721793903E+04  0.19385924197E+04  0.00000000000E+00 0. -1.
         21    1    1    2  506  502  0.40242273094E+03 -0.34254308382E+03  0.38326970122E+02  0.52985731597E+03  0.00000000000E+00 0. -1.
<scales pt_clust_3="59.51629" pt_clust_4="31.94565" pt_clust_5="518.15348" pt_clust_6="14000.00000"></scales>
<clustering>
<clus scale="   31.946">  1  4  2 -1</clus>
<clus scale="   59.516">  2  3  1 -1</clus>
<clus scale="  518.153">  1  5  2 -1</clus>
<clus scale="   31.946">  1  3  2 -1</clus>
</clustering>
</event>
<event>
 6    0  0.2666600E+002  0.1617189E+03  0.7546771E-02  0.1186770E+00
         21   -1    0    0  505  501  0.00000000000E+00  0.00000000000E+00  0.11217818226E+04  0.11217818226E+04  0.00000000000E+00 0.  1.
         21   -1    0    0  503  502 -0.00000000000E+00 -0.00000000000E+00 -0.58048981442E+02  0.58048981442E+02  0.00000000000E+00 0.  1.
         21    1    1    2  503  506  0.14957416022E+02  0.35389021801E+02  0.19148150042E+02  0.42927366657E+02  0.00000000000E+00 0.  1.
         21    1    1    2  504  501 -0.11295872946E+02 -0.28593346515E+02  0.11504697602E+03  0.11908393218E+03  0.00000000000E+00 0. -1.
         21    1    1    2  505  502 -0.12662226389E+03 -0.34077115721E+02  0.86761814477E+03  0.87747119193E+03  0.00000000000E+00 0.  1.
         21    1    1    2  506  504  0.12296072081E+03  0.27281440436E+02  0.61919570342E+02  0.14034831330E+03  0.00000000000E+00 0.  1.
<scales pt_clust_3="35.03097" pt_clust_4="30.74372" pt_clust_5="148.60686" pt_clust_6="35.03097"></scales>
<clustering>
<clus scale="   30.744">  1  4  2 -1</clus>
<clus scale="   35.031">  3  6 -1 -1</clus>
<clus scale="  148.607">  1  5  2 -1</clus>
<clus scale="   30.744">  1  3  2 -1</clus>
</clustering>
</event>
<event>
 6    0  0.2666600E+002  0.1629204E+03  0.7546771E-02  0.1185438E+00
         21   -1    0    0  502  501  0.00000000000E+00  0.00000000000E+00  0.14927240354E+03  0.14927240354E+03  0.00000000000E+00 0. -1.
         21   -1    0    0  505  502 -0.00000000000E+00 -0.00000000000E+00 -0.56456623203E+03  0.56456623203E+03  0.00000000000E+00 0.  1.
         21    1    1    2  503  506 -0.10719713256E+01  0.69648580799E+02  0.54156060955E+02  0.88232379929E+02  0.00000000000E+00 0. -1.
         21    1    1    2  504  503  0.43130175255E+02 -0.12057513909E+03 -0.28517662718E+03  0.31260883685E+03  0.00000000000E+00 0.  1.
         21    1    1    2  505  504  0.55278068691E+01 -0.30153270239E+02 -0.21260873252E+03  0.21480747077E+03  0.00000000000E+00 0.  1.
         21    1    1    2  506  501 -0.47586010798E+02  0.81079828533E+02  0.28335470256E+02  0.98189948025E+02  0.00000000000E+00 0. -1.
<scales pt_clust_3="46.26941" pt_clust_4="153.88727" pt_clust_5="30.65577" pt_clust_6="46.26941"></scales>
<clustering>
<clus scale="   30.656">  2  5  1 -1</clus>
<clus scale="   46.269">  3  6 -1 -1</clus>
<clus scale="  153.887">  2  4  1 -1</clus>
<clus scale="  162.920">  1  3  2 -1</clus>
</clustering>
</event>
<event>
 6    0  0.2666600E+002  0.1286949E+03  0.7546771E-02  0.1229405E+00
         21   -1    0    0  504  501  0.00000000000E+00  0.00000000000E+00  0.17229143441E+04  0.17229143441E+04  0.00000000000E+00 0.  1.
         21   -1    0    0  501  502 -0.00000000000E+00 -0.00000000000E+00 -0.70426674699E+02  0.70426674699E+02  0.00000000000E+00 0.  1.
         21    1    1    2  503  505  0.59068907757E+02 -0.18070764604E+02  0.10215271792E+02  0.62610224203E+02  0.00000000000E+00 0.  1.
         21    1    1    2  504  506 -0.34362362500E+02 -0.32750328670E+01  0.65553387903E+03  0.65644204951E+03  0.00000000000E+00 0.  1.
         21    1    1    2  505  502  0.39039637175E+02 -0.53040695316E+02 -0.15185360349E+02  0.67587009102E+02  0.00000000000E+00 0.  1.
         21    1    1    2  506  503 -0.63746182433E+02  0.74386492787E+02  0.10019238790E+04  0.10067017360E+04  0.00000000000E+00 0.  1.
<scales pt_clust_3="45.62640" pt_clust_4="34.51808" pt_clust_5="45.62640" pt_clust_6="119.65733"></scales>
<clustering>
<clus scale="   34.518">  1  4  2 -1</clus>
<clus scale="   45.626">  3  5 -1 -1</clus>
<clus scale="  119.657">  1  6  2 -1</clus>
<clus scale="   34.518">  1  3  2 -1</clus>
</clustering>
</event>
<event>
 6    0  0.2666600E+002  0.7582705E+02  0.7546771E-02  0.1341329E+00
         21   -1    0    0  503  501  0.00000000000E+00  0.00000000000E+00  0.51603115295E+03  0.51603115295E+03  0.00000000000E+00 0.  1.
         21   -1    0    0  505  502 -0.00000000000E+00 -0.00000000000E+00 -0.10630726384E+03  0.10630726384E+03  0.00000000000E+00 0.  1.
         21    1    1    2  503  504 -0.44047443510E+02 -0.25406386878E+02  0.20246615921E+03  0.20875393984E+03  0.00000000000E+00 0.  1.
         21    1    1    2  504  502  0.47078549265E+02 -0.56618211013E+02  0.57002306387E+02  0.93119678654E+02  0.00000000000E+00 0. -1.
         21    1    1    2  505  506  0.71535320624E+02  0.31426039052E+02 -0.55501502098E+02  0.95840047801E+02  0.00000000000E+00 0.  1.
         21    1    1    2  506  501 -0.74566426379E+02  0.50598558838E+02  0.20575692561E+03  0.22462475050E+03  0.00000000000E+00 0.  1.
<scales pt_clust_3="50.84940" pt_clust_4="72.56716" pt_clust_5="14000.00000" pt_clust_6="75.82705"></scales>
<clustering>
<clus scale="   50.849">  1  3  2 -1</clus>
<clus scale="   72.567">  1  4  2 -1</clus>
<clus scale="   75.827">  1  6  2 -1</clus>
<clus scale="   50.849">  1  3  2 -1</clus>
</clustering>
</event>
<event>
 6    0  0.2666600E+002  0.8169486E+02  0.7546771E-02  0.1324309E+00
         21   -1    0    0  504  501  0.00000000000E+00  0.00000000000E+00  0.26885497942E+03  0.26885497942E+03  0.00000000000E+00 0.  1.
         21   -1    0    0  505  502 -0.00000000000E+00 -0.00000000000E+00 -0.99588533053E+02  0.99588533053E+02  0.00000000000E+00 0.  1.
         21    1    1    2  503  502 -0.41335816382E+02 -0.74575366986E+02  0.93929954385E+02  0.12685807585E+03  0.00000000000E+00 0.  1.
         21    1    1    2  504  503 -0.63507720785E+02  0.44836958357E+02  0.61820246150E+02  0.99324348818E+02  0.00000000000E+00 0.  1.
         21    1    1    2  505  506  0.65416134106E+02  0.49886507575E+02 -0.22384237678E+02  0.85258362263E+02  0.00000000000E+00 0.  1.
         21    1    1    2  506  501  0.39427403060E+02 -0.20148098946E+02  0.35900483510E+02  0.57002725544E+02  0.00000000000E+00 0.  1.
<scales pt_clust_3="81.69486" pt_clust_4="61.90378" pt_clust_5="14000.00000" pt_clust_6="44.27715"></scales>
<clustering>
<clus scale="   44.277">  1  6  2 -1</clus>
<clus scale="   61.904">  1  4  2 -1</clus>
<clus scale="   81.695">  1  3  2 -1</clus>
<clus scale="   44.277">  1  3  2 -1</clus>
</clustering>
</event>
<event>
 6    0  0.2666600E+002  0.7916768E+02  0.7546771E-02  0.1331430E+00
         21   -1    0    0  503  501  0.00000000000E+00  0.00000000000E+00  0.26461336564E+03  0.26461336564E+03  0.00000000000E+00 0.  1.
         21   -1    0    0  506  502 -0.00000000000E+00 -0.00000000000E+00 -0.13721556284E+03  0.13721556284E+03  0.00000000000E+00 0.  1.
         21    1    1    2  503  504  0.18047349995E+02 -0.25770149289E+02  0.43225373563E+02  0.53462513557E+02  0.00000000000E+00 0.  1.
         21    1    1    2  504  502  0.34916195535E+02 -0.44650399408E+02 -0.78477415821E+02  0.96806527010E+02  0.00000000000E+00 0.  1.
         21    1    1    2  505  501 -0.20365897107E+02  0.11706675508E+03  0.15318810969E+03  0.19387107020E+03  0.00000000000E+00 0.  1.
         21    1    1    2  506  505 -0.32597648423E+02 -0.46646206385E+02  0.94617353746E+01  0.57688817713E+02  0.00000000000E+00 0.  1.
<scales pt_clust_3="31.46121" pt_clust_4="58.01294" pt_clust_5="14000.00000" pt_clust_6="79.16768"></scales>
<clustering>
<clus scale="   31.461">  1  3  2 -1</clus>
<clus scale="   58.013">  2  4  1 -1</clus>
<clus scale="   79.168">  2  6  1 -1</clus>
<clus scale="   31.461">  1  3  2 -1</clus>
</clustering>
</event>
<event>
 6    0  0.2666600E+002  0.2113251E+03  0.7546771E-02  0.1140521E+00
         21   -1    0    0  506  501  0.00000000000E+00  0.00000000000E+00  0.17135900211E+03  0.17135900211E+03  0.00000000000E+00 0. -1.
         21   -1    0    0  503  502 -0.00000000000E+00 -0.00000000000E+00 -0.11627651869E+04  0.11627651869E+04  0.00000000000E+00 0. -1.
         21    1    1    2  503  501 -0.69382075443E+02  0.99040909466E+02 -0.83644175077E+03  0.84513772639E+03  0.00000000000E+00 0. -1.
         21    1    1    2  504  502 -0.10602953355E+03  0.88365476637E+01 -0.23346310457E+03  0.25656454891E+03  0.00000000000E+00 0. -1.
         21    1    1    2  505  504  0.49947592220E+02 -0.79289536462E+01 -0.63245570167E+01  0.50966952979E+02  0.00000000000E+00 0. -1.
         21    1    1    2  506  505  0.12546401678E+03 -0.99948503483E+02  0.84823227543E+02  0.18145496076E+03  0.00000000000E+00 0. -1.
<scales pt_clust_3="198.00797" pt_clust_4="106.39712" pt_clust_5="41.45613" pt_clust_6="41.45613"></scales>
<clustering>
<clus scale="   41.456">  5  6 -1 -1</clus>
<clus scale="  106.397">  2  4  1 -1</clus>
<clus scale="  198.008">  2  3  1 -1</clus>
<clus scale="  211.325">  1  3  2 -1</clus>
</clustering>
</event>
<event>
 6    0  0.2666600E+002  0.2283046E+03  0.7546771E-02  0.1127839E+00
         21   -1    0    0  503  501  0.00000000000E+00  0.00000000000E+00  0.15243261033E+04  0.15243261033E+04  0.00000000000E+00 0. -1.
         21   -1    0    0  505  502 -0.00000000000E+00 -0.00000000000E+00 -0.97123029103E+02  0.97123029103E+02  0.00000000000E+00 0.  1.
         21    1    1    2  503  502 -0.22155284368E+03 -0.84991291995E+02  0.12213377274E+04  0.12441764452E+04  0.00000000000E+00 0. -1.
         21    1    1    2  504  506  0.78788234862E+02 -0.14220634856E+02  0.42620509320E+01  0.80174668609E+02  0.00000000000E+00 0.  1.
         21    1    1    2  505  504  0.55261894647E+02  0.87349605371E+02  0.17776915667E+03  0.20563487939E+03  0.00000000000E+00 0.  1.
         21    1    1    2  506  501  0.87502714172E+02  0.11862321480E+02  0.23834139227E+02  0.91463139302E+02  0.00000000000E+00 0.  1.
<scales pt_clust_3="226.07760" pt_clust_4="30.28950" pt_clust_5="103.36262" pt_clust_6="30.28950"></scales>
<clustering>
<clus scale="   30.289">  4  6 -1 -1</clus>
<clus scale="  103.363">  2  5  1 -1</clus>
<clus scale="  226.078">  1  3  2 -1</clus>
<clus scale="  226.078">  1  3  2 -1</clus>
</clustering>
</event>
<event>
 6    0  0.2666600E+002  0.1198646E+03  0.7546771E-02  0.1243321E+00
         21   -1    0    0  504  501  0.00000000000E+00  0.00000000000E+00  0.86494732998E+03  0.86494732998E+03  0.00000000000E+00 0. -1.
         21   -1    0    0  503  502 -0.00000000000E+00 -0.00000000000E+00 -0.59299351012E+03  0.59299351012E+03  0.00000000000E+00 0.  1.
         21    1    1    2  503  506 -0.32487466807E+02 -0.11834558445E+03 -0.43339406813E+03  0.45043482453E+03  0.00000000000E+00 0.  1.
         21    1    1    2  504  505  0.82587507065E+02  0.36407819111E+02  0.53294264485E+03  0.54053130188E+03  0.00000000000E+00 0. -1.
         21    1    1    2  505  502 -0.45556510799E+02  0.12107724951E+03 -0.11728544959E+03  0.17461664500E+03  0.00000000000E+00 0.  1.
         21    1    1    2  506  501 -0.45435294590E+01 -0.39139484170E+02  0.28969069272E+03  0.29235806870E+03  0.00000000000E+00 0.  1.
<scales pt_clust_3="119.86464" pt_clust_4="78.33861" pt_clust_5="14000.00000" pt_clust_6="39.40232"></scales>
<clustering>
<clus scale="   39.402">  1  6  2 -1</clus>
<clus scale="   78.339">  1  4  2 -1</clus>
<clus scale="  119.865">  2  3  1 -1</clus>
<clus scale="   39.402">  1  3  2 -1</clus>
</clustering>
</event>
<event>
 6    0  0.2666600E+002  0.1360429E+03  0.7546771E-02  0.1218755E+00
         21   -1    0    0  503  501  0.00000000000E+00  0.00000000000E+00  0.86403123459E+03  0.86403123459E+03  0.00000000000E+00 0. -1.
         21   -1    0    0  505  502 -0.00000000000E+00 -0.00000000000E+00 -0.55829227709E+02  0.55829227709E+02  0.00000000000E+00 0. -1.
         21    1    1    2  503  504  0.22296269109E+02  0.62498299091E+02  0.48124179867E+03  0.48579504916E+03  0.00000000000E+00 0. -1.
         21    1    1    2  504  506  0.34855006464E+02  0.51256649138E+02  0.22724580265E+03  0.23554780912E+03  0.00000000000E+00 0. -1.
         21    1    1    2  505  501 -0.31320989144E+02  0.18849149574E+02  0.21895197208E+02  0.42610966445E+02  0.00000000000E+00 0. -1.
         21    1    1    2  506  502 -0.25830286429E+02 -0.13260409780E+03  0.77819208351E+02  0.15590663757E+03  0.00000000000E+00 0. -1.
<scales pt_clust_3="44.90307" pt_clust_4="44.90307" pt_clust_5="36.55537" pt_clust_6="127.80172"></scales>
<clustering>
<clus scale="   36.555">  2  5  1 -1</clus>
<clus scale="   44.903">  3  4 -1 -1</clus>
<clus scale="  127.802">  2  6  1 -1</clus>
<clus scale="  136.043">  1  3  2 -1</clus>
</clustering>
</event>
<event>
 6    0  0.2666600E+002  0.1832745E+03  0.7546771E-02  0.1164671E+00
         21   -1    0    0  502  501  0.00000000000E+00  0.00000000000E+00  0.11030144955E+03  0.11030144955E+03  0.00000000000E+00 0.  1.
         21   -1    0    0  505  502 -0.00000000000E+00 -0.00000000000E+00 -0.49287999436E+03  0.49287999436E+03  0.00000000000E+00 0.  1.
         21    1    1    2  503  501 -0.14709962123E+02 -0.32170570092E+02  0.17448260245E+02  0.39443254826E+02  0.00000000000E+00 0.  1.
         21    1    1    2  504  503  0.11401010750E+03 -0.11623449266E+03 -0.57089297990E+02  0.17253390925E+03  0.00000000000E+00 0.  1.
         21    1    1    2  505  506 -0.15203383476E+02  0.48696111497E+02 -0.14892531333E+03  0.15742046593E+03  0.00000000000E+00 0.  1.
         21    1    1    2  506  504 -0.84096761904E+02  0.99708951257E+02 -0.19401219373E+03  0.23378381390E+03  0.00000000000E+00 0.  1.
<scales pt_clust_3="35.37412" pt_clust_4="173.31901" pt_clust_5="37.25845" pt_clust_6="37.25845"></scales>
<clustering>
<clus scale="   35.374">  1  3  2 -1</clus>
<clus scale="   37.258">  5  6 -1 -1</clus>
<clus scale="  173.319">  1  4  2 -1</clus>
<clus scale="   35.374">  1  3  2 -1</clus>
</clustering>
</event>
<event>
 6    0  0.2666600E+002  0.1242498E+03  0.7546771E-02  0.1236246E+00
         21   -1    0    0  504  501  0.00000000000E+00  0.00000000000E+00  0.75321646285E+03  0.75321646285E+03  0.00000000000E+00 0.  1.
         21   -1    0    0  506  502 -0.00000000000E+00 -0.00000000000E+00 -0.90264145764E+02  0.90264145764E+02  0.00000000000E+00 0.  1.
         21    1    1    2  503  505 -0.10191693809E+03 -0.45041515032E+02  0.50869447229E+03  0.52075509261E+03  0.00000000000E+00 0.  1.
         21    1    1    2  504  503 -0.44727429709E+02  0.42573597608E+02  0.10847956639E+03  0.12482335721E+03  0.00000000000E+00 0.  1.
         21    1    1    2  505  502  0.71699731690E+02  0.21515229289E+02  0.83264700178E+02  0.11196770477E+03  0.00000000000E+00 0.  1.
         21    1    1    2  506  501  0.74944636110E+02 -0.19047311865E+02 -0.37486421767E+02  0.85934454021E+02  0.00000000000E+00 0.  1.
<scales pt_clust_3="124.24979" pt_clust_4="61.74993" pt_clust_5="70.64554" pt_clust_6="14000.00000"></scales>
<clustering>
<clus scale="   61.750">  1  4  2 -1</clus>
<clus scale="   70.646">  2  5  1 -1</clus>
<clus scale="  124.250">  1  3  2 -1</clus>
<clus scale="   61.750">  1  3  2 -1</clus>
</clustering>
</event>
<event>
 6    0  0.2666600E+002  0.8283349E+02  0.7546771E-02  0.1321197E+00
         21   -1    0    0  503  501  0.00000000000E+00  0.00000000000E+00  0.39131649641E+02  0.39131649641E+02  0.00000000000E+00 0.  1.
         21   -1    0    0  506  502 -0.00000000000E+00 -0.00000000000E+00 -0.62483237562E+03  0.62483237562E+03  0.00000000000E+00 0.  1.
         21    1    1    2  503  505 -0.27880908302E+02  0.27782892124E+02 -0.70547795300E+02  0.80785057802E+02  0.00000000000E+00 0.  1.
         21    1    1    2  504  501  0.41004151367E+02 -0.28199328389E+02 -0.31293175341E+02  0.58786098474E+02  0.00000000000E+00 0. -1.
         21    1    1    2  505  502  0.10134102282E+02  0.81904081146E+02 -0.38697272163E+03  0.39567520243E+03  0.00000000000E+00 0.  1.
         21    1    1    2  506  504 -0.23257345347E+02 -0.81487644881E+02 -0.96887033713E+02  0.12871766655E+03  0.00000000000E+00 0.  1.
<scales pt_clust_3="39.36031" pt_clust_4="34.23795" pt_clust_5="82.83349" pt_clust_6="14000.00000"></scales>
<clustering>
<clus scale="   39.360">  1  3  2 -1</clus>
<clus scale="   34.238">  1  4  2 -1</clus>
<clus scale="   82.833">  2  5  1 -1</clus>
<clus scale="   39.360">  1  3  2 -1</clus>
</clustering>
</event>
<event>
 6    0  0.2666600E+002  0.7873095E+02  0.7546771E-02  0.1332692E+00
         21   -1    0    0  506  501  0.00000000000E+00  0.00000000000E+00  0.44047538148E+03  0.44047538148E+03  0.00000000000E+00 0. -1.
         21   -1    0    0  504  502 -0.00000000000E+00 -0.00000000000E+00 -0.34545203343E+03  0.34545203343E+03  0.00000000000E+00 0. -1.
         21    1    1    2  503  502 -0.35540476060E+02 -0.21612098444E+02 -0.13167393502E+02  0.43630132814E+02  0.00000000000E+00 0. -1.
         21    1    1    2  504  505 -0.32653071238E+02  0.53598996849E+02 -0.28568318000E+03  0.29249607666E+03  0.00000000000E+00 0. -1.
         21    1    1    2  505  501  0.12090077022E+03 -0.77008725649E+02  0.21955395312E+03  0.26220464984E+03  0.00000000000E+00 0. -1.
         21    1    1    2  506  503 -0.52707222926E+02  0.45021827244E+02  0.17431996844E+03  0.18759655560E+03  0.00000000000E+00 0. -1.
<scales pt_clust_3="41.59577" pt_clust_4="78.73095" pt_clust_5="14000.00000" pt_clust_6="69.59505"></scales>
<clustering>
<clus scale="   41.596">  2  3  1 -1</clus>
<clus scale="   69.595">  1  6  2 -1</clus>
<clus scale="   78.731">  2  4  1 -1</clus>
<clus scale="   69.595">  1  3  2 -1</clus>
</clustering>
</event>
<event>
 6    0  0.2666600E+002  0.1537603E+03  0.7546771E-02  0.1195927E+00
         21   -1    0    0  506  501  0.00000000000E+00  0.00000000000E+00  0.13397851654E+03  0.13397851654E+03  0.00000000000E+00 0.  1.
         21   -1    0    0  503  502 -0.00000000000E+00 -0.00000000000E+00 -0.19298288725E+04  0.19298288725E+04  0.00000000000E+00 0.  1.
         21    1    1    2  503  505  0.74950731653E+02 -0.66568159311E+02 -0.12679737303E+04  0.12719301525E+04  0.00000000000E+00 0.  1.
         21    1    1    2  504  502 -0.10644809665E+03  0.11665019243E+02 -0.41197008943E+03  0.42566022194E+03  0.00000000000E+00 0.  1.
         21    1    1    2  505  501 -0.69359266386E+02 -0.83827209167E+02 -0.15588747012E+03  0.19010158382E+03  0.00000000000E+00 0.  1.
         21    1    1    2  506  504  0.10085663139E+03  0.13873034924E+03  0.39980933894E+02  0.17611543081E+03  0.00000000000E+00 0.  1.
<scales pt_clust_3="100.24436" pt_clust_4="66.34786" pt_clust_5="14000.00000" pt_clust_6="153.76030"></scales>
<clustering>
<clus scale="  100.244">  2  3  1 -1</clus>
<clus scale="   66.348">  2  4  1 -1</clus>
<clus scale="  153.760">  1  6  2 -1</clus>
<clus scale="  153.760">  1  3  2 -1</clus>
</clustering>
</event>
<event>
 6    0  0.2666600E+002  0.7695587E+02  0.7546771E-02  0.1337919E+00
         21   -1    0    0  505  501  0.00000000000E+00  0.00000000000E+00  0.35622292849E+03  0.35622292849E+03  0.00000000000E+00 0. -1.
         21   -1    0    0  503  502 -0.00000000000E+00 -0.00000000000E+00 -0.13746444179E+03  0.13746444179E+03  0.00000000000E+00 0.  1.
         21    1    1    2  503  504  0.61108327687E+02 -0.21403033520E+02  0.61420047597E+02  0.89245390936E+02  0.00000000000E+00 0. -1.
         21    1    1    2  504  501 -0.41009760523E+02  0.19596077285E+02  0.29074888818E+02  0.53955128235E+02  0.00000000000E+00 0. -1.
         21    1    1    2  505  506 -0.59917073632E+02  0.66816261942E+02  0.21621097732E+03  0.23409753370E+03  0.00000000000E+00 0. -1.
         21    1    1    2  506  502  0.39818506468E+02 -0.65009305707E+02 -0.87947427028E+02  0.11638931741E+03  0.00000000000E+00 0.  1.
<scales pt_clust_3="53.94567" pt_clust_4="45.45115" pt_clust_5="76.95587" pt_clust_6="14000.00000"></scales>
<clustering>
<clus scale="   45.451">  1  4  2 -1</clus>
<clus scale="   53.946">  1  3  2 -1</clus>
<clus scale="   76.956">  1  5  2 -1</clus>
<clus scale="   45.451">  1  3  2 -1</clus>
</clustering>
</event>
<event>
 6    0  0.2666600E+002  0.1163915E+03  0.7546771E-02  0.1249171E+00
         21   -1    0    0  504  501  0.00000000000E+00  0.00000000000E+00  0.42913736281E+03  0.42913736281E+03  0.00000000000E+00 0.  1.
         21   -1    0    0  506  502 -0.00000000000E+00 -0.00000000000E+00 -0.19064207539E+04  0.19064207539E+04  0.00000000000E+00 0. -1.
         21    1    1    2  503  505  0.11176043709E+03  0.71355805099E+01 -0.11733046679E+04  0.11786369906E+04  0.00000000000E+00 0. -1.
         21    1    1    2  504  503 -0.67679475845E+02 -0.49275166629E+02  0.34440702043E+03  0.35443581819E+03  0.00000000000E+00 0.  1.
         21    1    1    2  505  502 -0.35682447562E+01  0.37016677716E+02 -0.71951084878E+03  0.72047125432E+03  0.00000000000E+00 0. -1.
         21    1    1    2  506  501 -0.40512716487E+02  0.51229084036E+01  0.71125105230E+02  0.82014053562E+02  0.00000000000E+00 0.  1.
<scales pt_clust_3="14000.00000" pt_clust_4="116.39151" pt_clust_5="37.18826" pt_clust_6="40.87323"></scales>
<clustering>
<clus scale="   37.188">  2  5  1 -1</clus>
<clus scale="   40.873">  1  6  2 -1</clus>
<clus scale="  116.392">  1  4  2 -1</clus>
<clus scale="   40.873">  1  3  2 -1</clus>
</clustering>
</event>
<event>
 6    0  0.2666600E+002  0.2449217E+03  0.7546771E-02  0.1116557E+00
         21   -1    0    0  506  501  0.00000000000E+00  0.00000000000E+00  0.61999027773E+03  0.61999027773E+03  0.00000000000E+00 0.  1.
         21   -1    0    0  503  502 -0.00000000000E+00 -0.00000000000E+00 -0.26515137121E+03  0.26515137121E+03  0.00000000000E+00 0.  1.
         21    1    1    2  503  501 -0.20023825970E+03 -0.83257795675E+02  0.48685595111E+03  0.53296898439E+03  0.00000000000E+00 0.  1.
         21    1    1    2  504  505  0.17617180104E+03  0.74519223993E+02 -0.12798026518E+03  0.23014900934E+03  0.00000000000E+00 0.  1.
         21    1    1    2  505  502  0.24932961367E+02  0.50223141348E+02 -0.38556258897E+02  0.68048523787E+02  0.00000000000E+00 0.  1.
         21    1    1    2  506  504 -0.86650271011E+00 -0.41484569665E+02  0.34519479491E+02  0.53975131418E+02  0.00000000000E+00 0. -1.
<scales pt_clust_3="234.10051" pt_clust_4="38.98040" pt_clust_5="38.98040" pt_clust_6="41.49362"></scales>
<clustering>
<clus scale="   38.980">  4  5 -1 -1</clus>
<clus scale="   41.494">  1  6  2 -1</clus>
<clus scale="  234.101">  1  3  2 -1</clus>
<clus scale="   41.494">  1  3  2 -1</clus>
</clustering>
</event>
<event>
 6    0  0.2666600E+002  0.8084736E+02  0.7546771E-02  0.1326664E+00
         21   -1    0    0  506  501  0.00000000000E+00  0.00000000000E+00  0.41844777978E+03  0.41844777978E+03  0.00000000000E+00 0. -1.
         21   -1    0    0  503  502 -0.00000000000E+00 -0.00000000000E+00 -0.89919153928E+02  0.89919153928E+02  0.00000000000E+00 0.  1.
         21    1    1    2  503  505  0.48664629352E+02 -0.94867956063E+01 -0.24176173584E+02  0.55160971801E+02  0.00000000000E+00 0.  1.
         21    1    1    2  504  502 -0.11536123731E+02 -0.76395140459E+02  0.57481049866E+01  0.77474772329E+02  0.00000000000E+00 0.  1.
         21    1    1    2  505  501  0.36563242958E+02  0.41386761189E+02  0.10050051481E+03  0.11467383404E+03  0.00000000000E+00 0. -1.
         21    1    1    2  506  504 -0.73691748579E+02  0.44495174876E+02  0.24645617964E+03  0.26105735554E+03  0.00000000000E+00 0. -1.
<scales pt_clust_3="49.58070" pt_clust_4="14000.00000" pt_clust_5="59.07411" pt_clust_6="80.84736"></scales>
<clustering>
<clus scale="   49.581">  2  3  1 -1</clus>
<clus scale="   59.074">  1  5  2 -1</clus>
<clus scale="   80.847">  1  6  2 -1</clus>
<clus scale="   59.074">  1  3  2 -1</clus>
</clustering>
</event>
<event>
 6    0  0.2666600E+002  0.8538656E+02  0.7546771E-02  0.1314425E+00
         21   -1    0    0  504  501  0.00000000000E+00  0.00000000000E+00  0.15843268617E+03  0.15843268617E+03  0.00000000000E+00 0. -1.
         21   -1    0    0  506  502 -0.00000000000E+00 -0.00000000000E+00 -0.26112613150E+03  0.26112613150E+03  0.00000000000E+00 0.  1.
         21    1    1    2  503  501  0.30670049013E+02 -0.27602933626E+02 -0.13392024896E+02  0.43381103975E+02  0.00000000000E+00 0. -1.
         21    1    1    2  504  505 -0.45339020927E+02 -0.69542934580E+02  0.10125185722E+03  0.13093427802E+03  0.00000000000E+00 0. -1.
         21    1    1    2  505  502  0.49012728944E+02  0.10489493400E+03 -0.16572115356E+03  0.20216007399E+03  0.00000000000E+00 0.  1.
         21    1    1    2  506  503 -0.34343757030E+02 -0.77490657958E+01 -0.24832124094E+02  0.43083361692E+02  0.00000000000E+00 0.  1.
<scales pt_clust_3="38.88627" pt_clust_4="14000.00000" pt_clust_5="85.38656" pt_clust_6="35.20713"></scales>
<clustering>
<clus scale="   35.207">  2  6  1 -1</clus>
<clus scale="   38.886">  2  3  1 -1</clus>
<clus scale="   85.387">  2  5  1 -1</clus>
<clus scale="   85.387">  1  3  2 -1</clus>
</clustering>
</event>
<event>
 6    0  0.2666600E+002  0.2696728E+03  0.7546771E-02  0.1101467E+00
         21   -1    0    0  502  501  0.00000000000E+00  0.00000000000E+00  0.54312678677E+03  0.54312678677E+03  0.00000000000E+00 0. -1.
         21   -1    0    0  504  502 -0.00000000000E+00 -0.00000000000E+00 -0.20888370558E+03  0.20888370558E+03  0.00000000000E+00 0. -1.
         21    1    1    2  503  506 -0.15339211986E+03  0.91149168131E+02  0.30938186493E+03  0.35714766082E+03  0.00000000000E+00 0. -1.
         21    1    1    2  504  505  0.82427180555E+02 -0.67496046612E+02 -0.52235520138E+02  0.11865288014E+03  0.00000000000E+00 0. -1.
         21    1    1    2  505  503  0.14173721085E+03 -0.68263060008E+02 -0.71510327357E+01  0.15748148961E+03  0.00000000000E+00 0. -1.
         21    1    1    2  506  501 -0.70772271538E+02  0.44609938490E+02  0.84247769135E+02  0.11872846177E+03  0.00000000000E+00 0. -1.
<scales pt_clust_3="267.42063" pt_clust_4="52.32648" pt_clust_5="52.32648" pt_clust_6="36.44932"></scales>
<clustering>
<clus scale="   36.449">  3  6 -1 -1</clus>
<clus scale="   52.326">  4  5 -1 -1</clus>
<clus scale="  267.421">  1  3  2 -1</clus>
<clus scale="  267.421">  1  3  2 -1</clus>
</clustering>
</event>
<event>
 6    0  0.2666600E+002  0.9407327E+02  0.7546771E-02  0.1293277E+00
         21   -1    0    0  505  501  0.00000000000E+00  0.00000000000E+00  0.39265723082E+03  0.39265723082E+03  0.00000000000E+00 0.  1.
         21   -1    0    0  503  502 -0.00000000000E+00 -0.00000000000E+00 -0.17762748012E+03  0.17762748012E+03  0.00000000000E+00 0.  1.
         21    1    1    2  503  506  0.37216655844E+02 -0.42216150110E+02  0.72922664171E-01  0.56278664874E+02  0.00000000000E+00 0.  1.
         21    1    1    2  504  502 -0.82274713595E+02 -0.35378760079E+02 -0.10428411666E+03  0.13746258454E+03  0.00000000000E+00 0.  1.
         21    1    1    2  505  504 -0.33312094423E+02 -0.40057485896E+02  0.48801950862E+02  0.71385770424E+02  0.00000000000E+00 0. -1.
         21    1    1    2  506  501  0.78370152174E+02  0.11765239608E+03  0.27043899382E+03  0.30515769110E+03  0.00000000000E+00 0.  1.
<scales pt_clust_3="57.12476" pt_clust_4="94.07327" pt_clust_5="52.09892" pt_clust_6="14000.00000"></scales>
<clustering>
<clus scale="   52.099">  1  5  2 -1</clus>
<clus scale="   57.125">  2  3  1 -1</clus>
<clus scale="   94.073">  2  4  1 -1</clus>
<clus scale="   52.099">  1  3  2 -1</clus>
</clustering>
</event>
<event>
 6    0  0.2666600E+002  0.1311846E+03  0.7546771E-02  0.1225708E+00
         21   -1    0    0  505  501  0.00000000000E+00  0.00000000000E+00  0.43814243581E+03  0.43814243581E+03  0.00000000000E+00 0.  1.
         21   -1    0    0  504  502 -0.00000000000E+00 -0.00000000000E+00 -0.97157749568E+02  0.97157749568E+02  0.00000000000E+00 0.  1.
         21    1    1    2  503  502  0.84248004309E+02 -0.52834437530E+02 -0.34276381429E+02  0.10518590373E+03  0.00000000000E+00 0.  1.
         21    1    1    2  504  501  0.63287839796E+01 -0.41492937262E+02  0.14293809856E+02  0.44339940792E+02  0.00000000000E+00 0.  1.
         21    1    1    2  505  506 -0.37773117577E+02  0.38906748928E+02  0.20476634970E+03  0.21182493123E+03  0.00000000000E+00 0.  1.
         21    1    1    2  506  503 -0.52803670712E+02  0.55420625864E+02  0.15620090812E+03  0.17394940963E+03  0.00000000000E+00 0.  1.
<scales pt_clust_3="125.64526" pt_clust_4="41.97282" pt_clust_5="31.74615" pt_clust_6="31.74615"></scales>
<clustering>
<clus scale="   31.746">  5  6 -1 -1</clus>
<clus scale="   41.973">  2  4  1 -1</clus>
<clus scale="  125.645">  2  3  1 -1</clus>
<clus scale="  131.185">  1  3  2 -1</clus>
</clustering>
</event>
<event>
 6    0  0.2666600E+002  0.3640955E+03  0.7546771E-02  0.1056974E+00
         21   -1    0    0  506  501  0.00000000000E+00  0.00000000000E+00  0.19227313690E+03  0.19227313690E+03  0.00000000000E+00 0. -1.
         21   -1    0    0  505  502 -0.00000000000E+00 -0.00000000000E+00 -0.74922168631E+03  0.74922168631E+03  0.00000000000E+00 0. -1.
         21    1    1    2  503  501 -0.67227854928E+02 -0.84439458538E+01 -0.46856387842E+02  0.82379644217E+02  0.00000000000E+00 0. -1.
         21    1    1    2  504  502  0.15032978977E+03 -0.30025471812E+02 -0.60378683428E+02  0.16476091789E+03  0.00000000000E+00 0. -1.
         21    1    1    2  505  503 -0.29037264271E+03  0.25548592972E+02 -0.37203315389E+03  0.47262846913E+03  0.00000000000E+00 0. -1.
         21    1    1    2  506  504  0.20727070787E+03  0.12920824694E+02 -0.77680324257E+02  0.22172579198E+03  0.00000000000E+00 0. -1.
<scales pt_clust_3="31.96187" pt_clust_4="39.75467" pt_clust_5="31.96187" pt_clust_6="360.98710"></scales>
<clustering>
<clus scale="   31.962">  3  5 -1 -1</clus>
<clus scale="   39.755">  4  6 -1 -1</clus>
<clus scale="  360.987">  1  4  2 -1</clus>
<clus scale="  360.987">  1  3  2 -1</clus>
</clustering>
</event>
<event>
 6    0  0.2666600E+002  0.1314734E+03  0.7546771E-02  0.1225286E+00
         21   -1    0    0  506  501  0.00000000000E+00  0.00000000000E+00  0.78473770733E+02  0.78473770733E+02  0.00000000000E+00 0. -1.
         21   -1    0    0  501  502 -0.00000000000E+00 -0.00000000000E+00 -0.50495806920E+03  0.50495806920E+03  0.00000000000E+00 0. -1.
         21    1    1    2  503  504  0.82044376493E+02  0.42599821548E+01 -0.27765170098E+03  0.28955119447E+03  0.00000000000E+00 0. -1.
         21    1    1    2  504  502  0.60120863373E+02  0.12059572042E+01 -0.10590200092E+03  0.12178344035E+03  0.00000000000E+00 0. -1.
         21    1    1    2  505  503 -0.83343471720E+02  0.38121566071E+02 -0.36340134104E+02  0.98590027004E+02  0.00000000000E+00 0. -1.
         21    1    1    2  506  505 -0.58821768145E+02 -0.43587505430E+02 -0.65904624626E+01  0.73507178104E+02  0.00000000000E+00 0. -1.
<scales pt_clust_3="36.71753" pt_clust_4="36.71753" pt_clust_5="124.27126" pt_clust_6="73.21114"></scales>
<clustering>
<clus scale="   36.718">  3  4 -1 -1</clus>
<clus scale="   73.211">  1  6  2 -1</clus>
<clus scale="  124.271">  1  5  2 -1</clus>
<clus scale="   73.211">  1  3  2 -1</clus>
</clustering>
</event>
<event>
 6    0  0.2666600E+002  0.1215875E+03  0.7546771E-02  0.1240501E+00
         21   -1    0    0  505  501  0.00000000000E+00  0.00000000000E+00  0.31366948851E+03  0.31366948851E+03  0.00000000000E+00 0.  1.
         21   -1    0    0  504  502 -0.00000000000E+00 -0.00000000000E+00 -0.13818991332E+03  0.13818991332E+03  0.00000000000E+00 0.  1.
         21    1    1    2  503  502  0.10025296608E+03  0.10458204241E+03 -0.18263787781E+02  0.14601926841E+03  0.00000000000E+00 0.  1.
         21    1    1    2  504  501 -0.64609037726E+02  0.25013822345E+02  0.50679585660E+02  0.85839614788E+02  0.00000000000E+00 0.  1.
         21    1    1    2  505  506  0.30956700969E+02 -0.74251973536E+02  0.65284546705E+02  0.10360378829E+03  0.00000000000E+00 0.  1.
         21    1    1    2  506  503 -0.66600629326E+02 -0.55343891222E+02  0.77779230601E+02  0.11639673034E+03  0.00000000000E+00 0. -1.
<scales pt_clust_3="14000.00000" pt_clust_4="69.28217" pt_clust_5="66.22216" pt_clust_6="121.58751"></scales>
<clustering>
<clus scale="   69.282">  1  4  2 -1</clus>
<clus scale="   66.222">  1  5  2 -1</clus>
<clus scale="  121.588">  1  6  2 -1</clus>
<clus scale="   69.282">  1  3  2 -1</clus>
</clustering>
</event>
<event>
 6    0  0.2666600E+002  0.1096898E+03  0.7546771E-02  0.1261145E+00
         21   -1    0    0  504  501  0.00000000000E+00  0.00000000000E+00  0.12827955423E+03  0.12827955423E+03  0.00000000000E+00 0.  1.
         21   -1    0    0  506  502 -0.00000000000E+00 -0.00000000000E+00 -0.79973737782E+03  0.79973737782E+03  0.00000000000E+00 0. -1.
         21    1    1    2  503  501  0.33188508048E+02 -0.93407613312E+02  0.77979977370E+02  0.12612428855E+03  0.00000000000E+00 0.  1.
         21    1    1    2  504  502 -0.26014588204E+02 -0.18250627680E+02  0.67225439315E+01  0.32481330130E+02  0.00000000000E+00 0. -1.
         21    1    1    2  505  503  0.29666891570E+02  0.96809238329E+02 -0.58540637999E+03  0.59409829390E+03  0.00000000000E+00 0. -1.
         21    1    1    2  506  505 -0.36840811415E+02  0.14849002663E+02 -0.17075396490E+03  0.17531301947E+03  0.00000000000E+00 0. -1.
<scales pt_clust_3="109.68984" pt_clust_4="31.77805" pt_clust_5="14000.00000" pt_clust_6="40.08764"></scales>
<clustering>
<clus scale="   31.778">  1  4  2 -1</clus>
<clus scale="   40.088">  2  6  1 -1</clus>
<clus scale="  109.690">  1  3  2 -1</clus>
<clus scale="   31.778">  1  3  2 -1</clus>
</clustering>
</event>
<event>
 6    0  0.2666600E+002  0.2486012E+03  0.7546771E-02  0.1114192E+00
         21   -1    0    0  506  501  0.00000000000E+00  0.00000000000E+00  0.32439587961E+03  0.32439587961E+03  0.00000000000E+00 0.  1.
         21   -1    0    0  503  502 -0.00000000000E+00 -0.00000000000E+00 -0.28850481349E+03  0.28850481349E+03  0.00000000000E+00 0.  1.
         21    1    1    2  503  504  0.82621887873E+02  0.20032139225E+02 -0.10000464572E+03  0.13125773167E+03  0.00000000000E+00 0.  1.
         21    1    1    2  504  501  0.14747539600E+03 -0.40129968450E+01 -0.65774500653E+02  0.16152826844E+03  0.00000000000E+00 0. -1.
         21    1    1    2  505  502 -0.29994674828E+02 -0.31997637955E+02  0.16033923453E+02  0.46697066868E+02  0.00000000000E+00 0.  1.
         21    1    1    2  506  505 -0.20010260904E+03  0.15978495575E+02  0.18563628904E+03  0.27341762613E+03  0.00000000000E+00 0.  1.
<scales pt_clust_3="53.88960" pt_clust_4="241.33155" pt_clust_5="43.34979" pt_clust_6="43.34979"></scales>
<clustering>
<clus scale="   43.350">  5  6 -1 -1</clus>
<clus scale="   53.890">  3  4 -1 -1</clus>
<clus scale="  241.332">  2  3  1 -1</clus>
<clus scale="  248.601">  1  3  2 -1</clus>
</clustering>
</event>
<event>
 6    0  0.2666600E+002  0.2074336E+03  0.7546771E-02  0.1143615E+00
         21   -1    0    0  505  501  0.00000000000E+00  0.00000000000E+00  0.37839548904E+04  0.37839548904E+04  0.00000000000E+00 0. -1.
         21   -1    0    0  506  502 -0.00000000000E+00 -0.00000000000E+00 -0.27459012927E+02  0.27459012927E+02  0.00000000000E+00 0.  1.
         21    1    1    2  503  504  0.30811928209E+02  0.36819405234E+02  0.78811979168E+02  0.92284189232E+02  0.00000000000E+00 0. -1.
         21    1    1    2  504  502  0.16625325703E+03  0.71706790364E+02  0.50403154996E+03  0.53556494714E+03  0.00000000000E+00 0.  1.
         21    1    1    2  505  503 -0.11340805604E+03 -0.85587431622E+02  0.12672398661E+04  0.12751797810E+04  0.00000000000E+00 0.  1.
         21    1    1    2  506  501 -0.83657129196E+02 -0.22938763975E+02  0.19064124822E+04  0.19083849860E+04  0.00000000000E+00 0. -1.
<scales pt_clust_3="32.05646" pt_clust_4="32.05646" pt_clust_5="197.87208" pt_clust_6="86.74504"></scales>
<clustering>
<clus scale="   32.056">  3  4 -1 -1</clus>
<clus scale="   86.745">  1  6  2 -1</clus>
<clus scale="  197.872">  1  5  2 -1</clus>
<clus scale="   86.745">  1  3  2 -1</clus>
</clustering>
</event>
<event>
 6    0  0.2666600E+002  0.7891310E+02  0.7546771E-02  0.1332165E+00
         21   -1    0    0  503  501  0.00000000000E+00  0.00000000000E+00  0.93589322564E+02  0.93589322564E+02  0.00000000000E+00 0.  1.
         21   -1    0    0  504  502 -0.00000000000E+00 -0.00000000000E+00 -0.24567014167E+03  0.24567014167E+03  0.00000000000E+00 0.  1.
         21    1    1    2  503  505  0.36086102808E+02 -0.21385359889E+02  0.38179317951E+01  0.42120268716E+02  0.00000000000E+00 0. -1.
         21    1    1    2  504  506 -0.43883579553E+01 -0.31545420757E+02 -0.50836857739E+02  0.59989643782E+02  0.00000000000E+00 0.  1.
         21    1    1    2  505  502  0.68515693479E+02 -0.40444023147E+01 -0.10060336138E+03  0.12178585207E+03  0.00000000000E+00 0.  1.
         21    1    1    2  506  501 -0.10021343833E+03  0.56975182961E+02 -0.44585317833E+01  0.11536369967E+03  0.00000000000E+00 0.  1.
<scales pt_clust_3="43.28683" pt_clust_4="31.84920" pt_clust_5="14000.00000" pt_clust_6="78.91310"></scales>
<clustering>
<clus scale="   31.849">  2  4  1 -1</clus>
<clus scale="   43.287">  1  3  2 -1</clus>
<clus scale="   78.913">  1  6  2 -1</clus>
<clus scale="   43.287">  1  3  2 -1</clus>
</clustering>
</event>
<event>
 6    0  0.2666600E+002  0.1513278E+03  0.7546771E-02  0.1198851E+00
         21   -1    0    0  506  501  0.00000000000E+00  0.00000000000E+00  0.12421970748E+03  0.12421970748E+03  0.00000000000E+00 0.  1.
         21   -1    0    0  503  502 -0.00000000000E+00 -0.00000000000E+00 -0.29330227574E+03  0.29330227574E+03  0.00000000000E+00 0. -1.
         21    1    1    2  503  505 -0.49718816046E+01 -0.13485942650E+03 -0.13235812971E+03  0.18902502221E+03  0.00000000000E+00 0. -1.
         21    1    1    2  504  501  0.41530461676E+02  0.55223433674E+02  0.17584849541E+02  0.71299605939E+02  0.00000000000E+00 0.  1.
         21    1    1    2  505  504  0.13318621482E+02  0.85807692331E+02 -0.52956575589E+01  0.86996492632E+02  0.00000000000E+00 0.  1.
         21    1    1    2  506  502 -0.49877201554E+02 -0.61716995066E+01 -0.49013630526E+02  0.70200862437E+02  0.00000000000E+00 0.  1.
<scales pt_clust_3="144.53951" pt_clust_4="39.97702" pt_clust_5="39.97702" pt_clust_6="50.25759"></scales>
<clustering>
<clus scale="   39.977">  4  5 -1 -1</clus>
<clus scale="   50.258">  2  6  1 -1</clus>
<clus scale="  144.540">  2  3  1 -1</clus>
<clus scale="  151.328">  1  3  2 -1</clus>
</clustering>
</event>
<event>
 6    0  0.2666600E+002  0.1264723E+03  0.7546771E-02  0.1232786E+00
         21   -1    0    0  505  501  0.00000000000E+00  0.00000000000E+00  0.10339192874E+04  0.10339192874E+04  0.00000000000E+00 0. -1.
         21   -1    0    0  503  502 -0.00000000000E+00 -0.00000000000E+00 -0.45256107261E+02  0.45256107261E+02  0.00000000000E+00 0. -1.
         21    1    1    2  503  506 -0.64131173421E+02  0.93551931119E+02  0.13170113937E+03  0.17381013012E+03  0.00000000000E+00 0. -1.
         21    1    1    2  504  502  0.36953974980E+02  0.43610541374E+02  0.96615655314E+02  0.11225889915E+03  0.00000000000E+00 0.  1.
         21    1    1    2  505  504  0.36787918793E+02  0.11486930235E+02  0.41779268588E+03  0.41956647735E+03  0.00000000000E+00 0. -1.
         21    1    1    2  506  501 -0.96107203513E+01 -0.14864940273E+03  0.34255369961E+03  0.37353988809E+03  0.00000000000E+00 0. -1.
<scales pt_clust_3="126.47226" pt_clust_4="62.78444" pt_clust_5="38.53960" pt_clust_6="14000.00000"></scales>
<clustering>
<clus scale="   38.540">  1  5  2 -1</clus>
<clus scale="   62.784">  2  4  1 -1</clus>
<clus scale="  126.472">  2  3  1 -1</clus>
<clus scale="   38.540">  1  3  2 -1</clus>
</clustering>
</event>
<event>
 6    0  0.2666600E+002  0.1770086E+03  0.7546771E-02  0.1170730E+00
         21   -1    0    0  506  501  0.00000000000E+00  0.00000000000E+00  0.15877541974E+03  0.15877541974E+03  0.00000000000E+00 0.  1.
         21   -1    0    0  503  502 -0.00000000000E+00 -0.00000000000E+00 -0.12973736529E+04  0.12973736529E+04  0.00000000000E+00 0. -1.
         21    1    1    2  503  505 -0.14677778806E+03  0.53613259134E+02 -0.96116134000E+03  0.97378089021E+03  0.00000000000E+00 0. -1.
         21    1    1    2  504  501  0.71371034590E+02 -0.14329413363E+01  0.63855572537E+02  0.95777930878E+02  0.00000000000E+00 0.  1.
         21    1    1    2  505  504  0.99555757600E+02 -0.21994320483E+02  0.34855455217E+02  0.10774971816E+03  0.00000000000E+00 0.  1.
         21    1    1    2  506  502 -0.24149004132E+02 -0.30185997315E+02 -0.27614792097E+03  0.27884053344E+03  0.00000000000E+00 0.  1.
<scales pt_clust_3="171.51446" pt_clust_4="36.61533" pt_clust_5="36.61533" pt_clust_6="38.65707"></scales>
<clustering>
<clus scale="   36.615">  4  5 -1 -1</clus>
<clus scale="   38.657">  2  6  1 -1</clus>
<clus scale="  171.514">  2  3  1 -1</clus>
<clus scale="  177.009">  1  3  2 -1</clus>
</clustering>
</event>
<event>
 6    0  0.2666600E+002  0.1681822E+03  0.7546771E-02  0.1179757E+00
         21   -1    0    0  506  501  0.00000000000E+00  0.00000000000E+00  0.11990094283E+03  0.11990094283E+03  0.00000000000E+00 0. -1.
         21   -1    0    0  505  502 -0.00000000000E+00 -0.00000000000E+00 -0.22946314698E+03  0.22946314698E+03  0.00000000000E+00 0. -1.
         21    1    1    2  503  502 -0.10587136663E+03  0.55091673162E+02 -0.82590276967E+02  0.14513783991E+03  0.00000000000E+00 0. -1.
         21    1    1    2  504  501  0.46965331564E+02 -0.31717218241E+02  0.10650862981E+02  0.57664245284E+02  0.00000000000E+00 0. -1.
         21    1    1    2  505  504  0.70772120050E+02 -0.65938713730E+02 -0.32671407589E+02  0.10209812838E+03  0.00000000000E+00 0. -1.
         21    1    1    2  506  503 -0.11866084989E+02  0.42564258809E+02 -0.49513825841E+01  0.44463876242E+02  0.00000000000E+00 0. -1.
<scales pt_clust_3="42.53439" pt_clust_4="31.00057" pt_clust_5="158.23752" pt_clust_6="42.53439"></scales>
<clustering>
<clus scale="   31.001">  4  5 -1 -1</clus>
<clus scale="   42.534">  3  6 -1 -1</clus>
<clus scale="  158.238">  1  4  2 -1</clus>
<clus scale="  158.238">  1  3  2 -1</clus>
</clustering>
</event>
<event>
 6    0  0.2666600E+002  0.1339383E+03  0.7546771E-02  0.1221726E+00
         21   -1    0    0  504  501  0.00000000000E+00  0.00000000000E+00  0.70930577428E+02  0.70930577428E+02  0.00000000000E+00 0.  1.
         21   -1    0    0  501  502 -0.00000000000E+00 -0.00000000000E+00 -0.14719945062E+04  0.14719945062E+04  0.00000000000E+00 0.  1.
         21    1    1    2  503  502 -0.59644033681E+02 -0.35556596587E+02 -0.15849590903E+03  0.17303940446E+03  0.00000000000E+00 0.  1.
         21    1    1    2  504  506 -0.67289647679E+02  0.21804720014E+02  0.88311200728E+01  0.71283456576E+02  0.00000000000E+00 0.  1.
         21    1    1    2  505  503  0.17831341364E+03 -0.61467576170E+01 -0.12242414555E+04  0.12371744411E+04  0.00000000000E+00 0.  1.
         21    1    1    2  506  505 -0.51379732277E+02  0.19898634190E+02 -0.27157684276E+02  0.61427781555E+02  0.00000000000E+00 0.  1.
<scales pt_clust_3="69.43833" pt_clust_4="33.66346" pt_clust_5="128.39261" pt_clust_6="33.66346"></scales>
<clustering>
<clus scale="   33.663">  4  6 -1 -1</clus>
<clus scale="   69.438">  2  3  1 -1</clus>
<clus scale="  128.393">  2  5  1 -1</clus>
<clus scale="  133.938">  1  3  2 -1</clus>
</clustering>
</event>
<event>
 6    0  0.2666600E+002  0.8228099E+02  0.7546771E-02  0.1322700E+00
         21   -1    0    0  506  501  0.00000000000E+00  0.00000000000E+00  0.13582364405E+03  0.13582364405E+03  0.00000000000E+00 0.  1.
         21   -1    0    0  505  502 -0.00000000000E+00 -0.00000000000E+00 -0.41190804116E+03  0.41190804116E+03  0.00000000000E+00 0. -1.
         21    1    1    2  503  501  0.10399195398E+03  0.78381993646E+02  0.45686583480E+02  0.13800480908E+03  0.00000000000E+00 0.  1.
         21    1    1    2  504  503 -0.22031771887E+02 -0.45741183818E+02 -0.97942073486E+02  0.11031910364E+03  0.00000000000E+00 0. -1.
         21    1    1    2  505  504 -0.42161049336E+02 -0.16414002221E+02 -0.24663595689E+03  0.25075140833E+03  0.00000000000E+00 0. -1.
         21    1    1    2  506  502 -0.39799132756E+02 -0.16226807607E+02  0.22807049776E+02  0.48656364154E+02  0.00000000000E+00 0.  1.
<scales pt_clust_3="82.28099" pt_clust_4="14000.00000" pt_clust_5="46.12698" pt_clust_6="42.98000"></scales>
<clustering>
<clus scale="   42.980">  1  6  2 -1</clus>
<clus scale="   46.127">  2  5  1 -1</clus>
<clus scale="   82.281">  1  3  2 -1</clus>
<clus scale="   42.980">  1  3  2 -1</clus>
</clustering>
</event>
<event>
 6    0  0.2666600E+002  0.1268892E+03  0.7546771E-02  0.1232146E+00
         21   -1    0    0  503  501  0.00000000000E+00  0.00000000000E+00  0.52767082775E+03  0.52767082775E+03  0.00000000000E+00 0.  1.
         21   -1    0    0  506  502 -0.00000000000E+00 -0.00000000000E+00 -0.99318596794E+02  0.99318596794E+02  0.00000000000E+00 0.  1.
         21    1    1    2  503  505  0.56418620861E+02 -0.94849923669E+02  0.18583510484E+03  0.21613480745E+03  0.00000000000E+00 0.  1.
         21    1    1    2  504  501 -0.70010448894E+02  0.14074587826E+03  0.19665798255E+03  0.25176422959E+03  0.00000000000E+00 0.  1.
         21    1    1    2  505  502 -0.24642821908E+02 -0.89204223327E+02  0.15521481899E+02  0.93838044158E+02  0.00000000000E+00 0.  1.
         21    1    1    2  506  504  0.38234649942E+02  0.43308268739E+02  0.30337661674E+02  0.65252343354E+02  0.00000000000E+00 0.  1.
<scales pt_clust_3="14000.00000" pt_clust_4="126.88916" pt_clust_5="68.78179" pt_clust_6="57.77105"></scales>
<clustering>
<clus scale="   57.771">  2  6  1 -1</clus>
<clus scale="   68.782">  2  5  1 -1</clus>
<clus scale="  126.889">  2  4  1 -1</clus>
<clus scale="  126.889">  1  3  2 -1</clus>
</clustering>
</event>
<event>
 6    0  0.2666600E+002  0.1004196E+03  0.7546771E-02  0.1279416E+00
         21   -1    0    0  503  501  0.00000000000E+00  0.00000000000E+00  0.18910753123E+03  0.18910753123E+03  0.00000000000E+00 0.  1.
         21   -1    0    0  504  502 -0.00000000000E+00 -0.00000000000E+00 -0.60889747028E+03  0.60889747028E+03  0.00000000000E+00 0. -1.
         21    1    1    2  503  502  0.10472959360E+03  0.15518589627E+02  0.12032864913E+03  0.16027507043E+03  0.00000000000E+00 0.  1.
         21    1    1    2  504  506 -0.58977245970E+02 -0.99391196679E+01 -0.49668675955E+03  0.50027476326E+03  0.00000000000E+00 0. -1.
         21    1    1    2  505  501  0.11674390571E+02 -0.28697837758E+02  0.28817380127E+02  0.42311921306E+02  0.00000000000E+00 0.  1.
         21    1    1    2  506  505 -0.57426738199E+02  0.23118367799E+02 -0.72249208756E+02  0.95143246506E+02  0.00000000000E+00 0.  1.
<scales pt_clust_3="100.41960" pt_clust_4="59.73114" pt_clust_5="30.98156" pt_clust_6="14000.00000"></scales>
<clustering>
<clus scale="   30.982">  1  5  2 -1</clus>
<clus scale="   59.731">  2  4  1 -1</clus>
<clus scale="  100.420">  1  3  2 -1</clus>
<clus scale="   30.982">  1  3  2 -1</clus>
</clustering>
</event>
<event>
 6    0  0.2666600E+002  0.9603574E+02  0.7546771E-02  0.1288860E+00
         21   -1    0    0  505  501  0.00000000000E+00  0.00000000000E+00  0.40171714734E+03  0.40171714734E+03  0.00000000000E+00 0. -1.
         21   -1    0    0  504  502 -0.00000000000E+00 -0.00000000000E+00 -0.10904431142E+03  0.10904431142E+03  0.00000000000E+00 0. -1.
         21    1    1    2  503  502 -0.72285944245E+02  0.46202964890E+02  0.27133085749E+03  0.28457056405E+03  0.00000000000E+00 0. -1.
         21    1    1    2  504  506  0.87548290449E+02 -0.41902209844E+02 -0.63466206921E+02  0.11596748584E+03  0.00000000000E+00 0. -1.
         21    1    1    2  505  503 -0.21827542297E+02  0.28127833089E+02  0.31803423319E+02  0.47739651568E+02  0.00000000000E+00 0.  1.
         21    1    1    2  506  501  0.65651960921E+01 -0.32428588134E+02  0.53004762031E+02  0.62483757298E+02  0.00000000000E+00 0. -1.
<scales pt_clust_3="14000.00000" pt_clust_4="96.03574" pt_clust_5="32.22082" pt_clust_6="33.08648"></scales>
<clustering>
<clus scale="   33.086">  1  6  2 -1</clus>
<clus scale="   32.221">  1  5  2 -1</clus>
<clus scale="   96.036">  2  4  1 -1</clus>
<clus scale="   33.086">  1  3  2 -1</clus>
</clustering>
</event>
<event>
 6    0  0.2666600E+002  0.9585666E+02  0.7546771E-02  0.1289258E+00
         21   -1    0    0  506  501  0.00000000000E+00  0.00000000000E+00  0.32856274911E+02  0.32856274911E+02  0.00000000000E+00 0.  1.
         21   -1    0    0  504  502 -0.00000000000E+00 -0.00000000000E+00 -0.57581398627E+03  0.57581398627E+03  0.00000000000E+00 0.  1.
         21    1    1    2  503  505 -0.93731500730E+01 -0.44238237833E+02 -0.49869577008E+02  0.67319034009E+02  0.00000000000E+00 0.  1.
         21    1    1    2  504  503  0.47480108094E+02  0.37816214512E+02 -0.18456840912E+03  0.19429339770E+03  0.00000000000E+00 0.  1.
         21    1    1    2  505  501  0.30138461825E+02 -0.48202683395E+02 -0.55846796243E+02  0.79691217950E+02  0.00000000000E+00 0.  1.
         21    1    1    2  506  502 -0.68245419846E+02  0.54624706717E+02 -0.25267292898E+03  0.26736661152E+03  0.00000000000E+00 0.  1.
<scales pt_clust_3="34.07320" pt_clust_4="60.69948" pt_clust_5="34.07320" pt_clust_6="87.91450"></scales>
<clustering>
<clus scale="   34.073">  3  5 -1 -1</clus>
<clus scale="   60.699">  2  4  1 -1</clus>
<clus scale="   87.914">  2  6  1 -1</clus>
<clus scale="   95.857">  1  3  2 -1</clus>
</clustering>
</event>
<event>
 6    0  0.2666600E+002  0.9776767E+02  0.7546771E-02  0.1285061E+00
         21   -1    0    0  505  501  0.00000000000E+00  0.00000000000E+00  0.99423176429E+03  0.99423176429E+03  0.00000000000E+00 0. -1.
         21   -1    0    0  503  502 -0.00000000000E+00 -0.00000000000E+00 -0.78632921895E+02  0.78632921895E+02  0.00000000000E+00 0.  1.
         21    1    1    2  503  506  0.57420259142E+02 -0.68887566188E+02 -0.27322161350E+02  0.93750111659E+02  0.00000000000E+00 0.  1.
         21    1    1    2  504  502 -0.66394199142E+02 -0.42669956106E+02  0.10772370232E+03  0.13354142007E+03  0.00000000000E+00 0. -1.
         21    1    1    2  505  504 -0.17426584096E+02  0.50615370094E+02  0.20456125624E+03  0.21144954263E+03  0.00000000000E+00 0. -1.
         21    1    1    2  506  501  0.26400524097E+02  0.60942152199E+02  0.63063604518E+03  0.63412361182E+03  0.00000000000E+00 0. -1.
<scales pt_clust_3="97.76767" pt_clust_4="77.38651" pt_clust_5="53.53131" pt_clust_6="14000.00000"></scales>
<clustering>
<clus scale="   53.531">  1  5  2 -1</clus>
<clus scale="   77.387">  2  4  1 -1</clus>
<clus scale="   97.768">  2  3  1 -1</clus>
<clus scale="   53.531">  1  3  2 -1</clus>
</clustering>
</event>
<event>
 6    0  0.2666600E+002  0.1682664E+03  0.7546771E-02  0.1179668E+00
         21   -1    0    0  504  501  0.00000000000E+00  0.00000000000E+00  0.20566073642E+03  0.20566073642E+03  0.00000000000E+00 0.  1.
         21   -1    0    0  505  502 -0.00000000000E+00 -0.00000000000E+00 -0.10543818008E+04  0.10543818008E+04  0.00000000000E+00 0. -1.
         21    1    1    2  503  506  0.27925281350E+02  0.51452388979E+02 -0.54385431906E+02  0.79905850059E+02  0.00000000000E+00 0.  1.
         21    1    1    2  504  502  0.21967577266E+02 -0.17015632097E+03 -0.88804117787E+03  0.90446275855E+03  0.00000000000E+00 0. -1.
         21    1    1    2  505  503  0.89208780014E+01 -0.38995383591E+02 -0.43081348706E+02  0.58789664161E+02  0.00000000000E+00 0.  1.
         21    1    1    2  506  501 -0.58813736617E+02  0.15769931558E+03  0.13678689413E+03  0.21688426442E+03  0.00000000000E+00 0.  1.
<scales pt_clust_3="56.56109" pt_clust_4="168.26635" pt_clust_5="40.00277" pt_clust_6="14000.00000"></scales>
<clustering>
<clus scale="   40.003">  2  5  1 -1</clus>
<clus scale="   56.561">  2  3  1 -1</clus>
<clus scale="  168.266">  2  4  1 -1</clus>
<clus scale="  168.266">  1  3  2 -1</clus>
</clustering>
</event>
<event>
 6    0  0.2666600E+002  0.8969143E+02  0.7546771E-02  0.1303601E+00
         21   -1    0    0  503  501  0.00000000000E+00  0.00000000000E+00  0.84486647026E+03  0.84486647026E+03  0.00000000000E+00 0. -1.
         21   -1    0    0  506  502 -0.00000000000E+00 -0.00000000000E+00 -0.92020324766E+02  0.92020324766E+02  0.00000000000E+00 0.  1.
         21    1    1    2  503  505 -0.10007033957E+03 -0.26316115036E+02  0.56129403789E+03  0.57075179171E+03  0.00000000000E+00 0. -1.
         21    1    1    2  504  501  0.23318599516E+02 -0.33342726845E+02  0.23637895797E+03  0.23985517774E+03  0.00000000000E+00 0. -1.
         21    1    1    2  505  502  0.26488253557E+02  0.53601675282E+02 -0.17639147107E+01  0.59815370639E+02  0.00000000000E+00 0.  1.
         21    1    1    2  506  504  0.50263486501E+02  0.60571665994E+01 -0.43062935656E+02  0.66464454935E+02  0.00000000000E+00 0.  1.
<scales pt_clust_3="89.69143" pt_clust_4="40.68777" pt_clust_5="14000.00000" pt_clust_6="51.00136"></scales>
<clustering>
<clus scale="   40.688">  1  4  2 -1</clus>
<clus scale="   51.001">  2  6  1 -1</clus>
<clus scale="   89.691">  1  3  2 -1</clus>
<clus scale="   40.688">  1  3  2 -1</clus>
</clustering>
</event>
<event>
 6    0  0.2666600E+002  0.1881189E+03  0.7546771E-02  0.1160169E+00
         21   -1    0    0  502  501  0.00000000000E+00  0.00000000000E+00  0.75447273440E+02  0.75447273440E+02  0.00000000000E+00 0.  1.
         21   -1    0    0  506  502 -0.00000000000E+00 -0.00000000000E+00 -0.13153183326E+04  0.13153183326E+04  0.00000000000E+00 0.  1.
         21    1    1    2  503  504 -0.38310858192E+02  0.12286946051E+02 -0.28211218525E+03  0.28496662254E+03  0.00000000000E+00 0.  1.
         21    1    1    2  504  505  0.32726497886E+02  0.38770740208E+02 -0.33729874254E+02  0.60925350859E+02  0.00000000000E+00 0.  1.
         21    1    1    2  505  501  0.13343552193E+03  0.13377943684E+02 -0.27385964140E+02  0.13687219923E+03  0.00000000000E+00 0.  1.
         21    1    1    2  506  503 -0.12785116162E+03 -0.64435629943E+02 -0.89664303554E+03  0.90800143343E+03  0.00000000000E+00 0.  1.
<scales pt_clust_3="30.81748" pt_clust_4="43.75112" pt_clust_5="43.75112" pt_clust_6="183.59987"></scales>
<clustering>
<clus scale="   30.817">  3  6 -1 -1</clus>
<clus scale="   43.751">  4  5 -1 -1</clus>
<clus scale="  183.600">  2  3  1 -1</clus>
<clus scale="  188.119">  1  3  2 -1</clus>
</clustering>
</event>
<event>
 6    0  0.2666600E+002  0.1346940E+03  0.7546771E-02  0.1220652E+00
         21   -1    0    0  506  501  0.00000000000E+00  0.00000000000E+00  0.21301878915E+03  0.21301878915E+03  0.00000000000E+00 0.  1.
         21   -1    0    0  503  502 -0.00000000000E+00 -0.00000000000E+00 -0.37404978411E+03  0.37404978411E+03  0.00000000000E+00 0. -1.
         21    1    1    2  503  501 -0.24993565684E+02 -0.35319022036E+02  0.39314423122E+02  0.58461401870E+02  0.00000000000E+00 0.  1.
         21    1    1    2  504  505 -0.90154937465E+02  0.26179231193E+02 -0.19944044256E+03  0.22043083955E+03  0.00000000000E+00 0. -1.
         21    1    1    2  505  502 -0.20308886107E+02  0.32855151151E+02 -0.12012048042E+03  0.12617781749E+03  0.00000000000E+00 0. -1.
         21    1    1    2  506  504  0.13545738926E+03 -0.23715360308E+02  0.11921550490E+03  0.18199851435E+03  0.00000000000E+00 0.  1.
<scales pt_clust_3="43.26791" pt_clust_4="30.96910" pt_clust_5="30.96910" pt_clust_6="125.74339"></scales>
<clustering>
<clus scale="   30.969">  4  5 -1 -1</clus>
<clus scale="   43.268">  1  3  2 -1</clus>
<clus scale="  125.743">  1  6  2 -1</clus>
<clus scale="   43.268">  1  3  2 -1</clus>
</clustering>
</event>
<event>
 6    0  0.2666600E+002  0.2811760E+03  0.7546771E-02  0.1095048E+00
         21   -1    0    0  506  501  0.00000000000E+00  0.00000000000E+00  0.44733671289E+03  0.44733671289E+03  0.00000000000E+00 0.  1.
         21   -1    0    0  504  502 -0.00000000000E+00 -0.00000000000E+00 -0.33435025000E+03  0.33435025000E+03  0.00000000000E+00 0.  1.
         21    1    1    2  503  501  0.43425681899E+02 -0.94155880616E+02  0.99651754868E+02  0.14381095908E+03  0.00000000000E+00 0.  1.
         21    1    1    2  504  503  0.12787046982E+03 -0.12095380855E+03  0.22526910238E+03  0.28587908168E+03  0.00000000000E+00 0.  1.
         21    1    1    2  505  502 -0.45396181794E+02  0.57000894235E+02 -0.90574657413E+02  0.11624837130E+03  0.00000000000E+00 0. -1.
         21    1    1    2  506  505 -0.12589996993E+03  0.15810879493E+03 -0.12135973696E+03  0.23574855082E+03  0.00000000000E+00 0.  1.
<scales pt_clust_3="45.05175" pt_clust_4="45.05175" pt_clust_5="34.86274" pt_clust_6="281.04385"></scales>
<clustering>
<clus scale="   34.863">  5  6 -1 -1</clus>
<clus scale="   45.052">  3  4 -1 -1</clus>
<clus scale="  281.044">  2  5  1 -1</clus>
<clus scale="  281.176">  1  3  2 -1</clus>
</clustering>
</event>
<event>
 6    0  0.2666600E+002  0.2168415E+03  0.7546771E-02  0.1136260E+00
         21   -1    0    0  506  501  0.00000000000E+00  0.00000000000E+00  0.47022902642E+03  0.47022902642E+03  0.00000000000E+00 0.  1.
         21   -1    0    0  504  502 -0.00000000000E+00 -0.00000000000E+00 -0.43173374474E+03  0.43173374474E+03  0.00000000000E+00 0.  1.
         21    1    1    2  503  502 -0.62102947167E+02 -0.21026262118E+03 -0.30208127512E+03  0.37325626946E+03  0.00000000000E+00 0.  1.
         21    1    1    2  504  505  0.87481641047E+02  0.18898194162E+03  0.84297761237E+02  0.22466269011E+03  0.00000000000E+00 0.  1.
         21    1    1    2  505  501  0.38031311885E+02  0.59706232235E+02  0.19630946130E+03  0.20868305980E+03  0.00000000000E+00 0.  1.
         21    1    1    2  506  503 -0.63410005765E+02 -0.38425552678E+02  0.59969334257E+02  0.95360751785E+02  0.00000000000E+00 0.  1.
<scales pt_clust_3="216.84146" pt_clust_4="14000.00000" pt_clust_5="70.78993" pt_clust_6="56.47014"></scales>
<clustering>
<clus scale="   70.790">  1  5  2 -1</clus>
<clus scale="   56.470">  1  6  2 -1</clus>
<clus scale="  216.841">  2  3  1 -1</clus>
<clus scale="   70.790">  1  3  2 -1</clus>
</clustering>
</event>
<event>
 6    0  0.2666600E+002  0.8180955E+02  0.7546771E-02  0.1323993E+00
         21   -1    0    0  505  501  0.00000000000E+00  0.00000000000E+00  0.66355412972E+03  0.66355412972E+03  0.00000000000E+00 0.  1.
         21   -1    0    0  503  502 -0.00000000000E+00 -0.00000000000E+00 -0.27029774377E+03  0.27029774377E+03  0.00000000000E+00 0.  1.
         21    1    1    2  503  504  0.60471020666E+02 -0.87057601306E+01  0.11903071611E+03  0.13379404314E+03  0.00000000000E+00 0. -1.
         21    1    1    2  504  501 -0.94318557193E+02 -0.11220304388E+02  0.51104056559E+03  0.51979259819E+03  0.00000000000E+00 0.  1.
         21    1    1    2  505  506  0.70053464341E+02  0.29977053399E+02 -0.53413843800E+02  0.93054555537E+02  0.00000000000E+00 0.  1.
         21    1    1    2  506  502 -0.36205927814E+02 -0.10050988880E+02 -0.18340105195E+03  0.18721067663E+03  0.00000000000E+00 0.  1.
<scales pt_clust_3="14000.00000" pt_clust_4="81.80955" pt_clust_5="44.31929" pt_clust_6="37.57515"></scales>
<clustering>
<clus scale="   37.575">  2  6  1 -1</clus>
<clus scale="   44.319">  2  5  1 -1</clus>
<clus scale="   81.810">  1  4  2 -1</clus>
<clus scale="   81.810">  1  3  2 -1</clus>
</clustering>
</event>
<event>
 6    0  0.2666600E+002  0.1548217E+03  0.7546771E-02  0.1194670E+00
         21   -1    0    0  503  501  0.00000000000E+00  0.00000000000E+00  0.11636638117E+04  0.11636638117E+04  0.00000000000E+00 0.  1.
         21   -1    0    0  504  502 -0.00000000000E+00 -0.00000000000E+00 -0.27538639216E+03  0.27538639216E+03  0.00000000000E+00 0.  1.
         21    1    1    2  503  505  0.62106139033E+02  0.15605647648E+03 -0.18926072580E+03  0.25304232588E+03  0.00000000000E+00 0.  1.
         21    1    1    2  504  506 -0.29867580690E+02 -0.93811722342E+02  0.54631326693E+03  0.55511340935E+03  0.00000000000E+00 0. -1.
         21    1    1    2  505  502 -0.24409271840E+02 -0.17849648961E+02 -0.44283483460E+02  0.53623217240E+02  0.00000000000E+00 0.  1.
         21    1    1    2  506  501 -0.78292865029E+01 -0.44395105182E+02  0.57550836190E+03  0.57727125141E+03  0.00000000000E+00 0.  1.
<scales pt_clust_3="143.80781" pt_clust_4="38.75093" pt_clust_5="30.23942" pt_clust_6="38.75093"></scales>
<clustering>
<clus scale="   30.239">  2  5  1 -1</clus>
<clus scale="   38.751">  4  6 -1 -1</clus>
<clus scale="  143.808">  2  3  1 -1</clus>
<clus scale="  154.822">  1  3  2 -1</clus>
</clustering>
</event>
<event>
 6    0  0.2666600E+002  0.1044332E+03  0.7546771E-02  0.1271240E+00
         21   -1    0    0  506  501  0.00000000000E+00  0.00000000000E+00  0.51253868313E+03  0.51253868313E+03  0.00000000000E+00 0.  1.
         21   -1    0    0  503  502 -0.00000000000E+00 -0.00000000000E+00 -0.12243335529E+04  0.12243335529E+04  0.00000000000E+00 0. -1.
         21    1    1    2  503  505 -0.52467988853E+01 -0.80337353762E+02 -0.11560819672E+04  0.11588818465E+04  0.00000000000E+00 0. -1.
         21    1    1    2  504  501 -0.79802806531E+02  0.68817954185E+02  0.26962370041E+03  0.28948460853E+03  0.00000000000E+00 0.  1.
         21    1    1    2  505  504  0.11590850013E+03 -0.94064965262E+01  0.20812340901E+03  0.23840850647E+03  0.00000000000E+00 0.  1.
         21    1    1    2  506  502 -0.30858894716E+02  0.20925896103E+02 -0.33460011995E+02  0.50097274512E+02  0.00000000000E+00 0.  1.
<scales pt_clust_3="69.56608" pt_clust_4="104.43322" pt_clust_5="14000.00000" pt_clust_6="37.28491"></scales>
<clustering>
<clus scale="   37.285">  2  6  1 -1</clus>
<clus scale="   69.566">  2  3  1 -1</clus>
<clus scale="  104.433">  1  4  2 -1</clus>
<clus scale="  104.433">  1  3  2 -1</clus>
</clustering>
</event>
<event>
 6    0  0.2666600E+002  0.2064978E+03  0.7546771E-02  0.1144370E+00
         21   -1    0    0  503  501  0.00000000000E+00  0.00000000000E+00  0.49716581422E+03  0.49716581422E+03  0.00000000000E+00 0.  1.
         21   -1    0    0  506  502 -0.00000000000E+00 -0.00000000000E+00 -0.29309536477E+03  0.29309536477E+03  0.00000000000E+00 0.  1.
         21    1    1    2  503  502  0.11040702042E+03  0.11808040259E+03  0.60647085915E+02  0.17265792962E+03  0.00000000000E+00 0.  1.
         21    1    1    2  504  505 -0.60888363867E+02  0.81367570244E+02  0.44110260210E+02  0.11078713552E+03  0.00000000000E+00 0.  1.
         21    1    1    2  505  501 -0.55073016328E+02  0.67279014394E+02  0.20280842648E+03  0.22065983041E+03  0.00000000000E+00 0.  1.
         21    1    1    2  506  504  0.55543597769E+01 -0.26672698722E+03 -0.10349532316E+03  0.28615628342E+03  0.00000000000E+00 0.  1.
<scales pt_clust_3="206.49776" pt_clust_4="125.20065" pt_clust_5="86.94540" pt_clust_6="14000.00000"></scales>
<clustering>
<clus scale="   86.945">  1  5  2 -1</clus>
<clus scale="  125.201">  1  4  2 -1</clus>
<clus scale="  206.498">  1  3  2 -1</clus>
<clus scale="   86.945">  1  3  2 -1</clus>
</clustering>
</event>
<event>
 6    0  0.2666600E+002  0.1158626E+03  0.7546771E-02  0.1250083E+00
         21   -1    0    0  503  501  0.00000000000E+00  0.00000000000E+00  0.31300709535E+03  0.31300709535E+03  0.00000000000E+00 0.  1.
         21   -1    0    0  504  502 -0.00000000000E+00 -0.00000000000E+00 -0.59605723464E+03  0.59605723464E+03  0.00000000000E+00 0. -1.
         21    1    1    2  503  506  0.32561761018E+02  0.78467602726E+02  0.17794560517E+03  0.19718537309E+03  0.00000000000E+00 0.  1.
         21    1    1    2  504  505 -0.18902250520E+02 -0.42412486455E+02 -0.50614810339E+02  0.68687503286E+02  0.00000000000E+00 0.  1.
         21    1    1    2  505  501 -0.49305295001E+02  0.41426100234E+02  0.10370810834E+03  0.12207581919E+03  0.00000000000E+00 0.  1.
         21    1    1    2  506  502  0.35645784504E+02 -0.77481216504E+02 -0.51408904246E+03  0.52111563442E+03  0.00000000000E+00 0. -1.
<scales pt_clust_3="14000.00000" pt_clust_4="46.43398" pt_clust_5="64.18346" pt_clust_6="115.86263"></scales>
<clustering>
<clus scale="   46.434">  2  4  1 -1</clus>
<clus scale="   64.183">  1  5  2 -1</clus>
<clus scale="  115.863">  2  6  1 -1</clus>
<clus scale="   64.183">  1  3  2 -1</clus>
</clustering>
</event>
<event>
 6    0  0.2666600E+002  0.8425847E+02  0.7546771E-02  0.1317383E+00
         21   -1    0    0  506  501  0.00000000000E+00  0.00000000000E+00  0.32419316823E+03  0.32419316823E+03  0.00000000000E+00 0. -1.
         21   -1    0    0  505  502 -0.00000000000E+00 -0.00000000000E+00 -0.10363003466E+04  0.10363003466E+04  0.00000000000E+00 0.  1.
         21    1    1    2  503  501 -0.11544644961E+02  0.29753191026E+02  0.25240234306E+03  0.25441201620E+03  0.00000000000E+00 0. -1.
         21    1    1    2  504  502  0.66847470517E+02  0.35219174405E+02 -0.21037507970E+03  0.22353220958E+03  0.00000000000E+00 0. -1.
         21    1    1    2  505  503 -0.72463390261E+02 -0.12271005058E+03 -0.79634618892E+03  0.80899688013E+03  0.00000000000E+00 0.  1.
         21    1    1    2  506  504  0.17160564704E+02  0.57737685153E+02  0.42211747149E+02  0.73552408970E+02  0.00000000000E+00 0. -1.
<scales pt_clust_3="31.91444" pt_clust_4="75.95460" pt_clust_5="84.25847" pt_clust_6="14000.00000"></scales>
<clustering>
<clus scale="   31.914">  1  3  2 -1</clus>
<clus scale="   75.955">  2  4  1 -1</clus>
<clus scale="   84.258">  2  5  1 -1</clus>
<clus scale="   31.914">  1  3  2 -1</clus>
</clustering>
</event>
<event>
 6    0  0.2666600E+002  0.1894442E+03  0.7546771E-02  0.1158964E+00
         21   -1    0    0  504  501  0.00000000000E+00  0.00000000000E+00  0.88880101351E+02  0.88880101351E+02  0.00000000000E+00 0. -1.
         21   -1    0    0  503  502 -0.00000000000E+00 -0.00000000000E+00 -0.58916229998E+03  0.58916229998E+03  0.00000000000E+00 0. -1.
         21    1    1    2  503  501  0.27864995552E+02 -0.31423176557E+02 -0.53070981080E+02  0.67678674889E+02  0.00000000000E+00 0. -1.
         21    1    1    2  504  506 -0.79012730832E+02 -0.19778787702E+02 -0.14277704304E+02  0.82692592877E+02  0.00000000000E+00 0. -1.
         21    1    1    2  505  502  0.14927883031E+03  0.91955735727E+02 -0.35487585893E+03  0.39582433195E+03  0.00000000000E+00 0. -1.
         21    1    1    2  506  505 -0.98131095025E+02 -0.40753771469E+02 -0.78057654318E+02  0.13184680162E+03  0.00000000000E+00 0. -1.
<scales pt_clust_3="41.99850" pt_clust_4="43.43982" pt_clust_5="182.84394" pt_clust_6="43.43982"></scales>
<clustering>
<clus scale="   41.998">  2  3  1 -1</clus>
<clus scale="   43.440">  4  6 -1 -1</clus>
<clus scale="  182.844">  2  5  1 -1</clus>
<clus scale="  189.444">  1  3  2 -1</clus>
</clustering>
</event>
<event>
 6    0  0.2666600E+002  0.7886887E+02  0.7546771E-02  0.1332292E+00
         21   -1    0    0  504  501  0.00000000000E+00  0.00000000000E+00  0.14700176419E+03  0.14700176419E+03  0.00000000000E+00 0.  1.
         21   -1    0    0  506  502 -0.00000000000E+00 -0.00000000000E+00 -0.20650100383E+03  0.20650100383E+03  0.00000000000E+00 0. -1.
         21    1    1    2  503  502 -0.20629702204E+02 -0.60691899611E+02 -0.81224642072E+02  0.10347238168E+03  0.00000000000E+00 0. -1.
         21    1    1    2  504  505  0.50554766050E+02  0.45530448728E+02  0.84031701740E+02  0.10812091855E+03  0.00000000000E+00 0.  1.
         21    1    1    2  505  503 -0.42800192869E+02 -0.44100664056E+02 -0.51773842457E+02  0.80357052227E+02  0.00000000000E+00 0. -1.
         21    1    1    2  506  501  0.12875129023E+02  0.59262114938E+02 -0.10532456848E+02  0.61552415563E+02  0.00000000000E+00 0. -1.
<scales pt_clust_3="32.47172" pt_clust_4="71.55744" pt_clust_5="32.47172" pt_clust_6="60.64460"></scales>
<clustering>
<clus scale="   32.472">  3  5 -1 -1</clus>
<clus scale="   60.645">  2  6  1 -1</clus>
<clus scale="   71.557">  1  4  2 -1</clus>
<clus scale="   71.557">  1  3  2 -1</clus>
</clustering>
</event>
<event>
 6    0  0.2666600E+002  0.1420968E+03  0.7546771E-02  0.1210535E+00
         21   -1    0    0  503  501  0.00000000000E+00  0.00000000000E+00  0.74800400473E+03  0.74800400473E+03  0.00000000000E+00 0. -1.
         21   -1    0    0  504  502 -0.00000000000E+00 -0.00000000000E+00 -0.75773453073E+02  0.75773453073E+02  0.00000000000E+00 0. -1.
         21    1    1    2  503  502 -0.13349023063E+03  0.19579440678E+02  0.33394913202E+03  0.36017359557E+03  0.00000000000E+00 0. -1.
         21    1    1    2  504  505  0.14429858079E+03 -0.19533112283E-01  0.35133121465E+02  0.14851402972E+03  0.00000000000E+00 0. -1.
         21    1    1    2  505  506  0.18498166364E+02 -0.36954164770E+02  0.87532656790E+02  0.96797512662E+02  0.00000000000E+00 0. -1.
         21    1    1    2  506  501 -0.29306516529E+02  0.17394257204E+02  0.21561564138E+03  0.21829231984E+03  0.00000000000E+00 0. -1.
<scales pt_clust_3="142.09676" pt_clust_4="14000.00000" pt_clust_5="36.48956" pt_clust_6="34.07979"></scales>
<clustering>
<clus scale="   34.080">  1  6  2 -1</clus>
<clus scale="   36.490">  1  5  2 -1</clus>
<clus scale="  142.097">  1  3  2 -1</clus>
<clus scale="   34.080">  1  3  2 -1</clus>
</clustering>
</event>
<event>
 6    0  0.2666600E+002  0.1342710E+03  0.7546771E-02  0.1221252E+00
         21   -1    0    0  506  501  0.00000000000E+00  0.00000000000E+00  0.25177892973E+03  0.25177892973E+03  0.00000000000E+00 0.  1.
         21   -1    0    0  504  502 -0.00000000000E+00 -0.00000000000E+00 -0.20826384145E+03  0.20826384145E+03  0.00000000000E+00 0.  1.
         21    1    1    2  503  502 -0.44241811960E+02  0.12353475194E+03 -0.10550021813E+03  0.16837003560E+03  0.00000000000E+00 0.  1.
         21    1    1    2  504  505  0.35505183740E+02  0.32623920664E+02 -0.85920639958E+01  0.48977156263E+02  0.00000000000E+00 0.  1.
         21    1    1    2  505  501  0.42449853782E+02 -0.91541361215E+02  0.13044050481E+03  0.16491372349E+03  0.00000000000E+00 0.  1.
         21    1    1    2  506  503 -0.33713225563E+02 -0.64617311390E+02  0.27166865602E+02  0.77781855826E+02  0.00000000000E+00 0.  1.
<scales pt_clust_3="14000.00000" pt_clust_4="48.21761" pt_clust_5="134.27100" pt_clust_6="66.52926"></scales>
<clustering>
<clus scale="   48.218">  2  4  1 -1</clus>
<clus scale="   66.529">  1  6  2 -1</clus>
<clus scale="  134.271">  1  5  2 -1</clus>
<clus scale="   66.529">  1  3  2 -1</clus>
</clustering>
</event>
<event>
 6    0  0.2666600E+002  0.1798113E+03  0.7546771E-02  0.1167986E+00
         21   -1    0    0  506  501  0.00000000000E+00  0.00000000000E+00  0.10185078487E+04  0.10185078487E+04  0.00000000000E+00 0. -1.
         21   -1    0    0  505  502 -0.00000000000E+00 -0.00000000000E+00 -0.44054905276E+03  0.44054905276E+03  0.00000000000E+00 0.  1.
         21    1    1    2  503  501  0.25679535711E+01 -0.95925767992E+02  0.54024019939E+03  0.54869647383E+03  0.00000000000E+00 0. -1.
         21    1    1    2  504  502  0.51690897683E+02 -0.95453120449E+01 -0.24547667525E+03  0.25104155030E+03  0.00000000000E+00 0.  1.
         21    1    1    2  505  503 -0.43977614248E+02 -0.71252550836E+02  0.42458471502E+03  0.43276221738E+03  0.00000000000E+00 0. -1.
         21    1    1    2  506  504 -0.10281237006E+02  0.17672363087E+03 -0.14138944319E+03  0.22655665999E+03  0.00000000000E+00 0. -1.
<scales pt_clust_3="48.63393" pt_clust_4="52.56484" pt_clust_5="48.63393" pt_clust_6="172.10868"></scales>
<clustering>
<clus scale="   48.634">  3  5 -1 -1</clus>
<clus scale="   52.565">  2  4  1 -1</clus>
<clus scale="  172.109">  2  6  1 -1</clus>
<clus scale="  179.811">  1  3  2 -1</clus>
</clustering>
</event>
<event>
 6    0  0.2666600E+002  0.1314411E+03  0.7546771E-02  0.1225333E+00
         21   -1    0    0  503  501  0.00000000000E+00  0.00000000000E+00  0.56901914484E+02  0.56901914484E+02  0.00000000000E+00 0.  1.
         21   -1    0    0  505  502 -0.00000000000E+00 -0.00000000000E+00 -0.53355735278E+03  0.53355735278E+03  0.00000000000E+00 0.  1.
         21    1    1    2  503  504 -0.35628919239E+02 -0.40753529132E+02 -0.48248527407E+02  0.72513380971E+02  0.00000000000E+00 0.  1.
         21    1    1    2  504  502 -0.80444203331E+02 -0.19241433147E+02 -0.15711522818E+03  0.17755758932E+03  0.00000000000E+00 0.  1.
         21    1    1    2  505  506  0.48433007751E+01  0.34510354118E+02 -0.20598114203E+03  0.20890824056E+03  0.00000000000E+00 0.  1.
         21    1    1    2  506  501  0.11122982180E+03  0.25484608162E+02 -0.65310540681E+02  0.13148005641E+03  0.00000000000E+00 0.  1.
<scales pt_clust_3="45.39616" pt_clust_4="45.39616" pt_clust_5="34.84856" pt_clust_6="118.27045"></scales>
<clustering>
<clus scale="   34.849">  2  5  1 -1</clus>
<clus scale="   45.396">  3  4 -1 -1</clus>
<clus scale="  118.270">  1  6  2 -1</clus>
<clus scale="  118.270">  1  3  2 -1</clus>
</clustering>
</event>
<event>
 6    0  0.2666600E+002  0.1236326E+03  0.7546771E-02  0.1237222E+00
         21   -1    0    0  503  501  0.00000000000E+00  0.00000000000E+00  0.63891842467E+03  0.63891842467E+03  0.00000000000E+00 0.  1.
         21   -1    0    0  506  502 -0.00000000000E+00 -0.00000000000E+00 -0.34605598430E+03  0.34605598430E+03  0.00000000000E+00 0. -1.
         21    1    1    2  503  505 -0.12847189627E+02 -0.17149387184E+03  0.51505308513E+03  0.54300541329E+03  0.00000000000E+00 0.  1.
         21    1    1    2  504  501 -0.10286046878E+01  0.56067325301E+02  0.35501207309E+02  0.66369712327E+02  0.00000000000E+00 0. -1.
         21    1    1    2  505  502  0.12897838794E+03  0.38170106993E+02 -0.12125520515E+03  0.18109446816E+03  0.00000000000E+00 0. -1.
         21    1    1    2  506  504 -0.11510259362E+03  0.77256439543E+02 -0.13643664692E+03  0.19450481519E+03  0.00000000000E+00 0. -1.
<scales pt_clust_3="121.82910" pt_clust_4="56.07676" pt_clust_5="14000.00000" pt_clust_6="123.63263"></scales>
<clustering>
<clus scale="   56.077">  1  4  2 -1</clus>
<clus scale="  121.829">  1  3  2 -1</clus>
<clus scale="  123.633">  2  6  1 -1</clus>
<clus scale="   56.077">  1  3  2 -1</clus>
</clustering>
</event>
<event>
 6    0  0.2666600E+002  0.8009630E+02  0.7546771E-02  0.1328778E+00
         21   -1    0    0  504  501  0.00000000000E+00  0.00000000000E+00  0.76336936883E+02  0.76336936883E+02  0.00000000000E+00 0.  1.
         21   -1    0    0  505  502 -0.00000000000E+00 -0.00000000000E+00 -0.83802904401E+03  0.83802904401E+03  0.00000000000E+00 0. -1.
         21    1    1    2  503  501  0.28315139444E+02  0.18195864062E+02  0.31354631047E+02  0.45999450853E+02  0.00000000000E+00 0.  1.
         21    1    1    2  504  502 -0.53830507260E+02 -0.12127192507E+03 -0.58402022212E+03  0.59890251558E+03  0.00000000000E+00 0. -1.
         21    1    1    2  505  506  0.15087470474E+02  0.63596959957E+02 -0.21805860610E+03  0.22764393420E+03  0.00000000000E+00 0. -1.
         21    1    1    2  506  503  0.10427897342E+02  0.39479101053E+02  0.90320900454E+01  0.41820080267E+02  0.00000000000E+00 0.  1.
<scales pt_clust_3="32.14716" pt_clust_4="71.84469" pt_clust_5="65.36211" pt_clust_6="32.14716"></scales>
<clustering>
<clus scale="   32.147">  3  6 -1 -1</clus>
<clus scale="   65.362">  2  5  1 -1</clus>
<clus scale="   71.845">  2  4  1 -1</clus>
<clus scale="   80.096">  1  3  2 -1</clus>
</clustering>
</event>
<event>
 6    0  0.2666600E+002  0.1141148E+03  0.7546771E-02  0.1253134E+00
         21   -1    0    0  503  501  0.00000000000E+00  0.00000000000E+00  0.15931676470E+02  0.15931676470E+02  0.00000000000E+00 0.  1.
         21   -1    0    0  505  502 -0.00000000000E+00 -0.00000000000E+00 -0.35152929119E+04  0.35152929119E+04  0.00000000000E+00 0.  1.
         21    1    1    2  503  502  0.11442048724E+03  0.27755726543E+01 -0.22402424122E+04  0.22431642421E+04  0.00000000000E+00 0.  1.
         21    1    1    2  504  501 -0.90769156503E+02  0.74948129232E+02 -0.31881320993E+03  0.33985015032E+03  0.00000000000E+00 0.  1.
         21    1    1    2  505  506 -0.35951708509E+02  0.69423781993E+01 -0.28715367052E+03  0.28947875994E+03  0.00000000000E+00 0.  1.
         21    1    1    2  506  504  0.12300377776E+02 -0.84666080085E+02 -0.65315194277E+03  0.65873143599E+03  0.00000000000E+00 0.  1.
<scales pt_clust_3="114.11484" pt_clust_4="14000.00000" pt_clust_5="36.61587" pt_clust_6="83.40447"></scales>
<clustering>
<clus scale="   36.616">  2  5  1 -1</clus>
<clus scale="   83.404">  2  6  1 -1</clus>
<clus scale="  114.115">  2  3  1 -1</clus>
<clus scale="  114.115">  1  3  2 -1</clus>
</clustering>
</event>
<event>
 6    0  0.2666600E+002  0.9755283E+02  0.7546771E-02  0.1285528E+00
         21   -1    0    0  505  501  0.00000000000E+00  0.00000000000E+00  0.50280266251E+03  0.50280266251E+03  0.00000000000E+00 0.  1.
         21   -1    0    0  506  502 -0.00000000000E+00 -0.00000000000E+00 -0.50155820230E+02  0.50155820230E+02  0.00000000000E+00 0.  1.
         21    1    1    2  503  502 -0.46092659555E+02 -0.21156736399E+02  0.91537431101E+02  0.10464818227E+03  0.00000000000E+00 0.  1.
         21    1    1    2  504  503 -0.25989298668E+02  0.16568421288E+02  0.43009299298E+02  0.52912721111E+02  0.00000000000E+00 0. -1.
         21    1    1    2  505  504 -0.28127034532E+01 -0.73255074519E+02  0.26514638940E+03  0.27509421124E+03  0.00000000000E+00 0.  1.
         21    1    1    2  506  501  0.74894661676E+02  0.77843389630E+02  0.52953722478E+02  0.12030336812E+03  0.00000000000E+00 0.  1.
<scales pt_clust_3="30.25027" pt_clust_4="30.25027" pt_clust_5="73.30905" pt_clust_6="89.50307"></scales>
<clustering>
<clus scale="   30.250">  3  4 -1 -1</clus>
<clus scale="   73.309">  1  5  2 -1</clus>
<clus scale="   89.503">  2  6  1 -1</clus>
<clus scale="   73.309">  1  3  2 -1</clus>
</clustering>
</event>
<event>
 6    0  0.2666600E+002  0.9735192E+02  0.7546771E-02  0.1285965E+00
         21   -1    0    0  503  501  0.00000000000E+00  0.00000000000E+00  0.10844877677E+03  0.10844877677E+03  0.00000000000E+00 0. -1.
         21   -1    0    0  504  502 -0.00000000000E+00 -0.00000000000E+00 -0.31386826520E+03  0.31386826520E+03  0.00000000000E+00 0. -1.
         21    1    1    2  503  502 -0.13189948541E+02 -0.42575109319E+02 -0.34013116946E+02  0.56066984941E+02  0.00000000000E+00 0. -1.
         21    1    1    2  504  505  0.58195018710E+02 -0.19205049129E+02 -0.14182476256E+03  0.15449840579E+03  0.00000000000E+00 0. -1.
         21    1    1    2  505  506  0.70776374604E+02  0.11729646035E+02 -0.44983806018E+02  0.84678347893E+02  0.00000000000E+00 0.  1.
         21    1    1    2  506  501 -0.11578144477E+03  0.50050512412E+02  0.15402197097E+02  0.12707330334E+03  0.00000000000E+00 0. -1.
<scales pt_clust_3="44.57146" pt_clust_4="66.43888" pt_clust_5="14000.00000" pt_clust_6="97.35192"></scales>
<clustering>
<clus scale="   44.571">  2  3  1 -1</clus>
<clus scale="   66.439">  2  4  1 -1</clus>
<clus scale="   97.352">  1  6  2 -1</clus>
<clus scale="   97.352">  1  3  2 -1</clus>
</clustering>
</event>
<event>
 6    0  0.2666600E+002  0.2069231E+03  0.7546771E-02  0.1144026E+00
         21   -1    0    0  506  501  0.00000000000E+00  0.00000000000E+00  0.48391972421E+03  0.48391972421E+03  0.00000000000E+00 0.  1.
         21   -1    0    0  501  502 -0.00000000000E+00 -0.00000000000E+00 -0.30408621550E+03  0.30408621550E+03  0.00000000000E+00 0. -1.
         21    1    1    2  503  505  0.71869322296E+02 -0.14546702578E+03  0.14113231455E+03  0.21504461232E+03  0.00000000000E+00 0.  1.
         21    1    1    2  504  502  0.22394307273E+02  0.48424071434E+02  0.10324278870E+02  0.54341387787E+02  0.00000000000E+00 0. -1.
         21    1    1    2  505  504 -0.67321623932E+02  0.18627305168E+03 -0.19415531356E+03  0.27735561399E+03  0.00000000000E+00 0. -1.
         21    1    1    2  506  503 -0.26942005637E+02 -0.89230097329E+02  0.22253222885E+03  0.24126432561E+03  0.00000000000E+00 0.  1.
<scales pt_clust_3="206.92308" pt_clust_4="53.35162" pt_clust_5="14000.00000" pt_clust_6="91.45498"></scales>
<clustering>
<clus scale="   53.352">  2  4  1 -1</clus>
<clus scale="   91.455">  1  6  2 -1</clus>
<clus scale="  206.923">  1  3  2 -1</clus>
<clus scale="   91.455">  1  3  2 -1</clus>
</clustering>
</event>
<event>
 6    0  0.2666600E+002  0.1247092E+03  0.7546771E-02  0.1235524E+00
         21   -1    0    0  504  501  0.00000000000E+00  0.00000000000E+00  0.64110503224E+02  0.64110503224E+02  0.00000000000E+00 0.  1.
         21   -1    0    0  506  502 -0.00000000000E+00 -0.00000000000E+00 -0.46119595295E+03  0.46119595295E+03  0.00000000000E+00 0. -1.
         21    1    1    2  503  501 -0.84579360024E+02  0.87154299319E+01 -0.26017714256E+03  0.27371841804E+03  0.00000000000E+00 0. -1.
         21    1    1    2  504  505  0.10847328419E+02  0.48146893807E+02 -0.21364046840E+02  0.53779274953E+02  0.00000000000E+00 0. -1.
         21    1    1    2  505  502  0.10315178798E+03 -0.29887164435E+02 -0.44355252236E+02  0.11619346954E+03  0.00000000000E+00 0.  1.
         21    1    1    2  506  503 -0.29419756376E+02 -0.26975159304E+02 -0.71189008088E+02  0.81615293648E+02  0.00000000000E+00 0. -1.
<scales pt_clust_3="38.32757" pt_clust_4="49.35370" pt_clust_5="111.45886" pt_clust_6="38.32757"></scales>
<clustering>
<clus scale="   38.328">  3  6 -1 -1</clus>
<clus scale="   49.354">  1  4  2 -1</clus>
<clus scale="  111.459">  1  5  2 -1</clus>
<clus scale="   49.354">  1  3  2 -1</clus>
</clustering>
</event>
<event>
 6    0  0.2666600E+002  0.1331383E+03  0.7546771E-02  0.1222872E+00
         21   -1    0    0  502  501  0.00000000000E+00  0.00000000000E+00  0.84205812490E+03  0.84205812490E+03  0.00000000000E+00 0.  1.
         21   -1    0    0  506  502 -0.00000000000E+00 -0.00000000000E+00 -0.28594516168E+02  0.28594516168E+02  0.00000000000E+00 0. -1.
         21    1    1    2  503  501 -0.56472908787E+02  0.23876915870E+02  0.37301252923E+03  0.37801804653E+03  0.00000000000E+00 0.  1.
         21    1    1    2  504  505  0.23625487580E+02 -0.53762437679E+02  0.83166798930E+02  0.10181001823E+03  0.00000000000E+00 0. -1.
         21    1    1    2  505  503 -0.30972994259E+02  0.61359705610E+02  0.26788414775E+03  0.27656148767E+03  0.00000000000E+00 0.  1.
         21    1    1    2  506  504  0.63820415466E+02 -0.31474183802E+02  0.89400132819E+02  0.11426308863E+03  0.00000000000E+00 0. -1.
<scales pt_clust_3="50.09957" pt_clust_4="40.58751" pt_clust_5="50.09957" pt_clust_6="130.03169"></scales>
<clustering>
<clus scale="   40.588">  4  6 -1 -1</clus>
<clus scale="   50.100">  3  5 -1 -1</clus>
<clus scale="  130.032">  2  4  1 -1</clus>
<clus scale="  133.138">  1  3  2 -1</clus>
</clustering>
</event>
<event>
 6    0  0.2666600E+002  0.1009940E+03  0.7546771E-02  0.1278219E+00
         21   -1    0    0  504  501  0.00000000000E+00  0.00000000000E+00  0.15626757837E+03  0.15626757837E+03  0.00000000000E+00 0.  1.
         21   -1    0    0  505  502 -0.00000000000E+00 -0.00000000000E+00 -0.45776819315E+03  0.45776819315E+03  0.00000000000E+00 0.  1.
         21    1    1    2  503  501  0.94643701931E+01  0.39191881889E+02  0.48252192713E+02  0.62879662935E+02  0.00000000000E+00 0. -1.
         21    1    1    2  504  502  0.38699558969E+02  0.21509927985E+02 -0.12724908459E+03  0.13473181657E+03  0.00000000000E+00 0.  1.
         21    1    1    2  505  506 -0.11058795295E+02 -0.10809234676E+03 -0.29955428812E+03  0.31865188515E+03  0.00000000000E+00 0.  1.
         21    1    1    2  506  503 -0.37105133867E+02  0.47390536882E+02  0.77050565217E+02  0.97772406872E+02  0.00000000000E+00 0.  1.
<scales pt_clust_3="35.18198" pt_clust_4="44.27565" pt_clust_5="91.38934" pt_clust_6="35.18198"></scales>
<clustering>
<clus scale="   35.182">  3  6 -1 -1</clus>
<clus scale="   44.276">  2  4  1 -1</clus>
<clus scale="   91.389">  2  5  1 -1</clus>
<clus scale="  100.994">  1  3  2 -1</clus>
</clustering>
</event>
<event>
 6    0  0.2666600E+002  0.9843058E+02  0.7546771E-02  0.1283631E+00
         21   -1    0    0  503  501  0.00000000000E+00  0.00000000000E+00  0.25453036082E+03  0.25453036082E+03  0.00000000000E+00 0.  1.
         21   -1    0    0  506  502 -0.00000000000E+00 -0.00000000000E+00 -0.14962903821E+04  0.14962903821E+04  0.00000000000E+00 0.  1.
         21    1    1    2  503  504  0.10551331364E+02 -0.70863420813E+02  0.48841502951E+01  0.71810931807E+02  0.00000000000E+00 0.  1.
         21    1    1    2  504  502  0.11264355899E+02  0.36960692342E+02 -0.78756319919E+02  0.87724206576E+02  0.00000000000E+00 0. -1.
         21    1    1    2  505  501 -0.49410617217E+02  0.99846064358E+02  0.19604178670E+03  0.22548398567E+03  0.00000000000E+00 0.  1.
         21    1    1    2  506  505  0.27594929954E+02 -0.65943335886E+02 -0.13639296384E+04  0.13658016189E+04  0.00000000000E+00 0.  1.
<scales pt_clust_3="98.43058" pt_clust_4="38.63908" pt_clust_5="14000.00000" pt_clust_6="48.93851"></scales>
<clustering>
<clus scale="   38.639">  2  4  1 -1</clus>
<clus scale="   48.939">  2  6  1 -1</clus>
<clus scale="   98.431">  2  3  1 -1</clus>
<clus scale="   98.431">  1  3  2 -1</clus>
</clustering>
</event>
<event>
 6    0  0.2666600E+002  0.9526089E+02  0.7546771E-02  0.1290590E+00
         21   -1    0    0  506  501  0.00000000000E+00  0.00000000000E+00  0.13854291597E+03  0.13854291597E+03  0.00000000000E+00 0. -1.
         21   -1    0    0  505  502 -0.00000000000E+00 -0.00000000000E+00 -0.61156405428E+03  0.61156405428E+03  0.00000000000E+00 0. -1.
         21    1    1    2  503  501  0.17165731168E+02 -0.64702681146E+02  0.10416758652E+03  0.12382239440E+03  0.00000000000E+00 0. -1.
         21    1    1    2  504  502 -0.50394786131E+02 -0.38919064489E+01 -0.35579060658E+03  0.35936296016E+03  0.00000000000E+00 0. -1.
         21    1    1    2  505  503  0.85363416188E+01  0.96291240927E+02 -0.20440221092E+03  0.22610868191E+03  0.00000000000E+00 0. -1.
         21    1    1    2  506  504  0.24692713344E+02 -0.27696653331E+02 -0.16995907320E+02  0.40812933779E+02  0.00000000000E+00 0.  1.
<scales pt_clust_3="14000.00000" pt_clust_4="50.22939" pt_clust_5="95.26089" pt_clust_6="37.10572"></scales>
<clustering>
<clus scale="   37.106">  1  6  2 -1</clus>
<clus scale="   50.229">  2  4  1 -1</clus>
<clus scale="   95.261">  2  5  1 -1</clus>
<clus scale="   37.106">  1  3  2 -1</clus>
</clustering>
</event>
<event>
 6    0  0.2666600E+002  0.1550309E+03  0.7546771E-02  0.1194424E+00
         21   -1    0    0  506  501  0.00000000000E+00  0.00000000000E+00  0.38616671622E+03  0.38616671622E+03  0.00000000000E+00 0.  1.
         21   -1    0    0  505  502 -0.00000000000E+00 -0.00000000000E+00 -0.97879285021E+02  0.97879285021E+02  0.00000000000E+00 0.  1.
         21    1    1    2  503  504 -0.77462742105E+02  0.49159075109E+02 -0.42123273506E+01  0.91841356598E+02  0.00000000000E+00 0.  1.
         21    1    1    2  504  502 -0.60669325110E+02 -0.14605141344E+02  0.18145764321E+02  0.64987275107E+02  0.00000000000E+00 0.  1.
         21    1    1    2  505  501  0.12336749906E+03 -0.67778787634E+02  0.23237033387E+03  0.27167899429E+03  0.00000000000E+00 0.  1.
         21    1    1    2  506  503  0.14764568160E+02  0.33224853870E+02  0.41983660356E+02  0.55538375242E+02  0.00000000000E+00 0.  1.
<scales pt_clust_3="51.62756" pt_clust_4="51.62756" pt_clust_5="141.09551" pt_clust_6="36.35771"></scales>
<clustering>
<clus scale="   36.358">  1  6  2 -1</clus>
<clus scale="   51.628">  3  4 -1 -1</clus>
<clus scale="  141.096">  1  5  2 -1</clus>
<clus scale="   36.358">  1  3  2 -1</clus>
</clustering>
</event>
<event>
 6    0  0.2666600E+002  0.2020907E+03  0.7546771E-02  0.1147987E+00
         21   -1    0    0  505  501  0.00000000000E+00  0.00000000000E+00  0.26352640079E+03  0.26352640079E+03  0.00000000000E+00 0.  1.
         21   -1    0    0  504  502 -0.00000000000E+00 -0.00000000000E+00 -0.26417046034E+03  0.26417046034E+03  0.00000000000E+00 0.  1.
         21    1    1    2  503  501 -0.38585938806E+02 -0.17919816707E+01  0.32026822377E+02  0.50177716403E+02  0.00000000000E+00 0. -1.
         21    1    1    2  504  503 -0.14625566050E+03  0.11556423483E+03 -0.13481573024E+03  0.23004584699E+03  0.00000000000E+00 0.  1.
         21    1    1    2  505  506  0.26419094215E+02 -0.44982574398E+02  0.30987545755E+02  0.60676424833E+02  0.00000000000E+00 0.  1.
         21    1    1    2  506  502  0.15842250509E+03 -0.68789678758E+02  0.71157302552E+02  0.18679687291E+03  0.00000000000E+00 0.  1.
<scales pt_clust_3="38.62753" pt_clust_4="192.72190" pt_clust_5="33.42515" pt_clust_6="33.42515"></scales>
<clustering>
<clus scale="   33.425">  5  6 -1 -1</clus>
<clus scale="   38.628">  1  3  2 -1</clus>
<clus scale="  192.722">  2  4  1 -1</clus>
<clus scale="   38.628">  1  3  2 -1</clus>
</clustering>
</event>
<event>
 6    0  0.2666600E+002  0.3010834E+03  0.7546771E-02  0.1084700E+00
         21   -1    0    0  505  501  0.00000000000E+00  0.00000000000E+00  0.68593740754E+03  0.68593740754E+03  0.00000000000E+00 0.  1.
         21   -1    0    0  504  502 -0.00000000000E+00 -0.00000000000E+00 -0.49012512327E+03  0.49012512327E+03  0.00000000000E+00 0. -1.
         21    1    1    2  503  506  0.22830091767E+02 -0.67962264669E+02  0.68984965627E+02  0.99493758555E+02  0.00000000000E+00 0. -1.
         21    1    1    2  504  503  0.37441678238E+02  0.12461506470E+03 -0.50917379300E+02  0.13972606462E+03  0.00000000000E+00 0. -1.
         21    1    1    2  505  502 -0.10945849960E+03  0.16492960945E+03 -0.32765973620E+03  0.38281045170E+03  0.00000000000E+00 0. -1.
         21    1    1    2  506  501  0.49186729595E+02 -0.22158240949E+03  0.50540443414E+03  0.55403225593E+03  0.00000000000E+00 0.  1.
<scales pt_clust_3="50.73941" pt_clust_4="130.11838" pt_clust_5="287.22933" pt_clust_6="50.73941"></scales>
<clustering>
<clus scale="   50.739">  3  6 -1 -1</clus>
<clus scale="  130.118">  2  4  1 -1</clus>
<clus scale="  287.229">  2  5  1 -1</clus>
<clus scale="  301.083">  1  3  2 -1</clus>
</clustering>
</event>
<event>
 6    0  0.2666600E+002  0.9198592E+02  0.7546771E-02  0.1298113E+00
         21   -1    0    0  505  501  0.00000000000E+00  0.00000000000E+00  0.66782954908E+02  0.66782954908E+02  0.00000000000E+00 0.  1.
         21   -1    0    0  503  502 -0.00000000000E+00 -0.00000000000E+00 -0.75542952625E+03  0.75542952625E+03  0.00000000000E+00 0.  1.
         21    1    1    2  503  504  0.15970702232E+02 -0.38096667724E+02 -0.18627665478E+03  0.19080202184E+03  0.00000000000E+00 0.  1.
         21    1    1    2  504  501  0.10852630528E+03  0.31940934485E+02 -0.39353647122E+02  0.11977851133E+03  0.00000000000E+00 0.  1.
         21    1    1    2  505  506 -0.77420579389E+02  0.10927996058E+02 -0.43536482593E+02  0.89491857324E+02  0.00000000000E+00 0.  1.
         21    1    1    2  506  502 -0.47076428124E+02 -0.47722628188E+01 -0.41947978685E+03  0.42214009067E+03  0.00000000000E+00 0.  1.
<scales pt_clust_3="41.30883" pt_clust_4="14000.00000" pt_clust_5="91.98592" pt_clust_6="48.30072"></scales>
<clustering>
<clus scale="   41.309">  2  3  1 -1</clus>
<clus scale="   48.301">  2  6  1 -1</clus>
<clus scale="   91.986">  1  5  2 -1</clus>
<clus scale="   91.986">  1  3  2 -1</clus>
</clustering>
</event>
<event>
 6    0  0.2666600E+002  0.8631093E+02  0.7546771E-02  0.1312039E+00
         21   -1    0    0  505  501  0.00000000000E+00  0.00000000000E+00  0.93627243619E+02  0.93627243619E+02  0.00000000000E+00 0.  1.
         21   -1    0    0  504  502 -0.00000000000E+00 -0.00000000000E+00 -0.38320064151E+03  0.38320064151E+03  0.00000000000E+00 0.  1.
         21    1    1    2  503  502 -0.27236092655E+01  0.62814567486E+02 -0.91000977820E+02  0.11060861585E+03  0.00000000000E+00 0.  1.
         21    1    1    2  504  506 -0.17004338873E+02  0.47741775623E+02 -0.21811877085E+03  0.22392905769E+03  0.00000000000E+00 0.  1.
         21    1    1    2  505  503  0.52449651865E+02 -0.74505493647E+02  0.21300483184E+02  0.93572138739E+02  0.00000000000E+00 0.  1.
         21    1    1    2  506  501 -0.32721703727E+02 -0.36050849461E+02 -0.17541324024E+01  0.48718072850E+02  0.00000000000E+00 0.  1.
<scales pt_clust_3="14000.00000" pt_clust_4="49.75956" pt_clust_5="86.31093" pt_clust_6="48.68648"></scales>
<clustering>
<clus scale="   48.686">  1  6  2 -1</clus>
<clus scale="   49.760">  2  4  1 -1</clus>
<clus scale="   86.311">  1  5  2 -1</clus>
<clus scale="   48.686">  1  3  2 -1</clus>
</clustering>
</event>
<event>
 6    0  0.2666600E+002  0.2435037E+03  0.7546771E-02  0.1117481E+00
         21   -1    0    0  505  501  0.00000000000E+00  0.00000000000E+00  0.10987159462E+03  0.10987159462E+03  0.00000000000E+00 0. -1.
         21   -1    0    0  503  502 -0.00000000000E+00 -0.00000000000E+00 -0.70662118062E+03  0.70662118062E+03  0.00000000000E+00 0. -1.
         21    1    1    2  503  504 -0.28798701688E+02 -0.98700395905E+02 -0.93401116235E+01  0.10323938713E+03  0.00000000000E+00 0. -1.
         21    1    1    2  504  501 -0.97963915172E+01 -0.11913505549E+03 -0.63126122027E+02  0.13518150027E+03  0.00000000000E+00 0. -1.
         21    1    1    2  505  506  0.48730951538E+02  0.14939675088E+03 -0.25072623668E+03  0.29590157243E+03  0.00000000000E+00 0. -1.
         21    1    1    2  506  502 -0.10135858332E+02  0.68438700521E+02 -0.27355711567E+03  0.28217031539E+03  0.00000000000E+00 0. -1.
<scales pt_clust_3="47.75384" pt_clust_4="227.14129" pt_clust_5="67.51104" pt_clust_6="67.51104"></scales>
<clustering>
<clus scale="   47.754">  3  4 -1 -1</clus>
<clus scale="   67.511">  5  6 -1 -1</clus>
<clus scale="  227.141">  1  3  2 -1</clus>
<clus scale="  227.141">  1  3  2 -1</clus>
</clustering>
</event>
<event>
 6    0  0.2666600E+002  0.1025182E+03  0.7546771E-02  0.1275088E+00
         21   -1    0    0  503  501  0.00000000000E+00  0.00000000000E+00  0.42700587546E+03  0.42700587546E+03  0.00000000000E+00 0.  1.
         21   -1    0    0  504  502 -0.00000000000E+00 -0.00000000000E+00 -0.33589525011E+03  0.33589525011E+03  0.00000000000E+00 0. -1.
         21    1    1    2  503  505 -0.10587855793E+03  0.56825012320E+02  0.28776725431E+03  0.31184827033E+03  0.00000000000E+00 0.  1.
         21    1    1    2  504  506  0.76801972678E+02 -0.45159981272E+02 -0.84889190522E+02  0.12306153576E+03  0.00000000000E+00 0. -1.
         21    1    1    2  505  502  0.30352997336E+02  0.50382468337E+02 -0.20651485889E+03  0.21472793136E+03  0.00000000000E+00 0. -1.
         21    1    1    2  506  501 -0.12764120860E+01 -0.62047499385E+02  0.94747420452E+02  0.11326338813E+03  0.00000000000E+00 0. -1.
<scales pt_clust_3="102.51818" pt_clust_4="14000.00000" pt_clust_5="58.81919" pt_clust_6="58.33215"></scales>
<clustering>
<clus scale="   58.819">  2  5  1 -1</clus>
<clus scale="   58.332">  1  6  2 -1</clus>
<clus scale="  102.518">  1  3  2 -1</clus>
<clus scale="   58.332">  1  3  2 -1</clus>
</clustering>
</event>
<event>
 6    0  0.2666600E+002  0.5852189E+02  0.7546771E-02  0.1404141E+00
         21   -1    0    0  504  501  0.00000000000E+00  0.00000000000E+00  0.23592535736E+04  0.23592535736E+04  0.00000000000E+00 0. -1.
         21   -1    0    0  506  502 -0.00000000000E+00 -0.00000000000E+00 -0.29498234078E+02  0.29498234078E+02  0.00000000000E+00 0.  1.
         21    1    1    2  503  505  0.68442645326E+02  0.45344150971E+02  0.10222408809E+04  0.10255324989E+04  0.00000000000E+00 0.  1.
         21    1    1    2  504  502 -0.48946171666E+02  0.32250973089E+02  0.19134200302E+02  0.61660121693E+02  0.00000000000E+00 0.  1.
         21    1    1    2  505  501 -0.36451918303E+02 -0.42982114197E+01  0.10691430646E+04  0.10697729243E+04  0.00000000000E+00 0. -1.
         21    1    1    2  506  503  0.16955444644E+02 -0.73296912640E+02  0.21923719371E+03  0.23178626277E+03  0.00000000000E+00 0. -1.
<scales pt_clust_3="57.61081" pt_clust_4="58.52189" pt_clust_5="36.70445" pt_clust_6="14000.00000"></scales>
<clustering>
<clus scale="   36.704">  1  5  2 -1</clus>
<clus scale="   57.611">  1  3  2 -1</clus>
<clus scale="   58.522">  2  4  1 -1</clus>
<clus scale="   36.704">  1  3  2 -1</clus>
</clustering>
</event>
<event>
 6    0  0.2666600E+002  0.7967160E+02  0.7546771E-02  0.1329986E+00
         21   -1    0    0  503  501  0.00000000000E+00  0.00000000000E+00  0.40894278173E+02  0.40894278173E+02  0.00000000000E+00 0. -1.
         21   -1    0    0  506  502 -0.00000000000E+00 -0.00000000000E+00 -0.99695187067E+03  0.99695187067E+03  0.00000000000E+00 0. -1.
         21    1    1    2  503  505 -0.44069618207E+02  0.13748784901E+02 -0.31805849156E+02  0.56060435029E+02  0.00000000000E+00 0. -1.
         21    1    1    2  504  501  0.12694790862E+03  0.48314846773E+02 -0.55901723401E+03  0.57528285551E+03  0.00000000000E+00 0. -1.
         21    1    1    2  505  502 -0.28010913734E+02 -0.49876251617E+02 -0.26335219591E+02  0.62974562757E+02  0.00000000000E+00 0. -1.
         21    1    1    2  506  504 -0.54867376678E+02 -0.12187380057E+02 -0.33889928974E+03  0.34352829554E+03  0.00000000000E+00 0. -1.
<scales pt_clust_3="46.16449" pt_clust_4="79.67160" pt_clust_5="14000.00000" pt_clust_6="59.45487"></scales>
<clustering>
<clus scale="   46.164">  1  3  2 -1</clus>
<clus scale="   59.455">  2  6  1 -1</clus>
<clus scale="   79.672">  2  4  1 -1</clus>
<clus scale="   46.164">  1  3  2 -1</clus>
</clustering>
</event>
<event>
 6    0  0.2666600E+002  0.6978557E+02  0.7546771E-02  0.1360824E+00
         21   -1    0    0  503  501  0.00000000000E+00  0.00000000000E+00  0.20930781645E+03  0.20930781645E+03  0.00000000000E+00 0.  1.
         21   -1    0    0  506  502 -0.00000000000E+00 -0.00000000000E+00 -0.97885995051E+02  0.97885995051E+02  0.00000000000E+00 0.  1.
         21    1    1    2  503  505  0.28494607638E+02  0.28079317576E+02  0.70745211374E+02  0.81272847079E+02  0.00000000000E+00 0.  1.
         21    1    1    2  504  502 -0.56499725145E+02  0.78187394602E+02  0.28620060495E+02  0.10062104889E+03  0.00000000000E+00 0.  1.
         21    1    1    2  505  504 -0.79972448414E+01 -0.58490594394E+02  0.24971894524E+02  0.64099150335E+02  0.00000000000E+00 0.  1.
         21    1    1    2  506  501  0.36002362348E+02 -0.47776117785E+02 -0.12915344992E+02  0.61200765204E+02  0.00000000000E+00 0.  1.
<scales pt_clust_3="40.00488" pt_clust_4="14000.00000" pt_clust_5="49.13282" pt_clust_6="69.78557"></scales>
<clustering>
<clus scale="   40.005">  1  3  2 -1</clus>
<clus scale="   49.133">  1  5  2 -1</clus>
<clus scale="   69.786">  2  6  1 -1</clus>
<clus scale="   40.005">  1  3  2 -1</clus>
</clustering>
</event>
<event>
 6    0  0.2666600E+002  0.1003637E+03  0.7546771E-02  0.1279533E+00
         21   -1    0    0  505  501  0.00000000000E+00  0.00000000000E+00  0.13223485419E+03  0.13223485419E+03  0.00000000000E+00 0. -1.
         21   -1    0    0  503  502 -0.00000000000E+00 -0.00000000000E+00 -0.55082517909E+03  0.55082517909E+03  0.00000000000E+00 0. -1.
         21    1    1    2  503  504 -0.60676699614E+02 -0.53774651442E+02 -0.31877669874E+02  0.87118085667E+02  0.00000000000E+00 0. -1.
         21    1    1    2  504  501 -0.19133177671E+02 -0.71818225332E+02  0.67533482431E+02  0.10042264300E+03  0.00000000000E+00 0. -1.
         21    1    1    2  505  506  0.22974257483E+01  0.11399177979E+03 -0.20930300205E+03  0.23834250710E+03  0.00000000000E+00 0. -1.
         21    1    1    2  506  502  0.77512451537E+02  0.11601096988E+02 -0.24494313542E+03  0.25717679752E+03  0.00000000000E+00 0. -1.
<scales pt_clust_3="14000.00000" pt_clust_4="74.32319" pt_clust_5="100.36365" pt_clust_6="75.12874"></scales>
<clustering>
<clus scale="   74.323">  1  4  2 -1</clus>
<clus scale="   75.129">  2  6  1 -1</clus>
<clus scale="  100.364">  2  5  1 -1</clus>
<clus scale="   74.323">  1  3  2 -1</clus>
</clustering>
</event>
<event>
 6    0  0.2666600E+002  0.1190144E+03  0.7546771E-02  0.1244732E+00
         21   -1    0    0  503  501  0.00000000000E+00  0.00000000000E+00  0.12222943570E+04  0.12222943570E+04  0.00000000000E+00 0.  1.
         21   -1    0    0  504  502 -0.00000000000E+00 -0.00000000000E+00 -0.94422027156E+02  0.94422027156E+02  0.00000000000E+00 0.  1.
         21    1    1    2  503  505 -0.25148703175E+02 -0.21409990192E+02  0.21708224971E+02  0.39523309361E+02  0.00000000000E+00 0. -1.
         21    1    1    2  504  506  0.53216789074E+02 -0.20094913214E+01  0.65735409318E+02  0.84600288019E+02  0.00000000000E+00 0. -1.
         21    1    1    2  505  502 -0.11099908627E+03 -0.35600452830E+02 -0.27545582270E+02  0.11977874811E+03  0.00000000000E+00 0.  1.
         21    1    1    2  506  501  0.82931000374E+02  0.59019934344E+02  0.10679742778E+04  0.10728140386E+04  0.00000000000E+00 0.  1.
<scales pt_clust_3="31.74472" pt_clust_4="53.25472" pt_clust_5="31.74472" pt_clust_6="102.99401"></scales>
<clustering>
<clus scale="   31.745">  3  5 -1 -1</clus>
<clus scale="   53.255">  2  4  1 -1</clus>
<clus scale="  102.994">  1  6  2 -1</clus>
<clus scale="  102.994">  1  3  2 -1</clus>
</clustering>
</event>
<event>
 6    0  0.2666600E+002  0.2478916E+03  0.7546771E-02  0.1114645E+00
         21   -1    0    0  502  501  0.00000000000E+00  0.00000000000E+00  0.63859841127E+03  0.63859841127E+03  0.00000000000E+00 0. -1.
         21   -1    0    0  505  502 -0.00000000000E+00 -0.00000000000E+00 -0.11212869527E+03  0.11212869527E+03  0.00000000000E+00 0. -1.
         21    1    1    2  503  504 -0.10250602638E+02  0.49863145330E+02  0.69786948769E+02  0.86380705803E+02  0.00000000000E+00 0.  1.
         21    1    1    2  504  501  0.12308984944E+03  0.15272706854E+03  0.34235037167E+03  0.39456361399E+03  0.00000000000E+00 0. -1.
         21    1    1    2  505  506 -0.36592358570E+02 -0.69154960939E+02  0.69808441209E-02  0.78239436200E+02  0.00000000000E+00 0. -1.
         21    1    1    2  506  503 -0.76246888229E+02 -0.13343525293E+03  0.11432541472E+03  0.19154335055E+03  0.00000000000E+00 0. -1.
<scales pt_clust_3="44.62903" pt_clust_4="44.62903" pt_clust_5="54.96968" pt_clust_6="244.35805"></scales>
<clustering>
<clus scale="   44.629">  3  4 -1 -1</clus>
<clus scale="   54.970">  5  6 -1 -1</clus>
<clus scale="  244.358">  2  5  1 -1</clus>
<clus scale="  247.892">  1  3  2 -1</clus>
</clustering>
</event>
<event>
 6    0  0.2666600E+002  0.1771955E+03  0.7546771E-02  0.1170545E+00
         21   -1    0    0  506  501  0.00000000000E+00  0.00000000000E+00  0.13484864008E+04  0.13484864008E+04  0.00000000000E+00 0. -1.
         21   -1    0    0  505  502 -0.00000000000E+00 -0.00000000000E+00 -0.54044306358E+02  0.54044306358E+02  0.00000000000E+00 0. -1.
         21    1    1    2  503  502 -0.74807887784E+02 -0.61521029031E+02  0.82195054666E+02  0.12703182318E+03  0.00000000000E+00 0. -1.
         21    1    1    2  504  503 -0.46541132652E+02 -0.86660830065E+02  0.10468661211E+03  0.14365048991E+03  0.00000000000E+00 0. -1.
         21    1    1    2  505  501  0.84959816926E+02  0.47681916140E+02  0.26142644209E+03  0.27899017947E+03  0.00000000000E+00 0. -1.
         21    1    1    2  506  504  0.36389203510E+02  0.10049994296E+03  0.84613398562E+03  0.85285821465E+03  0.00000000000E+00 0. -1.
<scales pt_clust_3="40.43745" pt_clust_4="40.43745" pt_clust_5="97.42554" pt_clust_6="172.44579"></scales>
<clustering>
<clus scale="   40.437">  3  4 -1 -1</clus>
<clus scale="   97.426">  1  5  2 -1</clus>
<clus scale="  172.446">  1  6  2 -1</clus>
<clus scale="   97.426">  1  3  2 -1</clus>
</clustering>
</event>
<event>
 6    0  0.2666600E+002  0.1489944E+03  0.7546771E-02  0.1201714E+00
         21   -1    0    0  506  501  0.00000000000E+00  0.00000000000E+00  0.18606410201E+03  0.18606410201E+03  0.00000000000E+00 0.  1.
         21   -1    0    0  501  502 -0.00000000000E+00 -0.00000000000E+00 -0.27886095941E+03  0.27886095941E+03  0.00000000000E+00 0. -1.
         21    1    1    2  503  505  0.54930594604E+01 -0.97667731609E+02 -0.13188346462E+03  0.16420233780E+03  0.00000000000E+00 0. -1.
         21    1    1    2  504  503 -0.20283871059E+02  0.36845813951E+02  0.20744778796E+01  0.42111196722E+02  0.00000000000E+00 0. -1.
         21    1    1    2  505  502  0.72206256131E+02 -0.33461680799E+02 -0.69171144177E+02  0.10544228134E+03  0.00000000000E+00 0. -1.
         21    1    1    2  506  504 -0.57415444533E+02  0.94283598457E+02  0.10618327352E+03  0.15316924556E+03  0.00000000000E+00 0.  1.
<scales pt_clust_3="137.90118" pt_clust_4="34.82263" pt_clust_5="79.58283" pt_clust_6="34.82263"></scales>
<clustering>
<clus scale="   34.823">  4  6 -1 -1</clus>
<clus scale="   79.583">  2  5  1 -1</clus>
<clus scale="  137.901">  2  3  1 -1</clus>
<clus scale="  148.994">  1  3  2 -1</clus>
</clustering>
</event>
<event>
 6    0  0.2666600E+002  0.1040034E+03  0.7546771E-02  0.1272096E+00
         21   -1    0    0  506  501  0.00000000000E+00  0.00000000000E+00  0.17184159811E+03  0.17184159811E+03  0.00000000000E+00 0. -1.
         21   -1    0    0  503  502 -0.00000000000E+00 -0.00000000000E+00 -0.60199615002E+03  0.60199615002E+03  0.00000000000E+00 0. -1.
         21    1    1    2  503  504 -0.44340915998E+00 -0.52684044740E+02 -0.38595511063E+03  0.38953453326E+03  0.00000000000E+00 0. -1.
         21    1    1    2  504  501  0.68901712681E+02 -0.11590718299E+03 -0.20675558360E+02  0.13641627392E+03  0.00000000000E+00 0. -1.
         21    1    1    2  505  502 -0.29739416019E+02  0.81937276814E+02 -0.95105764240E+02  0.12900874617E+03  0.00000000000E+00 0. -1.
         21    1    1    2  506  505 -0.38718887502E+02  0.86653950912E+02  0.71581881321E+02  0.11887819477E+03  0.00000000000E+00 0. -1.
<scales pt_clust_3="52.68591" pt_clust_4="104.00338" pt_clust_5="62.09465" pt_clust_6="14000.00000"></scales>
<clustering>
<clus scale="   52.686">  2  3  1 -1</clus>
<clus scale="   62.095">  2  5  1 -1</clus>
<clus scale="  104.003">  2  4  1 -1</clus>
<clus scale="  104.003">  1  3  2 -1</clus>
</clustering>
</event>
<event>
 6    0  0.2666600E+002  0.1207929E+03  0.7546771E-02  0.1241795E+00
         21   -1    0    0  504  501  0.00000000000E+00  0.00000000000E+00  0.14729227125E+03  0.14729227125E+03  0.00000000000E+00 0.  1.
         21   -1    0    0  505  502 -0.00000000000E+00 -0.00000000000E+00 -0.25496340810E+03  0.25496340810E+03  0.00000000000E+00 0.  1.
         21    1    1    2  503  501 -0.51707763019E+02  0.41119757858E+02  0.43580558904E+02  0.79144123958E+02  0.00000000000E+00 0.  1.
         21    1    1    2  504  506  0.34203078625E+02  0.13659482933E+01  0.18483205499E+00  0.34230842307E+02  0.00000000000E+00 0.  1.
         21    1    1    2  505  503 -0.82452660131E+02  0.57097508543E+02 -0.35928030675E+02  0.10653351601E+03  0.00000000000E+00 0.  1.
         21    1    1    2  506  502  0.99957344525E+02 -0.99583214693E+02 -0.11550849714E+03  0.18234719708E+03  0.00000000000E+00 0.  1.
<scales pt_clust_3="54.86103" pt_clust_4="34.23034" pt_clust_5="120.79293" pt_clust_6="14000.00000"></scales>
<clustering>
<clus scale="   34.230">  1  4  2 -1</clus>
<clus scale="   54.861">  1  3  2 -1</clus>
<clus scale="  120.793">  1  5  2 -1</clus>
<clus scale="   34.230">  1  3  2 -1</clus>
</clustering>
</event>
<event>
 6    0  0.2666600E+002  0.1038174E+03  0.7546771E-02  0.1272467E+00
         21   -1    0    0  505  501  0.00000000000E+00  0.00000000000E+00  0.22348711729E+03  0.22348711729E+03  0.00000000000E+00 0.  1.
         21   -1    0    0  503  502 -0.00000000000E+00 -0.00000000000E+00 -0.11732470454E+04  0.11732470454E+04  0.00000000000E+00 0.  1.
         21    1    1    2  503  501 -0.21678307154E+02  0.24577931840E+02 -0.10066160266E+03  0.10586208946E+03  0.00000000000E+00 0.  1.
         21    1    1    2  504  502  0.64906154680E+02 -0.81178685807E+02 -0.10100973340E+04  0.10154306536E+04  0.00000000000E+00 0.  1.
         21    1    1    2  505  506  0.52665381110E+02  0.99363975074E+02  0.11488445407E+03  0.16076467180E+03  0.00000000000E+00 0.  1.
         21    1    1    2  506  504 -0.95893228636E+02 -0.42763221107E+02  0.46114554482E+02  0.11467674792E+03  0.00000000000E+00 0. -1.
<scales pt_clust_3="32.77230" pt_clust_4="72.96838" pt_clust_5="14000.00000" pt_clust_6="103.81744"></scales>
<clustering>
<clus scale="   32.772">  2  3  1 -1</clus>
<clus scale="   72.968">  2  4  1 -1</clus>
<clus scale="  103.817">  2  6  1 -1</clus>
<clus scale="  103.817">  1  3  2 -1</clus>
</clustering>
</event>
<event>
 6    0  0.2666600E+002  0.1252610E+03  0.7546771E-02  0.1234662E+00
         21   -1    0    0  506  501  0.00000000000E+00  0.00000000000E+00  0.17302168642E+04  0.17302168642E+04  0.00000000000E+00 0. -1.
         21   -1    0    0  501  502 -0.00000000000E+00 -0.00000000000E+00 -0.49227652293E+02  0.49227652293E+02  0.00000000000E+00 0.  1.
         21    1    1    2  503  502  0.25082227586E+01  0.35948372655E+02  0.60378841174E+01  0.36538099603E+02  0.00000000000E+00 0.  1.
         21    1    1    2  504  505 -0.26253203669E+02  0.64906128482E+02  0.90896437883E+03  0.91165688623E+03  0.00000000000E+00 0. -1.
         21    1    1    2  505  503 -0.88540753508E+01 -0.14251746387E+03  0.13012055371E+03  0.19318638838E+03  0.00000000000E+00 0.  1.
         21    1    1    2  506  504  0.32599056262E+02  0.41662962733E+02  0.63586639527E+03  0.63806314231E+03  0.00000000000E+00 0. -1.
<scales pt_clust_3="36.03577" pt_clust_4="53.10617" pt_clust_5="109.35044" pt_clust_6="53.10617"></scales>
<clustering>
<clus scale="   36.036">  2  3  1 -1</clus>
<clus scale="   53.106">  4  6 -1 -1</clus>
<clus scale="  109.350">  2  5  1 -1</clus>
<clus scale="  125.261">  1  3  2 -1</clus>
</clustering>
</event>
<event>
 6    0  0.2666600E+002  0.3356947E+03  0.7546771E-02  0.1068645E+00
         21   -1    0    0  505  501  0.00000000000E+00  0.00000000000E+00  0.90649932107E+03  0.90649932107E+03  0.00000000000E+00 0.  1.
         21   -1    0    0  504  502 -0.00000000000E+00 -0.00000000000E+00 -0.25224271139E+03  0.25224271139E+03  0.00000000000E+00 0. -1.
         21    1    1    2  503  501  0.28390463050E+03 -0.63569463358E+02  0.69467132829E+03  0.75313423122E+03  0.00000000000E+00 0.  1.
         21    1    1    2  504  503  0.23635030446E+02 -0.31073108684E+02  0.47926089205E+02  0.61814745603E+02  0.00000000000E+00 0. -1.
         21    1    1    2  505  506 -0.26240356623E+03  0.58762855221E+02 -0.47329865275E+02  0.27303629954E+03  0.00000000000E+00 0. -1.
         21    1    1    2  506  502 -0.45136094719E+02  0.35879716820E+02 -0.41010942531E+02  0.70756756094E+02  0.00000000000E+00 0. -1.
<scales pt_clust_3="35.04632" pt_clust_4="35.04632" pt_clust_5="332.24925" pt_clust_6="38.32987"></scales>
<clustering>
<clus scale="   35.046">  3  4 -1 -1</clus>
<clus scale="   38.330">  5  6 -1 -1</clus>
<clus scale="  332.249">  2  5  1 -1</clus>
<clus scale="  335.695">  1  3  2 -1</clus>
</clustering>
</event>
<event>
 6    0  0.2666600E+002  0.1941457E+03  0.7546771E-02  0.1154774E+00
         21   -1    0    0  506  501  0.00000000000E+00  0.00000000000E+00  0.18284204648E+04  0.18284204648E+04  0.00000000000E+00 0.  1.
         21   -1    0    0  503  502 -0.00000000000E+00 -0.00000000000E+00 -0.53472747294E+02  0.53472747294E+02  0.00000000000E+00 0.  1.
         21    1    1    2  503  501  0.32966457562E+02  0.10705583309E+02  0.12457081896E+03  0.12930307720E+03  0.00000000000E+00 0. -1.
         21    1    1    2  504  502  0.14385175687E+03 -0.11579777857E+03  0.15181177171E+03  0.23905912972E+03  0.00000000000E+00 0.  1.
         21    1    1    2  505  504 -0.11525160773E+03  0.91998911382E+02  0.95208181754E+03  0.96343475133E+03  0.00000000000E+00 0.  1.
         21    1    1    2  506  505 -0.61566606701E+02  0.13093283876E+02  0.54648330927E+03  0.55009625381E+03  0.00000000000E+00 0.  1.
<scales pt_clust_3="34.66117" pt_clust_4="186.87679" pt_clust_5="34.38242" pt_clust_6="34.38242"></scales>
<clustering>
<clus scale="   34.382">  5  6 -1 -1</clus>
<clus scale="   34.661">  1  3  2 -1</clus>
<clus scale="  186.877">  2  4  1 -1</clus>
<clus scale="   34.661">  1  3  2 -1</clus>
</clustering>
</event>
<event>
 6    0  0.2666600E+002  0.7699508E+02  0.7546771E-02  0.1337802E+00
         21   -1    0    0  505  501  0.00000000000E+00  0.00000000000E+00  0.56362304464E+02  0.56362304464E+02  0.00000000000E+00 0.  1.
         21   -1    0    0  503  502 -0.00000000000E+00 -0.00000000000E+00 -0.14567849326E+04  0.14567849326E+04  0.00000000000E+00 0. -1.
         21    1    1    2  503  501 -0.28143566134E+02 -0.33326651185E+02 -0.73975013933E+01  0.44243067489E+02  0.00000000000E+00 0.  1.
         21    1    1    2  504  506 -0.85476909440E+01  0.92062275932E+02 -0.63779835000E+03  0.64446509676E+03  0.00000000000E+00 0.  1.
         21    1    1    2  505  504  0.74381837254E+02 -0.29388389995E+02 -0.13419209640E+02  0.81095069931E+02  0.00000000000E+00 0.  1.
         21    1    1    2  506  502 -0.37690580176E+02 -0.29347234752E+02 -0.74180756714E+03  0.74334400292E+03  0.00000000000E+00 0. -1.
<scales pt_clust_3="43.62025" pt_clust_4="14000.00000" pt_clust_5="76.99508" pt_clust_6="48.63317"></scales>
<clustering>
<clus scale="   43.620">  1  3  2 -1</clus>
<clus scale="   48.633">  2  6  1 -1</clus>
<clus scale="   76.995">  1  5  2 -1</clus>
<clus scale="   43.620">  1  3  2 -1</clus>
</clustering>
</event>
<event>
 6    0  0.2666600E+002  0.1943553E+03  0.7546771E-02  0.1154591E+00
         21   -1    0    0  503  501  0.00000000000E+00  0.00000000000E+00  0.62612090420E+03  0.62612090420E+03  0.00000000000E+00 0.  1.
         21   -1    0    0  501  502 -0.00000000000E+00 -0.00000000000E+00 -0.50723632396E+03  0.50723632396E+03  0.00000000000E+00 0. -1.
         21    1    1    2  503  506  0.49047023794E+02  0.22016828136E+02  0.10271327787E+03  0.11593260419E+03  0.00000000000E+00 0. -1.
         21    1    1    2  504  505 -0.67957535360E+02 -0.10940688223E+03 -0.26657261495E+03  0.29605582503E+03  0.00000000000E+00 0. -1.
         21    1    1    2  505  502 -0.59906209498E+02 -0.12494092805E+02 -0.20674605237E+03  0.21561258419E+03  0.00000000000E+00 0. -1.
         21    1    1    2  506  504  0.78816721064E+02  0.99884146899E+02  0.48948996969E+03  0.50575621474E+03  0.00000000000E+00 0.  1.
<scales pt_clust_3="44.00714" pt_clust_4="55.85056" pt_clust_5="55.85056" pt_clust_6="189.18853"></scales>
<clustering>
<clus scale="   44.007">  3  6 -1 -1</clus>
<clus scale="   55.851">  4  5 -1 -1</clus>
<clus scale="  189.189">  1  3  2 -1</clus>
<clus scale="  189.189">  1  3  2 -1</clus>
</clustering>
</event>
<event>
 6    0  0.2666600E+002  0.7013539E+02  0.7546771E-02  0.1359633E+00
         21   -1    0    0  503  501  0.00000000000E+00  0.00000000000E+00  0.62782391656E+03  0.62782391656E+03  0.00000000000E+00 0.  1.
         21   -1    0    0  505  502 -0.00000000000E+00 -0.00000000000E+00 -0.33212354670E+02  0.33212354670E+02  0.00000000000E+00 0.  1.
         21    1    1    2  503  506 -0.44542103682E+02  0.51013061370E+02  0.17245799733E+03  0.18527841826E+03  0.00000000000E+00 0.  1.
         21    1    1    2  504  501  0.11377946965E+02  0.28512518568E+02  0.84049569310E+02  0.89480453136E+02  0.00000000000E+00 0.  1.
         21    1    1    2  505  504 -0.41123765572E+02 -0.83114592646E+02  0.26982095450E+03  0.28531131610E+03  0.00000000000E+00 0.  1.
         21    1    1    2  506  502  0.74287922290E+02  0.35890127074E+01  0.68283040744E+02  0.10096608373E+03  0.00000000000E+00 0.  1.
<scales pt_clust_3="72.91046" pt_clust_4="30.69888" pt_clust_5="14000.00000" pt_clust_6="70.13539"></scales>
<clustering>
<clus scale="   30.699">  1  4  2 -1</clus>
<clus scale="   72.910">  1  3  2 -1</clus>
<clus scale="   70.135">  2  6  1 -1</clus>
<clus scale="   30.699">  1  3  2 -1</clus>
</clustering>
</event>
<event>
 6    0  0.2666600E+002  0.1515001E+03  0.7546771E-02  0.1198642E+00
         21   -1    0    0  503  501  0.00000000000E+00  0.00000000000E+00  0.34053127376E+03  0.34053127376E+03  0.00000000000E+00 0. -1.
         21   -1    0    0  506  502 -0.00000000000E+00 -0.00000000000E+00 -0.93681664645E+03  0.93681664645E+03  0.00000000000E+00 0. -1.
         21    1    1    2  503  505  0.58852589593E+02  0.24236301538E+02  0.27084397231E+03  0.27822200299E+03  0.00000000000E+00 0. -1.
         21    1    1    2  504  502 -0.15530834655E+03  0.51555690825E+01 -0.81116470476E+03  0.82591491126E+03  0.00000000000E+00 0. -1.
         21    1    1    2  505  504  0.12665795441E+03 -0.35674471583E+02 -0.54201276902E+02  0.14231192415E+03  0.00000000000E+00 0. -1.
         21    1    1    2  506  501 -0.30202197453E+02  0.62826009624E+01 -0.17633633447E+01  0.30899081801E+02  0.00000000000E+00 0. -1.
<scales pt_clust_3="44.59248" pt_clust_4="151.50005" pt_clust_5="14000.00000" pt_clust_6="30.84872"></scales>
<clustering>
<clus scale="   30.849">  1  6  2 -1</clus>
<clus scale="   44.592">  1  3  2 -1</clus>
<clus scale="  151.500">  2  4  1 -1</clus>
<clus scale="   30.849">  1  3  2 -1</clus>
</clustering>
</event>
<event>
 6    0  0.2666600E+002  0.1467071E+03  0.7546771E-02  0.1204579E+00
         21   -1    0    0  506  501  0.00000000000E+00  0.00000000000E+00  0.23324919788E+03  0.23324919788E+03  0.00000000000E+00 0.  1.
         21   -1    0    0  504  502 -0.00000000000E+00 -0.00000000000E+00 -0.10892353137E+04  0.10892353137E+04  0.00000000000E+00 0. -1.
         21    1    1    2  503  502 -0.14790154990E+03 -0.31094961336E+01 -0.99368233497E+03  0.10046338240E+04  0.00000000000E+00 0. -1.
         21    1    1    2  504  505  0.56723724644E+02  0.42412876226E+01 -0.48419840383E+02  0.74699734945E+02  0.00000000000E+00 0.  1.
         21    1    1    2  505  501 -0.13065768748E+02  0.31590317594E+02  0.95163344131E+01  0.35485533663E+02  0.00000000000E+00 0.  1.
         21    1    1    2  506  503  0.10424359400E+03 -0.32722109083E+02  0.17659972515E+03  0.20766541897E+03  0.00000000000E+00 0.  1.
<scales pt_clust_3="146.70705" pt_clust_4="56.25301" pt_clust_5="34.18571" pt_clust_6="14000.00000"></scales>
<clustering>
<clus scale="   34.186">  1  5  2 -1</clus>
<clus scale="   56.253">  1  4  2 -1</clus>
<clus scale="  146.707">  2  3  1 -1</clus>
<clus scale="   34.186">  1  3  2 -1</clus>
</clustering>
</event>
<event>
 6    0  0.2666600E+002  0.1811969E+03  0.7546771E-02  0.1166650E+00
         21   -1    0    0  505  501  0.00000000000E+00  0.00000000000E+00  0.58055347286E+02  0.58055347286E+02  0.00000000000E+00 0. -1.
         21   -1    0    0  501  502 -0.00000000000E+00 -0.00000000000E+00 -0.90154213178E+03  0.90154213178E+03  0.00000000000E+00 0. -1.
         21    1    1    2  503  502  0.13690209964E+03 -0.84471196391E+02 -0.72608455979E+03  0.74369103523E+03  0.00000000000E+00 0. -1.
         21    1    1    2  504  503 -0.37761139191E+02  0.44649079584E+02 -0.74699598480E+02  0.94865557258E+02  0.00000000000E+00 0. -1.
         21    1    1    2  505  506 -0.54418973997E+02  0.33167275195E+01 -0.12696256443E+02  0.55978749004E+02  0.00000000000E+00 0. -1.
         21    1    1    2  506  504 -0.44721986448E+02  0.36505389287E+02 -0.30006369774E+02  0.65062137575E+02  0.00000000000E+00 0. -1.
<scales pt_clust_3="160.86506" pt_clust_4="48.09856" pt_clust_5="48.09856" pt_clust_6="34.76189"></scales>
<clustering>
<clus scale="   34.762">  4  6 -1 -1</clus>
<clus scale="   48.099">  4  5 -1 -1</clus>
<clus scale="  160.865">  2  3  1 -1</clus>
<clus scale="  181.197">  1  3  2 -1</clus>
</clustering>
</event>
<event>
 6    0  0.2666600E+002  0.6500970E+02  0.7546771E-02  0.1377935E+00
         21   -1    0    0  503  501  0.00000000000E+00  0.00000000000E+00  0.96345722204E+03  0.96345722204E+03  0.00000000000E+00 0. -1.
         21   -1    0    0  505  502 -0.00000000000E+00 -0.00000000000E+00 -0.48034560826E+02  0.48034560826E+02  0.00000000000E+00 0. -1.
         21    1    1    2  503  504 -0.60503813221E+01 -0.77922400300E+02  0.56532147696E+03  0.57069858935E+03  0.00000000000E+00 0. -1.
         21    1    1    2  504  502  0.68222823196E+02  0.19703887700E+02  0.57739063949E+02  0.91522654578E+02  0.00000000000E+00 0. -1.
         21    1    1    2  505  506 -0.62403152044E+02  0.23818938941E+02  0.13312001204E+02  0.68108036334E+02  0.00000000000E+00 0. -1.
         21    1    1    2  506  501  0.23071016958E+00  0.34399573659E+02  0.27905011910E+03  0.28116250260E+03  0.00000000000E+00 0. -1.
<scales pt_clust_3="49.67572" pt_clust_4="14000.00000" pt_clust_5="65.00970" pt_clust_6="34.40035"></scales>
<clustering>
<clus scale="   34.400">  1  6  2 -1</clus>
<clus scale="   49.676">  1  3  2 -1</clus>
<clus scale="   65.010">  2  5  1 -1</clus>
<clus scale="   34.400">  1  3  2 -1</clus>
</clustering>
</event>
<event>
 6    0  0.2666600E+002  0.1160456E+03  0.7546771E-02  0.1249767E+00
         21   -1    0    0  503  501  0.00000000000E+00  0.00000000000E+00  0.12755301392E+04  0.12755301392E+04  0.00000000000E+00 0. -1.
         21   -1    0    0  504  502 -0.00000000000E+00 -0.00000000000E+00 -0.10058219399E+03  0.10058219399E+03  0.00000000000E+00 0.  1.
         21    1    1    2  503  505  0.65781135982E+02  0.25246151916E+02  0.36579612986E+03  0.37252024731E+03  0.00000000000E+00 0. -1.
         21    1    1    2  504  506  0.88797557174E+02 -0.70237532058E+02 -0.39987458917E+02  0.12007211975E+03  0.00000000000E+00 0.  1.
         21    1    1    2  505  502 -0.34891299778E+02 -0.32344357832E+02  0.40676858483E+02  0.62595264196E+02  0.00000000000E+00 0.  1.
         21    1    1    2  506  501 -0.11968739338E+03  0.77335737974E+02  0.80846241575E+03  0.82092470189E+03  0.00000000000E+00 0. -1.
<scales pt_clust_3="68.80586" pt_clust_4="14000.00000" pt_clust_5="47.57689" pt_clust_6="116.04558"></scales>
<clustering>
<clus scale="   47.577">  2  5  1 -1</clus>
<clus scale="   68.806">  1  3  2 -1</clus>
<clus scale="  116.046">  1  6  2 -1</clus>
<clus scale="   68.806">  1  3  2 -1</clus>
</clustering>
</event>
<event>
 6    0  0.2666600E+002  0.1611289E+03  0.7546771E-02  0.1187428E+00
         21   -1    0    0  505  501  0.00000000000E+00  0.00000000000E+00  0.54956268147E+03  0.54956268147E+03  0.00000000000E+00 0. -1.
         21   -1    0    0  504  502 -0.00000000000E+00 -0.00000000000E+00 -0.21626696595E+03  0.21626696595E+03  0.00000000000E+00 0. -1.
         21    1    1    2  503  506 -0.29667767612E+01  0.16025139244E+03  0.43824230263E+03  0.46663221744E+03  0.00000000000E+00 0. -1.
         21    1    1    2  504  501  0.75565459338E+02 -0.10572761418E+03 -0.72964972937E+02  0.14903809687E+03  0.00000000000E+00 0. -1.
         21    1    1    2  505  503 -0.34876329103E+02  0.68233365797E+01  0.36384395813E+02  0.50860008970E+02  0.00000000000E+00 0. -1.
         21    1    1    2  506  502 -0.37722353474E+02 -0.61347114846E+02 -0.68366009991E+02  0.99299324134E+02  0.00000000000E+00 0. -1.
<scales pt_clust_3="161.12886" pt_clust_4="14000.00000" pt_clust_5="35.53753" pt_clust_6="72.40490"></scales>
<clustering>
<clus scale="   35.538">  1  5  2 -1</clus>
<clus scale="   72.405">  2  6  1 -1</clus>
<clus scale="  161.129">  1  3  2 -1</clus>
<clus scale="   35.538">  1  3  2 -1</clus>
</clustering>
</event>
<event>
 6    0  0.2666600E+002  0.1010899E+03  0.7546771E-02  0.1278021E+00
         21   -1    0    0  505  501  0.00000000000E+00  0.00000000000E+00  0.12514707052E+03  0.12514707052E+03  0.00000000000E+00 0. -1.
         21   -1    0    0  503  502 -0.00000000000E+00 -0.00000000000E+00 -0.15289524151E+04  0.15289524151E+04  0.00000000000E+00 0. -1.
         21    1    1    2  503  506 -0.53369084978E+02 -0.15456995644E+02 -0.90237856372E+03  0.90408752353E+03  0.00000000000E+00 0. -1.
         21    1    1    2  504  502  0.14874187932E+02  0.37031270043E+02 -0.50421617885E+03  0.50579295314E+03  0.00000000000E+00 0.  1.
         21    1    1    2  505  504 -0.13705566577E+02 -0.10793684463E+03 -0.61096452057E+02  0.12478373867E+03  0.00000000000E+00 0. -1.
         21    1    1    2  506  501  0.52200463623E+02  0.86362570228E+02  0.63885850074E+02  0.11943527025E+03  0.00000000000E+00 0. -1.
<scales pt_clust_3="43.77297" pt_clust_4="39.90685" pt_clust_5="101.08993" pt_clust_6="14000.00000"></scales>
<clustering>
<clus scale="   39.907">  2  4  1 -1</clus>
<clus scale="   43.773">  2  3  1 -1</clus>
<clus scale="  101.090">  2  5  1 -1</clus>
<clus scale="  101.090">  1  3  2 -1</clus>
</clustering>
</event>
<event>
 6    0  0.2666600E+002  0.1830409E+03  0.7546771E-02  0.1164892E+00
         21   -1    0    0  503  501  0.00000000000E+00  0.00000000000E+00  0.14548935795E+04  0.14548935795E+04  0.00000000000E+00 0. -1.
         21   -1    0    0  501  502 -0.00000000000E+00 -0.00000000000E+00 -0.43936593622E+02  0.43936593622E+02  0.00000000000E+00 0.  1.
         21    1    1    2  503  504  0.10693022968E+02 -0.73381041047E+02  0.66369682498E+03  0.66782676901E+03  0.00000000000E+00 0. -1.
         21    1    1    2  504  506 -0.18476400887E+02 -0.98342394337E+02  0.56101547403E+03  0.56986925344E+03  0.00000000000E+00 0. -1.
         21    1    1    2  505  502  0.34528289444E+02  0.11919815555E+03  0.12608668714E+03  0.17691313047E+03  0.00000000000E+00 0.  1.
         21    1    1    2  506  505 -0.26744911525E+02  0.52525279835E+02  0.60157999770E+02  0.84221020242E+02  0.00000000000E+00 0. -1.
<scales pt_clust_3="42.36405" pt_clust_4="178.80500" pt_clust_5="43.33843" pt_clust_6="43.33843"></scales>
<clustering>
<clus scale="   42.364">  3  4 -1 -1</clus>
<clus scale="   43.338">  5  6 -1 -1</clus>
<clus scale="  178.805">  1  3  2 -1</clus>
<clus scale="  178.805">  1  3  2 -1</clus>
</clustering>
</event>
<event>
 6    0  0.2666600E+002  0.2317400E+03  0.7546771E-02  0.1125421E+00
         21   -1    0    0  506  501  0.00000000000E+00  0.00000000000E+00  0.93749767131E+03  0.93749767131E+03  0.00000000000E+00 0.  1.
         21   -1    0    0  505  502 -0.00000000000E+00 -0.00000000000E+00 -0.80189015609E+02  0.80189015609E+02  0.00000000000E+00 0.  1.
         21    1    1    2  503  502 -0.26727711966E+02 -0.78030512451E+02  0.44086189194E+02  0.93523919603E+02  0.00000000000E+00 0.  1.
         21    1    1    2  504  501 -0.22843156753E+02  0.12768371896E+03  0.29907278547E+03  0.32598998896E+03  0.00000000000E+00 0.  1.
         21    1    1    2  505  504  0.26285344081E+02  0.85014338065E+02  0.42679788456E+03  0.43597567737E+03  0.00000000000E+00 0.  1.
         21    1    1    2  506  503  0.23285524638E+02 -0.13466754457E+03  0.87351796477E+02  0.16219710098E+03  0.00000000000E+00 0.  1.
<scales pt_clust_3="41.58228" pt_clust_4="76.14263" pt_clust_5="76.14263" pt_clust_6="219.35655"></scales>
<clustering>
<clus scale="   41.582">  3  6 -1 -1</clus>
<clus scale="   76.143">  4  5 -1 -1</clus>
<clus scale="  219.357">  2  3  1 -1</clus>
<clus scale="  231.740">  1  3  2 -1</clus>
</clustering>
</event>
<event>
 6    0  0.2666600E+002  0.1550847E+03  0.7546771E-02  0.1194361E+00
         21   -1    0    0  505  501  0.00000000000E+00  0.00000000000E+00  0.87162504210E+03  0.87162504210E+03  0.00000000000E+00 0.  1.
         21   -1    0    0  503  502 -0.00000000000E+00 -0.00000000000E+00 -0.47427129923E+03  0.47427129923E+03  0.00000000000E+00 0. -1.
         21    1    1    2  503  504 -0.46477549987E+02 -0.66146353236E+02 -0.68141910942E+02  0.10572995189E+03  0.00000000000E+00 0. -1.
         21    1    1    2  504  506  0.15861286634E+02  0.97859160765E+02  0.48607605225E+03  0.49608257814E+03  0.00000000000E+00 0.  1.
         21    1    1    2  505  502 -0.77667269485E+01 -0.79759534269E+02 -0.37545928963E+03  0.38391611521E+03  0.00000000000E+00 0. -1.
         21    1    1    2  506  501  0.38382990301E+02  0.48046726739E+02  0.35487889119E+03  0.36016769609E+03  0.00000000000E+00 0.  1.
<scales pt_clust_3="149.40856" pt_clust_4="32.74327" pt_clust_5="80.13679" pt_clust_6="32.74327"></scales>
<clustering>
<clus scale="   32.743">  4  6 -1 -1</clus>
<clus scale="   80.137">  2  5  1 -1</clus>
<clus scale="  149.409">  2  3  1 -1</clus>
<clus scale="  155.085">  1  3  2 -1</clus>
</clustering>
</event>
<event>
 6    0  0.2666600E+002  0.1295399E+03  0.7546771E-02  0.1228140E+00
         21   -1    0    0  504  501  0.00000000000E+00  0.00000000000E+00  0.68973235707E+02  0.68973235707E+02  0.00000000000E+00 0. -1.
         21   -1    0    0  503  502 -0.00000000000E+00 -0.00000000000E+00 -0.38611346321E+03  0.38611346321E+03  0.00000000000E+00 0. -1.
         21    1    1    2  503  506 -0.30574863002E+02 -0.42146778584E+02 -0.63538180176E+02  0.82147876009E+02  0.00000000000E+00 0. -1.
         21    1    1    2  504  505  0.70309942210E+02 -0.27800928884E+02 -0.60460081530E+02  0.96808063088E+02  0.00000000000E+00 0. -1.
         21    1    1    2  505  502  0.46743071297E+02 -0.21280012490E+02 -0.74549223252E+01  0.51897297740E+02  0.00000000000E+00 0. -1.
         21    1    1    2  506  501 -0.86478150505E+02  0.91227719958E+02 -0.18568704347E+03  0.22423346208E+03  0.00000000000E+00 0. -1.
<scales pt_clust_3="52.06893" pt_clust_4="30.73351" pt_clust_5="30.73351" pt_clust_6="124.05686"></scales>
<clustering>
<clus scale="   30.734">  4  5 -1 -1</clus>
<clus scale="   52.069">  2  3  1 -1</clus>
<clus scale="  124.057">  2  6  1 -1</clus>
<clus scale="  129.540">  1  3  2 -1</clus>
</clustering>
</event>
<event>
 6    0  0.2666600E+002  0.1994922E+03  0.7546771E-02  0.1150168E+00
         21   -1    0    0  505  501  0.00000000000E+00  0.00000000000E+00  0.15302972967E+04  0.15302972967E+04  0.00000000000E+00 0. -1.
         21   -1    0    0  501  502 -0.00000000000E+00 -0.00000000000E+00 -0.39827076322E+02  0.39827076322E+02  0.00000000000E+00 0. -1.
         21    1    1    2  503  504 -0.79077955766E+02  0.22678797409E+02  0.15991859748E+03  0.17983772897E+03  0.00000000000E+00 0. -1.
         21    1    1    2  504  506 -0.11797410348E+03 -0.65334567356E+01  0.40808409329E+03  0.42484491564E+03  0.00000000000E+00 0. -1.
         21    1    1    2  505  503  0.14995979675E+02 -0.60077616838E+02  0.49355611895E+03  0.49742521247E+03  0.00000000000E+00 0. -1.
         21    1    1    2  506  502  0.18205607957E+03  0.43932276164E+02  0.42891141062E+03  0.46801651590E+03  0.00000000000E+00 0. -1.
<scales pt_clust_3="52.26853" pt_clust_4="52.26853" pt_clust_5="61.92091" pt_clust_6="189.40238"></scales>
<clustering>
<clus scale="   52.269">  3  4 -1 -1</clus>
<clus scale="   61.921">  1  5  2 -1</clus>
<clus scale="  189.402">  2  6  1 -1</clus>
<clus scale="   61.921">  1  3  2 -1</clus>
</clustering>
</event>
<event>
 6    0  0.2666600E+002  0.1221537E+03  0.7546771E-02  0.1239586E+00
         21   -1    0    0  506  501  0.00000000000E+00  0.00000000000E+00  0.58206400094E+03  0.58206400094E+03  0.00000000000E+00 0. -1.
         21   -1    0    0  504  502 -0.00000000000E+00 -0.00000000000E+00 -0.25334749905E+03  0.25334749905E+03  0.00000000000E+00 0. -1.
         21    1    1    2  503  505 -0.72661632374E+01  0.40760478715E+02 -0.51166498899E+02  0.65819635086E+02  0.00000000000E+00 0.  1.
         21    1    1    2  504  503  0.43372233980E+02  0.65312766811E+02 -0.17747320866E+03  0.19401971029E+03  0.00000000000E+00 0. -1.
         21    1    1    2  505  501 -0.50508005173E+02 -0.17306440961E+02  0.22707225469E+03  0.23326461441E+03  0.00000000000E+00 0. -1.
         21    1    1    2  506  502  0.14401934430E+02 -0.88766804565E+02  0.33028395475E+03  0.34230754020E+03  0.00000000000E+00 0. -1.
<scales pt_clust_3="37.65645" pt_clust_4="37.65645" pt_clust_5="53.39074" pt_clust_6="110.61797"></scales>
<clustering>
<clus scale="   37.656">  3  4 -1 -1</clus>
<clus scale="   53.391">  1  5  2 -1</clus>
<clus scale="  110.618">  1  6  2 -1</clus>
<clus scale="   53.391">  1  3  2 -1</clus>
</clustering>
</event>
<event>
 6    0  0.2666600E+002  0.1609209E+03  0.7546771E-02  0.1187661E+00
         21   -1    0    0  505  501  0.00000000000E+00  0.00000000000E+00  0.40576907257E+03  0.40576907257E+03  0.00000000000E+00 0. -1.
         21   -1    0    0  504  502 -0.00000000000E+00 -0.00000000000E+00 -0.51866077794E+03  0.51866077794E+03  0.00000000000E+00 0. -1.
         21    1    1    2  503  506  0.39640780882E+02  0.27039427122E+02  0.17669172370E+03  0.18309147264E+03  0.00000000000E+00 0. -1.
         21    1    1    2  504  503  0.11930212331E+03  0.21542523801E+02 -0.10567823853E+03  0.16082589051E+03  0.00000000000E+00 0. -1.
         21    1    1    2  505  502 -0.17561256877E+03 -0.11275103315E+03 -0.34673951269E+03  0.40469847967E+03  0.00000000000E+00 0. -1.
         21    1    1    2  506  501  0.16669664572E+02  0.64169082225E+02  0.16283432215E+03  0.17581400769E+03  0.00000000000E+00 0. -1.
<scales pt_clust_3="38.47525" pt_clust_4="14000.00000" pt_clust_5="160.92087" pt_clust_6="116.34091"></scales>
<clustering>
<clus scale="   38.475">  3  6 -1 -1</clus>
<clus scale="  116.341">  1  3  2 -1</clus>
<clus scale="  160.921">  1  5  2 -1</clus>
<clus scale="  116.341">  1  3  2 -1</clus>
</clustering>
</event>
<event>
 6    0  0.2666600E+002  0.1334917E+03  0.7546771E-02  0.1222365E+00
         21   -1    0    0  505  501  0.00000000000E+00  0.00000000000E+00  0.37029205386E+03  0.37029205386E+03  0.00000000000E+00 0. -1.
         21   -1    0    0  506  502 -0.00000000000E+00 -0.00000000000E+00 -0.41021041187E+03  0.41021041187E+03  0.00000000000E+00 0. -1.
         21    1    1    2  503  504  0.12479578089E+03 -0.48051959164E+02  0.31060269076E+02  0.13728699146E+03  0.00000000000E+00 0. -1.
         21    1    1    2  504  502 -0.60598574318E+02  0.28887264743E+02 -0.54965933559E+02  0.86763558743E+02  0.00000000000E+00 0. -1.
         21    1    1    2  505  503 -0.74962308086E+01 -0.46592765342E+02  0.26147364220E+03  0.26569822134E+03  0.00000000000E+00 0. -1.
         21    1    1    2  506  501 -0.56700975765E+02  0.65757459763E+02 -0.27748633573E+03  0.29075369419E+03  0.00000000000E+00 0. -1.
<scales pt_clust_3="14000.00000" pt_clust_4="65.50106" pt_clust_5="47.19194" pt_clust_6="133.49166"></scales>
<clustering>
<clus scale="   47.192">  1  5  2 -1</clus>
<clus scale="   65.501">  2  4  1 -1</clus>
<clus scale="  133.492">  2  6  1 -1</clus>
<clus scale="   47.192">  1  3  2 -1</clus>
</clustering>
</event>
<event>
 6    0  0.2666600E+002  0.9223784E+02  0.7546771E-02  0.1297521E+00
         21   -1    0    0  504  501  0.00000000000E+00  0.00000000000E+00  0.15616157625E+03  0.15616157625E+03  0.00000000000E+00 0.  1.
         21   -1    0    0  506  502 -0.00000000000E+00 -0.00000000000E+00 -0.68646176127E+03  0.68646176127E+03  0.00000000000E+00 0.  1.
         21    1    1    2  503  502 -0.94943313766E+02 -0.83099572337E+02 -0.54176512335E+03  0.55626362512E+03  0.00000000000E+00 0.  1.
         21    1    1    2  504  503  0.30706552191E+01  0.59915590269E+02  0.11180649584E+03  0.12688577301E+03  0.00000000000E+00 0.  1.
         21    1    1    2  505  501  0.28718772211E+02  0.30349799546E+02 -0.13144739032E+01  0.41804378376E+02  0.00000000000E+00 0.  1.
         21    1    1    2  506  505  0.63153886336E+02 -0.71658174782E+01 -0.99027083617E+02  0.11766956101E+03  0.00000000000E+00 0. -1.
<scales pt_clust_3="92.23784" pt_clust_4="14000.00000" pt_clust_5="41.78371" pt_clust_6="65.32161"></scales>
<clustering>
<clus scale="   41.784">  1  5  2 -1</clus>
<clus scale="   65.322">  2  6  1 -1</clus>
<clus scale="   92.238">  2  3  1 -1</clus>
<clus scale="   41.784">  1  3  2 -1</clus>
</clustering>
</event>
<event>
 6    0  0.2666600E+002  0.1321666E+03  0.7546771E-02  0.1224276E+00
         21   -1    0    0  505  501  0.00000000000E+00  0.00000000000E+00  0.11879278517E+04  0.11879278517E+04  0.00000000000E+00 0. -1.
         21   -1    0    0  503  502 -0.00000000000E+00 -0.00000000000E+00 -0.88179640418E+02  0.88179640418E+02  0.00000000000E+00 0. -1.
         21    1    1    2  503  506  0.10399381473E+03  0.56665395796E+01  0.76609107242E+02  0.12928951422E+03  0.00000000000E+00 0. -1.
         21    1    1    2  504  502 -0.55011002775E+02  0.36552191523E+02  0.53067585894E+03  0.53477017530E+03  0.00000000000E+00 0. -1.
         21    1    1    2  505  504 -0.30691551617E+02  0.63117385606E+02  0.49997011031E+03  0.50487214908E+03  0.00000000000E+00 0. -1.
         21    1    1    2  506  501 -0.18291260343E+02 -0.10533611671E+03 -0.75068651890E+01  0.10717565355E+03  0.00000000000E+00 0. -1.
<scales pt_clust_3="104.14808" pt_clust_4="35.59161" pt_clust_5="35.59161" pt_clust_6="126.97212"></scales>
<clustering>
<clus scale="   35.592">  4  5 -1 -1</clus>
<clus scale="  104.148">  2  3  1 -1</clus>
<clus scale="  126.972">  2  6  1 -1</clus>
<clus scale="  132.167">  1  3  2 -1</clus>
</clustering>
</event>
<event>
 6    0  0.2666600E+002  0.1677703E+03  0.7546771E-02  0.1180193E+00
         21   -1    0    0  506  501  0.00000000000E+00  0.00000000000E+00  0.36579887107E+03  0.36579887107E+03  0.00000000000E+00 0. -1.
         21   -1    0    0  503  502 -0.00000000000E+00 -0.00000000000E+00 -0.11103557453E+03  0.11103557453E+03  0.00000000000E+00 0.  1.
         21    1    1    2  503  505  0.91161526440E+02 -0.91155746695E+01  0.10080016392E+03  0.13621376821E+03  0.00000000000E+00 0. -1.
         21    1    1    2  504  502 -0.53437542912E+02  0.24443972231E+02 -0.19564958669E+02  0.61934371545E+02  0.00000000000E+00 0. -1.
         21    1    1    2  505  501  0.62132673399E+02 -0.25323390709E+02  0.16482033433E+03  0.17795360583E+03  0.00000000000E+00 0. -1.
         21    1    1    2  506  504 -0.99856656926E+02  0.99949931472E+01  0.87077569591E+01  0.10073270001E+03  0.00000000000E+00 0.  1.
<scales pt_clust_3="50.35077" pt_clust_4="31.15396" pt_clust_5="50.35077" pt_clust_6="162.30434"></scales>
<clustering>
<clus scale="   31.154">  4  6 -1 -1</clus>
<clus scale="   50.351">  3  5 -1 -1</clus>
<clus scale="  162.304">  2  4  1 -1</clus>
<clus scale="  167.770">  1  3  2 -1</clus>
</clustering>
</event>
<event>
 6    0  0.2666600E+002  0.1361305E+03  0.7546771E-02  0.1218633E+00
         21   -1    0    0  505  501  0.00000000000E+00  0.00000000000E+00  0.61615585704E+02  0.61615585704E+02  0.00000000000E+00 0. -1.
         21   -1    0    0  503  502 -0.00000000000E+00 -0.00000000000E+00 -0.71906157408E+03  0.71906157408E+03  0.00000000000E+00 0. -1.
         21    1    1    2  503  506  0.66908171805E+02 -0.32506233162E+01 -0.13761261707E+03  0.15305065300E+03  0.00000000000E+00 0. -1.
         21    1    1    2  504  502  0.47835057244E+02  0.11407258913E+03 -0.36331804916E+03  0.38379780242E+03  0.00000000000E+00 0. -1.
         21    1    1    2  505  504 -0.61791732752E+02 -0.11563326196E+03 -0.91694617981E+02  0.15999116374E+03  0.00000000000E+00 0. -1.
         21    1    1    2  506  501 -0.52951496297E+02  0.48112961440E+01 -0.64820704161E+02  0.83837540628E+02  0.00000000000E+00 0. -1.
<scales pt_clust_3="59.11858" pt_clust_4="14000.00000" pt_clust_5="136.13047" pt_clust_6="53.16963"></scales>
<clustering>
<clus scale="   53.170">  1  6  2 -1</clus>
<clus scale="   59.119">  2  3  1 -1</clus>
<clus scale="  136.130">  1  5  2 -1</clus>
<clus scale="   53.170">  1  3  2 -1</clus>
</clustering>
</event>
<event>
 6    0  0.2666600E+002  0.2393900E+03  0.7546771E-02  0.1120200E+00
         21   -1    0    0  506  501  0.00000000000E+00  0.00000000000E+00  0.18451620563E+04  0.18451620563E+04  0.00000000000E+00 0. -1.
         21   -1    0    0  503  502 -0.00000000000E+00 -0.00000000000E+00 -0.66884887304E+03  0.66884887304E+03  0.00000000000E+00 0.  1.
         21    1    1    2  503  504  0.68058325191E+02 -0.17434462584E+03  0.12281358880E+04  0.12423146717E+04  0.00000000000E+00 0. -1.
         21    1    1    2  504  501  0.30025704721E+02 -0.29898778651E+02  0.58897174753E+03  0.59049402986E+03  0.00000000000E+00 0. -1.
         21    1    1    2  505  502 -0.53532548674E+02  0.11564614417E+03 -0.29227432266E+03  0.31884799531E+03  0.00000000000E+00 0.  1.
         21    1    1    2  506  505 -0.44551481238E+02  0.88597260323E+02 -0.34852012962E+03  0.36235423244E+03  0.00000000000E+00 0.  1.
<scales pt_clust_3="36.76982" pt_clust_4="36.76982" pt_clust_5="231.12539" pt_clust_6="40.26207"></scales>
<clustering>
<clus scale="   36.770">  3  4 -1 -1</clus>
<clus scale="   40.262">  5  6 -1 -1</clus>
<clus scale="  231.125">  2  5  1 -1</clus>
<clus scale="  239.390">  1  3  2 -1</clus>
</clustering>
</event>
<event>
 6    0  0.2666600E+002  0.7480861E+02  0.7546771E-02  0.1344465E+00
         21   -1    0    0  503  501  0.00000000000E+00  0.00000000000E+00  0.13760352428E+04  0.13760352428E+04  0.00000000000E+00 0. -1.
         21   -1    0    0  506  502 -0.00000000000E+00 -0.00000000000E+00 -0.18340524618E+03  0.18340524618E+03  0.00000000000E+00 0. -1.
         21    1    1    2  503  502  0.39489848044E+02  0.39215471371E+02  0.97401756258E+03  0.97560622872E+03  0.00000000000E+00 0. -1.
         21    1    1    2  504  501 -0.81530285683E+02 -0.93977021320E+02  0.33890492054E+03  0.36101996231E+03  0.00000000000E+00 0. -1.
         21    1    1    2  505  504  0.79137859429E+02  0.11101031049E+02  0.99477524533E+01  0.80529444703E+02  0.00000000000E+00 0. -1.
         21    1    1    2  506  505 -0.37097421790E+02  0.43660518901E+02 -0.13024023897E+03  0.14228485324E+03  0.00000000000E+00 0. -1.
<scales pt_clust_3="55.65340" pt_clust_4="74.80861" pt_clust_5="14000.00000" pt_clust_6="57.36356"></scales>
<clustering>
<clus scale="   55.653">  1  3  2 -1</clus>
<clus scale="   57.364">  2  6  1 -1</clus>
<clus scale="   74.809">  1  4  2 -1</clus>
<clus scale="   55.653">  1  3  2 -1</clus>
</clustering>
</event>
<event>
 6    0  0.2666600E+002  0.1077416E+03  0.7546771E-02  0.1264810E+00
         21   -1    0    0  503  501  0.00000000000E+00  0.00000000000E+00  0.67935210127E+02  0.67935210127E+02  0.00000000000E+00 0. -1.
         21   -1    0    0  506  502 -0.00000000000E+00 -0.00000000000E+00 -0.58759742468E+03  0.58759742468E+03  0.00000000000E+00 0. -1.
         21    1    1    2  503  502 -0.65767953336E+02 -0.79760376461E+02 -0.11045992192E+02  0.10396708750E+03  0.00000000000E+00 0. -1.
         21    1    1    2  504  505  0.48597803573E+02  0.22540197496E+02 -0.28329938734E+03  0.28831987424E+03  0.00000000000E+00 0. -1.
         21    1    1    2  505  501 -0.35566470722E+02  0.58428042649E+02 -0.64568008712E+02  0.94062945714E+02  0.00000000000E+00 0. -1.
         21    1    1    2  506  504  0.52736620485E+02 -0.12078636834E+01 -0.16074882631E+03  0.16918272735E+03  0.00000000000E+00 0. -1.
<scales pt_clust_3="101.00583" pt_clust_4="37.20960" pt_clust_5="68.40183" pt_clust_6="37.20960"></scales>
<clustering>
<clus scale="   37.210">  4  6 -1 -1</clus>
<clus scale="   68.402">  1  5  2 -1</clus>
<clus scale="  101.006">  1  3  2 -1</clus>
<clus scale="   68.402">  1  3  2 -1</clus>
</clustering>
</event>
<event>
 6    0  0.2666600E+002  0.1178726E+03  0.7546771E-02  0.1246648E+00
         21   -1    0    0  506  501  0.00000000000E+00  0.00000000000E+00  0.94460857889E+03  0.94460857889E+03  0.00000000000E+00 0.  1.
         21   -1    0    0  504  502 -0.00000000000E+00 -0.00000000000E+00 -0.41598201030E+02  0.41598201030E+02  0.00000000000E+00 0.  1.
         21    1    1    2  503  502 -0.39784590690E+02  0.28419521369E+02  0.22032633911E+03  0.22568601763E+03  0.00000000000E+00 0.  1.
         21    1    1    2  504  505  0.94408760157E+02 -0.16459672755E+02  0.46632989375E+02  0.10657659461E+03  0.00000000000E+00 0.  1.
         21    1    1    2  505  501  0.42486998994E+02  0.18417882229E+02  0.13665881718E+03  0.14429135727E+03  0.00000000000E+00 0.  1.
         21    1    1    2  506  503 -0.97111168462E+02 -0.30377730844E+02  0.49939223220E+03  0.50965281041E+03  0.00000000000E+00 0.  1.
<scales pt_clust_3="43.75374" pt_clust_4="99.54833" pt_clust_5="46.30727" pt_clust_6="43.75374"></scales>
<clustering>
<clus scale="   43.754">  3  6 -1 -1</clus>
<clus scale="   46.307">  1  5  2 -1</clus>
<clus scale="   99.548">  2  4  1 -1</clus>
<clus scale="   46.307">  1  3  2 -1</clus>
</clustering>
</event>
<event>
 6    0  0.2666600E+002  0.1491511E+03  0.7546771E-02  0.1201520E+00
         21   -1    0    0  503  501  0.00000000000E+00  0.00000000000E+00  0.39507521442E+03  0.39507521442E+03  0.00000000000E+00 0.  1.
         21   -1    0    0  505  502 -0.00000000000E+00 -0.00000000000E+00 -0.98380625504E+02  0.98380625504E+02  0.00000000000E+00 0.  1.
         21    1    1    2  503  504  0.35428286713E+01  0.46711590366E+02  0.31003442621E+02  0.56175953609E+02  0.00000000000E+00 0.  1.
         21    1    1    2  504  502 -0.15082133497E+03  0.12273879768E+02  0.56329316166E+02  0.16146428418E+03  0.00000000000E+00 0.  1.
         21    1    1    2  505  506  0.14340591801E+03 -0.27550583907E+02  0.15539726948E+03  0.21324306168E+03  0.00000000000E+00 0.  1.
         21    1    1    2  506  501  0.38725882897E+01 -0.31434886227E+02  0.53964560649E+02  0.62572540449E+02  0.00000000000E+00 0.  1.
<scales pt_clust_3="42.83460" pt_clust_4="149.15110" pt_clust_5="14000.00000" pt_clust_6="31.67253"></scales>
<clustering>
<clus scale="   31.673">  1  6  2 -1</clus>
<clus scale="   42.835">  1  3  2 -1</clus>
<clus scale="  149.151">  2  4  1 -1</clus>
<clus scale="   31.673">  1  3  2 -1</clus>
</clustering>
</event>
<event>
 6    0  0.2666600E+002  0.1591428E+03  0.7546771E-02  0.1189668E+00
         21   -1    0    0  504  501  0.00000000000E+00  0.00000000000E+00  0.98068157398E+03  0.98068157398E+03  0.00000000000E+00 0.  1.
         21   -1    0    0  506  502 -0.00000000000E+00 -0.00000000000E+00 -0.35135873069E+03  0.35135873069E+03  0.00000000000E+00 0.  1.
         21    1    1    2  503  501 -0.14167495472E+03 -0.68220060656E+02  0.69099140342E+03  0.70865710261E+03  0.00000000000E+00 0.  1.
         21    1    1    2  504  505  0.13585901157E+03  0.10022749990E+03  0.17318921518E+03  0.24186303359E+03  0.00000000000E+00 0.  1.
         21    1    1    2  505  502 -0.25330442346E+02  0.97221096135E+02  0.11966500198E+02  0.10117692410E+03  0.00000000000E+00 0.  1.
         21    1    1    2  506  503  0.31146385494E+02 -0.12922853538E+03 -0.24682427551E+03  0.28034324438E+03  0.00000000000E+00 0.  1.
<scales pt_clust_3="14000.00000" pt_clust_4="159.14281" pt_clust_5="100.46677" pt_clust_6="46.64253"></scales>
<clustering>
<clus scale="  100.467">  2  5  1 -1</clus>
<clus scale="   46.643">  2  6  1 -1</clus>
<clus scale="  159.143">  2  4  1 -1</clus>
<clus scale="  159.143">  1  3  2 -1</clus>
</clustering>
</event>
<event>
 6    0  0.2666600E+002  0.8400949E+02  0.7546771E-02  0.1318043E+00
         21   -1    0    0  506  501  0.00000000000E+00  0.00000000000E+00  0.66300982770E+02  0.66300982770E+02  0.00000000000E+00 0.  1.
         21   -1    0    0  505  502 -0.00000000000E+00 -0.00000000000E+00 -0.70081896094E+03  0.70081896094E+03  0.00000000000E+00 0.  1.
         21    1    1    2  503  502  0.48067127953E+02 -0.27449983514E+02 -0.21563074340E+03  0.22262202919E+03  0.00000000000E+00 0.  1.
         21    1    1    2  504  503 -0.48912240317E+02 -0.90135210442E+02 -0.14498836929E+03  0.17759051395E+03  0.00000000000E+00 0.  1.
         21    1    1    2  505  501  0.26243443674E+02  0.35934046576E+02 -0.27776825428E+03  0.28130975298E+03  0.00000000000E+00 0.  1.
         21    1    1    2  506  504 -0.25398331310E+02  0.81651147380E+02  0.38693888006E+01  0.85597647581E+02  0.00000000000E+00 0.  1.
<scales pt_clust_3="62.33596" pt_clust_4="84.00949" pt_clust_5="44.49690" pt_clust_6="14000.00000"></scales>
<clustering>
<clus scale="   44.497">  2  5  1 -1</clus>
<clus scale="   62.336">  2  3  1 -1</clus>
<clus scale="   84.009">  2  4  1 -1</clus>
<clus scale="   84.009">  1  3  2 -1</clus>
</clustering>
</event>
<event>
 6    0  0.2666600E+002  0.1270158E+03  0.7546771E-02  0.1231952E+00
         21   -1    0    0  503  501  0.00000000000E+00  0.00000000000E+00  0.21445301062E+04  0.21445301062E+04  0.00000000000E+00 0.  1.
         21   -1    0    0  504  502 -0.00000000000E+00 -0.00000000000E+00 -0.42009860559E+02  0.42009860559E+02  0.00000000000E+00 0.  1.
         21    1    1    2  503  506  0.31508325609E+02  0.14604588377E+02  0.27048631962E+03  0.27270665134E+03  0.00000000000E+00 0.  1.
         21    1    1    2  504  505 -0.13985724452E+03  0.46298241203E+02  0.15506772644E+03  0.21389150467E+03  0.00000000000E+00 0.  1.
         21    1    1    2  505  501  0.11337425985E+02 -0.30027537037E+02  0.14592037792E+04  0.14595567339E+04  0.00000000000E+00 0.  1.
         21    1    1    2  506  502  0.97011492929E+02 -0.30875292544E+02  0.21776242039E+03  0.24038507687E+03  0.00000000000E+00 0.  1.
<scales pt_clust_3="36.10375" pt_clust_4="127.01583" pt_clust_5="32.09658" pt_clust_6="14000.00000"></scales>
<clustering>
<clus scale="   32.097">  1  5  2 -1</clus>
<clus scale="   36.104">  1  3  2 -1</clus>
<clus scale="  127.016">  2  4  1 -1</clus>
<clus scale="   32.097">  1  3  2 -1</clus>
</clustering>
</event>
<event>
 6    0  0.2666600E+002  0.1286361E+03  0.7546771E-02  0.1229494E+00
         21   -1    0    0  503  501  0.00000000000E+00  0.00000000000E+00  0.96417410780E+03  0.96417410780E+03  0.00000000000E+00 0.  1.
         21   -1    0    0  506  502 -0.00000000000E+00 -0.00000000000E+00 -0.68058315256E+02  0.68058315256E+02  0.00000000000E+00 0.  1.
         21    1    1    2  503  504 -0.91921632941E+02 -0.64004346084E+01  0.17324175288E+03  0.19622246841E+03  0.00000000000E+00 0.  1.
         21    1    1    2  504  505  0.62218153411E+02 -0.23514016437E+02  0.44640288880E+02  0.80104700075E+02  0.00000000000E+00 0.  1.
         21    1    1    2  505  502  0.65406136575E+02 -0.30125534945E+02 -0.20547772944E+01  0.72039799189E+02  0.00000000000E+00 0.  1.
         21    1    1    2  506  501 -0.35702657046E+02  0.60039985991E+02  0.68028852807E+03  0.68386545538E+03  0.00000000000E+00 0.  1.
<scales pt_clust_3="119.90825" pt_clust_4="44.76227" pt_clust_5="44.76227" pt_clust_6="69.85327"></scales>
<clustering>
<clus scale="   44.762">  4  5 -1 -1</clus>
<clus scale="   69.853">  1  6  2 -1</clus>
<clus scale="  119.908">  1  3  2 -1</clus>
<clus scale="   69.853">  1  3  2 -1</clus>
</clustering>
</event>
<event>
 6    0  0.2666600E+002  0.1367883E+03  0.7546771E-02  0.1217717E+00
         21   -1    0    0  504  501  0.00000000000E+00  0.00000000000E+00  0.16816278190E+03  0.16816278190E+03  0.00000000000E+00 0. -1.
         21   -1    0    0  501  502 -0.00000000000E+00 -0.00000000000E+00 -0.12766082036E+03  0.12766082036E+03  0.00000000000E+00 0. -1.
         21    1    1    2  503  505 -0.18029743063E+02 -0.66920708520E+02 -0.27265262121E+01  0.69360556578E+02  0.00000000000E+00 0. -1.
         21    1    1    2  504  506 -0.13227635336E+02  0.69004457658E+02  0.37852004988E+02  0.79808268963E+02  0.00000000000E+00 0. -1.
         21    1    1    2  505  502 -0.28818796088E+01 -0.59108875553E+02 -0.35130142064E+02  0.68820718397E+02  0.00000000000E+00 0.  1.
         21    1    1    2  506  503  0.34139258008E+02  0.57025126415E+02  0.40506624828E+02  0.77834058322E+02  0.00000000000E+00 0. -1.
<scales pt_clust_3="132.89446" pt_clust_4="47.55081" pt_clust_5="33.82815" pt_clust_6="47.55081"></scales>
<clustering>
<clus scale="   33.828">  3  5 -1 -1</clus>
<clus scale="   47.551">  4  6 -1 -1</clus>
<clus scale="  132.894">  2  3  1 -1</clus>
<clus scale="  136.788">  1  3  2 -1</clus>
</clustering>
</event>
<event>
 6    0  0.2666600E+002  0.1852346E+03  0.7546771E-02  0.1162831E+00
         21   -1    0    0  503  501  0.00000000000E+00  0.00000000000E+00  0.10104916909E+03  0.10104916909E+03  0.00000000000E+00 0.  1.
         21   -1    0    0  505  502 -0.00000000000E+00 -0.00000000000E+00 -0.41398353631E+03  0.41398353631E+03  0.00000000000E+00 0.  1.
         21    1    1    2  503  506 -0.41867544553E+02  0.11522236290E+02  0.91542673909E+00  0.43433756712E+02  0.00000000000E+00 0.  1.
         21    1    1    2  504  501  0.46672026531E+02  0.83425606156E+02 -0.64233383580E+02  0.11516960271E+03  0.00000000000E+00 0.  1.
         21    1    1    2  505  504  0.10138888744E+03  0.13920665665E+02 -0.99392619792E+02  0.14266178289E+03  0.00000000000E+00 0.  1.
         21    1    1    2  506  502 -0.10619336942E+03 -0.10886850811E+03 -0.15022379059E+03  0.21376756308E+03  0.00000000000E+00 0.  1.
<scales pt_clust_3="43.42411" pt_clust_4="90.28550" pt_clust_5="90.28550" pt_clust_6="161.26574"></scales>
<clustering>
<clus scale="   43.424">  1  3  2 -1</clus>
<clus scale="   90.286">  4  5 -1 -1</clus>
<clus scale="  161.266">  2  6  1 -1</clus>
<clus scale="   43.424">  1  3  2 -1</clus>
</clustering>
</event>
<event>
 6    0  0.2666600E+002  0.1413769E+03  0.7546771E-02  0.1211488E+00
         21   -1    0    0  505  501  0.00000000000E+00  0.00000000000E+00  0.17976254325E+04  0.17976254325E+04  0.00000000000E+00 0. -1.
         21   -1    0    0  503  502 -0.00000000000E+00 -0.00000000000E+00 -0.58074258986E+02  0.58074258986E+02  0.00000000000E+00 0. -1.
         21    1    1    2  503  504 -0.91680999763E+02 -0.30686107873E+01  0.23883856725E+01  0.91763426679E+02  0.00000000000E+00 0. -1.
         21    1    1    2  504  501 -0.35191423024E+02 -0.26004114751E+02  0.36448500251E+02  0.56948603223E+02  0.00000000000E+00 0. -1.
         21    1    1    2  505  506  0.38999447538E+02  0.97110821060E+01  0.22710747646E+03  0.23063622415E+03  0.00000000000E+00 0.  1.
         21    1    1    2  506  502  0.87872975249E+02  0.19361643433E+02  0.14736068111E+04  0.14763514374E+04  0.00000000000E+00 0. -1.
<scales pt_clust_3="41.54998" pt_clust_4="41.54998" pt_clust_5="40.19032" pt_clust_6="127.75880"></scales>
<clustering>
<clus scale="   40.190">  1  5  2 -1</clus>
<clus scale="   41.550">  3  4 -1 -1</clus>
<clus scale="  127.759">  1  6  2 -1</clus>
<clus scale="   40.190">  1  3  2 -1</clus>
</clustering>
</event>
<event>
 6    0  0.2666600E+002  0.8314364E+02  0.7546771E-02  0.1320360E+00
         21   -1    0    0  505  501  0.00000000000E+00  0.00000000000E+00  0.45517638060E+03  0.45517638060E+03  0.00000000000E+00 0.  1.
         21   -1    0    0  504  502 -0.00000000000E+00 -0.00000000000E+00 -0.90141493490E+02  0.90141493490E+02  0.00000000000E+00 0.  1.
         21    1    1    2  503  501 -0.53777339915E+02 -0.15510711874E+01  0.11377800039E+03  0.12585643203E+03  0.00000000000E+00 0.  1.
         21    1    1    2  504  506 -0.29001051807E+02 -0.25836796234E+02  0.27137413058E+02  0.47381855525E+02  0.00000000000E+00 0.  1.
         21    1    1    2  505  502 -0.39012298545E+02  0.16375725019E+02  0.24447528983E+03  0.24810943381E+03  0.00000000000E+00 0.  1.
         21    1    1    2  506  503  0.12179069027E+03  0.11012142402E+02 -0.20355816165E+02  0.12397015273E+03  0.00000000000E+00 0.  1.
<scales pt_clust_3="83.14364" pt_clust_4="38.84071" pt_clust_5="42.69742" pt_clust_6="14000.00000"></scales>
<clustering>
<clus scale="   38.841">  2  4  1 -1</clus>
<clus scale="   42.697">  1  5  2 -1</clus>
<clus scale="   83.144">  1  3  2 -1</clus>
<clus scale="   42.697">  1  3  2 -1</clus>
</clustering>
</event>
<event>
 6    0  0.2666600E+002  0.1318247E+03  0.7546771E-02  0.1224773E+00
         21   -1    0    0  505  501  0.00000000000E+00  0.00000000000E+00  0.14579789441E+03  0.14579789441E+03  0.00000000000E+00 0. -1.
         21   -1    0    0  506  502 -0.00000000000E+00 -0.00000000000E+00 -0.24869532513E+04  0.24869532513E+04  0.00000000000E+00 0. -1.
         21    1    1    2  503  501 -0.45538734062E+02 -0.18869596314E+02  0.44973315424E+02  0.66726584396E+02  0.00000000000E+00 0. -1.
         21    1    1    2  504  503 -0.18865741953E+02 -0.57840422463E+02 -0.78538330059E+03  0.78773622459E+03  0.00000000000E+00 0.  1.
         21    1    1    2  505  502  0.54084031775E+02  0.13900789556E+03  0.25066893518E+02  0.15125021214E+03  0.00000000000E+00 0. -1.
         21    1    1    2  506  504  0.10320444240E+02 -0.62297876782E+02 -0.16258122653E+04  0.16270381246E+04  0.00000000000E+00 0. -1.
<scales pt_clust_3="49.29339" pt_clust_4="51.75917" pt_clust_5="120.88372" pt_clust_6="51.75917"></scales>
<clustering>
<clus scale="   49.293">  1  3  2 -1</clus>
<clus scale="   51.759">  4  6 -1 -1</clus>
<clus scale="  120.884">  1  5  2 -1</clus>
<clus scale="   49.293">  1  3  2 -1</clus>
</clustering>
</event>
<event>
 6    0  0.2666600E+002  0.2197910E+03  0.7546771E-02  0.1134039E+00
         21   -1    0    0  502  501  0.00000000000E+00  0.00000000000E+00  0.10017332713E+03  0.10017332713E+03  0.00000000000E+00 0.  1.
         21   -1    0    0  504  502 -0.00000000000E+00 -0.00000000000E+00 -0.68496705654E+03  0.68496705654E+03  0.00000000000E+00 0.  1.
         21    1    1    2  503  501  0.90262493166E+02  0.10611786553E+03 -0.31576421691E+02  0.14284743422E+03  0.00000000000E+00 0.  1.
         21    1    1    2  504  506 -0.90037520091E+02 -0.35413026918E+02 -0.30186483202E+03  0.31699087418E+03  0.00000000000E+00 0.  1.
         21    1    1    2  505  503  0.75611811845E+02  0.16535205913E+02 -0.47085600726E+02  0.90595876952E+02  0.00000000000E+00 0.  1.
         21    1    1    2  506  505 -0.75836784920E+02 -0.87240044525E+02 -0.20426687498E+03  0.23470619832E+03  0.00000000000E+00 0.  1.
<scales pt_clust_3="56.52024" pt_clust_4="68.72082" pt_clust_5="56.52024" pt_clust_6="219.54579"></scales>
<clustering>
<clus scale="   56.520">  3  5 -1 -1</clus>
<clus scale="   68.721">  4  6 -1 -1</clus>
<clus scale="  219.546">  2  4  1 -1</clus>
<clus scale="  219.791">  1  3  2 -1</clus>
</clustering>
</event>
<event>
 6    0  0.2666600E+002  0.2321427E+03  0.7546771E-02  0.1125141E+00
         21   -1    0    0  503  501  0.00000000000E+00  0.00000000000E+00  0.21651969107E+03  0.21651969107E+03  0.00000000000E+00 0.  1.
         21   -1    0    0  506  502 -0.00000000000E+00 -0.00000000000E+00 -0.94291274284E+03  0.94291274284E+03  0.00000000000E+00 0.  1.
         21    1    1    2  503  502  0.96969162207E+02 -0.32825690401E+02 -0.25328103999E+02  0.10546116452E+03  0.00000000000E+00 0.  1.
         21    1    1    2  504  505 -0.98786927138E+02  0.54361925916E+02 -0.32374768995E+03  0.34282159021E+03  0.00000000000E+00 0.  1.
         21    1    1    2  505  501  0.12735371296E+03 -0.24692803863E+02  0.13289308217E+03  0.18571288070E+03  0.00000000000E+00 0.  1.
         21    1    1    2  506  504 -0.12553594803E+03  0.31565683480E+01 -0.51021033999E+03  0.52543679849E+03  0.00000000000E+00 0.  1.
<scales pt_clust_3="102.37453" pt_clust_4="65.35941" pt_clust_5="221.65900" pt_clust_6="65.35941"></scales>
<clustering>
<clus scale="   65.359">  4  6 -1 -1</clus>
<clus scale="  102.375">  1  3  2 -1</clus>
<clus scale="  221.659">  1  5  2 -1</clus>
<clus scale="  102.375">  1  3  2 -1</clus>
</clustering>
</event>
<event>
 6    0  0.2666600E+002  0.2256842E+03  0.7546771E-02  0.1129715E+00
         21   -1    0    0  503  501  0.00000000000E+00  0.00000000000E+00  0.22398334468E+03  0.22398334468E+03  0.00000000000E+00 0.  1.
         21   -1    0    0  504  502 -0.00000000000E+00 -0.00000000000E+00 -0.48694390331E+03  0.48694390331E+03  0.00000000000E+00 0.  1.
         21    1    1    2  503  505 -0.12746701315E+03 -0.90685700505E+02 -0.21444654156E+03  0.26544124567E+03  0.00000000000E+00 0.  1.
         21    1    1    2  504  506  0.66136963137E+02  0.43736168193E+02  0.90945796856E+02  0.12065690311E+03  0.00000000000E+00 0.  1.
         21    1    1    2  505  502 -0.57264519772E+02 -0.92563540069E+01 -0.17867553924E+03  0.18785593852E+03  0.00000000000E+00 0.  1.
         21    1    1    2  506  501  0.11859456978E+03  0.56205886319E+02  0.39215725312E+02  0.13697316070E+03  0.00000000000E+00 0.  1.
<scales pt_clust_3="50.28566" pt_clust_4="56.67797" pt_clust_5="50.28566" pt_clust_6="222.33135"></scales>
<clustering>
<clus scale="   50.286">  3  5 -1 -1</clus>
<clus scale="   56.678">  4  6 -1 -1</clus>
<clus scale="  222.331">  1  4  2 -1</clus>
<clus scale="  222.331">  1  3  2 -1</clus>
</clustering>
</event>
<event>
 6    0  0.2666600E+002  0.1710420E+03  0.7546771E-02  0.1176766E+00
         21   -1    0    0  506  501  0.00000000000E+00  0.00000000000E+00  0.82896240371E+03  0.82896240371E+03  0.00000000000E+00 0.  1.
         21   -1    0    0  504  502 -0.00000000000E+00 -0.00000000000E+00 -0.17287856627E+03  0.17287856627E+03  0.00000000000E+00 0.  1.
         21    1    1    2  503  501  0.53338891373E+02 -0.14391774099E+03 -0.10298483374E+03  0.18483297727E+03  0.00000000000E+00 0.  1.
         21    1    1    2  504  503 -0.26756886414E+02 -0.19956465361E+02 -0.50677969840E+01  0.33762020771E+02  0.00000000000E+00 0. -1.
         21    1    1    2  505  502 -0.24458815128E+02  0.57471198205E+02  0.21485286175E+03  0.22374745688E+03  0.00000000000E+00 0.  1.
         21    1    1    2  506  505 -0.21231898309E+01  0.10640300814E+03  0.54928360641E+03  0.55949851506E+03  0.00000000000E+00 0.  1.
<scales pt_clust_3="165.06670" pt_clust_4="33.37951" pt_clust_5="34.37496" pt_clust_6="34.37496"></scales>
<clustering>
<clus scale="   33.380">  2  4  1 -1</clus>
<clus scale="   34.375">  5  6 -1 -1</clus>
<clus scale="  165.067">  2  3  1 -1</clus>
<clus scale="  171.042">  1  3  2 -1</clus>
</clustering>
</event>
<event>
 6    0  0.2666600E+002  0.2815593E+03  0.7546771E-02  0.1094840E+00
         21   -1    0    0  503  501  0.00000000000E+00  0.00000000000E+00  0.42904155549E+03  0.42904155549E+03  0.00000000000E+00 0.  1.
         21   -1    0    0  506  502 -0.00000000000E+00 -0.00000000000E+00 -0.24887832888E+03  0.24887832888E+03  0.00000000000E+00 0. -1.
         21    1    1    2  503  505 -0.10054319566E+03  0.11204876798E+02 -0.79691376930E+01  0.10147901563E+03  0.00000000000E+00 0. -1.
         21    1    1    2  504  501  0.11386433722E+03  0.48430651579E+02  0.15454183383E+03  0.19797422485E+03  0.00000000000E+00 0.  1.
         21    1    1    2  505  502 -0.14929434121E+03 -0.92303137058E+02 -0.85081205384E+02  0.19505763491E+03  0.00000000000E+00 0. -1.
         21    1    1    2  506  504  0.13597319966E+03  0.32667608681E+02  0.11867173585E+03  0.18340900897E+03  0.00000000000E+00 0.  1.
<scales pt_clust_3="76.97374" pt_clust_4="40.03900" pt_clust_5="76.97374" pt_clust_6="266.09682"></scales>
<clustering>
<clus scale="   40.039">  4  6 -1 -1</clus>
<clus scale="   76.974">  3  5 -1 -1</clus>
<clus scale="  266.097">  1  4  2 -1</clus>
<clus scale="  266.097">  1  3  2 -1</clus>
</clustering>
</event>
<event>
 6    0  0.2666600E+002  0.1555269E+03  0.7546771E-02  0.1193841E+00
         21   -1    0    0  506  501  0.00000000000E+00  0.00000000000E+00  0.10879592724E+03  0.10879592724E+03  0.00000000000E+00 0.  1.
         21   -1    0    0  503  502 -0.00000000000E+00 -0.00000000000E+00 -0.82384149010E+03  0.82384149010E+03  0.00000000000E+00 0.  1.
         21    1    1    2  503  501  0.31956820114E+02  0.21224665111E+02 -0.55899058708E+02  0.67796972833E+02  0.00000000000E+00 0.  1.
         21    1    1    2  504  502  0.13181420282E+03  0.99896025648E+00 -0.67045262812E+03  0.68328815923E+03  0.00000000000E+00 0.  1.
         21    1    1    2  505  504 -0.12547212241E+03 -0.46799704235E+01  0.38598237901E+02  0.13135821099E+03  0.00000000000E+00 0.  1.
         21    1    1    2  506  505 -0.38298900523E+02 -0.17543654944E+02 -0.27292113932E+02  0.50194074281E+02  0.00000000000E+00 0. -1.
<scales pt_clust_3="38.36307" pt_clust_4="155.52694" pt_clust_5="14000.00000" pt_clust_6="40.20034"></scales>
<clustering>
<clus scale="   38.363">  2  3  1 -1</clus>
<clus scale="   40.200">  1  6  2 -1</clus>
<clus scale="  155.527">  2  4  1 -1</clus>
<clus scale="   40.200">  1  3  2 -1</clus>
</clustering>
</event>
<event>
 6    0  0.2666600E+002  0.8667020E+02  0.7546771E-02  0.1311122E+00
         21   -1    0    0  503  501  0.00000000000E+00  0.00000000000E+00  0.55222420372E+03  0.55222420372E+03  0.00000000000E+00 0.  1.
         21   -1    0    0  504  502 -0.00000000000E+00 -0.00000000000E+00 -0.60387842099E+02  0.60387842099E+02  0.00000000000E+00 0.  1.
         21    1    1    2  503  506  0.52149650448E+02  0.48330706015E+02  0.12231854456E+03  0.14148240007E+03  0.00000000000E+00 0.  1.
         21    1    1    2  504  501 -0.82476006081E+02 -0.56661912797E+02  0.10019721691E+03  0.14160630712E+03  0.00000000000E+00 0.  1.
         21    1    1    2  505  502 -0.26007498812E+02  0.81685235534E+02  0.73348846998E+02  0.11282252016E+03  0.00000000000E+00 0.  1.
         21    1    1    2  506  505  0.56333854445E+02 -0.73354028752E+02  0.19597175316E+03  0.21670081847E+03  0.00000000000E+00 0.  1.
<scales pt_clust_3="71.10164" pt_clust_4="79.88363" pt_clust_5="86.67020" pt_clust_6="14000.00000"></scales>
<clustering>
<clus scale="   71.102">  1  3  2 -1</clus>
<clus scale="   79.884">  1  4  2 -1</clus>
<clus scale="   86.670">  2  5  1 -1</clus>
<clus scale="   71.102">  1  3  2 -1</clus>
</clustering>
</event>
<event>
 6    0  0.2666600E+002  0.1785711E+03  0.7546771E-02  0.1169193E+00
         21   -1    0    0  505  501  0.00000000000E+00  0.00000000000E+00  0.82821658934E+03  0.82821658934E+03  0.00000000000E+00 0. -1.
         21   -1    0    0  504  502 -0.00000000000E+00 -0.00000000000E+00 -0.53767093029E+02  0.53767093029E+02  0.00000000000E+00 0. -1.
         21    1    1    2  503  501 -0.20621131675E+02 -0.72745634970E+02  0.43216699879E+02  0.87090996246E+02  0.00000000000E+00 0. -1.
         21    1    1    2  504  503  0.31895182126E+02 -0.94398975714E+02  0.10756287773E+03  0.14662278788E+03  0.00000000000E+00 0. -1.
         21    1    1    2  505  506 -0.54933293530E+01  0.47537457194E+02  0.28645696069E+03  0.29042654291E+03  0.00000000000E+00 0. -1.
         21    1    1    2  506  502 -0.57807210983E+01  0.11960715349E+03  0.33721295802E+03  0.35784335534E+03  0.00000000000E+00 0. -1.
<scales pt_clust_3="53.86287" pt_clust_4="53.86287" pt_clust_5="35.90122" pt_clust_6="176.88893"></scales>
<clustering>
<clus scale="   35.901">  5  6 -1 -1</clus>
<clus scale="   53.863">  3  4 -1 -1</clus>
<clus scale="  176.889">  1  5  2 -1</clus>
<clus scale="  176.889">  1  3  2 -1</clus>
</clustering>
</event>
<event>
 6    0  0.2666600E+002  0.7860356E+02  0.7546771E-02  0.1333062E+00
         21   -1    0    0  504  501  0.00000000000E+00  0.00000000000E+00  0.78219253364E+02  0.78219253364E+02  0.00000000000E+00 0. -1.
         21   -1    0    0  505  502 -0.00000000000E+00 -0.00000000000E+00 -0.15084642044E+04  0.15084642044E+04  0.00000000000E+00 0.  1.
         21    1    1    2  503  501 -0.12994798361E+02 -0.37019484666E+02 -0.68401512779E+01  0.39825804435E+02  0.00000000000E+00 0. -1.
         21    1    1    2  504  506  0.40794736493E+01 -0.32702756810E+02  0.51309065253E+02  0.60981411802E+02  0.00000000000E+00 0. -1.
         21    1    1    2  505  503 -0.55254697548E+02 -0.30122856341E+02 -0.54187435549E+03  0.54551653065E+03  0.00000000000E+00 0.  1.
         21    1    1    2  506  502  0.64170022260E+02  0.99845097817E+02 -0.93283950952E+03  0.94035971088E+03  0.00000000000E+00 0.  1.
<scales pt_clust_3="62.25346" pt_clust_4="32.95622" pt_clust_5="78.60356" pt_clust_6="14000.00000"></scales>
<clustering>
<clus scale="   32.956">  1  4  2 -1</clus>
<clus scale="   62.253">  1  3  2 -1</clus>
<clus scale="   78.604">  2  5  1 -1</clus>
<clus scale="   32.956">  1  3  2 -1</clus>
</clustering>
</event>
<event>
 6    0  0.2666600E+002  0.1126336E+03  0.7546771E-02  0.1255769E+00
         21   -1    0    0  506  501  0.00000000000E+00  0.00000000000E+00  0.37470420689E+02  0.37470420689E+02  0.00000000000E+00 0. -1.
         21   -1    0    0  503  502 -0.00000000000E+00 -0.00000000000E+00 -0.71137815118E+03  0.71137815118E+03  0.00000000000E+00 0. -1.
         21    1    1    2  503  505 -0.32759306716E+02  0.48602932817E+02 -0.22248512526E+03  0.23007617916E+03  0.00000000000E+00 0. -1.
         21    1    1    2  504  502  0.54433355587E+02 -0.48881405919E+02 -0.16495146642E+03  0.18044768859E+03  0.00000000000E+00 0. -1.
         21    1    1    2  505  501 -0.93947497455E+02  0.17518626684E+02 -0.10365935432E+03  0.14099041207E+03  0.00000000000E+00 0. -1.
         21    1    1    2  506  504  0.72273448584E+02 -0.17240153582E+02 -0.18281178449E+03  0.19733429204E+03  0.00000000000E+00 0. -1.
<scales pt_clust_3="58.61243" pt_clust_4="36.50322" pt_clust_5="106.45683" pt_clust_6="36.50322"></scales>
<clustering>
<clus scale="   36.503">  4  6 -1 -1</clus>
<clus scale="   58.612">  2  3  1 -1</clus>
<clus scale="  106.457">  1  5  2 -1</clus>
<clus scale="  106.457">  1  3  2 -1</clus>
</clustering>
</event>
<event>
 6    0  0.2666600E+002  0.9802954E+02  0.7546771E-02  0.1284495E+00
         21   -1    0    0  503  501  0.00000000000E+00  0.00000000000E+00  0.33229782144E+03  0.33229782144E+03  0.00000000000E+00 0.  1.
         21   -1    0    0  505  502 -0.00000000000E+00 -0.00000000000E+00 -0.46407873574E+03  0.46407873574E+03  0.00000000000E+00 0.  1.
         21    1    1    2  503  504 -0.13690797367E+01 -0.64939077855E+02  0.23813070823E+03  0.24683029071E+03  0.00000000000E+00 0.  1.
         21    1    1    2  504  506  0.70357368622E+02 -0.17840290827E+02  0.44114860028E+02  0.84938543498E+02  0.00000000000E+00 0.  1.
         21    1    1    2  505  501 -0.11494925729E+03  0.66094611611E+02 -0.38624391855E+03  0.40837016793E+03  0.00000000000E+00 0.  1.
         21    1    1    2  506  502  0.45960968400E+02  0.16684757072E+02 -0.27782564008E+02  0.56237555047E+02  0.00000000000E+00 0.  1.
<scales pt_clust_3="64.77332" pt_clust_4="98.02954" pt_clust_5="14000.00000" pt_clust_6="48.89572"></scales>
<clustering>
<clus scale="   48.896">  2  6  1 -1</clus>
<clus scale="   64.773">  1  3  2 -1</clus>
<clus scale="   98.030">  1  4  2 -1</clus>
<clus scale="   64.773">  1  3  2 -1</clus>
</clustering>
</event>
<event>
 6    0  0.2666600E+002  0.1093810E+03  0.7546771E-02  0.1261720E+00
         21   -1    0    0  503  501  0.00000000000E+00  0.00000000000E+00  0.77531389207E+03  0.77531389207E+03  0.00000000000E+00 0. -1.
         21   -1    0    0  501  502 -0.00000000000E+00 -0.00000000000E+00 -0.62078549648E+02  0.62078549648E+02  0.00000000000E+00 0. -1.
         21    1    1    2  503  504 -0.34846034349E+02 -0.11549186989E+02  0.94176845420E+02  0.10107872201E+03  0.00000000000E+00 0. -1.
         21    1    1    2  504  505  0.63869533326E+00 -0.10426591694E+03  0.50485212613E+03  0.51550699183E+03  0.00000000000E+00 0. -1.
         21    1    1    2  505  506 -0.40019676511E+02  0.10056410490E+03  0.91421342480E+02  0.14167771724E+03  0.00000000000E+00 0. -1.
         21    1    1    2  506  502  0.74227015527E+02  0.15250999033E+02  0.22785028393E+02  0.79129010638E+02  0.00000000000E+00 0. -1.
<scales pt_clust_3="36.71008" pt_clust_4="14000.00000" pt_clust_5="109.38100" pt_clust_6="73.03697"></scales>
<clustering>
<clus scale="   36.710">  1  3  2 -1</clus>
<clus scale="   73.037">  2  6  1 -1</clus>
<clus scale="  109.381">  2  5  1 -1</clus>
<clus scale="   36.710">  1  3  2 -1</clus>
</clustering>
</event>
<event>
 6    0  0.2666600E+002  0.1080312E+03  0.7546771E-02  0.1264260E+00
         21   -1    0    0  504  501  0.00000000000E+00  0.00000000000E+00  0.80405316711E+03  0.80405316711E+03  0.00000000000E+00 0.  1.
         21   -1    0    0  503  502 -0.00000000000E+00 -0.00000000000E+00 -0.55056067407E+02  0.55056067407E+02  0.00000000000E+00 0.  1.
         21    1    1    2  503  505 -0.79392700944E+02  0.77064922320E+02  0.39289544531E+02  0.11741325106E+03  0.00000000000E+00 0.  1.
         21    1    1    2  504  506 -0.35159912295E+02  0.17334401324E+02  0.76637716626E+02  0.86081592176E+02  0.00000000000E+00 0.  1.
         21    1    1    2  505  501  0.51896250359E+02 -0.77814098273E+02  0.48566258893E+03  0.49458710555E+03  0.00000000000E+00 0.  1.
         21    1    1    2  506  502  0.62656362880E+02 -0.16585225371E+02  0.14740724961E+03  0.16102728573E+03  0.00000000000E+00 0.  1.
<scales pt_clust_3="14000.00000" pt_clust_4="39.20078" pt_clust_5="108.03117" pt_clust_6="56.63889"></scales>
<clustering>
<clus scale="   39.201">  1  4  2 -1</clus>
<clus scale="   56.639">  1  6  2 -1</clus>
<clus scale="  108.031">  1  5  2 -1</clus>
<clus scale="   39.201">  1  3  2 -1</clus>
</clustering>
</event>
<event>
 6    0  0.2666600E+002  0.6562270E+02  0.7546771E-02  0.1375644E+00
         21   -1    0    0  506  501  0.00000000000E+00  0.00000000000E+00  0.62892358769E+03  0.62892358769E+03  0.00000000000E+00 0. -1.
         21   -1    0    0  505  502 -0.00000000000E+00 -0.00000000000E+00 -0.10794094131E+03  0.10794094131E+03  0.00000000000E+00 0. -1.
         21    1    1    2  503  504 -0.64873179251E+02  0.31403100541E+02 -0.34096682465E+02  0.79732476851E+02  0.00000000000E+00 0. -1.
         21    1    1    2  504  501  0.10846155605E+03  0.15819423521E+02  0.16688774485E+03  0.19966392434E+03  0.00000000000E+00 0. -1.
         21    1    1    2  505  503  0.80397261036E+01 -0.37068795848E+02 -0.22044592898E+02  0.43871367627E+02  0.00000000000E+00 0. -1.
         21    1    1    2  506  502 -0.51628102898E+02 -0.10153728214E+02  0.41023617688E+03  0.41359676018E+03  0.00000000000E+00 0. -1.
<scales pt_clust_3="14000.00000" pt_clust_4="65.62270" pt_clust_5="37.93063" pt_clust_6="52.60749"></scales>
<clustering>
<clus scale="   37.931">  2  5  1 -1</clus>
<clus scale="   52.607">  1  6  2 -1</clus>
<clus scale="   65.623">  1  4  2 -1</clus>
<clus scale="   52.607">  1  3  2 -1</clus>
</clustering>
</event>
<event>
 6    0  0.2666600E+002  0.1452981E+03  0.7546771E-02  0.1206373E+00
         21   -1    0    0  504  501  0.00000000000E+00  0.00000000000E+00  0.82874122221E+01  0.82874122221E+01  0.00000000000E+00 0. -1.
         21   -1    0    0  505  502 -0.00000000000E+00 -0.00000000000E+00 -0.24342464706E+04  0.24342464706E+04  0.00000000000E+00 0. -1.
         21    1    1    2  503  501 -0.21706658908E+02 -0.68238224429E+02 -0.50268464067E+03  0.50775927592E+03  0.00000000000E+00 0. -1.
         21    1    1    2  504  506  0.60316733904E+02  0.85695169253E+02 -0.83341178845E+03  0.83997439219E+03  0.00000000000E+00 0. -1.
         21    1    1    2  505  503 -0.30481656618E+02 -0.56348814175E+02 -0.69107071322E+03  0.69403389753E+03  0.00000000000E+00 0. -1.
         21    1    1    2  506  502 -0.81284183785E+01  0.38891869350E+02 -0.39879191609E+03  0.40076631723E+03  0.00000000000E+00 0. -1.
<scales pt_clust_3="138.76234" pt_clust_4="32.96404" pt_clust_5="30.05180" pt_clust_6="32.96404"></scales>
<clustering>
<clus scale="   30.052">  3  5 -1 -1</clus>
<clus scale="   32.964">  4  6 -1 -1</clus>
<clus scale="  138.762">  2  3  1 -1</clus>
<clus scale="  145.298">  1  3  2 -1</clus>
</clustering>
</event>
<event>
 6    0  0.2666600E+002  0.7326782E+02  0.7546771E-02  0.1349321E+00
         21   -1    0    0  505  501  0.00000000000E+00  0.00000000000E+00  0.41160074718E+03  0.41160074718E+03  0.00000000000E+00 0.  1.
         21   -1    0    0  506  502 -0.00000000000E+00 -0.00000000000E+00 -0.44484017395E+03  0.44484017395E+03  0.00000000000E+00 0.  1.
         21    1    1    2  503  504 -0.11686169259E+03  0.28352522130E+02  0.21307382286E+03  0.24466502548E+03  0.00000000000E+00 0.  1.
         21    1    1    2  504  502  0.21731818493E+02 -0.29240844787E+02 -0.34395217330E+02  0.50103192654E+02  0.00000000000E+00 0.  1.
         21    1    1    2  505  503  0.50545715394E+02  0.93102520673E+00  0.16989932199E+03  0.17726115131E+03  0.00000000000E+00 0.  1.
         21    1    1    2  506  501  0.44584158702E+02 -0.42702549325E-01 -0.38181735428E+03  0.38441155168E+03  0.00000000000E+00 0.  1.
<scales pt_clust_3="73.26782" pt_clust_4="36.43211" pt_clust_5="50.74875" pt_clust_6="14000.00000"></scales>
<clustering>
<clus scale="   36.432">  2  4  1 -1</clus>
<clus scale="   50.749">  1  5  2 -1</clus>
<clus scale="   73.268">  1  3  2 -1</clus>
<clus scale="   50.749">  1  3  2 -1</clus>
</clustering>
</event>
<event>
 6    0  0.2666600E+002  0.2759456E+03  0.7546771E-02  0.1097924E+00
         21   -1    0    0  505  501  0.00000000000E+00  0.00000000000E+00  0.33223621697E+03  0.33223621697E+03  0.00000000000E+00 0. -1.
         21   -1    0    0  504  502 -0.00000000000E+00 -0.00000000000E+00 -0.22583098445E+03  0.22583098445E+03  0.00000000000E+00 0. -1.
         21    1    1    2  503  502  0.53755839529E+02  0.91036435963E+02  0.45283138825E+02  0.11501254548E+03  0.00000000000E+00 0. -1.
         21    1    1    2  504  506 -0.16685997778E+03 -0.15010958794E+03  0.18951950964E+02  0.22524279571E+03  0.00000000000E+00 0. -1.
         21    1    1    2  505  503  0.15185810616E+03  0.67017956820E+02  0.90796765235E+01  0.16623697383E+03  0.00000000000E+00 0. -1.
         21    1    1    2  506  501 -0.38753967913E+02 -0.79448048484E+01  0.33090466211E+02  0.51574886400E+02  0.00000000000E+00 0. -1.
<scales pt_clust_3="75.23839" pt_clust_4="271.88162" pt_clust_5="75.23839" pt_clust_6="34.26528"></scales>
<clustering>
<clus scale="   34.265">  4  6 -1 -1</clus>
<clus scale="   75.238">  3  5 -1 -1</clus>
<clus scale="  271.882">  2  4  1 -1</clus>
<clus scale="  275.946">  1  3  2 -1</clus>
</clustering>
</event>
<event>
 6    0  0.2666600E+002  0.1695010E+03  0.7546771E-02  0.1178369E+00
         21   -1    0    0  505  501  0.00000000000E+00  0.00000000000E+00  0.14026367536E+04  0.14026367536E+04  0.00000000000E+00 0. -1.
         21   -1    0    0  501  502 -0.00000000000E+00 -0.00000000000E+00 -0.10997668168E+03  0.10997668168E+03  0.00000000000E+00 0.  1.
         21    1    1    2  503  506  0.23538059113E+02 -0.41462054034E+02  0.15323665437E+02  0.50079505528E+02  0.00000000000E+00 0. -1.
         21    1    1    2  504  503 -0.32142997209E+02  0.47277793949E+02  0.26896745442E+03  0.27497609643E+03  0.00000000000E+00 0.  1.
         21    1    1    2  505  504 -0.67382737136E+02  0.74588485897E+02  0.10605052910E+04  0.10652583478E+04  0.00000000000E+00 0. -1.
         21    1    1    2  506  502  0.75987675233E+02 -0.80404225812E+02 -0.52136338894E+02  0.12229948548E+03  0.00000000000E+00 0.  1.
<scales pt_clust_3="39.40283" pt_clust_4="47.54062" pt_clust_5="47.54062" pt_clust_6="168.40233"></scales>
<clustering>
<clus scale="   39.403">  3  6 -1 -1</clus>
<clus scale="   47.541">  4  5 -1 -1</clus>
<clus scale="  168.402">  2  3  1 -1</clus>
<clus scale="  169.501">  1  3  2 -1</clus>
</clustering>
</event>
<event>
 6    0  0.2666600E+002  0.9806409E+02  0.7546771E-02  0.1284420E+00
         21   -1    0    0  504  501  0.00000000000E+00  0.00000000000E+00  0.44381342881E+03  0.44381342881E+03  0.00000000000E+00 0.  1.
         21   -1    0    0  506  502 -0.00000000000E+00 -0.00000000000E+00 -0.94203917818E+02  0.94203917818E+02  0.00000000000E+00 0.  1.
         21    1    1    2  503  505  0.77221221399E+02  0.61137884323E+02 -0.49423079051E+01  0.98617363285E+02  0.00000000000E+00 0.  1.
         21    1    1    2  504  502 -0.10550093713E+03  0.35739634046E+02  0.27997016198E+03  0.30131555017E+03  0.00000000000E+00 0.  1.
         21    1    1    2  505  501  0.74554442668E+01 -0.71527483663E+02  0.76785956734E+02  0.10520383890E+03  0.00000000000E+00 0.  1.
         21    1    1    2  506  503  0.20824271465E+02 -0.25350034706E+02 -0.22042998159E+01  0.32880594267E+02  0.00000000000E+00 0. -1.
<scales pt_clust_3="14000.00000" pt_clust_4="98.06409" pt_clust_5="77.06127" pt_clust_6="32.80662"></scales>
<clustering>
<clus scale="   32.807">  2  6  1 -1</clus>
<clus scale="   77.061">  1  5  2 -1</clus>
<clus scale="   98.064">  1  4  2 -1</clus>
<clus scale="   77.061">  1  3  2 -1</clus>
</clustering>
</event>
<event>
 6    0  0.2666600E+002  0.2634200E+03  0.7546771E-02  0.1105106E+00
         21   -1    0    0  504  501  0.00000000000E+00  0.00000000000E+00  0.11190385896E+03  0.11190385896E+03  0.00000000000E+00 0.  1.
         21   -1    0    0  505  502 -0.00000000000E+00 -0.00000000000E+00 -0.71822981809E+03  0.71822981809E+03  0.00000000000E+00 0.  1.
         21    1    1    2  503  502 -0.34125207328E+02  0.33817388555E+02 -0.10268889620E+03  0.11337175550E+03  0.00000000000E+00 0.  1.
         21    1    1    2  504  503 -0.21400898315E+03  0.48184079055E+01 -0.35432558835E+03  0.41396821675E+03  0.00000000000E+00 0.  1.
         21    1    1    2  505  506  0.43296701657E+02 -0.15581380113E+02 -0.66013896403E+02  0.80468741129E+02  0.00000000000E+00 0.  1.
         21    1    1    2  506  501  0.20483748882E+03 -0.23054416348E+02 -0.83297578188E+02  0.22232496367E+03  0.00000000000E+00 0.  1.
<scales pt_clust_3="37.18796" pt_clust_4="263.10684" pt_clust_5="37.58122" pt_clust_6="37.58122"></scales>
<clustering>
<clus scale="   37.188">  3  4 -1 -1</clus>
<clus scale="   37.581">  5  6 -1 -1</clus>
<clus scale="  263.107">  2  3  1 -1</clus>
<clus scale="  263.420">  1  3  2 -1</clus>
</clustering>
</event>
<event>
 6    0  0.2666600E+002  0.1736214E+03  0.7546771E-02  0.1174123E+00
         21   -1    0    0  505  501  0.00000000000E+00  0.00000000000E+00  0.47836137845E+03  0.47836137845E+03  0.00000000000E+00 0. -1.
         21   -1    0    0  506  502 -0.00000000000E+00 -0.00000000000E+00 -0.62037552978E+02  0.62037552978E+02  0.00000000000E+00 0. -1.
         21    1    1    2  503  501  0.69868971811E+02  0.50625720292E+02  0.14938721275E+03  0.17251427799E+03  0.00000000000E+00 0. -1.
         21    1    1    2  504  502 -0.80830714922E+02 -0.71497642542E+02  0.13223050546E+03  0.17067637194E+03  0.00000000000E+00 0. -1.
         21    1    1    2  505  504 -0.61118928709E+02 -0.14620161046E+02  0.69798921438E+02  0.93921041250E+02  0.00000000000E+00 0. -1.
         21    1    1    2  506  503  0.72080671820E+02  0.35492083296E+02  0.64907185822E+02  0.10328724025E+03  0.00000000000E+00 0.  1.
<scales pt_clust_3="48.99982" pt_clust_4="170.86808" pt_clust_5="30.80869" pt_clust_6="48.99982"></scales>
<clustering>
<clus scale="   30.809">  4  5 -1 -1</clus>
<clus scale="   49.000">  3  6 -1 -1</clus>
<clus scale="  170.868">  2  4  1 -1</clus>
<clus scale="  173.621">  1  3  2 -1</clus>
</clustering>
</event>
<event>
 6    0  0.2666600E+002  0.9626079E+02  0.7546771E-02  0.1288361E+00
         21   -1    0    0  505  501  0.00000000000E+00  0.00000000000E+00  0.61997440447E+03  0.61997440447E+03  0.00000000000E+00 0.  1.
         21   -1    0    0  503  502 -0.00000000000E+00 -0.00000000000E+00 -0.65734725505E+02  0.65734725505E+02  0.00000000000E+00 0.  1.
         21    1    1    2  503  506  0.40436176994E+02 -0.70626836078E+02  0.36388654789E+02  0.89148015018E+02  0.00000000000E+00 0.  1.
         21    1    1    2  504  502 -0.96154384378E+02  0.55356882534E+01  0.12471999757E+03  0.15757978066E+03  0.00000000000E+00 0.  1.
         21    1    1    2  505  504 -0.42443883734E+02  0.41566937296E+02  0.28472303882E+03  0.29085477884E+03  0.00000000000E+00 0.  1.
         21    1    1    2  506  501  0.98162091118E+02  0.23524210529E+02  0.10840798779E+03  0.14812655545E+03  0.00000000000E+00 0.  1.
<scales pt_clust_3="70.64841" pt_clust_4="96.26079" pt_clust_5="59.40786" pt_clust_6="14000.00000"></scales>
<clustering>
<clus scale="   59.408">  1  5  2 -1</clus>
<clus scale="   70.648">  2  3  1 -1</clus>
<clus scale="   96.261">  2  4  1 -1</clus>
<clus scale="   59.408">  1  3  2 -1</clus>
</clustering>
</event>
<event>
 6    0  0.2666600E+002  0.1051105E+03  0.7546771E-02  0.1269902E+00
         21   -1    0    0  502  501  0.00000000000E+00  0.00000000000E+00  0.19574489683E+03  0.19574489683E+03  0.00000000000E+00 0. -1.
         21   -1    0    0  503  502 -0.00000000000E+00 -0.00000000000E+00 -0.50378168281E+03  0.50378168281E+03  0.00000000000E+00 0. -1.
         21    1    1    2  503  504  0.17183191266E+02  0.25564771713E+02 -0.16175070017E+03  0.16465754954E+03  0.00000000000E+00 0. -1.
         21    1    1    2  504  505 -0.11188482534E+03 -0.82797051321E+02 -0.27783735925E+03  0.31075257689E+03  0.00000000000E+00 0. -1.
         21    1    1    2  505  506  0.82288129521E+02 -0.12147089173E+02  0.10227982509E+02  0.83806322325E+02  0.00000000000E+00 0. -1.
         21    1    1    2  506  501  0.12413504552E+02  0.69379368780E+02  0.12132329093E+03  0.14031013089E+03  0.00000000000E+00 0. -1.
<scales pt_clust_3="30.80292" pt_clust_4="105.11046" pt_clust_5="14000.00000" pt_clust_6="71.26781"></scales>
<clustering>
<clus scale="   30.803">  2  3  1 -1</clus>
<clus scale="   71.268">  1  6  2 -1</clus>
<clus scale="  105.110">  2  4  1 -1</clus>
<clus scale="   71.268">  1  3  2 -1</clus>
</clustering>
</event>
<event>
 6    0  0.2666600E+002  0.1405654E+03  0.7546771E-02  0.1212570E+00
         21   -1    0    0  504  501  0.00000000000E+00  0.00000000000E+00  0.18812796765E+04  0.18812796765E+04  0.00000000000E+00 0.  1.
         21   -1    0    0  503  502 -0.00000000000E+00 -0.00000000000E+00 -0.50986659997E+02  0.50986659997E+02  0.00000000000E+00 0.  1.
         21    1    1    2  503  506  0.43974541760E+02  0.40736334829E+02  0.79765297168E+02  0.99778313930E+02  0.00000000000E+00 0.  1.
         21    1    1    2  504  502  0.48493072855E+02  0.55177248512E+02 -0.25090211773E+01  0.73501034384E+02  0.00000000000E+00 0.  1.
         21    1    1    2  505  501 -0.37286839264E+02 -0.61944541914E+02  0.11981689544E+04  0.12003483985E+04  0.00000000000E+00 0.  1.
         21    1    1    2  506  505 -0.55180775350E+02 -0.33969041426E+02  0.55486778617E+03  0.55863858967E+03  0.00000000000E+00 0.  1.
<scales pt_clust_3="59.94338" pt_clust_4="128.88325" pt_clust_5="53.11395" pt_clust_6="53.11395"></scales>
<clustering>
<clus scale="   53.114">  5  6 -1 -1</clus>
<clus scale="   59.943">  2  3  1 -1</clus>
<clus scale="  128.883">  2  4  1 -1</clus>
<clus scale="  140.565">  1  3  2 -1</clus>
</clustering>
</event>
<event>
 6    0  0.2666600E+002  0.1979114E+03  0.7546771E-02  0.1151513E+00
         21   -1    0    0  506  501  0.00000000000E+00  0.00000000000E+00  0.13967881775E+03  0.13967881775E+03  0.00000000000E+00 0. -1.
         21   -1    0    0  503  502 -0.00000000000E+00 -0.00000000000E+00 -0.64252817925E+03  0.64252817925E+03  0.00000000000E+00 0. -1.
         21    1    1    2  503  505 -0.77918891764E+02 -0.11038153927E+03 -0.43389276947E+03  0.45444292635E+03  0.00000000000E+00 0. -1.
         21    1    1    2  504  501  0.21838125727E+02  0.14278590075E+03  0.30144149377E+02  0.14755807985E+03  0.00000000000E+00 0. -1.
         21    1    1    2  505  504  0.42819247170E+02  0.44224786395E+02 -0.10724103535E+02  0.62484606556E+02  0.00000000000E+00 0.  1.
         21    1    1    2  506  502  0.13261518867E+02 -0.76629147876E+02 -0.88376637872E+02  0.11772138424E+03  0.00000000000E+00 0. -1.
<scales pt_clust_3="185.96160" pt_clust_4="44.21422" pt_clust_5="44.21422" pt_clust_6="77.76821"></scales>
<clustering>
<clus scale="   44.214">  4  5 -1 -1</clus>
<clus scale="   77.768">  2  6  1 -1</clus>
<clus scale="  185.962">  2  3  1 -1</clus>
<clus scale="  197.911">  1  3  2 -1</clus>
</clustering>
</event>
<event>
 6    0  0.2666600E+002  0.1747543E+03  0.7546771E-02  0.1172979E+00
         21   -1    0    0  505  501  0.00000000000E+00  0.00000000000E+00  0.11304042230E+03  0.11304042230E+03  0.00000000000E+00 0.  1.
         21   -1    0    0  506  502 -0.00000000000E+00 -0.00000000000E+00 -0.78517799634E+03  0.78517799634E+03  0.00000000000E+00 0. -1.
         21    1    1    2  503  502 -0.74649240923E+02 -0.75054812014E+02  0.90571803553E+01  0.10624390097E+03  0.00000000000E+00 0. -1.
         21    1    1    2  504  501  0.10037237547E+03  0.51958806583E+02 -0.36778116060E+03  0.38475617400E+03  0.00000000000E+00 0. -1.
         21    1    1    2  505  503 -0.65761019067E+02 -0.14426711206E+02  0.19279058946E+02  0.70030877039E+02  0.00000000000E+00 0.  1.
         21    1    1    2  506  504  0.40037884518E+02  0.37522716637E+02 -0.33269265274E+03  0.33718746663E+03  0.00000000000E+00 0.  1.
<scales pt_clust_3="173.98234" pt_clust_4="36.98211" pt_clust_5="40.25469" pt_clust_6="36.98211"></scales>
<clustering>
<clus scale="   36.982">  4  6 -1 -1</clus>
<clus scale="   40.255">  3  5 -1 -1</clus>
<clus scale="  173.982">  1  3  2 -1</clus>
<clus scale="  173.982">  1  3  2 -1</clus>
</clustering>
</event>
<event>
 6    0  0.2666600E+002  0.1322474E+03  0.7546771E-02  0.1224159E+00
         21   -1    0    0  502  501  0.00000000000E+00  0.00000000000E+00  0.12231392795E+03  0.12231392795E+03  0.00000000000E+00 0.  1.
         21   -1    0    0  504  502 -0.00000000000E+00 -0.00000000000E+00 -0.44305973227E+03  0.44305973227E+03  0.00000000000E+00 0. -1.
         21    1    1    2  503  506 -0.89455523189E+02 -0.38415075222E+02 -0.17125580051E+03  0.19699380153E+03  0.00000000000E+00 0. -1.
         21    1    1    2  504  503 -0.56526472906E+01 -0.43627798409E+02 -0.21233210906E+03  0.21684155910E+03  0.00000000000E+00 0. -1.
         21    1    1    2  505  501  0.31050824359E+02  0.33680252426E+02  0.53962692568E+02  0.70784781458E+02  0.00000000000E+00 0.  1.
         21    1    1    2  506  505  0.64057346120E+02  0.48362621206E+02  0.88794126806E+01  0.80753518136E+02  0.00000000000E+00 0.  1.
<scales pt_clust_3="119.37863" pt_clust_4="43.99247" pt_clust_5="42.98976" pt_clust_6="42.98976"></scales>
<clustering>
<clus scale="   42.990">  5  6 -1 -1</clus>
<clus scale="   43.992">  2  4  1 -1</clus>
<clus scale="  119.379">  2  3  1 -1</clus>
<clus scale="  132.247">  1  3  2 -1</clus>
</clustering>
</event>
<event>
 6    0  0.2666600E+002  0.9533597E+02  0.7546771E-02  0.1290421E+00
         21   -1    0    0  506  501  0.00000000000E+00  0.00000000000E+00  0.58384315753E+02  0.58384315753E+02  0.00000000000E+00 0. -1.
         21   -1    0    0  505  502 -0.00000000000E+00 -0.00000000000E+00 -0.34879216942E+03  0.34879216942E+03  0.00000000000E+00 0. -1.
         21    1    1    2  503  502 -0.25716612597E+02 -0.51816288249E+02 -0.58748987357E+02  0.82448258968E+02  0.00000000000E+00 0. -1.
         21    1    1    2  504  501  0.10449087606E+03  0.26309988660E+02 -0.95627300413E+02  0.14406644047E+03  0.00000000000E+00 0. -1.
         21    1    1    2  505  504  0.66585643809E+01  0.30532726725E+02 -0.52348597877E+02  0.60966872812E+02  0.00000000000E+00 0. -1.
         21    1    1    2  506  503 -0.85432827849E+02 -0.50264271357E+01 -0.83682968018E+02  0.11969491293E+03  0.00000000000E+00 0. -1.
<scales pt_clust_3="50.55562" pt_clust_4="95.33597" pt_clust_5="31.25034" pt_clust_6="14000.00000"></scales>
<clustering>
<clus scale="   31.250">  2  5  1 -1</clus>
<clus scale="   50.556">  2  3  1 -1</clus>
<clus scale="   95.336">  2  4  1 -1</clus>
<clus scale="   95.336">  1  3  2 -1</clus>
</clustering>
</event>
<event>
 6    0  0.2666600E+002  0.1682761E+03  0.7546771E-02  0.1179658E+00
         21   -1    0    0  506  501  0.00000000000E+00  0.00000000000E+00  0.16652080181E+04  0.16652080181E+04  0.00000000000E+00 0.  1.
         21   -1    0    0  503  502 -0.00000000000E+00 -0.00000000000E+00 -0.18772282058E+03  0.18772282058E+03  0.00000000000E+00 0. -1.
         21    1    1    2  503  505 -0.62786959867E+02  0.12843298402E+03 -0.14615534232E+03  0.20444710270E+03  0.00000000000E+00 0. -1.
         21    1    1    2  504  501  0.32183131828E+02 -0.63844235040E+02  0.72044164605E+03  0.72398066665E+03  0.00000000000E+00 0.  1.
         21    1    1    2  505  504  0.59751907636E+01 -0.96880308590E+02  0.85904920405E+03  0.86451548978E+03  0.00000000000E+00 0.  1.
         21    1    1    2  506  502  0.24628637275E+02  0.32291559610E+02  0.44149689750E+02  0.59987579557E+02  0.00000000000E+00 0. -1.
<scales pt_clust_3="164.54969" pt_clust_4="30.22527" pt_clust_5="30.22527" pt_clust_6="40.61175"></scales>
<clustering>
<clus scale="   30.225">  4  5 -1 -1</clus>
<clus scale="   40.612">  2  6  1 -1</clus>
<clus scale="  164.550">  2  3  1 -1</clus>
<clus scale="  168.276">  1  3  2 -1</clus>
</clustering>
</event>
<event>
 6    0  0.2666600E+002  0.1109498E+03  0.7546771E-02  0.1258821E+00
         21   -1    0    0  505  501  0.00000000000E+00  0.00000000000E+00  0.19538790369E+04  0.19538790369E+04  0.00000000000E+00 0. -1.
         21   -1    0    0  503  502 -0.00000000000E+00 -0.00000000000E+00 -0.15433237665E+03  0.15433237665E+03  0.00000000000E+00 0. -1.
         21    1    1    2  503  501  0.18627231147E+02 -0.87495295101E+02  0.13987400459E+03  0.16603354349E+03  0.00000000000E+00 0. -1.
         21    1    1    2  504  502 -0.10958203029E+03  0.49406003359E+02 -0.11341351307E+03  0.16526281940E+03  0.00000000000E+00 0. -1.
         21    1    1    2  505  506  0.52622357533E+02 -0.11419862752E+02  0.77883291630E+03  0.78069215270E+03  0.00000000000E+00 0. -1.
         21    1    1    2  506  504  0.38332441608E+02  0.49509154494E+02  0.99425325244E+03  0.99622289798E+03  0.00000000000E+00 0. -1.
<scales pt_clust_3="110.94982" pt_clust_4="14000.00000" pt_clust_5="53.84724" pt_clust_6="92.00555"></scales>
<clustering>
<clus scale="   53.847">  1  5  2 -1</clus>
<clus scale="   92.006">  1  6  2 -1</clus>
<clus scale="  110.950">  1  3  2 -1</clus>
<clus scale="   53.847">  1  3  2 -1</clus>
</clustering>
</event>
<event>
 6    0  0.2666600E+002  0.1432401E+03  0.7546771E-02  0.1209035E+00
         21   -1    0    0  504  501  0.00000000000E+00  0.00000000000E+00  0.51182322729E+02  0.51182322729E+02  0.00000000000E+00 0.  1.
         21   -1    0    0  503  502 -0.00000000000E+00 -0.00000000000E+00 -0.53945392782E+03  0.53945392782E+03  0.00000000000E+00 0.  1.
         21    1    1    2  503  506  0.79815699533E+02 -0.16377963030E+02 -0.82931167520E+02  0.11625989038E+03  0.00000000000E+00 0.  1.
         21    1    1    2  504  505 -0.63500789962E+02  0.22034146066E+02 -0.14292834985E+03  0.15794418985E+03  0.00000000000E+00 0.  1.
         21    1    1    2  505  502 -0.63519489531E+02  0.17558744811E+02 -0.25491567645E+03  0.26329648150E+03  0.00000000000E+00 0.  1.
         21    1    1    2  506  501  0.47204579960E+02 -0.23214927847E+02 -0.74964112769E+01  0.53135688818E+02  0.00000000000E+00 0.  1.
<scales pt_clust_3="42.63851" pt_clust_4="138.43350" pt_clust_5="37.86184" pt_clust_6="42.63851"></scales>
<clustering>
<clus scale="   37.862">  4  5 -1 -1</clus>
<clus scale="   42.639">  3  6 -1 -1</clus>
<clus scale="  138.434">  2  4  1 -1</clus>
<clus scale="  143.240">  1  3  2 -1</clus>
</clustering>
</event>
<event>
 6    0  0.2666600E+002  0.1933682E+03  0.7546771E-02  0.1155458E+00
         21   -1    0    0  504  501  0.00000000000E+00  0.00000000000E+00  0.62536494771E+03  0.62536494771E+03  0.00000000000E+00 0. -1.
         21   -1    0    0  505  502 -0.00000000000E+00 -0.00000000000E+00 -0.17483616070E+03  0.17483616070E+03  0.00000000000E+00 0. -1.
         21    1    1    2  503  506  0.13109690988E+01 -0.45489362913E+02  0.38737565323E+02  0.59762862593E+02  0.00000000000E+00 0. -1.
         21    1    1    2  504  502  0.91226262038E+02  0.76594822548E+02  0.24967032837E+02  0.12170600008E+03  0.00000000000E+00 0. -1.
         21    1    1    2  505  503 -0.77728118823E+02 -0.19621687262E+03  0.14948244408E+02  0.21158017763E+03  0.00000000000E+00 0. -1.
         21    1    1    2  506  501 -0.14809112314E+02  0.16511141299E+03  0.37187594444E+03  0.40715206810E+03  0.00000000000E+00 0. -1.
<scales pt_clust_3="37.38971" pt_clust_4="119.11758" pt_clust_5="37.38971" pt_clust_6="175.80632"></scales>
<clustering>
<clus scale="   37.390">  3  5 -1 -1</clus>
<clus scale="  119.118">  2  4  1 -1</clus>
<clus scale="  175.806">  1  6  2 -1</clus>
<clus scale="  175.806">  1  3  2 -1</clus>
</clustering>
</event>
<event>
 6    0  0.2666600E+002  0.1596427E+03  0.7546771E-02  0.1189101E+00
         21   -1    0    0  506  501  0.00000000000E+00  0.00000000000E+00  0.33559272558E+03  0.33559272558E+03  0.00000000000E+00 0. -1.
         21   -1    0    0  504  502 -0.00000000000E+00 -0.00000000000E+00 -0.51015759587E+03  0.51015759587E+03  0.00000000000E+00 0. -1.
         21    1    1    2  503  505 -0.15739324789E+03 -0.39266612459E+02 -0.33408335146E+03  0.37138415025E+03  0.00000000000E+00 0. -1.
         21    1    1    2  504  501  0.10797060983E+03 -0.13098953747E+03  0.61256538743E+02  0.18046682535E+03  0.00000000000E+00 0. -1.
         21    1    1    2  505  502 -0.16871939516E+02  0.41073555460E+02 -0.62887512957E+02  0.76984015139E+02  0.00000000000E+00 0. -1.
         21    1    1    2  506  503  0.66294577570E+02  0.12918259447E+03  0.16114945538E+03  0.21691533071E+03  0.00000000000E+00 0. -1.
<scales pt_clust_3="14000.00000" pt_clust_4="159.64274" pt_clust_5="44.40382" pt_clust_6="147.04244"></scales>
<clustering>
<clus scale="   44.404">  2  5  1 -1</clus>
<clus scale="  147.042">  1  6  2 -1</clus>
<clus scale="  159.643">  1  4  2 -1</clus>
<clus scale="  147.042">  1  3  2 -1</clus>
</clustering>
</event>
<event>
 6    0  0.2666600E+002  0.1450401E+03  0.7546771E-02  0.1206704E+00
         21   -1    0    0  505  501  0.00000000000E+00  0.00000000000E+00  0.28173483425E+03  0.28173483425E+03  0.00000000000E+00 0.  1.
         21   -1    0    0  503  502 -0.00000000000E+00 -0.00000000000E+00 -0.26534406002E+03  0.26534406002E+03  0.00000000000E+00 0.  1.
         21    1    1    2  503  506  0.57909540509E+02 -0.49363496742E+01  0.85434072573E+01  0.58744125133E+02  0.00000000000E+00 0.  1.
         21    1    1    2  504  502 -0.13938660869E+03  0.48109461911E+02 -0.18058674302E+03  0.23314098474E+03  0.00000000000E+00 0.  1.
         21    1    1    2  505  504  0.12112348881E+03 -0.40644449143E+02  0.16632019598E+03  0.20972667541E+03  0.00000000000E+00 0.  1.
         21    1    1    2  506  501 -0.39646420632E+02 -0.25286630937E+01  0.22113914023E+02  0.45467108984E+02  0.00000000000E+00 0.  1.
<scales pt_clust_3="52.79452" pt_clust_4="145.04015" pt_clust_5="14000.00000" pt_clust_6="39.72698"></scales>
<clustering>
<clus scale="   39.727">  1  6  2 -1</clus>
<clus scale="   52.795">  1  3  2 -1</clus>
<clus scale="  145.040">  2  4  1 -1</clus>
<clus scale="   39.727">  1  3  2 -1</clus>
</clustering>
</event>
<event>
 6    0  0.2666600E+002  0.1908478E+03  0.7546771E-02  0.1157699E+00
         21   -1    0    0  506  501  0.00000000000E+00  0.00000000000E+00  0.20544993809E+03  0.20544993809E+03  0.00000000000E+00 0. -1.
         21   -1    0    0  505  502 -0.00000000000E+00 -0.00000000000E+00 -0.26757887016E+04  0.26757887016E+04  0.00000000000E+00 0. -1.
         21    1    1    2  503  504 -0.29496736802E+02 -0.22625315179E+03 -0.13896214912E+04  0.14082288291E+04  0.00000000000E+00 0. -1.
         21    1    1    2  504  502 -0.60790137382E+02  0.59330834884E+02 -0.11067162419E+04  0.11099713640E+04  0.00000000000E+00 0. -1.
         21    1    1    2  505  501 -0.10424827222E+03  0.82358016897E+02 -0.43544027175E+02  0.13980925402E+03  0.00000000000E+00 0. -1.
         21    1    1    2  506  503  0.19453514641E+03  0.84564300014E+02  0.69542996796E+02  0.22322919260E+03  0.00000000000E+00 0. -1.
<scales pt_clust_3="14000.00000" pt_clust_4="84.94462" pt_clust_5="137.79740" pt_clust_6="190.84779"></scales>
<clustering>
<clus scale="   84.945">  2  4  1 -1</clus>
<clus scale="  137.797">  1  5  2 -1</clus>
<clus scale="  190.848">  1  6  2 -1</clus>
<clus scale="  137.797">  1  3  2 -1</clus>
</clustering>
</event>
<event>
 6    0  0.2666600E+002  0.1413471E+03  0.7546771E-02  0.1211528E+00
         21   -1    0    0  503  501  0.00000000000E+00  0.00000000000E+00  0.43627500030E+03  0.43627500030E+03  0.00000000000E+00 0. -1.
         21   -1    0    0  504  502 -0.00000000000E+00 -0.00000000000E+00 -0.32842199893E+03  0.32842199893E+03  0.00000000000E+00 0. -1.
         21    1    1    2  503  502 -0.17308702392E+03  0.73695507269E+02  0.31783534175E+03  0.36933649983E+03  0.00000000000E+00 0. -1.
         21    1    1    2  504  505  0.19533775659E+02 -0.31598401169E+02 -0.69118266508E+02  0.78468860786E+02  0.00000000000E+00 0. -1.
         21    1    1    2  505  506  0.79007189023E+02  0.14470375129E+02 -0.19351192314E+03  0.20951943125E+03  0.00000000000E+00 0. -1.
         21    1    1    2  506  501  0.74546059238E+02 -0.56567481229E+02  0.52647849275E+02  0.10737220736E+03  0.00000000000E+00 0. -1.
<scales pt_clust_3="14000.00000" pt_clust_4="37.14872" pt_clust_5="95.05227" pt_clust_6="141.34714"></scales>
<clustering>
<clus scale="   37.149">  2  4  1 -1</clus>
<clus scale="   95.052">  2  5  1 -1</clus>
<clus scale="  141.347">  2  6  1 -1</clus>
<clus scale="  141.347">  1  3  2 -1</clus>
</clustering>
</event>
<event>
 6    0  0.2666600E+002  0.1010624E+03  0.7546771E-02  0.1278078E+00
         21   -1    0    0  504  501  0.00000000000E+00  0.00000000000E+00  0.35517692157E+03  0.35517692157E+03  0.00000000000E+00 0. -1.
         21   -1    0    0  505  502 -0.00000000000E+00 -0.00000000000E+00 -0.24682202204E+03  0.24682202204E+03  0.00000000000E+00 0. -1.
         21    1    1    2  503  501 -0.15904947993E+02  0.32250597361E+02  0.36970574451E+02  0.51574138636E+02  0.00000000000E+00 0.  1.
         21    1    1    2  504  506 -0.35990247628E+02 -0.21447790610E+02  0.25802377201E+03  0.26140308446E+03  0.00000000000E+00 0. -1.
         21    1    1    2  505  503  0.87032871016E+02  0.69588061796E+02 -0.16423786319E+03  0.19847240284E+03  0.00000000000E+00 0. -1.
         21    1    1    2  506  502 -0.35137675396E+02 -0.80390868547E+02 -0.22401583729E+02  0.90549317675E+02  0.00000000000E+00 0. -1.
<scales pt_clust_3="35.95926" pt_clust_4="49.58159" pt_clust_5="101.06241" pt_clust_6="14000.00000"></scales>
<clustering>
<clus scale="   35.959">  1  3  2 -1</clus>
<clus scale="   49.582">  1  4  2 -1</clus>
<clus scale="  101.062">  2  5  1 -1</clus>
<clus scale="   35.959">  1  3  2 -1</clus>
</clustering>
</event>
<event>
 6    0  0.2666600E+002  0.9265159E+02  0.7546771E-02  0.1296555E+00
         21   -1    0    0  504  501  0.00000000000E+00  0.00000000000E+00  0.34829932449E+02  0.34829932449E+02  0.00000000000E+00 0.  1.
         21   -1    0    0  506  502 -0.00000000000E+00 -0.00000000000E+00 -0.11502592500E+04  0.11502592500E+04  0.00000000000E+00 0. -1.
         21    1    1    2  503  502 -0.30687039413E+02  0.19180249765E+02 -0.18605127482E+03  0.18953799944E+03  0.00000000000E+00 0.  1.
         21    1    1    2  504  503  0.30424600910E+02  0.24135417070E+01 -0.79353648757E+02  0.85020486326E+02  0.00000000000E+00 0.  1.
         21    1    1    2  505  501 -0.91036074026E+02 -0.65702029425E+02 -0.90321610700E+02  0.14409134882E+03  0.00000000000E+00 0.  1.
         21    1    1    2  506  505  0.91298512529E+02  0.44108237953E+02 -0.75970278328E+03  0.76643934787E+03  0.00000000000E+00 0. -1.
<scales pt_clust_3="34.86611" pt_clust_4="30.52018" pt_clust_5="92.65159" pt_clust_6="14000.00000"></scales>
<clustering>
<clus scale="   30.520">  1  4  2 -1</clus>
<clus scale="   34.866">  2  3  1 -1</clus>
<clus scale="   92.652">  1  5  2 -1</clus>
<clus scale="   30.520">  1  3  2 -1</clus>
</clustering>
</event>
<event>
 6    0  0.3602686E+002  0.1078001E+03  0.7546771E-02  0.1264699E+00
         21   -1    0    0  503  501  0.00000000000E+00  0.00000000000E+00  0.50015161657E+03  0.50015161657E+03  0.00000000000E+00 0.  1.
         21   -1    0    0  505  502 -0.00000000000E+00 -0.00000000000E+00 -0.31092460068E+03  0.31092460068E+03  0.00000000000E+00 0. -1.
         21    1    1    2  503  506 -0.74424331045E+02 -0.77079508323E+02  0.40139081734E+03  0.41544532721E+03  0.00000000000E+00 0.  1.
         21    1    1    2  504  501 -0.22748435321E+02  0.26704407445E+02  0.58920278818E+02  0.68572705522E+02  0.00000000000E+00 0.  1.
         21    1    1    2  505  504  0.92693136883E+01  0.41127858449E+02 -0.24400444562E+00  0.42160176174E+02  0.00000000000E+00 0.  1.
         21    1    1    2  506  502  0.87903452678E+02  0.92472424287E+01 -0.27084007583E+03  0.28489800835E+03  0.00000000000E+00 0. -1.
<scales pt_clust_3="107.80006" pt_clust_4="35.08015" pt_clust_5="43.19139" pt_clust_6="14000.00000"></scales>
<clustering>
<clus scale="   35.080">  1  4  2 -1</clus>
<clus scale="   43.191">  2  5  1 -1</clus>
<clus scale="  107.800">  1  3  2 -1</clus>
<clus scale="   35.080">  1  3  2 -1</clus>
</clustering>
</event>
<event>
 6    0  0.2666600E+002  0.8199906E+02  0.7546771E-02  0.1323472E+00
         21   -1    0    0  503  501  0.00000000000E+00  0.00000000000E+00  0.69630333298E+02  0.69630333298E+02  0.00000000000E+00 0. -1.
         21   -1    0    0  505  502 -0.00000000000E+00 -0.00000000000E+00 -0.62792371451E+03  0.62792371451E+03  0.00000000000E+00 0. -1.
         21    1    1    2  503  502  0.92737844146E+02 -0.33386313007E+02 -0.41068544042E+03  0.42234758743E+03  0.00000000000E+00 0. -1.
         21    1    1    2  504  506 -0.50571133173E+02  0.34622091604E+02 -0.10390594790E+03  0.12063405302E+03  0.00000000000E+00 0. -1.
         21    1    1    2  505  504  0.36345051296E+02 -0.19981653969E+02 -0.59295333851E+02  0.72361356162E+02  0.00000000000E+00 0.  1.
         21    1    1    2  506  501 -0.78511762270E+02  0.18745875371E+02  0.15593340960E+02  0.82211051206E+02  0.00000000000E+00 0. -1.
<scales pt_clust_3="14000.00000" pt_clust_4="53.04876" pt_clust_5="41.47565" pt_clust_6="81.99906"></scales>
<clustering>
<clus scale="   41.476">  2  5  1 -1</clus>
<clus scale="   53.049">  2  4  1 -1</clus>
<clus scale="   81.999">  1  6  2 -1</clus>
<clus scale="   81.999">  1  3  2 -1</clus>
</clustering>
</event>
<event>
 6    0  0.2666600E+002  0.2075993E+03  0.7546771E-02  0.1143481E+00
         21   -1    0    0  503  501  0.00000000000E+00  0.00000000000E+00  0.59344111976E+03  0.59344111976E+03  0.00000000000E+00 0. -1.
         21   -1    0    0  505  502 -0.00000000000E+00 -0.00000000000E+00 -0.41390725793E+03  0.41390725793E+03  0.00000000000E+00 0.  1.
         21    1    1    2  503  502  0.10027063229E+03  0.15698326302E+03 -0.32087164392E+03  0.37102096497E+03  0.00000000000E+00 0.  1.
         21    1    1    2  504  506 -0.64921544833E+02 -0.75671246757E+02  0.33760424419E+03  0.35201927541E+03  0.00000000000E+00 0. -1.
         21    1    1    2  505  504  0.35189331589E+02 -0.67047419034E+01 -0.42005574631E+02  0.55206076856E+02  0.00000000000E+00 0.  1.
         21    1    1    2  506  501 -0.70538419048E+02 -0.74607274363E+02  0.20480683619E+03  0.22910206045E+03  0.00000000000E+00 0. -1.
<scales pt_clust_3="201.34122" pt_clust_4="49.91908" pt_clust_5="35.82238" pt_clust_6="49.91908"></scales>
<clustering>
<clus scale="   35.822">  2  5  1 -1</clus>
<clus scale="   49.919">  4  6 -1 -1</clus>
<clus scale="  201.341">  2  3  1 -1</clus>
<clus scale="  207.599">  1  3  2 -1</clus>
</clustering>
</event>
<event>
 6    0  0.2666600E+002  0.1309313E+03  0.7546771E-02  0.1226080E+00
         21   -1    0    0  504  501  0.00000000000E+00  0.00000000000E+00  0.26524901002E+02  0.26524901002E+02  0.00000000000E+00 0.  1.
         21   -1    0    0  505  502 -0.00000000000E+00 -0.00000000000E+00 -0.65454408883E+03  0.65454408883E+03  0.00000000000E+00 0.  1.
         21    1    1    2  503  501  0.57320751514E+02  0.22815184753E+02 -0.15007773959E+03  0.16226376407E+03  0.00000000000E+00 0.  1.
         21    1    1    2  504  506 -0.46723053807E+02 -0.37152342637E+02 -0.12716045331E+03  0.14047462834E+03  0.00000000000E+00 0. -1.
         21    1    1    2  505  503  0.40861663408E+02  0.53161824083E+02 -0.10786368339E+03  0.12700562692E+03  0.00000000000E+00 0.  1.
         21    1    1    2  506  502 -0.51459361115E+02 -0.38824666199E+02 -0.24291731154E+03  0.25132497050E+03  0.00000000000E+00 0.  1.
<scales pt_clust_3="39.90544" pt_clust_4="32.44937" pt_clust_5="39.90544" pt_clust_6="128.64437"></scales>
<clustering>
<clus scale="   32.449">  4  6 -1 -1</clus>
<clus scale="   39.905">  3  5 -1 -1</clus>
<clus scale="  128.644">  2  4  1 -1</clus>
<clus scale="  130.931">  1  3  2 -1</clus>
</clustering>
</event>
<event>
 6    0  0.2666600E+002  0.1307120E+03  0.7546771E-02  0.1226403E+00
         21   -1    0    0  502  501  0.00000000000E+00  0.00000000000E+00  0.45250022865E+03  0.45250022865E+03  0.00000000000E+00 0. -1.
         21   -1    0    0  506  502 -0.00000000000E+00 -0.00000000000E+00 -0.69581580565E+03  0.69581580565E+03  0.00000000000E+00 0.  1.
         21    1    1    2  503  505  0.35037452764E+02  0.88122120125E+02 -0.28128334314E+03  0.29683909830E+03  0.00000000000E+00 0.  1.
         21    1    1    2  504  501 -0.65335871255E+00 -0.66321902697E+02  0.17436768543E+03  0.18655592024E+03  0.00000000000E+00 0. -1.
         21    1    1    2  505  504  0.42532113799E+02 -0.46570418796E+02  0.25632435584E+03  0.26396961948E+03  0.00000000000E+00 0. -1.
         21    1    1    2  506  503 -0.76916207850E+02  0.24770201368E+02 -0.39272427513E+03  0.40095139628E+03  0.00000000000E+00 0.  1.
<scales pt_clust_3="118.77080" pt_clust_4="53.22496" pt_clust_5="53.22496" pt_clust_6="80.80635"></scales>
<clustering>
<clus scale="   53.225">  4  5 -1 -1</clus>
<clus scale="   80.806">  2  6  1 -1</clus>
<clus scale="  118.771">  2  3  1 -1</clus>
<clus scale="  130.712">  1  3  2 -1</clus>
</clustering>
</event>
<event>
 6    0  0.2666600E+002  0.2048982E+03  0.7546771E-02  0.1145671E+00
         21   -1    0    0  502  501  0.00000000000E+00  0.00000000000E+00  0.26003276746E+03  0.26003276746E+03  0.00000000000E+00 0.  1.
         21   -1    0    0  505  502 -0.00000000000E+00 -0.00000000000E+00 -0.35176923242E+03  0.35176923242E+03  0.00000000000E+00 0.  1.
         21    1    1    2  503  501 -0.63967765057E+02  0.11453843010E+03  0.16523822619E+03  0.21098482962E+03  0.00000000000E+00 0.  1.
         21    1    1    2  504  503 -0.38549154967E+02  0.43812614743E+02  0.15041398552E+02  0.60264634984E+02  0.00000000000E+00 0.  1.
         21    1    1    2  505  506  0.32379729515E+02 -0.88713633670E+02 -0.18977758185E+03  0.21197661724E+03  0.00000000000E+00 0.  1.
         21    1    1    2  506  504  0.70137190509E+02 -0.69637411171E+02 -0.82238507853E+02  0.12857591804E+03  0.00000000000E+00 0.  1.
<scales pt_clust_3="202.67099" pt_clust_4="49.42115" pt_clust_5="78.19065" pt_clust_6="78.19065"></scales>
<clustering>
<clus scale="   49.421">  3  4 -1 -1</clus>
<clus scale="   78.191">  5  6 -1 -1</clus>
<clus scale="  202.671">  1  3  2 -1</clus>
<clus scale="  202.671">  1  3  2 -1</clus>
</clustering>
</event>
<event>
 6    0  0.2666600E+002  0.1162095E+03  0.7546771E-02  0.1249484E+00
         21   -1    0    0  505  501  0.00000000000E+00  0.00000000000E+00  0.44844559834E+03  0.44844559834E+03  0.00000000000E+00 0.  1.
         21   -1    0    0  506  502 -0.00000000000E+00 -0.00000000000E+00 -0.17154005342E+03  0.17154005342E+03  0.00000000000E+00 0.  1.
         21    1    1    2  503  501 -0.82420909888E+02 -0.83740957928E+02  0.32094392791E+03  0.34177589044E+03  0.00000000000E+00 0.  1.
         21    1    1    2  504  503  0.19225452193E+02  0.62343241542E+02  0.39173373332E+02  0.76097640937E+02  0.00000000000E+00 0.  1.
         21    1    1    2  505  502  0.67210450648E+02  0.75409650487E+02 -0.10317267646E+03  0.14438996236E+03  0.00000000000E+00 0.  1.
         21    1    1    2  506  504 -0.40149929530E+01 -0.54011934100E+02  0.19960920130E+02  0.57722158017E+02  0.00000000000E+00 0.  1.
<scales pt_clust_3="116.20952" pt_clust_4="58.87338" pt_clust_5="14000.00000" pt_clust_6="54.16096"></scales>
<clustering>
<clus scale="   54.161">  2  6  1 -1</clus>
<clus scale="   58.873">  2  4  1 -1</clus>
<clus scale="  116.210">  1  3  2 -1</clus>
<clus scale="  116.210">  1  3  2 -1</clus>
</clustering>
</event>
<event>
 6    0  0.2837175E+002  0.1453795E+03  0.7546771E-02  0.1206268E+00
         21   -1    0    0  506  501  0.00000000000E+00  0.00000000000E+00  0.14911927334E+03  0.14911927334E+03  0.00000000000E+00 0.  1.
         21   -1    0    0  504  502 -0.00000000000E+00 -0.00000000000E+00 -0.37992242383E+03  0.37992242383E+03  0.00000000000E+00 0. -1.
         21    1    1    2  503  505 -0.67295595937E+01  0.30887515235E+02 -0.85926565178E+02  0.91557086963E+02  0.00000000000E+00 0.  1.
         21    1    1    2  504  501  0.10437496038E+03 -0.45023456371E+02  0.94085591558E+02  0.14755792936E+03  0.00000000000E+00 0.  1.
         21    1    1    2  505  502 -0.10607925487E+03  0.45443758005E+02 -0.22827336736E+03  0.25578638295E+03  0.00000000000E+00 0. -1.
         21    1    1    2  506  503  0.84338540853E+01 -0.31307816869E+02 -0.10688809500E+02  0.34140297895E+02  0.00000000000E+00 0.  1.
<scales pt_clust_3="30.39933" pt_clust_4="133.27262" pt_clust_5="30.39933" pt_clust_6="32.42390"></scales>
<clustering>
<clus scale="   30.399">  3  5 -1 -1</clus>
<clus scale="   32.424">  1  6  2 -1</clus>
<clus scale="  133.273">  1  4  2 -1</clus>
<clus scale="   32.424">  1  3  2 -1</clus>
</clustering>
</event>
<event>
 6    0  0.2666600E+002  0.1085489E+03  0.7546771E-02  0.1263281E+00
         21   -1    0    0  503  501  0.00000000000E+00  0.00000000000E+00  0.10215870150E+03  0.10215870150E+03  0.00000000000E+00 0. -1.
         21   -1    0    0  505  502 -0.00000000000E+00 -0.00000000000E+00 -0.25241487686E+03  0.25241487686E+03  0.00000000000E+00 0. -1.
         21    1    1    2  503  504  0.55807671047E+02  0.29735587890E+01  0.20587605934E+02  0.59558271614E+02  0.00000000000E+00 0. -1.
         21    1    1    2  504  506  0.49399082043E+02 -0.31843765741E+02  0.15020871839E+02  0.60662355000E+02  0.00000000000E+00 0. -1.
         21    1    1    2  505  501 -0.88840894366E+02 -0.19754899554E+02 -0.11000476494E+03  0.14277257747E+03  0.00000000000E+00 0. -1.
         21    1    1    2  506  502 -0.16365858724E+02  0.48625106506E+02 -0.75859888195E+02  0.91580374270E+02  0.00000000000E+00 0. -1.
<scales pt_clust_3="34.92953" pt_clust_4="34.92953" pt_clust_5="102.46846" pt_clust_6="51.30538"></scales>
<clustering>
<clus scale="   34.930">  3  4 -1 -1</clus>
<clus scale="   51.305">  2  6  1 -1</clus>
<clus scale="  102.468">  2  5  1 -1</clus>
<clus scale="  108.549">  1  3  2 -1</clus>
</clustering>
</event>
<event>
 6    0  0.7213330E+002  0.1271599E+03  0.7546771E-02  0.1231732E+00
         21   -1    0    0  503  501  0.00000000000E+00  0.00000000000E+00  0.16449734859E+04  0.16449734859E+04  0.00000000000E+00 0.  1.
         21   -1    0    0  506  502 -0.00000000000E+00 -0.00000000000E+00 -0.59656181610E+03  0.59656181610E+03  0.00000000000E+00 0.  1.
         21    1    1    2  503  502 -0.24201917979E+02  0.18823738206E+02  0.43440680712E+02  0.53171032476E+02  0.00000000000E+00 0.  1.
         21    1    1    2  504  501  0.46375645316E+02  0.96298426844E+02  0.15880125420E+04  0.15916054539E+04  0.00000000000E+00 0.  1.
         21    1    1    2  505  504 -0.34012735331E+01 -0.73252137621E+02 -0.24878237097E+03  0.25936482497E+03  0.00000000000E+00 0.  1.
         21    1    1    2  506  505 -0.18772453804E+02 -0.41870027428E+02 -0.33425918191E+03  0.33739399063E+03  0.00000000000E+00 0.  1.
<scales pt_clust_3="30.66050" pt_clust_4="117.17849" pt_clust_5="39.07750" pt_clust_6="39.07750"></scales>
<clustering>
<clus scale="   30.660">  1  3  2 -1</clus>
<clus scale="   39.078">  5  6 -1 -1</clus>
<clus scale="  117.178">  1  4  2 -1</clus>
<clus scale="   30.660">  1  3  2 -1</clus>
</clustering>
</event>
<event>
 6    0  0.2666600E+002  0.2818948E+03  0.7546771E-02  0.1094659E+00
         21   -1    0    0  502  501  0.00000000000E+00  0.00000000000E+00  0.51425445030E+03  0.51425445030E+03  0.00000000000E+00 0.  1.
         21   -1    0    0  506  502 -0.00000000000E+00 -0.00000000000E+00 -0.28562157582E+03  0.28562157582E+03  0.00000000000E+00 0.  1.
         21    1    1    2  503  505  0.30607741661E+03 -0.60536843769E+02  0.28399321385E+03  0.42190074653E+03  0.00000000000E+00 0.  1.
         21    1    1    2  504  503 -0.63959228901E+02 -0.64134859227E+01 -0.55377524332E+02  0.84844481049E+02  0.00000000000E+00 0.  1.
         21    1    1    2  505  501 -0.65850094361E+02 -0.27766744185E+02  0.49580573311E+02  0.86979654287E+02  0.00000000000E+00 0. -1.
         21    1    1    2  506  504 -0.17626809334E+03  0.94717073876E+02 -0.49563388353E+02  0.20615114426E+03  0.00000000000E+00 0.  1.
<scales pt_clust_3="267.03087" pt_clust_4="51.19559" pt_clust_5="71.46487" pt_clust_6="51.19559"></scales>
<clustering>
<clus scale="   51.196">  4  6 -1 -1</clus>
<clus scale="   71.465">  1  5  2 -1</clus>
<clus scale="  267.031">  1  3  2 -1</clus>
<clus scale="   71.465">  1  3  2 -1</clus>
</clustering>
</event>
<event>
 6    0  0.2666600E+002  0.1107137E+03  0.7546771E-02  0.1259254E+00
         21   -1    0    0  503  501  0.00000000000E+00  0.00000000000E+00  0.18442819844E+04  0.18442819844E+04  0.00000000000E+00 0.  1.
         21   -1    0    0  504  502 -0.00000000000E+00 -0.00000000000E+00 -0.98317741570E+02  0.98317741570E+02  0.00000000000E+00 0. -1.
         21    1    1    2  503  502  0.43001493393E+02 -0.10632528201E+03  0.14344624782E+04  0.14390402341E+04  0.00000000000E+00 0.  1.
         21    1    1    2  504  506  0.17090436723E+02  0.51527839008E+02 -0.34786788908E+02  0.64477297577E+02  0.00000000000E+00 0. -1.
         21    1    1    2  505  501  0.35046425341E+02  0.24627792867E+02  0.33602989296E+03  0.33874897649E+03  0.00000000000E+00 0.  1.
         21    1    1    2  506  505 -0.95138355457E+02  0.30169650138E+02  0.10258660539E+02  0.10033321775E+03  0.00000000000E+00 0. -1.
<scales pt_clust_3="110.71368" pt_clust_4="54.62769" pt_clust_5="42.83433" pt_clust_6="14000.00000"></scales>
<clustering>
<clus scale="   42.834">  1  5  2 -1</clus>
<clus scale="   54.628">  2  4  1 -1</clus>
<clus scale="  110.714">  1  3  2 -1</clus>
<clus scale="   42.834">  1  3  2 -1</clus>
</clustering>
</event>
<event>
 6    0  0.2666600E+002  0.1339282E+03  0.7546771E-02  0.1221741E+00
         21   -1    0    0  506  501  0.00000000000E+00  0.00000000000E+00  0.17457306631E+03  0.17457306631E+03  0.00000000000E+00 0. -1.
         21   -1    0    0  505  502 -0.00000000000E+00 -0.00000000000E+00 -0.27078994997E+04  0.27078994997E+04  0.00000000000E+00 0. -1.
         21    1    1    2  503  504  0.55046863682E+01 -0.92576908301E+02  0.89898106346E+02  0.12916057853E+03  0.00000000000E+00 0. -1.
         21    1    1    2  504  502  0.27372282195E+02  0.60457060863E+02 -0.23534142537E+03  0.24451970174E+03  0.00000000000E+00 0.  1.
         21    1    1    2  505  501 -0.64673759556E+02  0.58112119340E+02 -0.24404982698E+04  0.24420465840E+04  0.00000000000E+00 0. -1.
         21    1    1    2  506  503  0.31796790993E+02 -0.25992271902E+02  0.52615155447E+02  0.66745701725E+02  0.00000000000E+00 0. -1.
<scales pt_clust_3="34.05683" pt_clust_4="66.36489" pt_clust_5="123.76418" pt_clust_6="34.05683"></scales>
<clustering>
<clus scale="   34.057">  3  6 -1 -1</clus>
<clus scale="   66.365">  2  4  1 -1</clus>
<clus scale="  123.764">  2  5  1 -1</clus>
<clus scale="  133.928">  1  3  2 -1</clus>
</clustering>
</event>
<event>
 6    0  0.2666600E+002  0.8650612E+02  0.7546771E-02  0.1311540E+00
         21   -1    0    0  504  501  0.00000000000E+00  0.00000000000E+00  0.36774754932E+03  0.36774754932E+03  0.00000000000E+00 0. -1.
         21   -1    0    0  505  502 -0.00000000000E+00 -0.00000000000E+00 -0.11127025458E+03  0.11127025458E+03  0.00000000000E+00 0.  1.
         21    1    1    2  503  506 -0.13262643991E+02  0.47915913021E+02  0.42147775188E+02  0.65178734259E+02  0.00000000000E+00 0.  1.
         21    1    1    2  504  503 -0.41268926820E+02  0.73662164044E+02  0.24915528155E+03  0.26307336060E+03  0.00000000000E+00 0. -1.
         21    1    1    2  505  501  0.31130936678E+02 -0.99307422412E+02 -0.11194493653E+01  0.10407858825E+03  0.00000000000E+00 0.  1.
         21    1    1    2  506  502  0.23400634134E+02 -0.22270654653E+02 -0.33706312633E+02  0.46687120793E+02  0.00000000000E+00 0.  1.
<scales pt_clust_3="45.30856" pt_clust_4="14000.00000" pt_clust_5="86.50612" pt_clust_6="32.30436"></scales>
<clustering>
<clus scale="   32.304">  2  6  1 -1</clus>
<clus scale="   45.309">  2  3  1 -1</clus>
<clus scale="   86.506">  2  5  1 -1</clus>
<clus scale="   86.506">  1  3  2 -1</clus>
</clustering>
</event>
<event>
 6    0  0.2666600E+002  0.1355996E+03  0.7546771E-02  0.1219376E+00
         21   -1    0    0  505  501  0.00000000000E+00  0.00000000000E+00  0.16266554327E+03  0.16266554327E+03  0.00000000000E+00 0. -1.
         21   -1    0    0  506  502 -0.00000000000E+00 -0.00000000000E+00 -0.63550613451E+03  0.63550613451E+03  0.00000000000E+00 0. -1.
         21    1    1    2  503  501 -0.27711725009E+02 -0.39733952524E+02  0.22104395977E+01  0.48493429755E+02  0.00000000000E+00 0. -1.
         21    1    1    2  504  502 -0.34229967491E+02  0.41893226371E+02 -0.26897992407E+03  0.27436642040E+03  0.00000000000E+00 0. -1.
         21    1    1    2  505  504  0.48219761364E+02  0.10352764192E+03 -0.30760028216E+03  0.32811743570E+03  0.00000000000E+00 0. -1.
         21    1    1    2  506  503  0.13721931136E+02 -0.10568691577E+03  0.10152917539E+03  0.14719439193E+03  0.00000000000E+00 0. -1.
<scales pt_clust_3="48.44303" pt_clust_4="53.84745" pt_clust_5="135.59963" pt_clust_6="14000.00000"></scales>
<clustering>
<clus scale="   48.443">  1  3  2 -1</clus>
<clus scale="   53.847">  2  4  1 -1</clus>
<clus scale="  135.600">  2  5  1 -1</clus>
<clus scale="   48.443">  1  3  2 -1</clus>
</clustering>
</event>
<event>
 6    0  0.2666600E+002  0.1591201E+03  0.7546771E-02  0.1189694E+00
         21   -1    0    0  503  501  0.00000000000E+00  0.00000000000E+00  0.73434373945E+03  0.73434373945E+03  0.00000000000E+00 0. -1.
         21   -1    0    0  505  502 -0.00000000000E+00 -0.00000000000E+00 -0.85130900374E+02  0.85130900374E+02  0.00000000000E+00 0. -1.
         21    1    1    2  503  504  0.28991864989E+02  0.40581045549E+02  0.24577736293E+03  0.25078648612E+03  0.00000000000E+00 0. -1.
         21    1    1    2  504  502  0.12805198238E+03  0.52486099860E+02  0.21041298054E+03  0.25184464109E+03  0.00000000000E+00 0. -1.
         21    1    1    2  505  506 -0.12437705140E+03 -0.12340432368E+03  0.74824590538E+02  0.19051770880E+03  0.00000000000E+00 0. -1.
         21    1    1    2  506  501 -0.32666795965E+02  0.30337178267E+02  0.11819790508E+03  0.12632580381E+03  0.00000000000E+00 0.  1.
<scales pt_clust_3="55.17973" pt_clust_4="159.12013" pt_clust_5="14000.00000" pt_clust_6="44.58098"></scales>
<clustering>
<clus scale="   44.581">  1  6  2 -1</clus>
<clus scale="   55.180">  1  3  2 -1</clus>
<clus scale="  159.120">  1  4  2 -1</clus>
<clus scale="   44.581">  1  3  2 -1</clus>
</clustering>
</event>
<event>
 6    0  0.2666600E+002  0.2402335E+03  0.7546771E-02  0.1119637E+00
         21   -1    0    0  506  501  0.00000000000E+00  0.00000000000E+00  0.67555946463E+03  0.67555946463E+03  0.00000000000E+00 0.  1.
         21   -1    0    0  503  502 -0.00000000000E+00 -0.00000000000E+00 -0.39975292589E+03  0.39975292589E+03  0.00000000000E+00 0. -1.
         21    1    1    2  503  505 -0.13671041564E+03 -0.10273010871E+01 -0.22814828558E+03  0.26597449748E+03  0.00000000000E+00 0. -1.
         21    1    1    2  504  501  0.11747045856E+02  0.52273300411E+02  0.11433104999E+03  0.12626194999E+03  0.00000000000E+00 0. -1.
         21    1    1    2  505  504 -0.99697074418E+02  0.12637326651E+01 -0.10037448783E+03  0.14147841346E+03  0.00000000000E+00 0. -1.
         21    1    1    2  506  502  0.22466044420E+03 -0.52509731989E+02  0.48999826217E+03  0.54159752960E+03  0.00000000000E+00 0.  1.
<scales pt_clust_3="40.07474" pt_clust_4="53.57696" pt_clust_5="40.07474" pt_clust_6="235.60572"></scales>
<clustering>
<clus scale="   40.075">  3  5 -1 -1</clus>
<clus scale="   53.577">  1  4  2 -1</clus>
<clus scale="  235.606">  1  6  2 -1</clus>
<clus scale="   53.577">  1  3  2 -1</clus>
</clustering>
</event>
<event>
 6    0  0.2666600E+002  0.1024885E+03  0.7546771E-02  0.1275148E+00
         21   -1    0    0  503  501  0.00000000000E+00  0.00000000000E+00  0.28473197157E+03  0.28473197157E+03  0.00000000000E+00 0.  1.
         21   -1    0    0  504  502 -0.00000000000E+00 -0.00000000000E+00 -0.96643013213E+02  0.96643013213E+02  0.00000000000E+00 0.  1.
         21    1    1    2  503  505 -0.90281437401E+02  0.12667546548E+02  0.18877373616E+03  0.20963474936E+03  0.00000000000E+00 0.  1.
         21    1    1    2  504  506  0.61169587914E+02 -0.12905878535E+02 -0.24333235520E+02  0.67084920341E+02  0.00000000000E+00 0.  1.
         21    1    1    2  505  502 -0.35231241794E+02 -0.70891955375E+01  0.16364763118E+02  0.39488005313E+02  0.00000000000E+00 0.  1.
         21    1    1    2  506  501  0.64343091281E+02  0.73275275242E+01  0.72836945928E+01  0.65167309766E+02  0.00000000000E+00 0.  1.
<scales pt_clust_3="95.33350" pt_clust_4="34.96710" pt_clust_5="35.93741" pt_clust_6="34.96710"></scales>
<clustering>
<clus scale="   35.937">  2  5  1 -1</clus>
<clus scale="   34.967">  4  6 -1 -1</clus>
<clus scale="   95.333">  1  3  2 -1</clus>
<clus scale="   95.333">  1  3  2 -1</clus>
</clustering>
</event>
<event>
 6    0  0.2666600E+002  0.1097510E+03  0.7546771E-02  0.1261032E+00
         21   -1    0    0  503  501  0.00000000000E+00  0.00000000000E+00  0.41029499249E+03  0.41029499249E+03  0.00000000000E+00 0.  1.
         21   -1    0    0  505  502 -0.00000000000E+00 -0.00000000000E+00 -0.12686908433E+03  0.12686908433E+03  0.00000000000E+00 0.  1.
         21    1    1    2  503  502 -0.15002389792E+01 -0.10290214947E+03  0.21703875439E+03  0.24020184011E+03  0.00000000000E+00 0.  1.
         21    1    1    2  504  501  0.29385350953E+02 -0.10889231862E+02  0.13978702497E+03  0.14325671563E+03  0.00000000000E+00 0.  1.
         21    1    1    2  505  506  0.19763312265E+02  0.30504239905E+02 -0.34669246902E+02  0.50230009402E+02  0.00000000000E+00 0.  1.
         21    1    1    2  506  504 -0.47648424239E+02  0.83287141428E+02 -0.38730624299E+02  0.10347551168E+03  0.00000000000E+00 0.  1.
<scales pt_clust_3="109.75101" pt_clust_4="31.33806" pt_clust_5="36.55560" pt_clust_6="14000.00000"></scales>
<clustering>
<clus scale="   31.338">  1  4  2 -1</clus>
<clus scale="   36.556">  2  5  1 -1</clus>
<clus scale="  109.751">  1  3  2 -1</clus>
<clus scale="   31.338">  1  3  2 -1</clus>
</clustering>
</event>
<event>
 6    0  0.2666600E+002  0.1011612E+03  0.7546771E-02  0.1277873E+00
         21   -1    0    0  504  501  0.00000000000E+00  0.00000000000E+00  0.48862959028E+03  0.48862959028E+03  0.00000000000E+00 0. -1.
         21   -1    0    0  501  502 -0.00000000000E+00 -0.00000000000E+00 -0.22702201278E+03  0.22702201278E+03  0.00000000000E+00 0. -1.
         21    1    1    2  503  505 -0.12342586027E+02 -0.27966165597E+02 -0.38626814156E+02  0.49259279530E+02  0.00000000000E+00 0. -1.
         21    1    1    2  504  506  0.11430939730E+03 -0.10783686057E+02  0.37586886596E+03  0.39301441525E+03  0.00000000000E+00 0. -1.
         21    1    1    2  505  502 -0.43294875199E+02 -0.25237397199E+02 -0.15057296106E+03  0.15869338057E+03  0.00000000000E+00 0. -1.
         21    1    1    2  506  503 -0.58671936072E+02  0.63987248852E+02  0.74938486753E+02  0.11468452770E+03  0.00000000000E+00 0. -1.
<scales pt_clust_3="30.46577" pt_clust_4="101.16124" pt_clust_5="86.30037" pt_clust_6="14000.00000"></scales>
<clustering>
<clus scale="   30.466">  3  5 -1 -1</clus>
<clus scale="   86.300">  2  3  1 -1</clus>
<clus scale="  101.161">  1  4  2 -1</clus>
<clus scale="  101.161">  1  3  2 -1</clus>
</clustering>
</event>
<event>
 6    0  0.2666600E+002  0.1122737E+03  0.7546771E-02  0.1256416E+00
         21   -1    0    0  503  501  0.00000000000E+00  0.00000000000E+00  0.10505962000E+03  0.10505962000E+03  0.00000000000E+00 0. -1.
         21   -1    0    0  506  502 -0.00000000000E+00 -0.00000000000E+00 -0.58039294072E+03  0.58039294072E+03  0.00000000000E+00 0. -1.
         21    1    1    2  503  504 -0.11218740907E+03  0.46208807379E+02  0.44484202194E+01  0.12141275499E+03  0.00000000000E+00 0. -1.
         21    1    1    2  504  502  0.47950645920E+01  0.56031930338E+02 -0.83032244742E+02  0.10028421376E+03  0.00000000000E+00 0.  1.
         21    1    1    2  505  501  0.95296902890E+02 -0.28833606657E+02 -0.54480900756E+02  0.11349469204E+03  0.00000000000E+00 0. -1.
         21    1    1    2  506  505  0.12095441587E+02 -0.73407131060E+02 -0.34226859544E+03  0.35026089993E+03  0.00000000000E+00 0. -1.
<scales pt_clust_3="14000.00000" pt_clust_4="56.23673" pt_clust_5="112.27373" pt_clust_6="37.09874"></scales>
<clustering>
<clus scale="   56.237">  2  4  1 -1</clus>
<clus scale="   37.099">  2  6  1 -1</clus>
<clus scale="  112.274">  2  5  1 -1</clus>
<clus scale="  112.274">  1  3  2 -1</clus>
</clustering>
</event>
<event>
 6    0  0.2666600E+002  0.1198472E+03  0.7546771E-02  0.1243349E+00
         21   -1    0    0  503  501  0.00000000000E+00  0.00000000000E+00  0.13872367175E+03  0.13872367175E+03  0.00000000000E+00 0. -1.
         21   -1    0    0  506  502 -0.00000000000E+00 -0.00000000000E+00 -0.29862011253E+03  0.29862011253E+03  0.00000000000E+00 0. -1.
         21    1    1    2  503  502 -0.84424746954E+02 -0.55047066705E+02 -0.10828487603E+03  0.14793015861E+03  0.00000000000E+00 0. -1.
         21    1    1    2  504  501  0.60174608119E+02  0.76529785983E+01  0.55998169983E+02  0.82555112411E+02  0.00000000000E+00 0. -1.
         21    1    1    2  505  504  0.59086353092E+02 -0.17602262994E+02  0.15300889111E+02  0.63522861962E+02  0.00000000000E+00 0. -1.
         21    1    1    2  506  505 -0.34836214257E+02  0.64996351101E+02 -0.12291062384E+03  0.14333565129E+03  0.00000000000E+00 0. -1.
<scales pt_clust_3="111.49127" pt_clust_4="43.61091" pt_clust_5="43.61091" pt_clust_6="73.74339"></scales>
<clustering>
<clus scale="   43.611">  4  5 -1 -1</clus>
<clus scale="   73.743">  2  6  1 -1</clus>
<clus scale="  111.491">  2  3  1 -1</clus>
<clus scale="  119.847">  1  3  2 -1</clus>
</clustering>
</event>
<event>
 6    0  0.3416611E+002  0.1383055E+03  0.7546771E-02  0.1215627E+00
         21   -1    0    0  506  501  0.00000000000E+00  0.00000000000E+00  0.84200224655E+03  0.84200224655E+03  0.00000000000E+00 0. -1.
         21   -1    0    0  504  502 -0.00000000000E+00 -0.00000000000E+00 -0.22274648284E+03  0.22274648284E+03  0.00000000000E+00 0.  1.
         21    1    1    2  503  502  0.21204881215E+02  0.35321287733E+02  0.62867284284E+01  0.41674492304E+02  0.00000000000E+00 0.  1.
         21    1    1    2  504  501  0.61333382338E+02  0.58762516930E+02 -0.18998826220E+03  0.20811140517E+03  0.00000000000E+00 0.  1.
         21    1    1    2  505  503 -0.33367411541E+02 -0.48437297552E+02  0.55434328949E+03  0.55745496549E+03  0.00000000000E+00 0. -1.
         21    1    1    2  506  505 -0.49170852012E+02 -0.45646507111E+02  0.24861400800E+03  0.25750786643E+03  0.00000000000E+00 0. -1.
<scales pt_clust_3="41.19758" pt_clust_4="123.97073" pt_clust_5="57.62788" pt_clust_6="57.62788"></scales>
<clustering>
<clus scale="   41.198">  2  3  1 -1</clus>
<clus scale="   57.628">  5  6 -1 -1</clus>
<clus scale="  123.971">  2  4  1 -1</clus>
<clus scale="  138.306">  1  3  2 -1</clus>
</clustering>
</event>
<event>
 6    0  0.2666600E+002  0.8080798E+02  0.7546771E-02  0.1326774E+00
         21   -1    0    0  503  501  0.00000000000E+00  0.00000000000E+00  0.73256521904E+02  0.73256521904E+02  0.00000000000E+00 0. -1.
         21   -1    0    0  505  502 -0.00000000000E+00 -0.00000000000E+00 -0.44100368062E+03  0.44100368062E+03  0.00000000000E+00 0. -1.
         21    1    1    2  503  506 -0.45172859358E+02  0.59158188463E+02 -0.22340790060E+03  0.23548114263E+03  0.00000000000E+00 0. -1.
         21    1    1    2  504  501  0.52159751982E+02 -0.63030234326E+02  0.10690185422E+02  0.82508970605E+02  0.00000000000E+00 0. -1.
         21    1    1    2  505  504  0.38090818579E+02  0.45181988933E+02 -0.80688025279E+02  0.10001439900E+03  0.00000000000E+00 0. -1.
         21    1    1    2  506  502 -0.45077711203E+02 -0.41309943070E+02 -0.74341418263E+02  0.96255690290E+02  0.00000000000E+00 0. -1.
<scales pt_clust_3="80.80798" pt_clust_4="14000.00000" pt_clust_5="59.09588" pt_clust_6="46.92269"></scales>
<clustering>
<clus scale="   59.096">  2  5  1 -1</clus>
<clus scale="   46.923">  2  6  1 -1</clus>
<clus scale="   80.808">  2  3  1 -1</clus>
<clus scale="   80.808">  1  3  2 -1</clus>
</clustering>
</event>
<event>
 6    0  0.2666600E+002  0.8961524E+02  0.7546771E-02  0.1303786E+00
         21   -1    0    0  506  501  0.00000000000E+00  0.00000000000E+00  0.11221584201E+03  0.11221584201E+03  0.00000000000E+00 0. -1.
         21   -1    0    0  505  502 -0.00000000000E+00 -0.00000000000E+00 -0.12977536144E+04  0.12977536144E+04  0.00000000000E+00 0. -1.
         21    1    1    2  503  502 -0.48377739074E+02  0.11250451660E+02 -0.11092117610E+03  0.12153388667E+03  0.00000000000E+00 0. -1.
         21    1    1    2  504  503  0.29286988016E+02 -0.12188206158E+03  0.45764034747E+02  0.13344403875E+03  0.00000000000E+00 0. -1.
         21    1    1    2  505  501  0.27857169278E+02  0.74272711022E+02 -0.11142757716E+04  0.11170957670E+04  0.00000000000E+00 0. -1.
         21    1    1    2  506  504 -0.87664182198E+01  0.36358898897E+02 -0.61048594106E+01  0.37895763956E+02  0.00000000000E+00 0.  1.
<scales pt_clust_3="50.62629" pt_clust_4="14000.00000" pt_clust_5="89.61524" pt_clust_6="37.40080"></scales>
<clustering>
<clus scale="   37.401">  1  6  2 -1</clus>
<clus scale="   50.626">  2  3  1 -1</clus>
<clus scale="   89.615">  2  5  1 -1</clus>
<clus scale="   37.401">  1  3  2 -1</clus>
</clustering>
</event>
<event>
 6    0  0.2666600E+002  0.7015913E+02  0.7546771E-02  0.1359553E+00
         21   -1    0    0  504  501  0.00000000000E+00  0.00000000000E+00  0.12964012471E+04  0.12964012471E+04  0.00000000000E+00 0.  1.
         21   -1    0    0  505  502 -0.00000000000E+00 -0.00000000000E+00 -0.86414699340E+02  0.86414699340E+02  0.00000000000E+00 0.  1.
         21    1    1    2  503  502  0.34355657304E+02  0.25119243187E+02 -0.42244784530E+02  0.59965901870E+02  0.00000000000E+00 0.  1.
         21    1    1    2  504  503  0.73565825904E+02 -0.78464390125E+02  0.51345495758E+03  0.52459945169E+03  0.00000000000E+00 0.  1.
         21    1    1    2  505  506 -0.93726483279E+02 -0.68194559316E+01  0.49511614654E+02  0.10621938916E+03  0.00000000000E+00 0.  1.
         21    1    1    2  506  501 -0.14194999929E+02  0.60164602869E+02  0.68926476002E+03  0.69203120368E+03  0.00000000000E+00 0.  1.
<scales pt_clust_3="42.55922" pt_clust_4="14000.00000" pt_clust_5="70.15913" pt_clust_6="62.48404"></scales>
<clustering>
<clus scale="   42.559">  2  3  1 -1</clus>
<clus scale="   62.484">  1  6  2 -1</clus>
<clus scale="   70.159">  2  5  1 -1</clus>
<clus scale="   62.484">  1  3  2 -1</clus>
</clustering>
</event>
<event>
 6    0  0.2666600E+002  0.1114510E+03  0.7546771E-02  0.1257906E+00
         21   -1    0    0  502  501  0.00000000000E+00  0.00000000000E+00  0.81508310388E+01  0.81508310388E+01  0.00000000000E+00 0. -1.
         21   -1    0    0  505  502 -0.00000000000E+00 -0.00000000000E+00 -0.32713223602E+04  0.32713223602E+04  0.00000000000E+00 0. -1.
         21    1    1    2  503  506 -0.74193762669E+02 -0.86900126962E+02 -0.11209605587E+04  0.11267692402E+04  0.00000000000E+00 0. -1.
         21    1    1    2  504  503  0.59722366083E+02 -0.18687350775E+02 -0.87837670010E+03  0.88060297829E+03  0.00000000000E+00 0. -1.
         21    1    1    2  505  504  0.45651067131E+02  0.26909195922E+02 -0.69350919481E+03  0.69553082465E+03  0.00000000000E+00 0.  1.
         21    1    1    2  506  501 -0.31179670546E+02  0.78678281815E+02 -0.57032507554E+03  0.57657014810E+03  0.00000000000E+00 0. -1.
<scales pt_clust_3="101.09393" pt_clust_4="43.17551" pt_clust_5="43.17551" pt_clust_6="84.63122"></scales>
<clustering>
<clus scale="   43.176">  4  5 -1 -1</clus>
<clus scale="   84.631">  1  6  2 -1</clus>
<clus scale="  101.094">  1  3  2 -1</clus>
<clus scale="   84.631">  1  3  2 -1</clus>
</clustering>
</event>
<event>
 6    0  0.2666600E+002  0.1167735E+03  0.7546771E-02  0.1248517E+00
         21   -1    0    0  506  501  0.00000000000E+00  0.00000000000E+00  0.21318926750E+02  0.21318926750E+02  0.00000000000E+00 0. -1.
         21   -1    0    0  503  502 -0.00000000000E+00 -0.00000000000E+00 -0.10487362605E+04  0.10487362605E+04  0.00000000000E+00 0. -1.
         21    1    1    2  503  501  0.17419970966E+02  0.10450100315E+03 -0.21932274541E+03  0.24357007554E+03  0.00000000000E+00 0. -1.
         21    1    1    2  504  502  0.38869746085E+02 -0.73063154152E+01 -0.35601682022E+03  0.35820694533E+03  0.00000000000E+00 0.  1.
         21    1    1    2  505  504 -0.27094994476E+02 -0.57331932688E+02 -0.33895128448E+03  0.34483193368E+03  0.00000000000E+00 0. -1.
         21    1    1    2  506  505 -0.29194722574E+02 -0.39862755048E+02 -0.11312648369E+03  0.12344623274E+03  0.00000000000E+00 0. -1.
<scales pt_clust_3="106.49533" pt_clust_4="39.55047" pt_clust_5="41.84495" pt_clust_6="41.84495"></scales>
<clustering>
<clus scale="   39.550">  2  4  1 -1</clus>
<clus scale="   41.845">  5  6 -1 -1</clus>
<clus scale="  106.495">  1  3  2 -1</clus>
<clus scale="  106.495">  1  3  2 -1</clus>
</clustering>
</event>
<event>
 6    0  0.2666600E+002  0.4352413E+03  0.7546771E-02  0.1032217E+00
         21   -1    0    0  506  501  0.00000000000E+00  0.00000000000E+00  0.16872619625E+03  0.16872619625E+03  0.00000000000E+00 0.  1.
         21   -1    0    0  503  502 -0.00000000000E+00 -0.00000000000E+00 -0.14851332717E+04  0.14851332717E+04  0.00000000000E+00 0.  1.
         21    1    1    2  503  505  0.20673184366E+02 -0.23497864058E+02 -0.88519283008E+02  0.93889262599E+02  0.00000000000E+00 0. -1.
         21    1    1    2  504  501  0.17726369137E+02 -0.49154791531E+02 -0.43755357823E+02  0.68153862924E+02  0.00000000000E+00 0.  1.
         21    1    1    2  505  504  0.40214621704E+03  0.15013092696E+03 -0.38796926964E+03  0.57860265234E+03  0.00000000000E+00 0.  1.
         21    1    1    2  506  502 -0.44054577055E+03 -0.77478271369E+02 -0.79616316493E+03  0.91321369004E+03  0.00000000000E+00 0.  1.
<scales pt_clust_3="31.29745" pt_clust_4="53.42421" pt_clust_5="14000.00000" pt_clust_6="435.24128"></scales>
<clustering>
<clus scale="   31.297">  2  3  1 -1</clus>
<clus scale="   53.424">  1  4  2 -1</clus>
<clus scale="  435.241">  2  6  1 -1</clus>
<clus scale="   53.424">  1  3  2 -1</clus>
</clustering>
</event>
<event>
 6    0  0.2666600E+002  0.1243127E+03  0.7546771E-02  0.1236147E+00
         21   -1    0    0  504  501  0.00000000000E+00  0.00000000000E+00  0.10816708835E+03  0.10816708835E+03  0.00000000000E+00 0.  1.
         21   -1    0    0  503  502 -0.00000000000E+00 -0.00000000000E+00 -0.76541450196E+03  0.76541450196E+03  0.00000000000E+00 0.  1.
         21    1    1    2  503  501 -0.45438060758E+02 -0.11192488157E+03 -0.53315823386E+03  0.54667128955E+03  0.00000000000E+00 0.  1.
         21    1    1    2  504  505 -0.21286137459E+02  0.50493657115E+02  0.42770326668E+02  0.69512659998E+02  0.00000000000E+00 0.  1.
         21    1    1    2  505  506  0.31518747483E+02  0.58188981269E+02  0.18485949978E+02  0.68710401910E+02  0.00000000000E+00 0.  1.
         21    1    1    2  506  502  0.35205450734E+02  0.32422431834E+01 -0.18534545639E+03  0.18868723886E+03  0.00000000000E+00 0.  1.
<scales pt_clust_3="109.62200" pt_clust_4="52.88318" pt_clust_5="52.88318" pt_clust_6="35.35443"></scales>
<clustering>
<clus scale="   35.354">  2  6  1 -1</clus>
<clus scale="   52.883">  4  5 -1 -1</clus>
<clus scale="  109.622">  2  3  1 -1</clus>
<clus scale="  124.313">  1  3  2 -1</clus>
</clustering>
</event>
<event>
 6    0  0.2666600E+002  0.4060766E+03  0.7546771E-02  0.1041696E+00
         21   -1    0    0  504  501  0.00000000000E+00  0.00000000000E+00  0.75256394526E+03  0.75256394526E+03  0.00000000000E+00 0.  1.
         21   -1    0    0  506  502 -0.00000000000E+00 -0.00000000000E+00 -0.24172509033E+03  0.24172509033E+03  0.00000000000E+00 0.  1.
         21    1    1    2  503  502  0.10241825775E+03 -0.48518849417E+02  0.34535689950E+02  0.11847485872E+03  0.00000000000E+00 0.  1.
         21    1    1    2  504  505 -0.35340430929E+03  0.17220004967E+03  0.28358774487E+03  0.48473649746E+03  0.00000000000E+00 0.  1.
         21    1    1    2  505  503  0.28134607898E+03 -0.10591174945E+03  0.19035624053E+03  0.35582075985E+03  0.00000000000E+00 0.  1.
         21    1    1    2  506  501 -0.30360027443E+02 -0.17769450804E+02  0.23591795792E+01  0.35256919555E+02  0.00000000000E+00 0.  1.
<scales pt_clust_3="35.03558" pt_clust_4="402.04747" pt_clust_5="35.03558" pt_clust_6="35.17790"></scales>
<clustering>
<clus scale="   35.036">  3  5 -1 -1</clus>
<clus scale="   35.178">  2  6  1 -1</clus>
<clus scale="  402.047">  1  4  2 -1</clus>
<clus scale="  402.047">  1  3  2 -1</clus>
</clustering>
</event>
<event>
 6    0  0.2666600E+002  0.8563528E+02  0.7546771E-02  0.1313780E+00
         21   -1    0    0  505  501  0.00000000000E+00  0.00000000000E+00  0.18354051469E+04  0.18354051469E+04  0.00000000000E+00 0. -1.
         21   -1    0    0  506  502 -0.00000000000E+00 -0.00000000000E+00 -0.18797132203E+03  0.18797132203E+03  0.00000000000E+00 0.  1.
         21    1    1    2  503  501  0.45217873363E+02  0.10130776173E+03  0.16750309168E+04  0.16787008342E+04  0.00000000000E+00 0. -1.
         21    1    1    2  504  502 -0.16497451890E+02  0.26051446541E+02 -0.33546918015E+02  0.45565771079E+02  0.00000000000E+00 0. -1.
         21    1    1    2  505  504 -0.57573370768E+02 -0.18372734731E+02  0.12272152356E+03  0.13679481989E+03  0.00000000000E+00 0. -1.
         21    1    1    2  506  503  0.28852949296E+02 -0.10898647354E+03 -0.11677169745E+03  0.16231504374E+03  0.00000000000E+00 0.  1.
<scales pt_clust_3="85.63528" pt_clust_4="30.83575" pt_clust_5="60.81995" pt_clust_6="14000.00000"></scales>
<clustering>
<clus scale="   30.836">  2  4  1 -1</clus>
<clus scale="   60.820">  1  5  2 -1</clus>
<clus scale="   85.635">  1  3  2 -1</clus>
<clus scale="   60.820">  1  3  2 -1</clus>
</clustering>
</event>
<event>
 6    0  0.2666600E+002  0.1807984E+03  0.7546771E-02  0.1167033E+00
         21   -1    0    0  505  501  0.00000000000E+00  0.00000000000E+00  0.51775153382E+02  0.51775153382E+02  0.00000000000E+00 0.  1.
         21   -1    0    0  504  502 -0.00000000000E+00 -0.00000000000E+00 -0.11224913334E+04  0.11224913334E+04  0.00000000000E+00 0.  1.
         21    1    1    2  503  501 -0.83241078861E+02  0.39698847989E+02 -0.71274283709E+02  0.11655513399E+03  0.00000000000E+00 0.  1.
         21    1    1    2  504  503 -0.76063440292E+02 -0.42640516196E+01 -0.49808837884E+02  0.91020598859E+02  0.00000000000E+00 0.  1.
         21    1    1    2  505  506  0.56848913092E+02 -0.24262833551E+02 -0.18289896984E+03  0.19306091573E+03  0.00000000000E+00 0.  1.
         21    1    1    2  506  502  0.10245560606E+03 -0.11171962818E+02 -0.76673408854E+03  0.77362983816E+03  0.00000000000E+00 0.  1.
<scales pt_clust_3="168.60179" pt_clust_4="38.48577" pt_clust_5="60.25846" pt_clust_6="60.25846"></scales>
<clustering>
<clus scale="   38.486">  3  4 -1 -1</clus>
<clus scale="   60.258">  5  6 -1 -1</clus>
<clus scale="  168.602">  1  3  2 -1</clus>
<clus scale="  168.602">  1  3  2 -1</clus>
</clustering>
</event>
<event>
 6    0  0.2666600E+002  0.1122532E+03  0.7546771E-02  0.1256453E+00
         21   -1    0    0  504  501  0.00000000000E+00  0.00000000000E+00  0.19253182689E+04  0.19253182689E+04  0.00000000000E+00 0. -1.
         21   -1    0    0  503  502 -0.00000000000E+00 -0.00000000000E+00 -0.24330977672E+03  0.24330977672E+03  0.00000000000E+00 0.  1.
         21    1    1    2  503  501 -0.43416848704E+02 -0.10615491421E+03  0.14389446469E+04  0.14435080829E+04  0.00000000000E+00 0. -1.
         21    1    1    2  504  506 -0.78708654210E+02  0.85335220764E+02  0.43850287366E+03  0.45360987904E+03  0.00000000000E+00 0. -1.
         21    1    1    2  505  502  0.67028736054E+02 -0.37671883765E+02 -0.17104747584E+03  0.18753469352E+03  0.00000000000E+00 0.  1.
         21    1    1    2  506  505  0.55096766859E+02  0.58491577210E+02 -0.24391552519E+02  0.83975390188E+02  0.00000000000E+00 0.  1.
<scales pt_clust_3="14000.00000" pt_clust_4="107.49832" pt_clust_5="76.88968" pt_clust_6="112.25321"></scales>
<clustering>
<clus scale="   76.890">  2  5  1 -1</clus>
<clus scale="  107.498">  1  4  2 -1</clus>
<clus scale="  112.253">  2  6  1 -1</clus>
<clus scale="  107.498">  1  3  2 -1</clus>
</clustering>
</event>
<event>
 6    0  0.2666600E+002  0.1557136E+03  0.7546771E-02  0.1193623E+00
         21   -1    0    0  506  501  0.00000000000E+00  0.00000000000E+00  0.31962310918E+03  0.31962310918E+03  0.00000000000E+00 0.  1.
         21   -1    0    0  504  502 -0.00000000000E+00 -0.00000000000E+00 -0.41493136577E+03  0.41493136577E+03  0.00000000000E+00 0.  1.
         21    1    1    2  503  501 -0.37525379141E+02  0.64350506140E+01  0.65175184090E+02  0.75480915318E+02  0.00000000000E+00 0.  1.
         21    1    1    2  504  505 -0.33709373833E+02 -0.30863310790E+02 -0.11053287815E+03  0.11960929307E+03  0.00000000000E+00 0.  1.
         21    1    1    2  505  503  0.18784034381E+03 -0.44725361038E+02  0.18550941828E+03  0.26776500322E+03  0.00000000000E+00 0.  1.
         21    1    1    2  506  502 -0.11660559083E+03  0.69153621215E+02 -0.23545998080E+03  0.27169926334E+03  0.00000000000E+00 0.  1.
<scales pt_clust_3="38.07314" pt_clust_4="46.13210" pt_clust_5="14000.00000" pt_clust_6="155.71364"></scales>
<clustering>
<clus scale="   38.073">  1  3  2 -1</clus>
<clus scale="   46.132">  2  4  1 -1</clus>
<clus scale="  155.714">  2  6  1 -1</clus>
<clus scale="   38.073">  1  3  2 -1</clus>
</clustering>
</event>
<event>
 6    0  0.2666600E+002  0.1074426E+03  0.7546771E-02  0.1265380E+00
         21   -1    0    0  504  501  0.00000000000E+00  0.00000000000E+00  0.10794442741E+03  0.10794442741E+03  0.00000000000E+00 0.  1.
         21   -1    0    0  506  502 -0.00000000000E+00 -0.00000000000E+00 -0.10363158613E+04  0.10363158613E+04  0.00000000000E+00 0.  1.
         21    1    1    2  503  505  0.10199991229E+03  0.27383341923E+02 -0.77763281549E+03  0.78477170263E+03  0.00000000000E+00 0.  1.
         21    1    1    2  504  503 -0.43776093966E+02 -0.74681534096E+02  0.71125144617E+02  0.11203777994E+03  0.00000000000E+00 0.  1.
         21    1    1    2  505  502 -0.24729534631E+02  0.52324451956E+02 -0.19729668934E+03  0.20560978036E+03  0.00000000000E+00 0.  1.
         21    1    1    2  506  501 -0.33494283697E+02 -0.50262597831E+01 -0.24567073629E+02  0.41841025734E+02  0.00000000000E+00 0.  1.
<scales pt_clust_3="14000.00000" pt_clust_4="107.44264" pt_clust_5="58.29862" pt_clust_6="33.86931"></scales>
<clustering>
<clus scale="   33.869">  1  6  2 -1</clus>
<clus scale="   58.299">  2  5  1 -1</clus>
<clus scale="  107.443">  1  4  2 -1</clus>
<clus scale="   33.869">  1  3  2 -1</clus>
</clustering>
</event>
<event>
 6    0  0.2666600E+002  0.1281648E+03  0.7546771E-02  0.1230204E+00
         21   -1    0    0  505  501  0.00000000000E+00  0.00000000000E+00  0.38985662645E+03  0.38985662645E+03  0.00000000000E+00 0.  1.
         21   -1    0    0  504  502 -0.00000000000E+00 -0.00000000000E+00 -0.28064864267E+03  0.28064864267E+03  0.00000000000E+00 0.  1.
         21    1    1    2  503  502 -0.15827825821E+02  0.63819704446E+02 -0.76286295862E+01  0.66194189587E+02  0.00000000000E+00 0. -1.
         21    1    1    2  504  506 -0.77702060484E+02  0.31856126600E+02 -0.21267556057E+03  0.22865545493E+03  0.00000000000E+00 0.  1.
         21    1    1    2  505  503  0.11203143408E+03 -0.69556217261E+02  0.31298911626E+03  0.33963406260E+03  0.00000000000E+00 0.  1.
         21    1    1    2  506  501 -0.18501547775E+02 -0.26119613784E+02  0.16523057683E+02  0.36021562008E+02  0.00000000000E+00 0. -1.
<scales pt_clust_3="64.09978" pt_clust_4="128.16484" pt_clust_5="14000.00000" pt_clust_6="32.00846"></scales>
<clustering>
<clus scale="   32.008">  1  6  2 -1</clus>
<clus scale="   64.100">  2  3  1 -1</clus>
<clus scale="  128.165">  2  4  1 -1</clus>
<clus scale="   32.008">  1  3  2 -1</clus>
</clustering>
</event>
<event>
 6    0  0.2666600E+002  0.1984973E+03  0.7546771E-02  0.1151013E+00
         21   -1    0    0  503  501  0.00000000000E+00  0.00000000000E+00  0.46699599866E+03  0.46699599866E+03  0.00000000000E+00 0. -1.
         21   -1    0    0  504  502 -0.00000000000E+00 -0.00000000000E+00 -0.13129836719E+03  0.13129836719E+03  0.00000000000E+00 0. -1.
         21    1    1    2  503  505 -0.79906682025E+02 -0.42907478171E+02  0.62058876310E+01  0.90910079510E+02  0.00000000000E+00 0. -1.
         21    1    1    2  504  506  0.14762281291E+03  0.69363643167E+02  0.27117984307E+03  0.31645270922E+03  0.00000000000E+00 0. -1.
         21    1    1    2  505  502 -0.12012887595E+03 -0.33866800538E+01  0.19488193141E+02  0.12174648295E+03  0.00000000000E+00 0. -1.
         21    1    1    2  506  501  0.52412745062E+02 -0.23069484942E+02  0.38823707635E+02  0.69185094168E+02  0.00000000000E+00 0. -1.
<scales pt_clust_3="42.60587" pt_clust_4="192.34323" pt_clust_5="42.60587" pt_clust_6="57.26515"></scales>
<clustering>
<clus scale="   42.606">  3  5 -1 -1</clus>
<clus scale="   57.265">  1  6  2 -1</clus>
<clus scale="  192.343">  1  4  2 -1</clus>
<clus scale="   57.265">  1  3  2 -1</clus>
</clustering>
</event>
<event>
 6    0  0.2666600E+002  0.1011575E+03  0.7546771E-02  0.1277881E+00
         21   -1    0    0  504  501  0.00000000000E+00  0.00000000000E+00  0.11703119813E+03  0.11703119813E+03  0.00000000000E+00 0.  1.
         21   -1    0    0  503  502 -0.00000000000E+00 -0.00000000000E+00 -0.17338297908E+03  0.17338297908E+03  0.00000000000E+00 0.  1.
         21    1    1    2  503  506  0.83823171789E+02 -0.53298879819E+01 -0.67363037850E+02  0.10766852234E+03  0.00000000000E+00 0.  1.
         21    1    1    2  504  502  0.31331789742E+02 -0.40146920914E+02 -0.30449234193E+01  0.51016937050E+02  0.00000000000E+00 0. -1.
         21    1    1    2  505  501 -0.47866728263E+02  0.40688352957E+02  0.90356190112E-02  0.62823290447E+02  0.00000000000E+00 0.  1.
         21    1    1    2  506  505 -0.67288233269E+02  0.47884559392E+01  0.14047144701E+02  0.68905427369E+02  0.00000000000E+00 0.  1.
<scales pt_clust_3="91.68841" pt_clust_4="50.92599" pt_clust_5="41.23837" pt_clust_6="41.23837"></scales>
<clustering>
<clus scale="   41.238">  5  6 -1 -1</clus>
<clus scale="   50.926">  1  4  2 -1</clus>
<clus scale="   91.688">  2  3  1 -1</clus>
<clus scale="   50.926">  1  3  2 -1</clus>
</clustering>
</event>
<event>
 6    0  0.2666600E+002  0.1235975E+03  0.7546771E-02  0.1237277E+00
         21   -1    0    0  502  501  0.00000000000E+00  0.00000000000E+00  0.16709706507E+03  0.16709706507E+03  0.00000000000E+00 0. -1.
         21   -1    0    0  506  502 -0.00000000000E+00 -0.00000000000E+00 -0.17195351008E+03  0.17195351008E+03  0.00000000000E+00 0.  1.
         21    1    1    2  503  505 -0.29071834956E+02 -0.35867927406E+02 -0.36875931550E+02  0.59089035631E+02  0.00000000000E+00 0.  1.
         21    1    1    2  504  501 -0.23979262944E+02  0.32493617412E+02  0.26263704813E+02  0.48172838969E+02  0.00000000000E+00 0. -1.
         21    1    1    2  505  504  0.45985833181E+02  0.86340446935E+02  0.75181847088E+02  0.12337617177E+03  0.00000000000E+00 0. -1.
         21    1    1    2  506  503  0.70652647190E+01 -0.82966136941E+02 -0.69426065364E+02  0.10841252878E+03  0.00000000000E+00 0.  1.
<scales pt_clust_3="34.53418" pt_clust_4="40.38366" pt_clust_5="114.56665" pt_clust_6="34.53418"></scales>
<clustering>
<clus scale="   34.534">  3  6 -1 -1</clus>
<clus scale="   40.384">  1  4  2 -1</clus>
<clus scale="  114.567">  1  5  2 -1</clus>
<clus scale="   40.384">  1  3  2 -1</clus>
</clustering>
</event>
<event>
 6    0  0.2666600E+002  0.1099081E+03  0.7546771E-02  0.1260740E+00
         21   -1    0    0  504  501  0.00000000000E+00  0.00000000000E+00  0.10985871688E+04  0.10985871688E+04  0.00000000000E+00 0. -1.
         21   -1    0    0  505  502 -0.00000000000E+00 -0.00000000000E+00 -0.17948806302E+03  0.17948806302E+03  0.00000000000E+00 0.  1.
         21    1    1    2  503  501 -0.35564556831E+02 -0.43646108990E+01  0.12884129746E+03  0.13373095178E+03  0.00000000000E+00 0. -1.
         21    1    1    2  504  506  0.56306545338E+01 -0.48177516151E+02  0.80926028150E+03  0.81071263746E+03  0.00000000000E+00 0. -1.
         21    1    1    2  505  503  0.20021653426E+01  0.11668638994E+03 -0.14704128078E+03  0.18772549246E+03  0.00000000000E+00 0.  1.
         21    1    1    2  506  502  0.27931736954E+02 -0.64144262890E+02  0.12803880764E+03  0.14590615016E+03  0.00000000000E+00 0. -1.
<scales pt_clust_3="35.83138" pt_clust_4="57.18223" pt_clust_5="14000.00000" pt_clust_6="109.90813"></scales>
<clustering>
<clus scale="   35.831">  1  3  2 -1</clus>
<clus scale="   57.182">  1  4  2 -1</clus>
<clus scale="  109.908">  1  6  2 -1</clus>
<clus scale="   35.831">  1  3  2 -1</clus>
</clustering>
</event>
<event>
 6    0  0.3130914E+002  0.1324260E+03  0.7546771E-02  0.1223900E+00
         21   -1    0    0  502  501  0.00000000000E+00  0.00000000000E+00  0.48115101759E+03  0.48115101759E+03  0.00000000000E+00 0.  1.
         21   -1    0    0  503  502 -0.00000000000E+00 -0.00000000000E+00 -0.81916306667E+03  0.81916306667E+03  0.00000000000E+00 0.  1.
         21    1    1    2  503  505  0.75345108613E+02  0.15873346229E+02 -0.38331397859E+03  0.39097116863E+03  0.00000000000E+00 0.  1.
         21    1    1    2  504  501  0.16211571496E+02 -0.32292627153E+02  0.13194827557E+02  0.38467288611E+02  0.00000000000E+00 0. -1.
         21    1    1    2  505  506  0.43546149340E+02  0.29025353943E+02 -0.40747798125E+03  0.41082483310E+03  0.00000000000E+00 0.  1.
         21    1    1    2  506  504 -0.13510282945E+03 -0.12606073018E+02  0.43958508321E+03  0.46005079392E+03  0.00000000000E+00 0.  1.
<scales pt_clust_3="30.55762" pt_clust_4="36.13349" pt_clust_5="30.55762" pt_clust_6="127.13283"></scales>
<clustering>
<clus scale="   30.558">  3  5 -1 -1</clus>
<clus scale="   36.133">  1  4  2 -1</clus>
<clus scale="  127.133">  1  6  2 -1</clus>
<clus scale="   36.133">  1  3  2 -1</clus>
</clustering>
</event>
<event>
 6    0  0.2666600E+002  0.1661365E+03  0.7546771E-02  0.1181938E+00
         21   -1    0    0  505  501  0.00000000000E+00  0.00000000000E+00  0.33663133810E+03  0.33663133810E+03  0.00000000000E+00 0. -1.
         21   -1    0    0  503  502 -0.00000000000E+00 -0.00000000000E+00 -0.23126702553E+03  0.23126702553E+03  0.00000000000E+00 0.  1.
         21    1    1    2  503  506  0.26240973649E+02 -0.20090136674E+02 -0.56516873759E+02  0.65470293333E+02  0.00000000000E+00 0.  1.
         21    1    1    2  504  502 -0.87668656678E+02  0.12945629993E+03  0.19665895909E+03  0.25123589144E+03  0.00000000000E+00 0. -1.
         21    1    1    2  505  504  0.48626275956E+02  0.19300653667E+02  0.68156982314E+02  0.85920918195E+02  0.00000000000E+00 0. -1.
         21    1    1    2  506  501  0.12801407073E+02 -0.12866681692E+03 -0.10293475508E+03  0.16527126067E+03  0.00000000000E+00 0.  1.
<scales pt_clust_3="32.62296" pt_clust_4="153.09291" pt_clust_5="52.31663" pt_clust_6="32.62296"></scales>
<clustering>
<clus scale="   32.623">  3  6 -1 -1</clus>
<clus scale="   52.317">  1  5  2 -1</clus>
<clus scale="  153.093">  1  4  2 -1</clus>
<clus scale="   52.317">  1  3  2 -1</clus>
</clustering>
</event>
<event>
 6    0  0.2666600E+002  0.9681524E+02  0.7546771E-02  0.1287139E+00
         21   -1    0    0  504  501  0.00000000000E+00  0.00000000000E+00  0.42017641142E+03  0.42017641142E+03  0.00000000000E+00 0.  1.
         21   -1    0    0  506  502 -0.00000000000E+00 -0.00000000000E+00 -0.38535540224E+03  0.38535540224E+03  0.00000000000E+00 0.  1.
         21    1    1    2  503  502 -0.51932503918E+02  0.23879736967E+02 -0.31247088833E+03  0.31765591897E+03  0.00000000000E+00 0.  1.
         21    1    1    2  504  503 -0.28515816495E+02  0.46392157506E+02  0.90643207592E+02  0.10574296738E+03  0.00000000000E+00 0.  1.
         21    1    1    2  505  501  0.93304818397E+02 -0.11785439739E+03  0.28718881926E+03  0.32414945014E+03  0.00000000000E+00 0. -1.
         21    1    1    2  506  505 -0.12856497984E+02  0.47582502917E+02 -0.30540129340E+02  0.57983477167E+02  0.00000000000E+00 0. -1.
<scales pt_clust_3="96.81524" pt_clust_4="55.50248" pt_clust_5="14000.00000" pt_clust_6="49.28878"></scales>
<clustering>
<clus scale="   49.289">  2  6  1 -1</clus>
<clus scale="   55.502">  1  4  2 -1</clus>
<clus scale="   96.815">  2  3  1 -1</clus>
<clus scale="   55.502">  1  3  2 -1</clus>
</clustering>
</event>
<event>
 6    0  0.2666600E+002  0.1727512E+03  0.7546771E-02  0.1175009E+00
         21   -1    0    0  504  501  0.00000000000E+00  0.00000000000E+00  0.17480169022E+03  0.17480169022E+03  0.00000000000E+00 0.  1.
         21   -1    0    0  503  502 -0.00000000000E+00 -0.00000000000E+00 -0.33527443367E+03  0.33527443367E+03  0.00000000000E+00 0. -1.
         21    1    1    2  503  501  0.17939336393E+03 -0.22540722564E+02 -0.41271368132E+02  0.18545454705E+03  0.00000000000E+00 0. -1.
         21    1    1    2  504  506  0.11835823673E+02  0.37116346394E+02  0.34625584426E+02  0.52121406240E+02  0.00000000000E+00 0.  1.
         21    1    1    2  505  502 -0.28526409784E+02 -0.32202222949E+02 -0.84392285389E+02  0.94724849175E+02  0.00000000000E+00 0.  1.
         21    1    1    2  506  505 -0.16270277782E+03  0.17626599119E+02 -0.69434674352E+02  0.17777532142E+03  0.00000000000E+00 0.  1.
<scales pt_clust_3="14000.00000" pt_clust_4="38.95780" pt_clust_5="41.62421" pt_clust_6="172.75118"></scales>
<clustering>
<clus scale="   38.958">  1  4  2 -1</clus>
<clus scale="   41.624">  2  5  1 -1</clus>
<clus scale="  172.751">  2  6  1 -1</clus>
<clus scale="   38.958">  1  3  2 -1</clus>
</clustering>
</event>
<event>
 6    0  0.2666600E+002  0.9194720E+02  0.7546771E-02  0.1298204E+00
         21   -1    0    0  505  501  0.00000000000E+00  0.00000000000E+00  0.44276035641E+03  0.44276035641E+03  0.00000000000E+00 0.  1.
         21   -1    0    0  503  502 -0.00000000000E+00 -0.00000000000E+00 -0.40885574957E+03  0.40885574957E+03  0.00000000000E+00 0. -1.
         21    1    1    2  503  501  0.91563309663E+02  0.23502640456E+02  0.12660813648E+03  0.15800580372E+03  0.00000000000E+00 0.  1.
         21    1    1    2  504  506 -0.87703273983E+02  0.12329388102E+02 -0.17375578642E+03  0.19502551472E+03  0.00000000000E+00 0. -1.
         21    1    1    2  505  504 -0.12807069553E+02 -0.79474992742E+02  0.28173831382E+03  0.29301326416E+03  0.00000000000E+00 0.  1.
         21    1    1    2  506  502  0.89470338728E+01  0.43642964185E+02 -0.20068605704E+03  0.20557152338E+03  0.00000000000E+00 0. -1.
<scales pt_clust_3="91.94720" pt_clust_4="14000.00000" pt_clust_5="79.28059" pt_clust_6="44.55062"></scales>
<clustering>
<clus scale="   44.551">  2  6  1 -1</clus>
<clus scale="   79.281">  1  5  2 -1</clus>
<clus scale="   91.947">  1  3  2 -1</clus>
<clus scale="   79.281">  1  3  2 -1</clus>
</clustering>
</event>
<event>
 6    0  0.3289642E+002  0.1259420E+03  0.7546771E-02  0.1233604E+00
         21   -1    0    0  506  501  0.00000000000E+00  0.00000000000E+00  0.71850006263E+03  0.71850006263E+03  0.00000000000E+00 0.  1.
         21   -1    0    0  504  502 -0.00000000000E+00 -0.00000000000E+00 -0.16655855367E+04  0.16655855367E+04  0.00000000000E+00 0. -1.
         21    1    1    2  503  501  0.11211180076E+03 -0.41627016545E+02  0.54638360356E+03  0.55931825163E+03  0.00000000000E+00 0.  1.
         21    1    1    2  504  503 -0.17765096978E+02 -0.26596998251E+02 -0.37620976338E+02  0.49379518499E+02  0.00000000000E+00 0.  1.
         21    1    1    2  505  502  0.57030781601E+02 -0.84069219966E+02 -0.15410342432E+04  0.15443790605E+04  0.00000000000E+00 0. -1.
         21    1    1    2  506  505 -0.15137748538E+03  0.15229323476E+03  0.85186141921E+02  0.23100876869E+03  0.00000000000E+00 0. -1.
<scales pt_clust_3="14000.00000" pt_clust_4="31.98436" pt_clust_5="116.49657" pt_clust_6="125.94196"></scales>
<clustering>
<clus scale="   31.984">  2  4  1 -1</clus>
<clus scale="  116.497">  2  5  1 -1</clus>
<clus scale="  125.942">  2  6  1 -1</clus>
<clus scale="  125.942">  1  3  2 -1</clus>
</clustering>
</event>
<event>
 6    0  0.2666600E+002  0.2255700E+03  0.7546771E-02  0.1129797E+00
         21   -1    0    0  504  501  0.00000000000E+00  0.00000000000E+00  0.52703808903E+03  0.52703808903E+03  0.00000000000E+00 0. -1.
         21   -1    0    0  505  502 -0.00000000000E+00 -0.00000000000E+00 -0.13383772575E+03  0.13383772575E+03  0.00000000000E+00 0. -1.
         21    1    1    2  503  501 -0.61205196343E+01  0.92201784348E+02  0.36806344519E+02  0.99465254206E+02  0.00000000000E+00 0. -1.
         21    1    1    2  504  506 -0.71204167323E+01 -0.62724001915E+02  0.17148612095E+03  0.18273612240E+03  0.00000000000E+00 0. -1.
         21    1    1    2  505  503  0.81611807679E+02  0.93422623207E+02 -0.24477861800E+02  0.12644144652E+03  0.00000000000E+00 0. -1.
         21    1    1    2  506  502 -0.68370871312E+02 -0.12290040564E+03  0.20938575961E+03  0.25223299165E+03  0.00000000000E+00 0. -1.
<scales pt_clust_3="89.38783" pt_clust_4="42.26331" pt_clust_5="89.38783" pt_clust_6="210.08270"></scales>
<clustering>
<clus scale="   42.263">  4  6 -1 -1</clus>
<clus scale="   89.388">  3  5 -1 -1</clus>
<clus scale="  210.083">  1  4  2 -1</clus>
<clus scale="  210.083">  1  3  2 -1</clus>
</clustering>
</event>
<event>
 6    0  0.2666600E+002  0.1221328E+03  0.7546771E-02  0.1239619E+00
         21   -1    0    0  505  501  0.00000000000E+00  0.00000000000E+00  0.37585807416E+02  0.37585807416E+02  0.00000000000E+00 0.  1.
         21   -1    0    0  506  502 -0.00000000000E+00 -0.00000000000E+00 -0.12535216146E+04  0.12535216146E+04  0.00000000000E+00 0.  1.
         21    1    1    2  503  504 -0.10577564945E+03  0.14338644232E+01 -0.77981476280E+02  0.13142166726E+03  0.00000000000E+00 0.  1.
         21    1    1    2  504  501 -0.37428369233E+02 -0.26289964248E+01 -0.10107805053E+03  0.10781728407E+03  0.00000000000E+00 0.  1.
         21    1    1    2  505  502  0.85148221586E+02 -0.39459416753E+02 -0.77164484927E+03  0.77733071380E+03  0.00000000000E+00 0.  1.
         21    1    1    2  506  503  0.58055797094E+02  0.40654548754E+02 -0.26523143115E+03  0.27453775693E+03  0.00000000000E+00 0. -1.
<scales pt_clust_3="14000.00000" pt_clust_4="37.52059" pt_clust_5="122.13282" pt_clust_6="66.55243"></scales>
<clustering>
<clus scale="   37.521">  1  4  2 -1</clus>
<clus scale="   66.552">  2  6  1 -1</clus>
<clus scale="  122.133">  2  5  1 -1</clus>
<clus scale="   37.521">  1  3  2 -1</clus>
</clustering>
</event>
<event>
 6    0  0.2666600E+002  0.1150781E+03  0.7546771E-02  0.1251445E+00
         21   -1    0    0  505  501  0.00000000000E+00  0.00000000000E+00  0.94327665876E+03  0.94327665876E+03  0.00000000000E+00 0. -1.
         21   -1    0    0  501  502 -0.00000000000E+00 -0.00000000000E+00 -0.28552690176E+02  0.28552690176E+02  0.00000000000E+00 0.  1.
         21    1    1    2  503  502  0.14053701143E+02 -0.88012838780E+02  0.12053901266E+03  0.14991137342E+03  0.00000000000E+00 0.  1.
         21    1    1    2  504  506 -0.63252500117E+02  0.57250348056E+02  0.26473008034E+03  0.27813754971E+03  0.00000000000E+00 0.  1.
         21    1    1    2  505  504  0.49026468521E+02 -0.32233282628E+02  0.30804736022E+03  0.31358532373E+03  0.00000000000E+00 0. -1.
         21    1    1    2  506  503  0.17233045347E+00  0.62995773352E+02  0.22140751537E+03  0.23019510208E+03  0.00000000000E+00 0. -1.
<scales pt_clust_3="98.02496" pt_clust_4="51.80169" pt_clust_5="58.67350" pt_clust_6="51.80169"></scales>
<clustering>
<clus scale="   51.802">  4  6 -1 -1</clus>
<clus scale="   58.673">  1  5  2 -1</clus>
<clus scale="   98.025">  2  3  1 -1</clus>
<clus scale="   58.673">  1  3  2 -1</clus>
</clustering>
</event>
<event>
 6    0  0.2666600E+002  0.8069365E+02  0.7546771E-02  0.1327094E+00
         21   -1    0    0  504  501  0.00000000000E+00  0.00000000000E+00  0.10989699117E+04  0.10989699117E+04  0.00000000000E+00 0. -1.
         21   -1    0    0  503  502 -0.00000000000E+00 -0.00000000000E+00 -0.28054041358E+02  0.28054041358E+02  0.00000000000E+00 0. -1.
         21    1    1    2  503  505 -0.26834130473E+02  0.69867510520E+02  0.13375114631E+03  0.15326744183E+03  0.00000000000E+00 0. -1.
         21    1    1    2  504  506 -0.33682727762E+02 -0.38307784423E+02  0.22476439600E+03  0.23048003429E+03  0.00000000000E+00 0.  1.
         21    1    1    2  505  501  0.42232965798E+02 -0.70741423350E+02  0.68939260292E+03  0.69429830285E+03  0.00000000000E+00 0. -1.
         21    1    1    2  506  502  0.18283892438E+02  0.39181697253E+02  0.23007725101E+02  0.48978174084E+02  0.00000000000E+00 0. -1.
<scales pt_clust_3="14000.00000" pt_clust_4="43.20117" pt_clust_5="80.69365" pt_clust_6="43.23779"></scales>
<clustering>
<clus scale="   43.238">  2  6  1 -1</clus>
<clus scale="   43.201">  2  4  1 -1</clus>
<clus scale="   80.694">  1  5  2 -1</clus>
<clus scale="   80.694">  1  3  2 -1</clus>
</clustering>
</event>
<event>
 6    0  0.2666600E+002  0.3782187E+03  0.7546771E-02  0.1051594E+00
         21   -1    0    0  503  501  0.00000000000E+00  0.00000000000E+00  0.19934592711E+04  0.19934592711E+04  0.00000000000E+00 0.  1.
         21   -1    0    0  505  502 -0.00000000000E+00 -0.00000000000E+00 -0.10105156455E+04  0.10105156455E+04  0.00000000000E+00 0. -1.
         21    1    1    2  503  506  0.28044722409E+02 -0.14869207579E+02  0.41393248183E+03  0.41514780417E+03  0.00000000000E+00 0. -1.
         21    1    1    2  504  501  0.15728547056E+02 -0.36209003464E+03  0.15085269952E+04  0.15514542454E+04  0.00000000000E+00 0.  1.
         21    1    1    2  505  504 -0.70947758223E+01  0.35168025709E+03 -0.92640637404E+03  0.99093799449E+03  0.00000000000E+00 0. -1.
         21    1    1    2  506  502 -0.36678493643E+02  0.25278985124E+02 -0.13109477444E+02  0.46434872496E+02  0.00000000000E+00 0. -1.
<scales pt_clust_3="31.74271" pt_clust_4="378.21873" pt_clust_5="14000.00000" pt_clust_6="44.21320"></scales>
<clustering>
<clus scale="   31.743">  1  3  2 -1</clus>
<clus scale="   44.213">  2  6  1 -1</clus>
<clus scale="  378.219">  1  4  2 -1</clus>
<clus scale="   31.743">  1  3  2 -1</clus>
</clustering>
</event>
<event>
 6    0  0.2666600E+002  0.1205730E+03  0.7546771E-02  0.1242155E+00
         21   -1    0    0  503  501  0.00000000000E+00  0.00000000000E+00  0.13795817881E+03  0.13795817881E+03  0.00000000000E+00 0.  1.
         21   -1    0    0  506  502 -0.00000000000E+00 -0.00000000000E+00 -0.11622745280E+04  0.11622745280E+04  0.00000000000E+00 0.  1.
         21    1    1    2  503  502 -0.10391370427E+03  0.19822198554E+01 -0.10767868571E+03  0.14965522539E+03  0.00000000000E+00 0.  1.
         21    1    1    2  504  505  0.78221291755E+02  0.16659740042E+03 -0.68725727341E+03  0.71147440162E+03  0.00000000000E+00 0.  1.
         21    1    1    2  505  501 -0.50291404113E+01 -0.85444952914E+02  0.80072597721E+02  0.11720816157E+03  0.00000000000E+00 0.  1.
         21    1    1    2  506  504  0.30721552923E+02 -0.83134667358E+02 -0.30945298775E+03  0.32189491819E+03  0.00000000000E+00 0.  1.
<scales pt_clust_3="14000.00000" pt_clust_4="120.57300" pt_clust_5="85.59283" pt_clust_6="101.18078"></scales>
<clustering>
<clus scale="   85.593">  1  5  2 -1</clus>
<clus scale="  101.181">  2  6  1 -1</clus>
<clus scale="  120.573">  2  4  1 -1</clus>
<clus scale="   85.593">  1  3  2 -1</clus>
</clustering>
</event>
<event>
 6    0  0.2666600E+002  0.2104578E+03  0.7546771E-02  0.1141204E+00
         21   -1    0    0  505  501  0.00000000000E+00  0.00000000000E+00  0.78017230220E+03  0.78017230220E+03  0.00000000000E+00 0.  1.
         21   -1    0    0  504  502 -0.00000000000E+00 -0.00000000000E+00 -0.18860528748E+03  0.18860528748E+03  0.00000000000E+00 0. -1.
         21    1    1    2  503  501  0.23257234971E+03 -0.23970099916E+01 -0.54794013409E+02  0.23895193536E+03  0.00000000000E+00 0. -1.
         21    1    1    2  504  503 -0.34792492573E+02  0.79885613936E+01 -0.13517653170E+02  0.38171476259E+02  0.00000000000E+00 0. -1.
         21    1    1    2  505  506 -0.16087744118E+03 -0.20617909222E+02  0.58195864108E+03  0.60413782301E+03  0.00000000000E+00 0.  1.
         21    1    1    2  506  502 -0.36902415956E+02  0.15026357820E+02  0.77920040222E+02  0.87516355049E+02  0.00000000000E+00 0.  1.
<scales pt_clust_3="201.23363" pt_clust_4="35.69782" pt_clust_5="30.54329" pt_clust_6="30.54329"></scales>
<clustering>
<clus scale="   30.543">  5  6 -1 -1</clus>
<clus scale="   35.698">  2  4  1 -1</clus>
<clus scale="  201.234">  2  3  1 -1</clus>
<clus scale="  210.458">  1  3  2 -1</clus>
</clustering>
</event>
<event>
 6    0  0.2666600E+002  0.9773472E+02  0.7546771E-02  0.1285133E+00
         21   -1    0    0  504  501  0.00000000000E+00  0.00000000000E+00  0.81969250312E+02  0.81969250312E+02  0.00000000000E+00 0.  1.
         21   -1    0    0  506  502 -0.00000000000E+00 -0.00000000000E+00 -0.33337624690E+03  0.33337624690E+03  0.00000000000E+00 0. -1.
         21    1    1    2  503  502 -0.29398369454E+02  0.20888924732E+02 -0.56578690167E+02  0.67095152463E+02  0.00000000000E+00 0.  1.
         21    1    1    2  504  503 -0.48562840666E+02 -0.66616955799E+02  0.23269326630E+02  0.85659966468E+02  0.00000000000E+00 0.  1.
         21    1    1    2  505  501  0.11058720739E+02 -0.31057309042E+02 -0.16811175788E+02  0.37006315416E+02  0.00000000000E+00 0.  1.
         21    1    1    2  506  505  0.66902489380E+02  0.76785340109E+02 -0.20128645726E+03  0.22558406286E+03  0.00000000000E+00 0. -1.
<scales pt_clust_3="34.11643" pt_clust_4="97.73472" pt_clust_5="32.96743" pt_clust_6="14000.00000"></scales>
<clustering>
<clus scale="   32.967">  1  5  2 -1</clus>
<clus scale="   34.116">  2  3  1 -1</clus>
<clus scale="   97.735">  1  4  2 -1</clus>
<clus scale="   32.967">  1  3  2 -1</clus>
</clustering>
</event>
<event>
 6    0  0.2666600E+002  0.2795125E+03  0.7546771E-02  0.1095956E+00
         21   -1    0    0  502  501  0.00000000000E+00  0.00000000000E+00  0.82285481706E+03  0.82285481706E+03  0.00000000000E+00 0. -1.
         21   -1    0    0  505  502 -0.00000000000E+00 -0.00000000000E+00 -0.44533447096E+03  0.44533447096E+03  0.00000000000E+00 0. -1.
         21    1    1    2  503  506  0.98945900572E+02 -0.15526422660E+03 -0.27094998809E+03  0.32758383254E+03  0.00000000000E+00 0. -1.
         21    1    1    2  504  501 -0.70295832832E+01  0.11874063402E+03  0.43823928266E+03  0.45409516852E+03  0.00000000000E+00 0. -1.
         21    1    1    2  505  503  0.48401969817E+01 -0.79768659487E+02 -0.10788251683E+03  0.13425760306E+03  0.00000000000E+00 0. -1.
         21    1    1    2  506  504 -0.96756514270E+02  0.11629225207E+03  0.31811356835E+03  0.35225268389E+03  0.00000000000E+00 0. -1.
<scales pt_clust_3="264.16556" pt_clust_4="97.60093" pt_clust_5="40.46012" pt_clust_6="97.60093"></scales>
<clustering>
<clus scale="   40.460">  3  5 -1 -1</clus>
<clus scale="   97.601">  4  6 -1 -1</clus>
<clus scale="  264.166">  2  3  1 -1</clus>
<clus scale="  279.512">  1  3  2 -1</clus>
</clustering>
</event>
<event>
 6    0  0.2666600E+002  0.8931591E+02  0.7546771E-02  0.1304517E+00
         21   -1    0    0  505  501  0.00000000000E+00  0.00000000000E+00  0.21307926237E+03  0.21307926237E+03  0.00000000000E+00 0.  1.
         21   -1    0    0  503  502 -0.00000000000E+00 -0.00000000000E+00 -0.59949339526E+03  0.59949339526E+03  0.00000000000E+00 0. -1.
         21    1    1    2  503  504 -0.63689012919E+02  0.78594113687E+02 -0.48267705973E+03  0.49316373454E+03  0.00000000000E+00 0. -1.
         21    1    1    2  504  506  0.78925583530E+02 -0.51002912593E+02  0.45384854592E+02  0.10435674322E+03  0.00000000000E+00 0. -1.
         21    1    1    2  505  502  0.50476197350E+02  0.13979479877E+02 -0.59988160716E+02  0.79635744378E+02  0.00000000000E+00 0. -1.
         21    1    1    2  506  501 -0.65712767961E+02 -0.41570680971E+02  0.11086623297E+03  0.13541643549E+03  0.00000000000E+00 0.  1.
<scales pt_clust_3="89.31591" pt_clust_4="14000.00000" pt_clust_5="52.37626" pt_clust_6="76.59694"></scales>
<clustering>
<clus scale="   52.376">  2  5  1 -1</clus>
<clus scale="   76.597">  1  6  2 -1</clus>
<clus scale="   89.316">  2  3  1 -1</clus>
<clus scale="   76.597">  1  3  2 -1</clus>
</clustering>
</event>
<event>
 6    0  0.2666600E+002  0.1597587E+03  0.7546771E-02  0.1188969E+00
         21   -1    0    0  504  501  0.00000000000E+00  0.00000000000E+00  0.40569483044E+03  0.40569483044E+03  0.00000000000E+00 0.  1.
         21   -1    0    0  506  502 -0.00000000000E+00 -0.00000000000E+00 -0.22889045503E+03  0.22889045503E+03  0.00000000000E+00 0. -1.
         21    1    1    2  503  501  0.24858217872E+02  0.52254186987E+02  0.24669137871E+02  0.62904669275E+02  0.00000000000E+00 0.  1.
         21    1    1    2  504  505 -0.23015217265E+02  0.68671718691E+02  0.21878700811E+03  0.23046314259E+03  0.00000000000E+00 0.  1.
         21    1    1    2  505  502  0.17283455069E+02  0.36967284502E+02  0.10172171722E+03  0.10960203327E+03  0.00000000000E+00 0.  1.
         21    1    1    2  506  503 -0.19126455675E+02 -0.15789319018E+03 -0.16837348778E+03  0.23161544033E+03  0.00000000000E+00 0. -1.
<scales pt_clust_3="57.86563" pt_clust_4="31.18532" pt_clust_5="31.18532" pt_clust_6="154.26213"></scales>
<clustering>
<clus scale="   31.185">  4  5 -1 -1</clus>
<clus scale="   57.866">  1  3  2 -1</clus>
<clus scale="  154.262">  2  6  1 -1</clus>
<clus scale="   57.866">  1  3  2 -1</clus>
</clustering>
</event>
<event>
 6    0  0.2666600E+002  0.1532733E+03  0.7546771E-02  0.1196508E+00
         21   -1    0    0  506  501  0.00000000000E+00  0.00000000000E+00  0.16661598584E+03  0.16661598584E+03  0.00000000000E+00 0.  1.
         21   -1    0    0  503  502 -0.00000000000E+00 -0.00000000000E+00 -0.57601847965E+03  0.57601847965E+03  0.00000000000E+00 0.  1.
         21    1    1    2  503  505  0.65679265335E+02  0.85002935370E+02 -0.33154728974E+03  0.34851523675E+03  0.00000000000E+00 0.  1.
         21    1    1    2  504  501  0.65959657837E+02 -0.78973109869E+02  0.55492975354E+02  0.11690551252E+03  0.00000000000E+00 0.  1.
         21    1    1    2  505  504  0.46397087500E+02  0.15403990490E+01  0.11208006893E+02  0.47756486221E+02  0.00000000000E+00 0.  1.
         21    1    1    2  506  502 -0.17803601067E+03 -0.75702245499E+01 -0.14455618632E+03  0.22945723000E+03  0.00000000000E+00 0.  1.
<scales pt_clust_3="107.42097" pt_clust_4="42.71791" pt_clust_5="42.71791" pt_clust_6="139.45616"></scales>
<clustering>
<clus scale="   42.718">  4  5 -1 -1</clus>
<clus scale="  107.421">  2  3  1 -1</clus>
<clus scale="  139.456">  2  6  1 -1</clus>
<clus scale="  153.273">  1  3  2 -1</clus>
</clustering>
</event>
<event>
 6    0  0.2666600E+002  0.1209629E+03  0.7546771E-02  0.1241517E+00
         21   -1    0    0  506  501  0.00000000000E+00  0.00000000000E+00  0.26066249548E+03  0.26066249548E+03  0.00000000000E+00 0. -1.
         21   -1    0    0  505  502 -0.00000000000E+00 -0.00000000000E+00 -0.40505144918E+03  0.40505144918E+03  0.00000000000E+00 0. -1.
         21    1    1    2  503  502 -0.10846508607E+03 -0.88701577045E+02 -0.32349783554E+03  0.35253864223E+03  0.00000000000E+00 0. -1.
         21    1    1    2  504  501  0.31481678903E+02 -0.75522709819E+00  0.17581388244E+03  0.17861183537E+03  0.00000000000E+00 0. -1.
         21    1    1    2  505  504  0.22785936647E+02  0.26904056895E+02  0.31342832310E+02  0.47174148890E+02  0.00000000000E+00 0.  1.
         21    1    1    2  506  503  0.54197470517E+02  0.62552747248E+02 -0.28047832914E+02  0.87389318168E+02  0.00000000000E+00 0.  1.
<scales pt_clust_3="14000.00000" pt_clust_4="31.49074" pt_clust_5="46.02523" pt_clust_6="120.96286"></scales>
<clustering>
<clus scale="   31.491">  1  4  2 -1</clus>
<clus scale="   46.025">  1  5  2 -1</clus>
<clus scale="  120.963">  1  6  2 -1</clus>
<clus scale="   31.491">  1  3  2 -1</clus>
</clustering>
</event>
<event>
 6    0  0.2666600E+002  0.1280443E+03  0.7546771E-02  0.1230387E+00
         21   -1    0    0  505  501  0.00000000000E+00  0.00000000000E+00  0.52711590814E+03  0.52711590814E+03  0.00000000000E+00 0.  1.
         21   -1    0    0  504  502 -0.00000000000E+00 -0.00000000000E+00 -0.34234051858E+03  0.34234051858E+03  0.00000000000E+00 0. -1.
         21    1    1    2  503  502  0.43836148640E+02 -0.17116064386E+02  0.11370716826E+03  0.12306050423E+03  0.00000000000E+00 0.  1.
         21    1    1    2  504  506 -0.44768565011E+02  0.11639874504E+02 -0.26203384949E+03  0.26608541743E+03  0.00000000000E+00 0. -1.
         21    1    1    2  505  503  0.79313548335E+02 -0.50338313926E+01  0.38009813227E+03  0.38831761300E+03  0.00000000000E+00 0.  1.
         21    1    1    2  506  501 -0.78381131965E+02  0.10510021275E+02 -0.46996061478E+02  0.91992892061E+02  0.00000000000E+00 0.  1.
<scales pt_clust_3="34.47729" pt_clust_4="46.25701" pt_clust_5="34.47729" pt_clust_6="119.94962"></scales>
<clustering>
<clus scale="   34.477">  3  5 -1 -1</clus>
<clus scale="   46.257">  2  4  1 -1</clus>
<clus scale="  119.950">  2  6  1 -1</clus>
<clus scale="  128.044">  1  3  2 -1</clus>
</clustering>
</event>
<event>
 6    0  0.2666600E+002  0.2527866E+03  0.7546771E-02  0.1111556E+00
         21   -1    0    0  503  501  0.00000000000E+00  0.00000000000E+00  0.90810040836E+03  0.90810040836E+03  0.00000000000E+00 0. -1.
         21   -1    0    0  504  502 -0.00000000000E+00 -0.00000000000E+00 -0.85195382030E+03  0.85195382030E+03  0.00000000000E+00 0. -1.
         21    1    1    2  503  505 -0.51283346984E+02  0.23840866383E+01  0.84090197024E+02  0.98523229659E+02  0.00000000000E+00 0. -1.
         21    1    1    2  504  506  0.55157368845E+02 -0.24183439542E+03 -0.76104494172E+03  0.80044713346E+03  0.00000000000E+00 0. -1.
         21    1    1    2  505  502  0.67262564481E+02  0.18392649326E+02 -0.20363795127E+02  0.72644519971E+02  0.00000000000E+00 0. -1.
         21    1    1    2  506  501 -0.71136586342E+02  0.22105765945E+03  0.75346512788E+03  0.78843934557E+03  0.00000000000E+00 0. -1.
<scales pt_clust_3="51.33873" pt_clust_4="14000.00000" pt_clust_5="68.17080" pt_clust_6="252.78655"></scales>
<clustering>
<clus scale="   51.339">  1  3  2 -1</clus>
<clus scale="   68.171">  2  5  1 -1</clus>
<clus scale="  252.787">  1  6  2 -1</clus>
<clus scale="   51.339">  1  3  2 -1</clus>
</clustering>
</event>
<event>
 6    0  0.2666600E+002  0.1611940E+03  0.7546771E-02  0.1187355E+00
         21   -1    0    0  505  501  0.00000000000E+00  0.00000000000E+00  0.36131008167E+03  0.36131008167E+03  0.00000000000E+00 0. -1.
         21   -1    0    0  506  502 -0.00000000000E+00 -0.00000000000E+00 -0.32357128467E+03  0.32357128467E+03  0.00000000000E+00 0. -1.
         21    1    1    2  503  501 -0.44086338077E+02  0.74759991269E+01  0.19655803414E+03  0.20158014920E+03  0.00000000000E+00 0. -1.
         21    1    1    2  504  502  0.87294430315E+02 -0.28735348823E+01 -0.15042223684E+03  0.17394086381E+03  0.00000000000E+00 0. -1.
         21    1    1    2  505  504  0.71344035774E+02  0.35039144394E+02 -0.12043294716E+03  0.14429763630E+03  0.00000000000E+00 0. -1.
         21    1    1    2  506  503 -0.11455212801E+03 -0.39641608638E+02  0.11203594686E+03  0.16506271704E+03  0.00000000000E+00 0. -1.
<scales pt_clust_3="44.71572" pt_clust_4="39.47614" pt_clust_5="39.47614" pt_clust_6="155.79180"></scales>
<clustering>
<clus scale="   39.476">  4  5 -1 -1</clus>
<clus scale="   44.716">  1  3  2 -1</clus>
<clus scale="  155.792">  1  6  2 -1</clus>
<clus scale="   44.716">  1  3  2 -1</clus>
</clustering>
</event>
<event>
 6    0  0.2666600E+002  0.3116808E+03  0.7546771E-02  0.1079543E+00
         21   -1    0    0  503  501  0.00000000000E+00  0.00000000000E+00  0.78968649643E+03  0.78968649643E+03  0.00000000000E+00 0.  1.
         21   -1    0    0  504  502 -0.00000000000E+00 -0.00000000000E+00 -0.68683739514E+03  0.68683739514E+03  0.00000000000E+00 0.  1.
         21    1    1    2  503  505  0.32790225066E+02  0.62302085585E+01  0.15509149984E+03  0.15864232626E+03  0.00000000000E+00 0.  1.
         21    1    1    2  504  506  0.14145199928E+03 -0.27437205245E+03 -0.56857639080E+03  0.64696816262E+03  0.00000000000E+00 0.  1.
         21    1    1    2  505  502  0.35223456005E+02 -0.23370107910E+02  0.25749413638E+00  0.42271977715E+02  0.00000000000E+00 0. -1.
         21    1    1    2  506  501 -0.20946568035E+03  0.29151195181E+03  0.51607649812E+03  0.62864142498E+03  0.00000000000E+00 0.  1.
<scales pt_clust_3="33.37685" pt_clust_4="311.68082" pt_clust_5="43.08072" pt_clust_6="14000.00000"></scales>
<clustering>
<clus scale="   33.377">  1  3  2 -1</clus>
<clus scale="   43.081">  1  5  2 -1</clus>
<clus scale="  311.681">  2  4  1 -1</clus>
<clus scale="   33.377">  1  3  2 -1</clus>
</clustering>
</event>
<event>
 6    0  0.2666600E+002  0.1433037E+03  0.7546771E-02  0.1208952E+00
         21   -1    0    0  505  501  0.00000000000E+00  0.00000000000E+00  0.13560759567E+04  0.13560759567E+04  0.00000000000E+00 0.  1.
         21   -1    0    0  504  502 -0.00000000000E+00 -0.00000000000E+00 -0.45228734249E+02  0.45228734249E+02  0.00000000000E+00 0.  1.
         21    1    1    2  503  502  0.56274195332E+02 -0.56826269294E+01  0.82994751363E+01  0.57166061581E+02  0.00000000000E+00 0. -1.
         21    1    1    2  504  501 -0.46617525774E+02 -0.48324489433E+02  0.35115168785E+03  0.35751357718E+03  0.00000000000E+00 0.  1.
         21    1    1    2  505  506 -0.89388099674E+02  0.52942716679E+02  0.85604829993E+03  0.86232931959E+03  0.00000000000E+00 0.  1.
         21    1    1    2  506  503  0.79731430116E+02  0.10643996828E+01  0.95347759558E+02  0.12429573262E+03  0.00000000000E+00 0.  1.
<scales pt_clust_3="50.99930" pt_clust_4="67.14499" pt_clust_5="129.88134" pt_clust_6="50.99930"></scales>
<clustering>
<clus scale="   50.999">  3  6 -1 -1</clus>
<clus scale="   67.145">  1  4  2 -1</clus>
<clus scale="  129.881">  1  5  2 -1</clus>
<clus scale="   67.145">  1  3  2 -1</clus>
</clustering>
</event>
<event>
 6    0  0.2666600E+002  0.1298544E+03  0.7546771E-02  0.1227672E+00
         21   -1    0    0  505  501  0.00000000000E+00  0.00000000000E+00  0.88929599265E+03  0.88929599265E+03  0.00000000000E+00 0. -1.
         21   -1    0    0  504  502 -0.00000000000E+00 -0.00000000000E+00 -0.16664271574E+03  0.16664271574E+03  0.00000000000E+00 0. -1.
         21    1    1    2  503  506 -0.84898203010E+02 -0.21784835681E+02 -0.27587586821E+00  0.87649073283E+02  0.00000000000E+00 0. -1.
         21    1    1    2  504  501  0.99418890893E+02 -0.65552760763E+02  0.58571174811E+03  0.59769518334E+03  0.00000000000E+00 0. -1.
         21    1    1    2  505  503  0.53649255225E+02  0.53940440930E+02  0.23488329209E+03  0.24689668823E+03  0.00000000000E+00 0. -1.
         21    1    1    2  506  502 -0.68169943108E+02  0.33397155514E+02 -0.97665887421E+02  0.12369776354E+03  0.00000000000E+00 0. -1.
<scales pt_clust_3="129.85437" pt_clust_4="14000.00000" pt_clust_5="73.86345" pt_clust_6="75.91121"></scales>
<clustering>
<clus scale="   75.911">  2  6  1 -1</clus>
<clus scale="   73.863">  1  5  2 -1</clus>
<clus scale="  129.854">  2  3  1 -1</clus>
<clus scale="   73.863">  1  3  2 -1</clus>
</clustering>
</event>
<event>
 6    0  0.2666600E+002  0.1091798E+03  0.7546771E-02  0.1262096E+00
         21   -1    0    0  504  501  0.00000000000E+00  0.00000000000E+00  0.12870830500E+03  0.12870830500E+03  0.00000000000E+00 0.  1.
         21   -1    0    0  505  502 -0.00000000000E+00 -0.00000000000E+00 -0.25873276247E+03  0.25873276247E+03  0.00000000000E+00 0.  1.
         21    1    1    2  503  502  0.60534805020E+02 -0.91905870345E+02 -0.14282564786E+03  0.18030617657E+03  0.00000000000E+00 0.  1.
         21    1    1    2  504  503 -0.12824506278E+02 -0.36927560842E+02 -0.10885423027E+02  0.40578382737E+02  0.00000000000E+00 0.  1.
         21    1    1    2  505  506 -0.73906688398E+02  0.78283046704E+02  0.10950089524E+02  0.10821431722E+03  0.00000000000E+00 0.  1.
         21    1    1    2  506  501  0.26196389656E+02  0.50550384483E+02  0.12736523889E+02  0.58342190936E+02  0.00000000000E+00 0.  1.
<scales pt_clust_3="109.17982" pt_clust_4="39.09108" pt_clust_5="14000.00000" pt_clust_6="44.89374"></scales>
<clustering>
<clus scale="   39.091">  1  4  2 -1</clus>
<clus scale="   44.894">  1  6  2 -1</clus>
<clus scale="  109.180">  2  3  1 -1</clus>
<clus scale="   39.091">  1  3  2 -1</clus>
</clustering>
</event>
<event>
 6    0  0.2666600E+002  0.1135527E+03  0.7546771E-02  0.1254129E+00
         21   -1    0    0  505  501  0.00000000000E+00  0.00000000000E+00  0.20467752120E+03  0.20467752120E+03  0.00000000000E+00 0. -1.
         21   -1    0    0  503  502 -0.00000000000E+00 -0.00000000000E+00 -0.76246025358E+03  0.76246025358E+03  0.00000000000E+00 0. -1.
         21    1    1    2  503  506  0.10060889071E+03  0.35771314083E+02 -0.27452977502E+03  0.29456465025E+03  0.00000000000E+00 0.  1.
         21    1    1    2  504  502 -0.12559372448E+03  0.40782630475E+02 -0.45387480914E+03  0.47269371579E+03  0.00000000000E+00 0. -1.
         21    1    1    2  505  504 -0.38015334445E+01 -0.54268981964E+02  0.14632739788E+03  0.15611304055E+03  0.00000000000E+00 0. -1.
         21    1    1    2  506  501  0.28786367211E+02 -0.22284962595E+02  0.24294453901E+02  0.43766368200E+02  0.00000000000E+00 0. -1.
<scales pt_clust_3="113.55268" pt_clust_4="14000.00000" pt_clust_5="77.13454" pt_clust_6="36.40432"></scales>
<clustering>
<clus scale="   36.404">  1  6  2 -1</clus>
<clus scale="   77.135">  1  5  2 -1</clus>
<clus scale="  113.553">  1  3  2 -1</clus>
<clus scale="   36.404">  1  3  2 -1</clus>
</clustering>
</event>
<event>
 6    0  0.2666600E+002  0.1007125E+03  0.7546771E-02  0.1278805E+00
         21   -1    0    0  506  501  0.00000000000E+00  0.00000000000E+00  0.26311976635E+02  0.26311976635E+02  0.00000000000E+00 0.  1.
         21   -1    0    0  505  502 -0.00000000000E+00 -0.00000000000E+00 -0.17364242958E+04  0.17364242958E+04  0.00000000000E+00 0.  1.
         21    1    1    2  503  501 -0.91544727422E+02 -0.69488210103E+02 -0.15659197463E+03  0.19424236144E+03  0.00000000000E+00 0.  1.
         21    1    1    2  504  502  0.39725839704E+01  0.73808789239E+02 -0.92211638094E+03  0.92507412611E+03  0.00000000000E+00 0.  1.
         21    1    1    2  505  503  0.62883296936E+02  0.12964597403E+02 -0.58212654716E+03  0.58565664577E+03  0.00000000000E+00 0.  1.
         21    1    1    2  506  504  0.24688846516E+02 -0.17285176539E+02 -0.49277416450E+02  0.57763139132E+02  0.00000000000E+00 0.  1.
<scales pt_clust_3="14000.00000" pt_clust_4="100.71254" pt_clust_5="65.88391" pt_clust_6="30.13829"></scales>
<clustering>
<clus scale="   30.138">  1  6  2 -1</clus>
<clus scale="   65.884">  2  5  1 -1</clus>
<clus scale="  100.713">  2  4  1 -1</clus>
<clus scale="   30.138">  1  3  2 -1</clus>
</clustering>
</event>
<event>
 6    0  0.2666600E+002  0.1276443E+03  0.7546771E-02  0.1230994E+00
         21   -1    0    0  505  501  0.00000000000E+00  0.00000000000E+00  0.10618598215E+03  0.10618598215E+03  0.00000000000E+00 0.  1.
         21   -1    0    0  506  502 -0.00000000000E+00 -0.00000000000E+00 -0.13886330182E+04  0.13886330182E+04  0.00000000000E+00 0. -1.
         21    1    1    2  503  501 -0.75563062011E+01  0.29327467110E+02 -0.16681845434E+01  0.30331187417E+02  0.00000000000E+00 0. -1.
         21    1    1    2  504  502  0.55617585545E+02 -0.99145827743E+01 -0.11689450147E+03  0.12983042497E+03  0.00000000000E+00 0. -1.
         21    1    1    2  505  504 -0.10801808137E+03  0.34774362375E+02  0.45730728488E+02  0.12234566485E+03  0.00000000000E+00 0.  1.
         21    1    1    2  506  503  0.59956802022E+02 -0.54187246711E+02 -0.12096150786E+04  0.12123117232E+04  0.00000000000E+00 0. -1.
<scales pt_clust_3="30.28528" pt_clust_4="55.64196" pt_clust_5="14000.00000" pt_clust_6="127.64429"></scales>
<clustering>
<clus scale="   30.285">  1  3  2 -1</clus>
<clus scale="   55.642">  2  4  1 -1</clus>
<clus scale="  127.644">  2  6  1 -1</clus>
<clus scale="   30.285">  1  3  2 -1</clus>
</clustering>
</event>
<event>
 6    0  0.2666600E+002  0.1395864E+03  0.7546771E-02  0.1213887E+00
         21   -1    0    0  506  501  0.00000000000E+00  0.00000000000E+00  0.12824186110E+04  0.12824186110E+04  0.00000000000E+00 0.  1.
         21   -1    0    0  505  502 -0.00000000000E+00 -0.00000000000E+00 -0.15303810131E+02  0.15303810131E+02  0.00000000000E+00 0.  1.
         21    1    1    2  503  502 -0.36469467861E+02 -0.29679847176E+02  0.23172485562E+03  0.23644729672E+03  0.00000000000E+00 0.  1.
         21    1    1    2  504  501  0.34411227762E+02  0.64082521886E+02  0.40267182510E+03  0.40918858848E+03  0.00000000000E+00 0.  1.
         21    1    1    2  505  504  0.10351976682E+02  0.54083462953E+02  0.12418616052E+03  0.13584692433E+03  0.00000000000E+00 0.  1.
         21    1    1    2  506  503 -0.82937365827E+01 -0.88486137663E+02  0.50853195968E+03  0.51623961166E+03  0.00000000000E+00 0.  1.
<scales pt_clust_3="37.02084" pt_clust_4="51.60280" pt_clust_5="51.60280" pt_clust_6="136.22566"></scales>
<clustering>
<clus scale="   37.021">  3  6 -1 -1</clus>
<clus scale="   51.603">  4  5 -1 -1</clus>
<clus scale="  136.226">  1  3  2 -1</clus>
<clus scale="  136.226">  1  3  2 -1</clus>
</clustering>
</event>
<event>
 6    0  0.2666600E+002  0.1526883E+03  0.7546771E-02  0.1197208E+00
         21   -1    0    0  505  501  0.00000000000E+00  0.00000000000E+00  0.11425192409E+03  0.11425192409E+03  0.00000000000E+00 0.  1.
         21   -1    0    0  503  502 -0.00000000000E+00 -0.00000000000E+00 -0.98260321875E+03  0.98260321875E+03  0.00000000000E+00 0. -1.
         21    1    1    2  503  506 -0.74662373483E+02  0.58604381822E+02 -0.77516172727E+03  0.78095111691E+03  0.00000000000E+00 0. -1.
         21    1    1    2  504  501  0.60598639090E+02 -0.31096382535E+02  0.29971742930E+02  0.74414282504E+02  0.00000000000E+00 0.  1.
         21    1    1    2  505  502 -0.26516911547E+02  0.49696848355E+02 -0.14155529965E+03  0.15235099669E+03  0.00000000000E+00 0. -1.
         21    1    1    2  506  504  0.40580645940E+02 -0.77204847642E+02  0.18393989340E+02  0.89138746728E+02  0.00000000000E+00 0.  1.
<scales pt_clust_3="144.46369" pt_clust_4="43.68650" pt_clust_5="56.32871" pt_clust_6="43.68650"></scales>
<clustering>
<clus scale="   43.687">  4  6 -1 -1</clus>
<clus scale="   56.329">  2  5  1 -1</clus>
<clus scale="  144.464">  2  3  1 -1</clus>
<clus scale="  152.688">  1  3  2 -1</clus>
</clustering>
</event>
<event>
 6    0  0.2666600E+002  0.1412573E+03  0.7546771E-02  0.1211647E+00
         21   -1    0    0  506  501  0.00000000000E+00  0.00000000000E+00  0.70782319344E+03  0.70782319344E+03  0.00000000000E+00 0.  1.
         21   -1    0    0  503  502 -0.00000000000E+00 -0.00000000000E+00 -0.28775871241E+03  0.28775871241E+03  0.00000000000E+00 0. -1.
         21    1    1    2  503  504 -0.80785326625E+02  0.59284784264E+01 -0.18218672365E+03  0.19938259234E+03  0.00000000000E+00 0. -1.
         21    1    1    2  504  501 -0.47681564000E+02  0.36652247043E+02 -0.74804630225E+02  0.95982558113E+02  0.00000000000E+00 0. -1.
         21    1    1    2  505  502  0.85130398458E+02  0.20706743951E+02  0.22059943117E+03  0.23736061809E+03  0.00000000000E+00 0.  1.
         21    1    1    2  506  505  0.43336492167E+02 -0.63287469421E+02  0.45645640373E+03  0.46285613731E+03  0.00000000000E+00 0.  1.
<scales pt_clust_3="46.23468" pt_clust_4="46.23468" pt_clust_5="130.66929" pt_clust_6="76.70303"></scales>
<clustering>
<clus scale="   46.235">  3  4 -1 -1</clus>
<clus scale="   76.703">  1  6  2 -1</clus>
<clus scale="  130.669">  1  5  2 -1</clus>
<clus scale="   76.703">  1  3  2 -1</clus>
</clustering>
</event>
<event>
 6    0  0.2666600E+002  0.1271259E+03  0.7546771E-02  0.1231784E+00
         21   -1    0    0  503  501  0.00000000000E+00  0.00000000000E+00  0.37909805861E+03  0.37909805861E+03  0.00000000000E+00 0.  1.
         21   -1    0    0  506  502 -0.00000000000E+00 -0.00000000000E+00 -0.63828799904E+03  0.63828799904E+03  0.00000000000E+00 0. -1.
         21    1    1    2  503  502 -0.24878479117E+02  0.24479765595E+02  0.60906665145E+02  0.70198429512E+02  0.00000000000E+00 0.  1.
         21    1    1    2  504  501  0.47622788810E+02  0.92055460026E+02  0.29829582258E+03  0.31578875139E+03  0.00000000000E+00 0.  1.
         21    1    1    2  505  504 -0.67438818712E+01 -0.44950205215E+02 -0.13436030702E+03  0.14184037858E+03  0.00000000000E+00 0. -1.
         21    1    1    2  506  505 -0.16000427822E+02 -0.71585020407E+02 -0.48403212114E+03  0.48955849817E+03  0.00000000000E+00 0. -1.
<scales pt_clust_3="34.90269" pt_clust_4="118.33605" pt_clust_5="36.50705" pt_clust_6="36.50705"></scales>
<clustering>
<clus scale="   34.903">  1  3  2 -1</clus>
<clus scale="   36.507">  5  6 -1 -1</clus>
<clus scale="  118.336">  1  4  2 -1</clus>
<clus scale="   34.903">  1  3  2 -1</clus>
</clustering>
</event>
<event>
 6    0  0.2666600E+002  0.7954169E+02  0.7546771E-02  0.1330357E+00
         21   -1    0    0  504  501  0.00000000000E+00  0.00000000000E+00  0.13082115149E+03  0.13082115149E+03  0.00000000000E+00 0. -1.
         21   -1    0    0  503  502 -0.00000000000E+00 -0.00000000000E+00 -0.40554206655E+03  0.40554206655E+03  0.00000000000E+00 0.  1.
         21    1    1    2  503  505 -0.72385654788E+02 -0.29343732505E+02 -0.20392837195E+03  0.21837472048E+03  0.00000000000E+00 0.  1.
         21    1    1    2  504  506 -0.60822498144E+02 -0.17822007391E+02  0.16962169207E+02  0.65610330072E+02  0.00000000000E+00 0.  1.
         21    1    1    2  505  501  0.10904451751E+03 -0.81992752437E+01  0.35620666969E+02  0.11500768160E+03  0.00000000000E+00 0. -1.
         21    1    1    2  506  502  0.24163635426E+02  0.55365015139E+02 -0.12337537928E+03  0.13737048588E+03  0.00000000000E+00 0. -1.
<scales pt_clust_3="55.42397" pt_clust_4="79.54169" pt_clust_5="14000.00000" pt_clust_6="60.40833"></scales>
<clustering>
<clus scale="   60.408">  2  6  1 -1</clus>
<clus scale="   55.424">  2  3  1 -1</clus>
<clus scale="   79.542">  1  4  2 -1</clus>
<clus scale="   79.542">  1  3  2 -1</clus>
</clustering>
</event>
<event>
 6    0  0.2666600E+002  0.3073064E+03  0.7546771E-02  0.1081644E+00
         21   -1    0    0  503  501  0.00000000000E+00  0.00000000000E+00  0.16559417083E+03  0.16559417083E+03  0.00000000000E+00 0. -1.
         21   -1    0    0  504  502 -0.00000000000E+00 -0.00000000000E+00 -0.21803026658E+04  0.21803026658E+04  0.00000000000E+00 0. -1.
         21    1    1    2  503  505  0.16107441730E+03 -0.78134772869E+02 -0.11806365414E+04  0.11941325946E+04  0.00000000000E+00 0. -1.
         21    1    1    2  504  506 -0.12971425706E+03  0.38075059375E+02 -0.14849024461E+02  0.13599997117E+03  0.00000000000E+00 0. -1.
         21    1    1    2  505  502  0.12605203351E+03 -0.23779341803E+02 -0.83534463058E+03  0.84513621629E+03  0.00000000000E+00 0. -1.
         21    1    1    2  506  501 -0.15741219375E+03  0.63839055297E+02  0.16121701524E+02  0.17062805450E+03  0.00000000000E+00 0.  1.
<scales pt_clust_3="33.95531" pt_clust_4="30.78783" pt_clust_5="33.95531" pt_clust_6="306.62538"></scales>
<clustering>
<clus scale="   30.788">  4  6 -1 -1</clus>
<clus scale="   33.955">  3  5 -1 -1</clus>
<clus scale="  306.625">  1  4  2 -1</clus>
<clus scale="  306.625">  1  3  2 -1</clus>
</clustering>
</event>
<event>
 6    0  0.2666600E+002  0.1339285E+03  0.7546771E-02  0.1221740E+00
         21   -1    0    0  505  501  0.00000000000E+00  0.00000000000E+00  0.33636921324E+03  0.33636921324E+03  0.00000000000E+00 0. -1.
         21   -1    0    0  501  502 -0.00000000000E+00 -0.00000000000E+00 -0.46438581309E+03  0.46438581309E+03  0.00000000000E+00 0. -1.
         21    1    1    2  503  506 -0.72863568637E+02 -0.22633531526E+02  0.89193426375E+02  0.11737480007E+03  0.00000000000E+00 0. -1.
         21    1    1    2  504  502  0.87491863569E+02  0.82003933738E+01 -0.35760272415E+03  0.36824147099E+03  0.00000000000E+00 0. -1.
         21    1    1    2  505  503 -0.50253790553E+02 -0.89008371424E+01  0.21946845003E+03  0.22532436381E+03  0.00000000000E+00 0. -1.
         21    1    1    2  506  504  0.35625495621E+02  0.23333975294E+02 -0.79075752102E+02  0.89814391451E+02  0.00000000000E+00 0. -1.
<scales pt_clust_3="122.31955" pt_clust_4="37.96928" pt_clust_5="51.03595" pt_clust_6="37.96928"></scales>
<clustering>
<clus scale="   37.969">  4  6 -1 -1</clus>
<clus scale="   51.036">  1  5  2 -1</clus>
<clus scale="  122.320">  1  3  2 -1</clus>
<clus scale="   51.036">  1  3  2 -1</clus>
</clustering>
</event>
<event>
 6    0  0.2666600E+002  0.1694604E+03  0.7546771E-02  0.1178412E+00
         21   -1    0    0  506  501  0.00000000000E+00  0.00000000000E+00  0.11621936732E+03  0.11621936732E+03  0.00000000000E+00 0. -1.
         21   -1    0    0  505  502 -0.00000000000E+00 -0.00000000000E+00 -0.10122678374E+04  0.10122678374E+04  0.00000000000E+00 0. -1.
         21    1    1    2  503  502 -0.12915542099E+03  0.94555631583E+02 -0.65035272796E+03  0.66976157026E+03  0.00000000000E+00 0. -1.
         21    1    1    2  504  501  0.97098082592E+02 -0.11260606845E+03  0.65744492560E+01  0.14883342258E+03  0.00000000000E+00 0. -1.
         21    1    1    2  505  504 -0.43197492074E+02 -0.35290929166E+02 -0.19143349865E+03  0.19939472763E+03  0.00000000000E+00 0. -1.
         21    1    1    2  506  503  0.75254830476E+02  0.53341366032E+02 -0.60836692705E+02  0.11049748422E+03  0.00000000000E+00 0.  1.
<scales pt_clust_3="14000.00000" pt_clust_4="169.46035" pt_clust_5="55.78058" pt_clust_6="86.40666"></scales>
<clustering>
<clus scale="   55.781">  2  5  1 -1</clus>
<clus scale="   86.407">  1  6  2 -1</clus>
<clus scale="  169.460">  1  4  2 -1</clus>
<clus scale="   86.407">  1  3  2 -1</clus>
</clustering>
</event>
<event>
 6    0  0.2666600E+002  0.2211160E+03  0.7546771E-02  0.1133054E+00
         21   -1    0    0  505  501  0.00000000000E+00  0.00000000000E+00  0.57494622482E+03  0.57494622482E+03  0.00000000000E+00 0.  1.
         21   -1    0    0  504  502 -0.00000000000E+00 -0.00000000000E+00 -0.17940789638E+03  0.17940789638E+03  0.00000000000E+00 0.  1.
         21    1    1    2  503  501 -0.75887531236E+02  0.72839765962E+02  0.21377905968E+03  0.23825623866E+03  0.00000000000E+00 0.  1.
         21    1    1    2  504  506  0.90201835328E+02 -0.18333030513E+03 -0.55242159008E+02  0.21165554093E+03  0.00000000000E+00 0.  1.
         21    1    1    2  505  502  0.30813615145E+02  0.97471403358E+00 -0.83974455724E+01  0.31952246211E+02  0.00000000000E+00 0.  1.
         21    1    1    2  506  503 -0.45127919237E+02  0.10951582514E+03  0.24539887334E+03  0.27249009539E+03  0.00000000000E+00 0.  1.
<scales pt_clust_3="43.20445" pt_clust_4="216.27102" pt_clust_5="30.82903" pt_clust_6="43.20445"></scales>
<clustering>
<clus scale="   30.829">  2  5  1 -1</clus>
<clus scale="   43.204">  3  6 -1 -1</clus>
<clus scale="  216.271">  2  4  1 -1</clus>
<clus scale="  221.116">  1  3  2 -1</clus>
</clustering>
</event>
<event>
 6    0  0.2666600E+002  0.3117688E+03  0.7546771E-02  0.1079501E+00
         21   -1    0    0  504  501  0.00000000000E+00  0.00000000000E+00  0.56306691378E+03  0.56306691378E+03  0.00000000000E+00 0.  1.
         21   -1    0    0  503  502 -0.00000000000E+00 -0.00000000000E+00 -0.31966392647E+03  0.31966392647E+03  0.00000000000E+00 0. -1.
         21    1    1    2  503  506 -0.27117069404E+03  0.46317832309E+02  0.39747383708E+03  0.48338839255E+03  0.00000000000E+00 0.  1.
         21    1    1    2  504  505  0.26391898346E+03 -0.55789532199E+02 -0.13991189222E+03  0.30387668440E+03  0.00000000000E+00 0. -1.
         21    1    1    2  505  502  0.32712045989E+02  0.31024481768E+02 -0.34166246874E+02  0.56567913584E+02  0.00000000000E+00 0. -1.
         21    1    1    2  506  501 -0.25460335410E+02 -0.21552781878E+02  0.20007289332E+02  0.38897849713E+02  0.00000000000E+00 0. -1.
<scales pt_clust_3="293.57444" pt_clust_4="42.81799" pt_clust_5="42.81799" pt_clust_6="33.35792"></scales>
<clustering>
<clus scale="   33.358">  1  6  2 -1</clus>
<clus scale="   42.818">  4  5 -1 -1</clus>
<clus scale="  293.574">  1  3  2 -1</clus>
<clus scale="   33.358">  1  3  2 -1</clus>
</clustering>
</event>
<event>
 6    0  0.2666600E+002  0.1479178E+03  0.7546771E-02  0.1203055E+00
         21   -1    0    0  505  501  0.00000000000E+00  0.00000000000E+00  0.54306493665E+03  0.54306493665E+03  0.00000000000E+00 0. -1.
         21   -1    0    0  506  502 -0.00000000000E+00 -0.00000000000E+00 -0.95427923425E+02  0.95427923425E+02  0.00000000000E+00 0. -1.
         21    1    1    2  503  504 -0.14461359125E+02  0.75355471790E+02  0.88894258607E+01  0.77243769513E+02  0.00000000000E+00 0. -1.
         21    1    1    2  504  502  0.38412521950E+02  0.66511568416E+02 -0.15593171159E+02  0.78373832128E+02  0.00000000000E+00 0. -1.
         21    1    1    2  505  503 -0.29899175366E+02 -0.31847986917E+02  0.21498333168E+03  0.21937658913E+03  0.00000000000E+00 0. -1.
         21    1    1    2  506  501  0.59480125417E+01 -0.11001905329E+03  0.23935742684E+03  0.26349866930E+03  0.00000000000E+00 0. -1.
<scales pt_clust_3="58.61235" pt_clust_4="58.61235" pt_clust_5="43.68358" pt_clust_6="135.67499"></scales>
<clustering>
<clus scale="   43.684">  1  5  2 -1</clus>
<clus scale="   58.612">  3  4 -1 -1</clus>
<clus scale="  135.675">  1  6  2 -1</clus>
<clus scale="   43.684">  1  3  2 -1</clus>
</clustering>
</event>
<event>
 6    0  0.2666600E+002  0.1373822E+03  0.7546771E-02  0.1216895E+00
         21   -1    0    0  504  501  0.00000000000E+00  0.00000000000E+00  0.10576375614E+04  0.10576375614E+04  0.00000000000E+00 0.  1.
         21   -1    0    0  506  502 -0.00000000000E+00 -0.00000000000E+00 -0.58319174636E+02  0.58319174636E+02  0.00000000000E+00 0.  1.
         21    1    1    2  503  502 -0.57330889194E+02  0.93242417826E+02  0.12579553718E+03  0.16674980214E+03  0.00000000000E+00 0.  1.
         21    1    1    2  504  505 -0.45577252511E+02  0.32457783604E+02  0.53390712187E+03  0.53683107999E+03  0.00000000000E+00 0.  1.
         21    1    1    2  505  503  0.95790083882E+02 -0.16176822032E+03  0.23174959062E+03  0.29841677236E+03  0.00000000000E+00 0.  1.
         21    1    1    2  506  501  0.71180578226E+01  0.36068018890E+02  0.10786613705E+03  0.11395908150E+03  0.00000000000E+00 0.  1.
<scales pt_clust_3="14000.00000" pt_clust_4="67.23189" pt_clust_5="137.38217" pt_clust_6="36.76369"></scales>
<clustering>
<clus scale="   36.764">  1  6  2 -1</clus>
<clus scale="   67.232">  1  4  2 -1</clus>
<clus scale="  137.382">  1  5  2 -1</clus>
<clus scale="   36.764">  1  3  2 -1</clus>
</clustering>
</event>
<event>
 6    0  0.2666600E+002  0.1569306E+03  0.7546771E-02  0.1192206E+00
         21   -1    0    0  505  501  0.00000000000E+00  0.00000000000E+00  0.10569470704E+04  0.10569470704E+04  0.00000000000E+00 0.  1.
         21   -1    0    0  504  502 -0.00000000000E+00 -0.00000000000E+00 -0.22587462282E+02  0.22587462282E+02  0.00000000000E+00 0.  1.
         21    1    1    2  503  502 -0.62771526314E+02  0.63771813464E+02  0.27307567247E+03  0.28736289183E+03  0.00000000000E+00 0.  1.
         21    1    1    2  504  506  0.53466271445E+02 -0.48313778302E+02  0.19204211476E+03  0.20511713044E+03  0.00000000000E+00 0.  1.
         21    1    1    2  505  503 -0.15809669923E+02  0.59815885219E+02  0.19863500888E+03  0.20804747665E+03  0.00000000000E+00 0. -1.
         21    1    1    2  506  501  0.25114924792E+02 -0.75273920381E+02  0.37060681205E+03  0.37900703380E+03  0.00000000000E+00 0.  1.
<scales pt_clust_3="151.39507" pt_clust_4="53.72385" pt_clust_5="31.89754" pt_clust_6="53.72385"></scales>
<clustering>
<clus scale="   31.898">  3  5 -1 -1</clus>
<clus scale="   53.724">  4  6 -1 -1</clus>
<clus scale="  151.395">  2  3  1 -1</clus>
<clus scale="  156.931">  1  3  2 -1</clus>
</clustering>
</event>
<event>
 6    0  0.2666600E+002  0.1254830E+03  0.7546771E-02  0.1234316E+00
         21   -1    0    0  505  501  0.00000000000E+00  0.00000000000E+00  0.29166515400E+03  0.29166515400E+03  0.00000000000E+00 0.  1.
         21   -1    0    0  504  502 -0.00000000000E+00 -0.00000000000E+00 -0.49193587059E+03  0.49193587059E+03  0.00000000000E+00 0. -1.
         21    1    1    2  503  502 -0.28531950097E+02 -0.12575306083E+03 -0.40909631631E+03  0.42893787487E+03  0.00000000000E+00 0. -1.
         21    1    1    2  504  506  0.45836086546E+02  0.37354714527E+01 -0.33468451237E+02  0.56877392742E+02  0.00000000000E+00 0.  1.
         21    1    1    2  505  503  0.14350008695E+02  0.93593832148E+02  0.63520885571E+02  0.11402030990E+03  0.00000000000E+00 0.  1.
         21    1    1    2  506  501 -0.31654145144E+02  0.28423757225E+02  0.17877316539E+03  0.18376544708E+03  0.00000000000E+00 0.  1.
<scales pt_clust_3="14000.00000" pt_clust_4="43.01281" pt_clust_5="125.48299" pt_clust_6="42.54286"></scales>
<clustering>
<clus scale="   42.543">  1  6  2 -1</clus>
<clus scale="   43.013">  1  4  2 -1</clus>
<clus scale="  125.483">  1  5  2 -1</clus>
<clus scale="   42.543">  1  3  2 -1</clus>
</clustering>
</event>
<event>
 6    0  0.2666600E+002  0.1083697E+03  0.7546771E-02  0.1263619E+00
         21   -1    0    0  504  501  0.00000000000E+00  0.00000000000E+00  0.10496731661E+04  0.10496731661E+04  0.00000000000E+00 0. -1.
         21   -1    0    0  503  502 -0.00000000000E+00 -0.00000000000E+00 -0.31516722387E+03  0.31516722387E+03  0.00000000000E+00 0. -1.
         21    1    1    2  503  505  0.20104815695E+02  0.35230971984E+02 -0.20379085921E+02  0.45395287685E+02  0.00000000000E+00 0. -1.
         21    1    1    2  504  502 -0.24507432488E+02  0.32845278442E+02  0.11689002011E+03  0.12386566661E+03  0.00000000000E+00 0.  1.
         21    1    1    2  505  506 -0.26916789272E+02 -0.14352431721E+03 -0.25768354688E+03  0.29618331065E+03  0.00000000000E+00 0. -1.
         21    1    1    2  506  501  0.31319406065E+02  0.75448066781E+02  0.89567855497E+03  0.89939612508E+03  0.00000000000E+00 0. -1.
<scales pt_clust_3="40.56384" pt_clust_4="41.18371" pt_clust_5="108.36968" pt_clust_6="14000.00000"></scales>
<clustering>
<clus scale="   40.564">  2  3  1 -1</clus>
<clus scale="   41.184">  1  4  2 -1</clus>
<clus scale="  108.370">  2  5  1 -1</clus>
<clus scale="   41.184">  1  3  2 -1</clus>
</clustering>
</event>
<event>
 6    0  0.2666600E+002  0.1392000E+03  0.7546771E-02  0.1214410E+00
         21   -1    0    0  505  501  0.00000000000E+00  0.00000000000E+00  0.17628802632E+03  0.17628802632E+03  0.00000000000E+00 0. -1.
         21   -1    0    0  503  502 -0.00000000000E+00 -0.00000000000E+00 -0.35188754017E+03  0.35188754017E+03  0.00000000000E+00 0. -1.
         21    1    1    2  503  504 -0.17983473479E+02  0.28124485944E+02  0.73540199458E+01  0.34182943661E+02  0.00000000000E+00 0. -1.
         21    1    1    2  504  501  0.46732932204E+01  0.10641371268E+03  0.11537318680E+03  0.15702448901E+03  0.00000000000E+00 0. -1.
         21    1    1    2  505  506  0.32851106455E+02 -0.69883766722E+02 -0.22200435341E+03  0.23505077958E+03  0.00000000000E+00 0. -1.
         21    1    1    2  506  502 -0.19540926197E+02 -0.64654431904E+02 -0.76322367196E+02  0.10191735424E+03  0.00000000000E+00 0. -1.
<scales pt_clust_3="31.77033" pt_clust_4="31.77033" pt_clust_5="127.10628" pt_clust_6="67.54290"></scales>
<clustering>
<clus scale="   31.770">  3  4 -1 -1</clus>
<clus scale="   67.543">  2  6  1 -1</clus>
<clus scale="  127.106">  2  5  1 -1</clus>
<clus scale="  139.200">  1  3  2 -1</clus>
</clustering>
</event>
<event>
 6    0  0.2666600E+002  0.1186122E+03  0.7546771E-02  0.1245404E+00
         21   -1    0    0  506  501  0.00000000000E+00  0.00000000000E+00  0.73034655692E+03  0.73034655692E+03  0.00000000000E+00 0. -1.
         21   -1    0    0  504  502 -0.00000000000E+00 -0.00000000000E+00 -0.15746268255E+04  0.15746268255E+04  0.00000000000E+00 0. -1.
         21    1    1    2  503  501 -0.61387619756E+02  0.37562127993E+02  0.49388746013E+03  0.49910337266E+03  0.00000000000E+00 0. -1.
         21    1    1    2  504  503  0.99334778197E+02  0.33592954788E+02 -0.61603535993E+03  0.62489635097E+03  0.00000000000E+00 0. -1.
         21    1    1    2  505  502 -0.99423360189E+02 -0.10274897467E+03 -0.94082040212E+03  0.95162250151E+03  0.00000000000E+00 0. -1.
         21    1    1    2  506  505  0.61476201748E+02  0.31593891892E+02  0.21868803337E+03  0.22935115724E+03  0.00000000000E+00 0. -1.
<scales pt_clust_3="68.55146" pt_clust_4="118.61223" pt_clust_5="14000.00000" pt_clust_6="69.11944"></scales>
<clustering>
<clus scale="   69.119">  1  6  2 -1</clus>
<clus scale="   68.551">  1  3  2 -1</clus>
<clus scale="  118.612">  2  4  1 -1</clus>
<clus scale="   69.119">  1  3  2 -1</clus>
</clustering>
</event>
<event>
 6    0  0.2666600E+002  0.1490512E+03  0.7546771E-02  0.1201644E+00
         21   -1    0    0  506  501  0.00000000000E+00  0.00000000000E+00  0.63249654143E+03  0.63249654143E+03  0.00000000000E+00 0. -1.
         21   -1    0    0  503  502 -0.00000000000E+00 -0.00000000000E+00 -0.15539345777E+04  0.15539345777E+04  0.00000000000E+00 0. -1.
         21    1    1    2  503  504 -0.38873587023E+02 -0.13675013746E+02 -0.14025507074E+03  0.14618360591E+03  0.00000000000E+00 0. -1.
         21    1    1    2  504  505  0.53378049393E+02  0.65641740692E+02  0.15093758079E+03  0.17303238879E+03  0.00000000000E+00 0.  1.
         21    1    1    2  505  501  0.64485849822E+02  0.31033424167E+02  0.46244541522E+03  0.46795006176E+03  0.00000000000E+00 0. -1.
         21    1    1    2  506  502 -0.78990312192E+02 -0.83000151112E+02 -0.13945659615E+04  0.13992650627E+04  0.00000000000E+00 0. -1.
<scales pt_clust_3="41.20876" pt_clust_4="149.05118" pt_clust_5="71.48473" pt_clust_6="14000.00000"></scales>
<clustering>
<clus scale="   41.209">  2  3  1 -1</clus>
<clus scale="   71.485">  1  5  2 -1</clus>
<clus scale="  149.051">  1  4  2 -1</clus>
<clus scale="   71.485">  1  3  2 -1</clus>
</clustering>
</event>
<event>
 6    0  0.2666600E+002  0.2255218E+03  0.7546771E-02  0.1129832E+00
         21   -1    0    0  506  501  0.00000000000E+00  0.00000000000E+00  0.10790091243E+04  0.10790091243E+04  0.00000000000E+00 0.  1.
         21   -1    0    0  504  502 -0.00000000000E+00 -0.00000000000E+00 -0.91286651320E+02  0.91286651320E+02  0.00000000000E+00 0.  1.
         21    1    1    2  503  502 -0.10272387560E+03 -0.46920894027E+02  0.17589043221E+03  0.20902442215E+03  0.00000000000E+00 0.  1.
         21    1    1    2  504  505  0.18839900724E+03  0.50470074623E+02  0.88332389331E+02  0.21411217940E+03  0.00000000000E+00 0.  1.
         21    1    1    2  505  501  0.45681691490E+02  0.19855925699E+02  0.26498176122E+03  0.26962271510E+03  0.00000000000E+00 0.  1.
         21    1    1    2  506  503 -0.13135682313E+03 -0.23405106294E+02  0.45851789026E+03  0.47753645900E+03  0.00000000000E+00 0.  1.
<scales pt_clust_3="93.57680" pt_clust_4="204.22461" pt_clust_5="49.81039" pt_clust_6="93.57680"></scales>
<clustering>
<clus scale="   49.810">  1  5  2 -1</clus>
<clus scale="   93.577">  3  6 -1 -1</clus>
<clus scale="  204.225">  2  4  1 -1</clus>
<clus scale="   49.810">  1  3  2 -1</clus>
</clustering>
</event>
<event>
 6    0  0.2666600E+002  0.2424824E+03  0.7546771E-02  0.1118150E+00
         21   -1    0    0  502  501  0.00000000000E+00  0.00000000000E+00  0.11709099675E+03  0.11709099675E+03  0.00000000000E+00 0. -1.
         21   -1    0    0  505  502 -0.00000000000E+00 -0.00000000000E+00 -0.12584486665E+04  0.12584486665E+04  0.00000000000E+00 0. -1.
         21    1    1    2  503  501 -0.69328691974E+02  0.34418477622E+02 -0.33978331854E+02  0.84531805660E+02  0.00000000000E+00 0. -1.
         21    1    1    2  504  506  0.51813032405E+02 -0.38141391447E+02 -0.20488009893E+03  0.21474452498E+03  0.00000000000E+00 0. -1.
         21    1    1    2  505  504  0.16528815893E+03 -0.49993278253E+02 -0.90266136295E+03  0.91903048890E+03  0.00000000000E+00 0. -1.
         21    1    1    2  506  503 -0.14777249936E+03  0.53716192078E+02  0.16212399983E+00  0.15723284371E+03  0.00000000000E+00 0. -1.
<scales pt_clust_3="34.41514" pt_clust_4="38.10446" pt_clust_5="38.10446" pt_clust_6="239.38799"></scales>
<clustering>
<clus scale="   34.415">  3  6 -1 -1</clus>
<clus scale="   38.104">  4  5 -1 -1</clus>
<clus scale="  239.388">  1  3  2 -1</clus>
<clus scale="  239.388">  1  3  2 -1</clus>
</clustering>
</event>
<event>
 6    0  0.2666600E+002  0.6949701E+02  0.7546771E-02  0.1361812E+00
         21   -1    0    0  504  501  0.00000000000E+00  0.00000000000E+00  0.48560393118E+02  0.48560393118E+02  0.00000000000E+00 0.  1.
         21   -1    0    0  503  502 -0.00000000000E+00 -0.00000000000E+00 -0.11031591781E+04  0.11031591781E+04  0.00000000000E+00 0.  1.
         21    1    1    2  503  505 -0.22786148863E+02  0.53097414691E+02 -0.34454366714E+03  0.34935495215E+03  0.00000000000E+00 0.  1.
         21    1    1    2  504  506  0.89135969875E+02  0.29112593272E+02 -0.15735911690E+02  0.95080929367E+02  0.00000000000E+00 0.  1.
         21    1    1    2  505  501 -0.16886111919E+02 -0.42266188172E+02 -0.10365299510E+03  0.11320563074E+03  0.00000000000E+00 0.  1.
         21    1    1    2  506  502 -0.49463709093E+02 -0.39943819791E+02 -0.59066621109E+03  0.59407805900E+03  0.00000000000E+00 0.  1.
<scales pt_clust_3="56.03988" pt_clust_4="14000.00000" pt_clust_5="45.51452" pt_clust_6="69.49701"></scales>
<clustering>
<clus scale="   45.515">  1  5  2 -1</clus>
<clus scale="   56.040">  2  3  1 -1</clus>
<clus scale="   69.497">  2  6  1 -1</clus>
<clus scale="   45.515">  1  3  2 -1</clus>
</clustering>
</event>
<event>
 6    0  0.2666600E+002  0.7150394E+02  0.7546771E-02  0.1355052E+00
         21   -1    0    0  506  501  0.00000000000E+00  0.00000000000E+00  0.19776511992E+03  0.19776511992E+03  0.00000000000E+00 0.  1.
         21   -1    0    0  504  502 -0.00000000000E+00 -0.00000000000E+00 -0.11101082758E+03  0.11101082758E+03  0.00000000000E+00 0.  1.
         21    1    1    2  503  501 -0.72669593134E+02 -0.38034921562E+02 -0.54042676402E+01  0.82199337790E+02  0.00000000000E+00 0.  1.
         21    1    1    2  504  503 -0.34658496693E+02  0.62473776260E+02 -0.22761863387E+01  0.71479823289E+02  0.00000000000E+00 0.  1.
         21    1    1    2  505  502  0.36253783332E+02 -0.93423388173E+01  0.19574014184E+01  0.37489298750E+02  0.00000000000E+00 0.  1.
         21    1    1    2  506  505  0.71074306495E+02 -0.15096515881E+02  0.92477344904E+02  0.11760748767E+03  0.00000000000E+00 0.  1.
<scales pt_clust_3="14000.00000" pt_clust_4="62.19223" pt_clust_5="37.43816" pt_clust_6="71.50394"></scales>
<clustering>
<clus scale="   37.438">  2  5  1 -1</clus>
<clus scale="   62.192">  2  4  1 -1</clus>
<clus scale="   71.504">  1  6  2 -1</clus>
<clus scale="   71.504">  1  3  2 -1</clus>
</clustering>
</event>
<event>
 6    0  0.2666600E+002  0.1104445E+03  0.7546771E-02  0.1259749E+00
         21   -1    0    0  503  501  0.00000000000E+00  0.00000000000E+00  0.10497423930E+04  0.10497423930E+04  0.00000000000E+00 0. -1.
         21   -1    0    0  504  502 -0.00000000000E+00 -0.00000000000E+00 -0.68938594533E+02  0.68938594533E+02  0.00000000000E+00 0. -1.
         21    1    1    2  503  506 -0.68950352526E+02 -0.40023393213E+02  0.53629045957E+03  0.54218399104E+03  0.00000000000E+00 0. -1.
         21    1    1    2  504  501  0.29569298765E+02 -0.59286706711E+02  0.45709077255E+03  0.46186711441E+03  0.00000000000E+00 0. -1.
         21    1    1    2  505  502  0.30720206346E+02  0.35971491951E+02 -0.17676391840E+02  0.50498852854E+02  0.00000000000E+00 0. -1.
         21    1    1    2  506  505  0.86608474144E+01  0.63338607973E+02  0.50989582119E+01  0.64131029251E+02  0.00000000000E+00 0. -1.
<scales pt_clust_3="103.09965" pt_clust_4="66.25147" pt_clust_5="34.06747" pt_clust_6="34.06747"></scales>
<clustering>
<clus scale="   34.067">  5  6 -1 -1</clus>
<clus scale="   66.251">  1  4  2 -1</clus>
<clus scale="  103.100">  1  3  2 -1</clus>
<clus scale="   66.251">  1  3  2 -1</clus>
</clustering>
</event>
<event>
 6    0  0.2666600E+002  0.1766058E+03  0.7546771E-02  0.1171129E+00
         21   -1    0    0  506  501  0.00000000000E+00  0.00000000000E+00  0.65505417066E+03  0.65505417066E+03  0.00000000000E+00 0. -1.
         21   -1    0    0  503  502 -0.00000000000E+00 -0.00000000000E+00 -0.47209900264E+02  0.47209900264E+02  0.00000000000E+00 0. -1.
         21    1    1    2  503  504  0.60261568163E+01  0.12281809191E+03  0.13944070895E+03  0.18591479118E+03  0.00000000000E+00 0. -1.
         21    1    1    2  504  501  0.67050109844E+01  0.38782337360E+02  0.10925175866E+03  0.11612481920E+03  0.00000000000E+00 0. -1.
         21    1    1    2  505  502 -0.23357668923E+02 -0.33778235423E+02  0.45133937708E+02  0.61021489811E+02  0.00000000000E+00 0. -1.
         21    1    1    2  506  505  0.10626501122E+02 -0.12782219385E+03  0.31401786508E+03  0.33920297074E+03  0.00000000000E+00 0. -1.
<scales pt_clust_3="171.40590" pt_clust_4="31.51574" pt_clust_5="39.66106" pt_clust_6="39.66106"></scales>
<clustering>
<clus scale="   31.516">  3  4 -1 -1</clus>
<clus scale="   39.661">  5  6 -1 -1</clus>
<clus scale="  171.406">  2  3  1 -1</clus>
<clus scale="  176.606">  1  3  2 -1</clus>
</clustering>
</event>
<event>
 6    0  0.2666600E+002  0.1126786E+03  0.7546771E-02  0.1255688E+00
         21   -1    0    0  505  501  0.00000000000E+00  0.00000000000E+00  0.11184525746E+03  0.11184525746E+03  0.00000000000E+00 0.  1.
         21   -1    0    0  503  502 -0.00000000000E+00 -0.00000000000E+00 -0.21738845885E+04  0.21738845885E+04  0.00000000000E+00 0.  1.
         21    1    1    2  503  504 -0.57708404662E+02  0.54053975784E+02 -0.25595640968E+03  0.26789135097E+03  0.00000000000E+00 0.  1.
         21    1    1    2  504  501  0.10343756373E+03 -0.55786271283E+02  0.62791787953E+02  0.13324506103E+03  0.00000000000E+00 0.  1.
         21    1    1    2  505  506 -0.26016236020E+02 -0.30713283413E+02 -0.45202749602E+02  0.60526348694E+02  0.00000000000E+00 0.  1.
         21    1    1    2  506  502 -0.19712923051E+02  0.32445578913E+02 -0.18236719597E+04  0.18240670853E+04  0.00000000000E+00 0.  1.
<scales pt_clust_3="14000.00000" pt_clust_4="112.67859" pt_clust_5="38.81922" pt_clust_6="37.96465"></scales>
<clustering>
<clus scale="   37.965">  2  6  1 -1</clus>
<clus scale="   38.819">  2  5  1 -1</clus>
<clus scale="  112.679">  1  4  2 -1</clus>
<clus scale="  112.679">  1  3  2 -1</clus>
</clustering>
</event>
<event>
 6    0  0.2666600E+002  0.1891706E+03  0.7546771E-02  0.1159212E+00
         21   -1    0    0  504  501  0.00000000000E+00  0.00000000000E+00  0.19332761707E+03  0.19332761707E+03  0.00000000000E+00 0.  1.
         21   -1    0    0  505  502 -0.00000000000E+00 -0.00000000000E+00 -0.34086882998E+03  0.34086882998E+03  0.00000000000E+00 0.  1.
         21    1    1    2  503  501 -0.69252833577E+02  0.35318534762E+02 -0.64762346029E+02  0.10118060743E+03  0.00000000000E+00 0. -1.
         21    1    1    2  504  506  0.93617621868E+02 -0.28496403446E+02  0.55173471726E+02  0.11234062540E+03  0.00000000000E+00 0.  1.
         21    1    1    2  505  503 -0.83414936400E+02  0.60230256709E+02 -0.19086904401E+03  0.21683340933E+03  0.00000000000E+00 0.  1.
         21    1    1    2  506  502  0.59050148109E+02 -0.67052388024E+02  0.52916705412E+02  0.10384180489E+03  0.00000000000E+00 0.  1.
<scales pt_clust_3="50.29949" pt_clust_4="187.22008" pt_clust_5="50.29949" pt_clust_6="48.85647"></scales>
<clustering>
<clus scale="   48.856">  4  6 -1 -1</clus>
<clus scale="   50.299">  3  5 -1 -1</clus>
<clus scale="  187.220">  1  4  2 -1</clus>
<clus scale="  187.220">  1  3  2 -1</clus>
</clustering>
</event>
<event>
 6    0  0.2666600E+002  0.1119602E+03  0.7546771E-02  0.1256982E+00
         21   -1    0    0  505  501  0.00000000000E+00  0.00000000000E+00  0.67481370758E+03  0.67481370758E+03  0.00000000000E+00 0.  1.
         21   -1    0    0  506  502 -0.00000000000E+00 -0.00000000000E+00 -0.35994874322E+03  0.35994874322E+03  0.00000000000E+00 0. -1.
         21    1    1    2  503  502  0.81036063001E+02  0.79612466088E+02 -0.32391607840E+03  0.34325881505E+03  0.00000000000E+00 0. -1.
         21    1    1    2  504  503 -0.25712264193E+01 -0.78654295303E+02  0.31731063871E+03  0.32692376912E+03  0.00000000000E+00 0.  1.
         21    1    1    2  505  504 -0.40494969781E+02 -0.25899679134E+02  0.90994310246E+01  0.48922751372E+02  0.00000000000E+00 0.  1.
         21    1    1    2  506  501 -0.37969866800E+02  0.24941508350E+02  0.31237097303E+03  0.31565711526E+03  0.00000000000E+00 0.  1.
<scales pt_clust_3="14000.00000" pt_clust_4="111.96019" pt_clust_5="49.67257" pt_clust_6="45.42895"></scales>
<clustering>
<clus scale="   45.429">  1  6  2 -1</clus>
<clus scale="   49.673">  1  5  2 -1</clus>
<clus scale="  111.960">  1  4  2 -1</clus>
<clus scale="   45.429">  1  3  2 -1</clus>
</clustering>
</event>
<event>
 6    0  0.2666600E+002  0.1178953E+03  0.7546771E-02  0.1246610E+00
         21   -1    0    0  505  501  0.00000000000E+00  0.00000000000E+00  0.16981216745E+03  0.16981216745E+03  0.00000000000E+00 0.  1.
         21   -1    0    0  506  502 -0.00000000000E+00 -0.00000000000E+00 -0.19186592064E+03  0.19186592064E+03  0.00000000000E+00 0.  1.
         21    1    1    2  503  502 -0.23879302960E+02  0.10772382289E+03 -0.25962861593E+02  0.11335216500E+03  0.00000000000E+00 0.  1.
         21    1    1    2  504  501  0.46011186533E+02  0.10377359312E+02  0.20615461601E+02  0.51475393437E+02  0.00000000000E+00 0. -1.
         21    1    1    2  505  503 -0.66452200215E+02  0.32988194489E+01 -0.11406582144E+02  0.67504720127E+02  0.00000000000E+00 0.  1.
         21    1    1    2  506  504  0.44320316643E+02 -0.12140000165E+03 -0.52997710538E+01  0.12934580953E+03  0.00000000000E+00 0.  1.
<scales pt_clust_3="117.89528" pt_clust_4="47.16693" pt_clust_5="57.06750" pt_clust_6="14000.00000"></scales>
<clustering>
<clus scale="   47.167">  1  4  2 -1</clus>
<clus scale="   57.068">  1  5  2 -1</clus>
<clus scale="  117.895">  2  3  1 -1</clus>
<clus scale="   47.167">  1  3  2 -1</clus>
</clustering>
</event>
<event>
 6    0  0.2666600E+002  0.1483437E+03  0.7546771E-02  0.1202523E+00
         21   -1    0    0  503  501  0.00000000000E+00  0.00000000000E+00  0.54071113401E+02  0.54071113401E+02  0.00000000000E+00 0.  1.
         21   -1    0    0  501  502 -0.00000000000E+00 -0.00000000000E+00 -0.11240413541E+04  0.11240413541E+04  0.00000000000E+00 0. -1.
         21    1    1    2  503  505  0.54153884271E+02  0.58743427327E+02 -0.93532213770E+01  0.80442005108E+02  0.00000000000E+00 0.  1.
         21    1    1    2  504  502 -0.64767123453E+02  0.38288815030E+01 -0.23199171646E+03  0.24089333141E+03  0.00000000000E+00 0.  1.
         21    1    1    2  505  506  0.47821496106E+02  0.35122202440E+02 -0.73548408668E+02  0.94497793687E+02  0.00000000000E+00 0.  1.
         21    1    1    2  506  504 -0.37208256924E+02 -0.97694511270E+02 -0.75507689424E+03  0.76227933733E+03  0.00000000000E+00 0. -1.
<scales pt_clust_3="57.94668" pt_clust_4="64.88020" pt_clust_5="57.94668" pt_clust_6="132.22835"></scales>
<clustering>
<clus scale="   57.947">  3  5 -1 -1</clus>
<clus scale="   64.880">  2  4  1 -1</clus>
<clus scale="  132.228">  2  6  1 -1</clus>
<clus scale="  148.344">  1  3  2 -1</clus>
</clustering>
</event>
<event>
 6    0  0.2666600E+002  0.1487032E+03  0.7546771E-02  0.1202076E+00
         21   -1    0    0  503  501  0.00000000000E+00  0.00000000000E+00  0.21358882136E+03  0.21358882136E+03  0.00000000000E+00 0. -1.
         21   -1    0    0  504  502 -0.00000000000E+00 -0.00000000000E+00 -0.11930054538E+04  0.11930054538E+04  0.00000000000E+00 0. -1.
         21    1    1    2  503  506 -0.39643758495E+02 -0.20685241527E+02 -0.33316099838E+01  0.44839786237E+02  0.00000000000E+00 0. -1.
         21    1    1    2  504  501 -0.72890705854E+02  0.96883314491E+02  0.16844601168E+03  0.20754153916E+03  0.00000000000E+00 0. -1.
         21    1    1    2  505  502  0.43748006799E+02 -0.51100885357E+02 -0.74473876930E+03  0.74777070221E+03  0.00000000000E+00 0. -1.
         21    1    1    2  506  505  0.68786457549E+02 -0.25097187608E+02 -0.39979226485E+03  0.40644224756E+03  0.00000000000E+00 0. -1.
<scales pt_clust_3="44.71585" pt_clust_4="135.37561" pt_clust_5="59.15238" pt_clust_6="59.15238"></scales>
<clustering>
<clus scale="   44.716">  1  3  2 -1</clus>
<clus scale="   59.152">  5  6 -1 -1</clus>
<clus scale="  135.376">  1  4  2 -1</clus>
<clus scale="   44.716">  1  3  2 -1</clus>
</clustering>
</event>
<event>
 6    0  0.2666600E+002  0.1046961E+03  0.7546771E-02  0.1270720E+00
         21   -1    0    0  503  501  0.00000000000E+00  0.00000000000E+00  0.38346770441E+04  0.38346770441E+04  0.00000000000E+00 0. -1.
         21   -1    0    0  506  502 -0.00000000000E+00 -0.00000000000E+00 -0.57155420082E+02  0.57155420082E+02  0.00000000000E+00 0. -1.
         21    1    1    2  503  504 -0.36999303649E+02  0.15944625178E+02  0.52195042238E+03  0.52350303052E+03  0.00000000000E+00 0. -1.
         21    1    1    2  504  505 -0.43434588994E+01 -0.74488652637E+02  0.64942869217E+02  0.98919165327E+02  0.00000000000E+00 0.  1.
         21    1    1    2  505  502 -0.11199154153E+02 -0.32542892419E+02 -0.30848390234E+02  0.46217789657E+02  0.00000000000E+00 0. -1.
         21    1    1    2  506  501  0.52541916701E+02  0.91086919878E+02  0.32214767226E+04  0.32231924787E+04  0.00000000000E+00 0. -1.
<scales pt_clust_3="40.20601" pt_clust_4="14000.00000" pt_clust_5="34.41600" pt_clust_6="104.69606"></scales>
<clustering>
<clus scale="   34.416">  2  5  1 -1</clus>
<clus scale="   40.206">  1  3  2 -1</clus>
<clus scale="  104.696">  1  6  2 -1</clus>
<clus scale="   40.206">  1  3  2 -1</clus>
</clustering>
</event>
<event>
 6    0  0.2666600E+002  0.1319648E+03  0.7546771E-02  0.1224569E+00
         21   -1    0    0  504  501  0.00000000000E+00  0.00000000000E+00  0.10471780089E+03  0.10471780089E+03  0.00000000000E+00 0.  1.
         21   -1    0    0  503  502 -0.00000000000E+00 -0.00000000000E+00 -0.67735445739E+03  0.67735445739E+03  0.00000000000E+00 0.  1.
         21    1    1    2  503  506  0.72347356861E+01  0.40988934462E+02 -0.54602291874E+02  0.68657442617E+02  0.00000000000E+00 0. -1.
         21    1    1    2  504  505 -0.28467693049E+02  0.27151821422E+02 -0.23850431265E+02  0.46005152164E+02  0.00000000000E+00 0. -1.
         21    1    1    2  505  502  0.12722775987E+03 -0.12326610125E+02 -0.52774577890E+03  0.54300502331E+03  0.00000000000E+00 0.  1.
         21    1    1    2  506  501 -0.10599480250E+03 -0.55814145759E+02  0.33561845532E+02  0.12440464019E+03  0.00000000000E+00 0.  1.
<scales pt_clust_3="43.32764" pt_clust_4="39.33994" pt_clust_5="14000.00000" pt_clust_6="131.96479"></scales>
<clustering>
<clus scale="   39.340">  1  4  2 -1</clus>
<clus scale="   43.328">  2  3  1 -1</clus>
<clus scale="  131.965">  1  6  2 -1</clus>
<clus scale="   39.340">  1  3  2 -1</clus>
</clustering>
</event>
<event>
 6    0  0.2666600E+002  0.1019057E+03  0.7546771E-02  0.1276339E+00
         21   -1    0    0  505  501  0.00000000000E+00  0.00000000000E+00  0.26468450637E+03  0.26468450637E+03  0.00000000000E+00 0.  1.
         21   -1    0    0  504  502 -0.00000000000E+00 -0.00000000000E+00 -0.43710725628E+03  0.43710725628E+03  0.00000000000E+00 0.  1.
         21    1    1    2  503  502  0.19857830560E+02 -0.70127834665E+02 -0.22065928101E+03  0.23238494987E+03  0.00000000000E+00 0.  1.
         21    1    1    2  504  506  0.63604088835E+02 -0.36515620456E+01 -0.17746540679E+03  0.18855446064E+03  0.00000000000E+00 0.  1.
         21    1    1    2  505  503  0.15449809848E+02  0.60734196424E+02  0.12076939498E+03  0.13606096429E+03  0.00000000000E+00 0.  1.
         21    1    1    2  506  501 -0.98911729243E+02  0.13045200286E+02  0.10493254291E+03  0.14479138784E+03  0.00000000000E+00 0.  1.
<scales pt_clust_3="101.90567" pt_clust_4="64.24356" pt_clust_5="62.66849" pt_clust_6="14000.00000"></scales>
<clustering>
<clus scale="   62.668">  1  5  2 -1</clus>
<clus scale="   64.244">  2  4  1 -1</clus>
<clus scale="  101.906">  2  3  1 -1</clus>
<clus scale="   62.668">  1  3  2 -1</clus>
</clustering>
</event>
<event>
 6    0  0.2666600E+002  0.1498082E+03  0.7546771E-02  0.1200709E+00
         21   -1    0    0  503  501  0.00000000000E+00  0.00000000000E+00  0.61391297650E+03  0.61391297650E+03  0.00000000000E+00 0.  1.
         21   -1    0    0  504  502 -0.00000000000E+00 -0.00000000000E+00 -0.11332946733E+03  0.11332946733E+03  0.00000000000E+00 0.  1.
         21    1    1    2  503  502  0.22790018244E+02  0.34159530428E+02  0.55930402259E+02  0.69386370041E+02  0.00000000000E+00 0. -1.
         21    1    1    2  504  505 -0.38192753046E+02 -0.50284668324E+02  0.13198860815E+01  0.63158343495E+02  0.00000000000E+00 0. -1.
         21    1    1    2  505  506 -0.45361235634E+02 -0.73438880848E+02 -0.43021685647E+02  0.96445717138E+02  0.00000000000E+00 0.  1.
         21    1    1    2  506  501  0.60763970436E+02  0.89564018744E+02  0.48635490648E+03  0.49825201316E+03  0.00000000000E+00 0.  1.
<scales pt_clust_3="41.06408" pt_clust_4="32.51953" pt_clust_5="32.51953" pt_clust_6="144.90297"></scales>
<clustering>
<clus scale="   32.520">  4  5 -1 -1</clus>
<clus scale="   41.064">  1  3  2 -1</clus>
<clus scale="  144.903">  1  6  2 -1</clus>
<clus scale="   41.064">  1  3  2 -1</clus>
</clustering>
</event>
<event>
 6    0  0.2666600E+002  0.9880462E+02  0.7546771E-02  0.1282830E+00
         21   -1    0    0  503  501  0.00000000000E+00  0.00000000000E+00  0.25999664492E+04  0.25999664492E+04  0.00000000000E+00 0. -1.
         21   -1    0    0  504  502 -0.00000000000E+00 -0.00000000000E+00 -0.70458285723E+03  0.70458285723E+03  0.00000000000E+00 0.  1.
         21    1    1    2  503  506  0.44779874919E+02 -0.87604598741E+02  0.17706180990E+03  0.20256033038E+03  0.00000000000E+00 0. -1.
         21    1    1    2  504  505 -0.71803711902E+02 -0.22417809828E+02 -0.60208200310E+03  0.60676277876E+03  0.00000000000E+00 0.  1.
         21    1    1    2  505  501  0.41981783543E+02  0.13613340199E+03  0.24030516022E+04  0.24072706072E+04  0.00000000000E+00 0. -1.
         21    1    1    2  506  502 -0.14957946560E+02 -0.26110993420E+02 -0.82647817120E+02  0.87955590029E+02  0.00000000000E+00 0.  1.
<scales pt_clust_3="98.72584" pt_clust_4="98.80462" pt_clust_5="14000.00000" pt_clust_6="30.09193"></scales>
<clustering>
<clus scale="   30.092">  2  6  1 -1</clus>
<clus scale="   98.726">  1  3  2 -1</clus>
<clus scale="   98.805">  2  4  1 -1</clus>
<clus scale="   98.726">  1  3  2 -1</clus>
</clustering>
</event>
<event>
 6    0  0.2666600E+002  0.1255707E+03  0.7546771E-02  0.1234180E+00
         21   -1    0    0  505  501  0.00000000000E+00  0.00000000000E+00  0.10121747914E+04  0.10121747914E+04  0.00000000000E+00 0.  1.
         21   -1    0    0  506  502 -0.00000000000E+00 -0.00000000000E+00 -0.97653932011E+02  0.97653932011E+02  0.00000000000E+00 0. -1.
         21    1    1    2  503  504  0.40027178114E+02 -0.26701131343E+02  0.70423265260E+02  0.85291041104E+02  0.00000000000E+00 0.  1.
         21    1    1    2  504  501  0.31617390899E+02 -0.19558742865E+02  0.19920489405E+03  0.20264450065E+03  0.00000000000E+00 0. -1.
         21    1    1    2  505  502  0.14923259051E+02 -0.52136082960E+02  0.68320326320E+03  0.68535215303E+03  0.00000000000E+00 0.  1.
         21    1    1    2  506  503 -0.86567828063E+02  0.98395957168E+02 -0.38310563153E+02  0.13654102860E+03  0.00000000000E+00 0. -1.
<scales pt_clust_3="51.68184" pt_clust_4="37.17800" pt_clust_5="125.57069" pt_clust_6="14000.00000"></scales>
<clustering>
<clus scale="   37.178">  1  4  2 -1</clus>
<clus scale="   51.682">  1  3  2 -1</clus>
<clus scale="  125.571">  1  5  2 -1</clus>
<clus scale="   37.178">  1  3  2 -1</clus>
</clustering>
</event>
<event>
 6    0  0.2666600E+002  0.1097649E+03  0.7546771E-02  0.1261006E+00
         21   -1    0    0  505  501  0.00000000000E+00  0.00000000000E+00  0.41726208849E+03  0.41726208849E+03  0.00000000000E+00 0. -1.
         21   -1    0    0  504  502 -0.00000000000E+00 -0.00000000000E+00 -0.18800424066E+03  0.18800424066E+03  0.00000000000E+00 0. -1.
         21    1    1    2  503  501  0.57337761552E+01  0.33723446181E+02  0.17886811397E+03  0.18210971749E+03  0.00000000000E+00 0.  1.
         21    1    1    2  504  503  0.55580274500E+02  0.30433500440E+01  0.13234569637E+03  0.14357511010E+03  0.00000000000E+00 0. -1.
         21    1    1    2  505  506 -0.13983963148E+03  0.30067198869E+02  0.72704970253E+01  0.14322017703E+03  0.00000000000E+00 0. -1.
         21    1    1    2  506  502  0.78525580828E+02 -0.66833995094E+02 -0.89226459529E+02  0.13636132452E+03  0.00000000000E+00 0. -1.
<scales pt_clust_3="34.20741" pt_clust_4="63.14012" pt_clust_5="109.76490" pt_clust_6="14000.00000"></scales>
<clustering>
<clus scale="   34.207">  1  3  2 -1</clus>
<clus scale="   63.140">  1  4  2 -1</clus>
<clus scale="  109.765">  1  5  2 -1</clus>
<clus scale="   34.207">  1  3  2 -1</clus>
</clustering>
</event>
<event>
 6    0  0.2666600E+002  0.1386550E+03  0.7546771E-02  0.1215150E+00
         21   -1    0    0  503  501  0.00000000000E+00  0.00000000000E+00  0.26298119044E+03  0.26298119044E+03  0.00000000000E+00 0. -1.
         21   -1    0    0  504  502 -0.00000000000E+00 -0.00000000000E+00 -0.16330328578E+04  0.16330328578E+04  0.00000000000E+00 0. -1.
         21    1    1    2  503  505 -0.74017161234E+02 -0.12568083747E+03 -0.77064061525E+03  0.78432210917E+03  0.00000000000E+00 0. -1.
         21    1    1    2  504  506  0.14459375763E+02  0.65928070802E+02 -0.76502645579E+02  0.10202077655E+03  0.00000000000E+00 0.  1.
         21    1    1    2  505  502 -0.42544716578E+02 -0.34018088779E+02 -0.74547456144E+03  0.74746210943E+03  0.00000000000E+00 0.  1.
         21    1    1    2  506  501  0.10210250205E+03  0.93770855446E+02  0.22256615486E+03  0.26220905314E+03  0.00000000000E+00 0. -1.
<scales pt_clust_3="14000.00000" pt_clust_4="63.32596" pt_clust_5="54.47278" pt_clust_6="138.65500"></scales>
<clustering>
<clus scale="   54.473">  2  5  1 -1</clus>
<clus scale="   63.326">  2  4  1 -1</clus>
<clus scale="  138.655">  1  6  2 -1</clus>
<clus scale="  138.655">  1  3  2 -1</clus>
</clustering>
</event>
<event>
 6    0  0.2666600E+002  0.1109555E+03  0.7546771E-02  0.1258811E+00
         21   -1    0    0  505  501  0.00000000000E+00  0.00000000000E+00  0.11905131461E+04  0.11905131461E+04  0.00000000000E+00 0.  1.
         21   -1    0    0  504  502 -0.00000000000E+00 -0.00000000000E+00 -0.17736259306E+03  0.17736259306E+03  0.00000000000E+00 0.  1.
         21    1    1    2  503  501  0.10883985412E+01 -0.38116001825E+02  0.16772000725E+03  0.17200004372E+03  0.00000000000E+00 0.  1.
         21    1    1    2  504  503  0.20414777571E+02  0.25140449824E+02 -0.24168077611E+02  0.40409173910E+02  0.00000000000E+00 0.  1.
         21    1    1    2  505  506 -0.11219046267E+03  0.24705022652E+02  0.99425359484E+03  0.10008682475E+04  0.00000000000E+00 0.  1.
         21    1    1    2  506  502  0.90687286561E+02 -0.11729470652E+02 -0.12465497143E+03  0.15459827401E+03  0.00000000000E+00 0.  1.
<scales pt_clust_3="37.77072" pt_clust_4="32.38526" pt_clust_5="14000.00000" pt_clust_6="110.95546"></scales>
<clustering>
<clus scale="   32.385">  2  4  1 -1</clus>
<clus scale="   37.771">  1  3  2 -1</clus>
<clus scale="  110.955">  2  6  1 -1</clus>
<clus scale="   37.771">  1  3  2 -1</clus>
</clustering>
</event>
<event>
 6    0  0.2666600E+002  0.1489541E+03  0.7546771E-02  0.1201764E+00
         21   -1    0    0  506  501  0.00000000000E+00  0.00000000000E+00  0.52215103556E+03  0.52215103556E+03  0.00000000000E+00 0.  1.
         21   -1    0    0  503  502 -0.00000000000E+00 -0.00000000000E+00 -0.15339602197E+03  0.15339602197E+03  0.00000000000E+00 0.  1.
         21    1    1    2  503  505  0.13862927827E+03  0.10332958020E+03 -0.52140654492E+02  0.18059270968E+03  0.00000000000E+00 0.  1.
         21    1    1    2  504  502 -0.70005083356E+00 -0.41780019821E+02 -0.26296621007E+00  0.41786711748E+02  0.00000000000E+00 0.  1.
         21    1    1    2  505  501 -0.12692605455E+03 -0.25475894592E+02  0.33312946383E+03  0.35739961416E+03  0.00000000000E+00 0. -1.
         21    1    1    2  506  504 -0.11003172881E+02 -0.36073665790E+02  0.88029170459E+02  0.95768021952E+02  0.00000000000E+00 0.  1.
<scales pt_clust_3="14000.00000" pt_clust_4="43.53816" pt_clust_5="148.95413" pt_clust_6="37.71444"></scales>
<clustering>
<clus scale="   37.714">  1  6  2 -1</clus>
<clus scale="   43.538">  2  4  1 -1</clus>
<clus scale="  148.954">  1  5  2 -1</clus>
<clus scale="   37.714">  1  3  2 -1</clus>
</clustering>
</event>
<event>
 6    0  0.2666600E+002  0.8282197E+02  0.7546771E-02  0.1321229E+00
         21   -1    0    0  504  501  0.00000000000E+00  0.00000000000E+00  0.57441034561E+03  0.57441034561E+03  0.00000000000E+00 0. -1.
         21   -1    0    0  505  502 -0.00000000000E+00 -0.00000000000E+00 -0.57022378032E+02  0.57022378032E+02  0.00000000000E+00 0. -1.
         21    1    1    2  503  502 -0.20707829908E+02 -0.30170438272E+02  0.40171508634E+02  0.54339853431E+02  0.00000000000E+00 0. -1.
         21    1    1    2  504  506  0.24640231684E+02  0.65897422419E+02  0.12158168247E+03  0.14046962950E+03  0.00000000000E+00 0. -1.
         21    1    1    2  505  501  0.67769911769E+02 -0.55209889428E+02  0.35150024185E+03  0.36220617451E+03  0.00000000000E+00 0. -1.
         21    1    1    2  506  503 -0.71702313544E+02  0.19482905281E+02  0.41345346233E+01  0.74417066204E+02  0.00000000000E+00 0. -1.
<scales pt_clust_3="36.59330" pt_clust_4="63.65957" pt_clust_5="82.82197" pt_clust_6="14000.00000"></scales>
<clustering>
<clus scale="   36.593">  2  3  1 -1</clus>
<clus scale="   63.660">  1  4  2 -1</clus>
<clus scale="   82.822">  1  5  2 -1</clus>
<clus scale="   63.660">  1  3  2 -1</clus>
</clustering>
</event>
<event>
 6    0  0.2666600E+002  0.9887868E+02  0.7546771E-02  0.1282672E+00
         21   -1    0    0  504  501  0.00000000000E+00  0.00000000000E+00  0.15665486499E+03  0.15665486499E+03  0.00000000000E+00 0.  1.
         21   -1    0    0  506  502 -0.00000000000E+00 -0.00000000000E+00 -0.90368223419E+03  0.90368223419E+03  0.00000000000E+00 0.  1.
         21    1    1    2  503  502 -0.76370172354E+02 -0.18191537098E+02 -0.22450414254E+03  0.23783491179E+03  0.00000000000E+00 0.  1.
         21    1    1    2  504  503 -0.72028271916E+01 -0.13170196033E+03  0.88811555784E+02  0.15901188482E+03  0.00000000000E+00 0.  1.
         21    1    1    2  505  501  0.16866129648E+02  0.37620173633E+02 -0.30457737817E+01  0.41340301540E+02  0.00000000000E+00 0.  1.
         21    1    1    2  506  505  0.66706869899E+02  0.11227332379E+03 -0.60828900866E+03  0.62215000103E+03  0.00000000000E+00 0.  1.
<scales pt_clust_3="77.30530" pt_clust_4="14000.00000" pt_clust_5="41.22795" pt_clust_6="98.87868"></scales>
<clustering>
<clus scale="   41.228">  1  5  2 -1</clus>
<clus scale="   77.305">  2  3  1 -1</clus>
<clus scale="   98.879">  2  6  1 -1</clus>
<clus scale="   41.228">  1  3  2 -1</clus>
</clustering>
</event>
<event>
 6    0  0.2666600E+002  0.1442333E+03  0.7546771E-02  0.1207744E+00
         21   -1    0    0  503  501  0.00000000000E+00  0.00000000000E+00  0.33107084229E+03  0.33107084229E+03  0.00000000000E+00 0.  1.
         21   -1    0    0  506  502 -0.00000000000E+00 -0.00000000000E+00 -0.32432760389E+03  0.32432760389E+03  0.00000000000E+00 0. -1.
         21    1    1    2  503  505 -0.13921539676E+03  0.39989739548E+02  0.25813300452E+03  0.29599451682E+03  0.00000000000E+00 0.  1.
         21    1    1    2  504  502  0.41429147789E+02  0.68260694509E+01 -0.12778753343E+03  0.13450882206E+03  0.00000000000E+00 0. -1.
         21    1    1    2  505  504  0.13756225452E+03 -0.26416603973E+02 -0.11019782554E+03  0.17822674206E+03  0.00000000000E+00 0. -1.
         21    1    1    2  506  501 -0.39776005549E+02 -0.20399205026E+02 -0.13404407150E+02  0.46668365240E+02  0.00000000000E+00 0. -1.
<scales pt_clust_3="14000.00000" pt_clust_4="41.98773" pt_clust_5="144.23330" pt_clust_6="38.53747"></scales>
<clustering>
<clus scale="   41.988">  2  4  1 -1</clus>
<clus scale="   38.537">  2  6  1 -1</clus>
<clus scale="  144.233">  2  5  1 -1</clus>
<clus scale="  144.233">  1  3  2 -1</clus>
</clustering>
</event>
<event>
 6    0  0.2666600E+002  0.1407466E+03  0.7546771E-02  0.1212328E+00
         21   -1    0    0  502  501  0.00000000000E+00  0.00000000000E+00  0.10339197155E+03  0.10339197155E+03  0.00000000000E+00 0.  1.
         21   -1    0    0  506  502 -0.00000000000E+00 -0.00000000000E+00 -0.60120912953E+03  0.60120912953E+03  0.00000000000E+00 0.  1.
         21    1    1    2  503  505  0.46962101793E+02  0.26028998402E+02 -0.16474071787E+03  0.17326988165E+03  0.00000000000E+00 0. -1.
         21    1    1    2  504  501 -0.70778735446E+02 -0.36842031525E+02  0.22749367484E+02  0.82972877491E+02  0.00000000000E+00 0.  1.
         21    1    1    2  505  504 -0.54698998839E+02  0.26829467930E+02  0.19970014313E+02  0.64113978937E+02  0.00000000000E+00 0.  1.
         21    1    1    2  506  503  0.78515632492E+02 -0.16016434806E+02 -0.37579582191E+03  0.38424436300E+03  0.00000000000E+00 0.  1.
<scales pt_clust_3="43.29495" pt_clust_4="55.01959" pt_clust_5="55.01959" pt_clust_6="136.53711"></scales>
<clustering>
<clus scale="   43.295">  3  6 -1 -1</clus>
<clus scale="   55.020">  4  5 -1 -1</clus>
<clus scale="  136.537">  2  3  1 -1</clus>
<clus scale="  140.747">  1  3  2 -1</clus>
</clustering>
</event>
<event>
 6    0  0.2666600E+002  0.1412399E+03  0.7546771E-02  0.1211670E+00
         21   -1    0    0  503  501  0.00000000000E+00  0.00000000000E+00  0.47503836387E+03  0.47503836387E+03  0.00000000000E+00 0.  1.
         21   -1    0    0  504  502 -0.00000000000E+00 -0.00000000000E+00 -0.10919896478E+03  0.10919896478E+03  0.00000000000E+00 0. -1.
         21    1    1    2  503  506  0.31603928258E+01  0.59977218371E+02  0.28028936509E+03  0.28665202422E+03  0.00000000000E+00 0.  1.
         21    1    1    2  504  505 -0.36066962572E+02 -0.80861583652E+02 -0.36270891305E+02  0.95681759264E+02  0.00000000000E+00 0. -1.
         21    1    1    2  505  501  0.21014400130E+02 -0.47523824043E+02 -0.99980737052E+01  0.52915785379E+02  0.00000000000E+00 0. -1.
         21    1    1    2  506  502  0.11892169616E+02  0.68408189323E+02  0.13181899901E+03  0.14898775978E+03  0.00000000000E+00 0. -1.
<scales pt_clust_3="52.93402" pt_clust_4="141.21053" pt_clust_5="43.54563" pt_clust_6="52.93402"></scales>
<clustering>
<clus scale="   43.546">  4  5 -1 -1</clus>
<clus scale="   52.934">  3  6 -1 -1</clus>
<clus scale="  141.211">  2  4  1 -1</clus>
<clus scale="  141.240">  1  3  2 -1</clus>
</clustering>
</event>
<event>
 6    0  0.2666600E+002  0.7711028E+02  0.7546771E-02  0.1337458E+00
         21   -1    0    0  505  501  0.00000000000E+00  0.00000000000E+00  0.90192465058E+02  0.90192465058E+02  0.00000000000E+00 0. -1.
         21   -1    0    0  504  502 -0.00000000000E+00 -0.00000000000E+00 -0.27082956594E+04  0.27082956594E+04  0.00000000000E+00 0. -1.
         21    1    1    2  503  502 -0.51048583934E+01  0.82465008609E+02 -0.29647636591E+03  0.30777389877E+03  0.00000000000E+00 0.  1.
         21    1    1    2  504  501 -0.65821015805E+02 -0.46784725639E+02 -0.23780546399E+04  0.23794253691E+04  0.00000000000E+00 0. -1.
         21    1    1    2  505  506  0.40615690061E+02  0.45311580249E+01  0.42678853605E+02  0.59090187148E+02  0.00000000000E+00 0. -1.
         21    1    1    2  506  503  0.30310184137E+02 -0.40211440994E+02  0.13748957873E+02  0.52198669445E+02  0.00000000000E+00 0. -1.
<scales pt_clust_3="77.11028" pt_clust_4="14000.00000" pt_clust_5="40.86766" pt_clust_6="73.96374"></scales>
<clustering>
<clus scale="   40.868">  1  5  2 -1</clus>
<clus scale="   73.964">  1  6  2 -1</clus>
<clus scale="   77.110">  1  3  2 -1</clus>
<clus scale="   40.868">  1  3  2 -1</clus>
</clustering>
</event>
<event>
 6    0  0.2666600E+002  0.1411178E+03  0.7546771E-02  0.1211833E+00
         21   -1    0    0  506  501  0.00000000000E+00  0.00000000000E+00  0.28912796299E+03  0.28912796299E+03  0.00000000000E+00 0.  1.
         21   -1    0    0  504  502 -0.00000000000E+00 -0.00000000000E+00 -0.18554552522E+03  0.18554552522E+03  0.00000000000E+00 0.  1.
         21    1    1    2  503  501  0.92778063144E+01  0.42906320125E+02  0.99262939713E+01  0.45006236331E+02  0.00000000000E+00 0.  1.
         21    1    1    2  504  505 -0.11042536981E+03 -0.38624516318E+02  0.51024850260E+02  0.12762895793E+03  0.00000000000E+00 0.  1.
         21    1    1    2  505  503 -0.61051018257E+02  0.63011595443E+02  0.84176273246E+02  0.12158673023E+03  0.00000000000E+00 0.  1.
         21    1    1    2  506  502  0.16219858175E+03 -0.67293399250E+02 -0.41544979708E+02  0.18045156371E+03  0.00000000000E+00 0.  1.
<scales pt_clust_3="43.89795" pt_clust_4="14000.00000" pt_clust_5="98.36772" pt_clust_6="141.11777"></scales>
<clustering>
<clus scale="   43.898">  1  3  2 -1</clus>
<clus scale="   98.368">  1  5  2 -1</clus>
<clus scale="  141.118">  2  6  1 -1</clus>
<clus scale="   43.898">  1  3  2 -1</clus>
</clustering>
</event>
<event>
 6    0  0.2666600E+002  0.7707191E+02  0.7546771E-02  0.1337572E+00
         21   -1    0    0  505  501  0.00000000000E+00  0.00000000000E+00  0.42959933850E+03  0.42959933850E+03  0.00000000000E+00 0.  1.
         21   -1    0    0  503  502 -0.00000000000E+00 -0.00000000000E+00 -0.10889838671E+03  0.10889838671E+03  0.00000000000E+00 0. -1.
         21    1    1    2  503  506  0.10491609855E+03 -0.58442437252E+00 -0.37579773650E+02  0.11144491319E+03  0.00000000000E+00 0. -1.
         21    1    1    2  504  502 -0.39307642247E+02  0.11130473424E+02  0.19600512368E+02  0.45311789446E+02  0.00000000000E+00 0.  1.
         21    1    1    2  505  504  0.18805420691E+01 -0.45632610955E+02  0.13271635465E+02  0.47560571159E+02  0.00000000000E+00 0. -1.
         21    1    1    2  506  501 -0.67488998374E+02  0.35086561903E+02  0.32540857761E+03  0.33418045142E+03  0.00000000000E+00 0.  1.
<scales pt_clust_3="14000.00000" pt_clust_4="40.85313" pt_clust_5="43.94690" pt_clust_6="77.07191"></scales>
<clustering>
<clus scale="   40.853">  2  4  1 -1</clus>
<clus scale="   43.947">  2  5  1 -1</clus>
<clus scale="   77.072">  1  6  2 -1</clus>
<clus scale="   77.072">  1  3  2 -1</clus>
</clustering>
</event>
<event>
 6    0  0.2666600E+002  0.1390961E+03  0.7546771E-02  0.1214550E+00
         21   -1    0    0  504  501  0.00000000000E+00  0.00000000000E+00  0.11296360551E+03  0.11296360551E+03  0.00000000000E+00 0. -1.
         21   -1    0    0  506  502 -0.00000000000E+00 -0.00000000000E+00 -0.83852385716E+03  0.83852385716E+03  0.00000000000E+00 0.  1.
         21    1    1    2  503  502 -0.11422587158E+02 -0.61810359791E+02 -0.39367430704E+03  0.39866082840E+03  0.00000000000E+00 0.  1.
         21    1    1    2  504  505  0.48630876855E+02 -0.11753182121E+02 -0.36474841851E+02  0.61915374195E+02  0.00000000000E+00 0.  1.
         21    1    1    2  505  503  0.19292437658E+02 -0.70741299319E+02 -0.32497526327E+03  0.33314479032E+03  0.00000000000E+00 0. -1.
         21    1    1    2  506  501 -0.56500727355E+02  0.14430484123E+03  0.29564160508E+02  0.15776646976E+03  0.00000000000E+00 0. -1.
<scales pt_clust_3="35.26081" pt_clust_4="50.03099" pt_clust_5="35.26081" pt_clust_6="133.78096"></scales>
<clustering>
<clus scale="   35.261">  3  5 -1 -1</clus>
<clus scale="   50.031">  1  4  2 -1</clus>
<clus scale="  133.781">  1  6  2 -1</clus>
<clus scale="   50.031">  1  3  2 -1</clus>
</clustering>
</event>
<event>
 6    0  0.2666600E+002  0.1274880E+03  0.7546771E-02  0.1231231E+00
         21   -1    0    0  504  501  0.00000000000E+00  0.00000000000E+00  0.11266800647E+04  0.11266800647E+04  0.00000000000E+00 0. -1.
         21   -1    0    0  506  502 -0.00000000000E+00 -0.00000000000E+00 -0.11698231094E+03  0.11698231094E+03  0.00000000000E+00 0. -1.
         21    1    1    2  503  502 -0.10541953809E+03  0.46426427865E+02  0.13212968213E+02  0.11594513679E+03  0.00000000000E+00 0. -1.
         21    1    1    2  504  503 -0.50852431242E+02  0.29485241142E+02  0.16295996321E+03  0.17323769456E+03  0.00000000000E+00 0. -1.
         21    1    1    2  505  501 -0.14200999675E+02 -0.11764121421E+03  0.75144158369E+03  0.76072700581E+03  0.00000000000E+00 0. -1.
         21    1    1    2  506  505  0.17047296901E+03  0.41729545203E+02  0.82083238685E+02  0.19375253851E+03  0.00000000000E+00 0. -1.
<scales pt_clust_3="127.48801" pt_clust_4="58.78222" pt_clust_5="108.89512" pt_clust_6="14000.00000"></scales>
<clustering>
<clus scale="   58.782">  1  4  2 -1</clus>
<clus scale="  108.895">  1  5  2 -1</clus>
<clus scale="  127.488">  2  3  1 -1</clus>
<clus scale="   58.782">  1  3  2 -1</clus>
</clustering>
</event>
<event>
 6    0  0.2666600E+002  0.8592874E+02  0.7546771E-02  0.1313021E+00
         21   -1    0    0  505  501  0.00000000000E+00  0.00000000000E+00  0.37127555039E+03  0.37127555039E+03  0.00000000000E+00 0. -1.
         21   -1    0    0  504  502 -0.00000000000E+00 -0.00000000000E+00 -0.41009791946E+03  0.41009791946E+03  0.00000000000E+00 0.  1.
         21    1    1    2  503  501 -0.21042231587E+02  0.49266246573E+02  0.14179283292E+03  0.15157554562E+03  0.00000000000E+00 0.  1.
         21    1    1    2  504  503  0.31608895620E+02  0.23493751411E+02 -0.32651694031E+01  0.39518855866E+02  0.00000000000E+00 0. -1.
         21    1    1    2  505  506  0.69692760352E+02  0.23806852040E+02  0.18908830567E+03  0.20292420848E+03  0.00000000000E+00 0. -1.
         21    1    1    2  506  502 -0.80259424386E+02 -0.96566850024E+02 -0.36643833826E+03  0.38735485988E+03  0.00000000000E+00 0.  1.
<scales pt_clust_3="53.68962" pt_clust_4="39.38374" pt_clust_5="85.92874" pt_clust_6="14000.00000"></scales>
<clustering>
<clus scale="   39.384">  2  4  1 -1</clus>
<clus scale="   53.690">  1  3  2 -1</clus>
<clus scale="   85.929">  1  5  2 -1</clus>
<clus scale="   53.690">  1  3  2 -1</clus>
</clustering>
</event>
<event>
 6    0  0.2666600E+002  0.1510581E+03  0.7546771E-02  0.1199179E+00
         21   -1    0    0  503  501  0.00000000000E+00  0.00000000000E+00  0.75840076645E+03  0.75840076645E+03  0.00000000000E+00 0.  1.
         21   -1    0    0  505  502 -0.00000000000E+00 -0.00000000000E+00 -0.25673225014E+03  0.25673225014E+03  0.00000000000E+00 0. -1.
         21    1    1    2  503  504 -0.79322839044E+02  0.80111494888E+02  0.65578096410E+03  0.66540111007E+03  0.00000000000E+00 0.  1.
         21    1    1    2  504  506  0.44576734368E+02 -0.55557713146E+02 -0.12691559262E+03  0.14553801011E+03  0.00000000000E+00 0. -1.
         21    1    1    2  505  501  0.59239452863E+01  0.48992361331E+02  0.65753452117E+02  0.82212292645E+02  0.00000000000E+00 0. -1.
         21    1    1    2  506  502  0.28822159390E+02 -0.73546143074E+02 -0.92950307286E+02  0.12198160377E+03  0.00000000000E+00 0. -1.
<scales pt_clust_3="147.13271" pt_clust_4="32.48860" pt_clust_5="49.34921" pt_clust_6="32.48860"></scales>
<clustering>
<clus scale="   32.489">  4  6 -1 -1</clus>
<clus scale="   49.349">  1  5  2 -1</clus>
<clus scale="  147.133">  1  3  2 -1</clus>
<clus scale="   49.349">  1  3  2 -1</clus>
</clustering>
</event>
<event>
 6    0  0.2666600E+002  0.1809412E+03  0.7546771E-02  0.1166895E+00
         21   -1    0    0  505  501  0.00000000000E+00  0.00000000000E+00  0.21494648008E+03  0.21494648008E+03  0.00000000000E+00 0.  1.
         21   -1    0    0  504  502 -0.00000000000E+00 -0.00000000000E+00 -0.32753776949E+03  0.32753776949E+03  0.00000000000E+00 0.  1.
         21    1    1    2  503  502 -0.83634221125E+02  0.15828527890E+03 -0.20268370163E+03  0.27042484236E+03  0.00000000000E+00 0.  1.
         21    1    1    2  504  506  0.24487726462E+02  0.24448583306E+02 -0.14994665418E+02  0.37712358238E+02  0.00000000000E+00 0. -1.
         21    1    1    2  505  503  0.29768817634E+02 -0.15660856104E+03  0.11146798325E+03  0.19451872708E+03  0.00000000000E+00 0.  1.
         21    1    1    2  506  501  0.29377677029E+02 -0.26125301159E+02 -0.63809056241E+01  0.39828321894E+02  0.00000000000E+00 0. -1.
<scales pt_clust_3="180.94122" pt_clust_4="34.60321" pt_clust_5="14000.00000" pt_clust_6="39.56010"></scales>
<clustering>
<clus scale="   34.603">  2  4  1 -1</clus>
<clus scale="   39.560">  1  6  2 -1</clus>
<clus scale="  180.941">  2  3  1 -1</clus>
<clus scale="   39.560">  1  3  2 -1</clus>
</clustering>
</event>
<event>
 6    0  0.2666600E+002  0.7077971E+02  0.7546771E-02  0.1357461E+00
         21   -1    0    0  506  501  0.00000000000E+00  0.00000000000E+00  0.70572217388E+02  0.70572217388E+02  0.00000000000E+00 0.  1.
         21   -1    0    0  504  502 -0.00000000000E+00 -0.00000000000E+00 -0.98320840082E+03  0.98320840082E+03  0.00000000000E+00 0. -1.
         21    1    1    2  503  501  0.66136779364E+02 -0.83205170149E+01  0.33602078656E+02  0.74648538352E+02  0.00000000000E+00 0.  1.
         21    1    1    2  504  505 -0.89977912711E+00  0.69442515866E+02 -0.66343965450E+03  0.66706465038E+03  0.00000000000E+00 0. -1.
         21    1    1    2  505  503 -0.33194522171E+02 -0.73977331556E+02 -0.25548936387E+03  0.26804726624E+03  0.00000000000E+00 0. -1.
         21    1    1    2  506  502 -0.32042478066E+02  0.12855332705E+02 -0.27309243706E+02  0.44020163236E+02  0.00000000000E+00 0. -1.
<scales pt_clust_3="38.36847" pt_clust_4="14000.00000" pt_clust_5="70.77971" pt_clust_6="34.52506"></scales>
<clustering>
<clus scale="   34.525">  1  6  2 -1</clus>
<clus scale="   38.368">  1  3  2 -1</clus>
<clus scale="   70.780">  1  5  2 -1</clus>
<clus scale="   34.525">  1  3  2 -1</clus>
</clustering>
</event>
<event>
 6    0  0.2666600E+002  0.9756645E+02  0.7546771E-02  0.1285498E+00
         21   -1    0    0  504  501  0.00000000000E+00  0.00000000000E+00  0.36750904462E+03  0.36750904462E+03  0.00000000000E+00 0. -1.
         21   -1    0    0  506  502 -0.00000000000E+00 -0.00000000000E+00 -0.60020869921E+03  0.60020869921E+03  0.00000000000E+00 0.  1.
         21    1    1    2  503  501 -0.18870368615E+02  0.42366789576E+02  0.13035030352E+03  0.13835547441E+03  0.00000000000E+00 0. -1.
         21    1    1    2  504  502  0.45445596121E+02  0.53108975208E+02  0.21887059159E+03  0.22976118323E+03  0.00000000000E+00 0. -1.
         21    1    1    2  505  503  0.14421116325E+02 -0.10178857501E+03 -0.39827650908E+03  0.41133084042E+03  0.00000000000E+00 0.  1.
         21    1    1    2  506  505 -0.40996343831E+02  0.63128102244E+01 -0.18364404063E+03  0.18827024576E+03  0.00000000000E+00 0.  1.
<scales pt_clust_3="46.59736" pt_clust_4="14000.00000" pt_clust_5="97.56645" pt_clust_6="41.47953"></scales>
<clustering>
<clus scale="   41.480">  2  6  1 -1</clus>
<clus scale="   46.597">  1  3  2 -1</clus>
<clus scale="   97.566">  2  5  1 -1</clus>
<clus scale="   46.597">  1  3  2 -1</clus>
</clustering>
</event>
<event>
 6    0  0.2666600E+002  0.7753961E+02  0.7546771E-02  0.1336182E+00
         21   -1    0    0  505  501  0.00000000000E+00  0.00000000000E+00  0.62322042754E+02  0.62322042754E+02  0.00000000000E+00 0. -1.
         21   -1    0    0  506  502 -0.00000000000E+00 -0.00000000000E+00 -0.11054581347E+04  0.11054581347E+04  0.00000000000E+00 0.  1.
         21    1    1    2  503  501  0.38015854887E+02 -0.12419116987E+02 -0.20651600427E+02  0.45010313149E+02  0.00000000000E+00 0. -1.
         21    1    1    2  504  502 -0.81130159138E+02  0.69008033601E+02 -0.66362394712E+03  0.67211677156E+03  0.00000000000E+00 0.  1.
         21    1    1    2  505  504  0.45123680927E+02  0.14942901471E+02  0.29374884570E+02  0.55877730164E+02  0.00000000000E+00 0. -1.
         21    1    1    2  506  503 -0.20093766759E+01 -0.71531818084E+02 -0.38823542901E+03  0.39477536261E+03  0.00000000000E+00 0.  1.
<scales pt_clust_3="39.99300" pt_clust_4="77.53961" pt_clust_5="14000.00000" pt_clust_6="72.34323"></scales>
<clustering>
<clus scale="   39.993">  1  3  2 -1</clus>
<clus scale="   72.343">  2  6  1 -1</clus>
<clus scale="   77.540">  2  4  1 -1</clus>
<clus scale="   39.993">  1  3  2 -1</clus>
</clustering>
</event>
<event>
 6    0  0.2666600E+002  0.1564980E+03  0.7546771E-02  0.1192708E+00
         21   -1    0    0  502  501  0.00000000000E+00  0.00000000000E+00  0.48334429605E+03  0.48334429605E+03  0.00000000000E+00 0.  1.
         21   -1    0    0  503  502 -0.00000000000E+00 -0.00000000000E+00 -0.54178393798E+02  0.54178393798E+02  0.00000000000E+00 0. -1.
         21    1    1    2  503  504  0.66524297877E+01  0.46970582534E+02  0.31689941677E+02  0.57050353629E+02  0.00000000000E+00 0. -1.
         21    1    1    2  504  505  0.77439690148E+02  0.74965954171E+02  0.11132451528E+03  0.15495143625E+03  0.00000000000E+00 0. -1.
         21    1    1    2  505  506 -0.39919550220E+02 -0.95005047966E+02  0.20122084551E+03  0.22607378950E+03  0.00000000000E+00 0.  1.
         21    1    1    2  506  501 -0.44172569716E+02 -0.26931488739E+02  0.84930599786E+02  0.99447110471E+02  0.00000000000E+00 0.  1.
<scales pt_clust_3="33.51241" pt_clust_4="33.51241" pt_clust_5="155.18121" pt_clust_6="32.78652"></scales>
<clustering>
<clus scale="   32.787">  5  6 -1 -1</clus>
<clus scale="   33.512">  3  4 -1 -1</clus>
<clus scale="  155.181">  1  5  2 -1</clus>
<clus scale="  155.181">  1  3  2 -1</clus>
</clustering>
</event>
<event>
 6    0  0.2666600E+002  0.1055982E+03  0.7546771E-02  0.1268946E+00
         21   -1    0    0  504  501  0.00000000000E+00  0.00000000000E+00  0.20077433354E+03  0.20077433354E+03  0.00000000000E+00 0.  1.
         21   -1    0    0  505  502 -0.00000000000E+00 -0.00000000000E+00 -0.47688988344E+03  0.47688988344E+03  0.00000000000E+00 0. -1.
         21    1    1    2  503  501 -0.12836063422E+02 -0.64168872669E+02  0.69622991277E+02  0.95549828142E+02  0.00000000000E+00 0.  1.
         21    1    1    2  504  506  0.37222117852E+02 -0.34510135847E+01  0.69748352812E+02  0.79134242097E+02  0.00000000000E+00 0.  1.
         21    1    1    2  505  503  0.62018226549E+02 -0.11175801320E+02  0.81116927634E+01  0.63537064135E+02  0.00000000000E+00 0.  1.
         21    1    1    2  506  502 -0.86404280979E+02  0.78795687573E+02 -0.42359858675E+03  0.43944308260E+03  0.00000000000E+00 0. -1.
<scales pt_clust_3="67.41245" pt_clust_4="37.38175" pt_clust_5="14000.00000" pt_clust_6="105.59816"></scales>
<clustering>
<clus scale="   37.382">  1  4  2 -1</clus>
<clus scale="   67.412">  1  3  2 -1</clus>
<clus scale="  105.598">  2  6  1 -1</clus>
<clus scale="   37.382">  1  3  2 -1</clus>
</clustering>
</event>
<event>
 6    0  0.2666600E+002  0.9607050E+02  0.7546771E-02  0.1288783E+00
         21   -1    0    0  503  501  0.00000000000E+00  0.00000000000E+00  0.51808439631E+02  0.51808439631E+02  0.00000000000E+00 0. -1.
         21   -1    0    0  505  502 -0.00000000000E+00 -0.00000000000E+00 -0.13506028081E+04  0.13506028081E+04  0.00000000000E+00 0. -1.
         21    1    1    2  503  502 -0.72934049066E+02 -0.60523370310E+02 -0.10867612695E+04  0.10908861127E+04  0.00000000000E+00 0. -1.
         21    1    1    2  504  501 -0.26945423136E+01  0.37875611606E+02 -0.79548127975E+02  0.88146055936E+02  0.00000000000E+00 0. -1.
         21    1    1    2  505  506  0.11941931618E+03  0.42319292821E+02 -0.70540056530E+02  0.14500963829E+03  0.00000000000E+00 0. -1.
         21    1    1    2  506  504 -0.43790724802E+02 -0.19671534117E+02 -0.61944914462E+02  0.78369440861E+02  0.00000000000E+00 0. -1.
<scales pt_clust_3="96.07050" pt_clust_4="37.97134" pt_clust_5="14000.00000" pt_clust_6="46.16157"></scales>
<clustering>
<clus scale="   37.971">  1  4  2 -1</clus>
<clus scale="   46.162">  1  6  2 -1</clus>
<clus scale="   96.070">  2  3  1 -1</clus>
<clus scale="   37.971">  1  3  2 -1</clus>
</clustering>
</event>
<event>
 6    0  0.2666600E+002  0.1010194E+03  0.7546771E-02  0.1278167E+00
         21   -1    0    0  503  501  0.00000000000E+00  0.00000000000E+00  0.67927572347E+02  0.67927572347E+02  0.00000000000E+00 0.  1.
         21   -1    0    0  504  502 -0.00000000000E+00 -0.00000000000E+00 -0.93465310928E+03  0.93465310928E+03  0.00000000000E+00 0.  1.
         21    1    1    2  503  506 -0.24699442229E+02  0.26335119013E+02  0.24297408950E+02  0.43519708427E+02  0.00000000000E+00 0.  1.
         21    1    1    2  504  505  0.48560692604E+02 -0.52656902068E+02 -0.59149815625E+03  0.59581956920E+03  0.00000000000E+00 0.  1.
         21    1    1    2  505  501  0.80865700041E+02  0.30137320806E+01 -0.20447183639E+03  0.21990242359E+03  0.00000000000E+00 0.  1.
         21    1    1    2  506  502 -0.10472695042E+03  0.23308050975E+02 -0.95052953252E+02  0.14333898041E+03  0.00000000000E+00 0.  1.
<scales pt_clust_3="36.10541" pt_clust_4="69.33709" pt_clust_5="101.01942" pt_clust_6="14000.00000"></scales>
<clustering>
<clus scale="   36.105">  1  3  2 -1</clus>
<clus scale="   69.337">  2  4  1 -1</clus>
<clus scale="  101.019">  2  5  1 -1</clus>
<clus scale="   36.105">  1  3  2 -1</clus>
</clustering>
</event>
<event>
 6    0  0.2666600E+002  0.4053701E+03  0.7546771E-02  0.1041936E+00
         21   -1    0    0  504  501  0.00000000000E+00  0.00000000000E+00  0.13043877179E+03  0.13043877179E+03  0.00000000000E+00 0.  1.
         21   -1    0    0  505  502 -0.00000000000E+00 -0.00000000000E+00 -0.18928012769E+04  0.18928012769E+04  0.00000000000E+00 0. -1.
         21    1    1    2  503  502 -0.31094584591E+02 -0.23093049660E+03 -0.23244264313E+03  0.32912816621E+03  0.00000000000E+00 0.  1.
         21    1    1    2  504  503  0.19002580017E+02 -0.15223204283E+03 -0.11445545963E+03  0.19140466335E+03  0.00000000000E+00 0.  1.
         21    1    1    2  505  506  0.95783820935E+02  0.39817666653E+03 -0.12678852159E+04  0.13323858746E+04  0.00000000000E+00 0. -1.
         21    1    1    2  506  501 -0.83691816361E+02 -0.15014127107E+02 -0.14757918651E+03  0.17032134461E+03  0.00000000000E+00 0.  1.
<scales pt_clust_3="49.06437" pt_clust_4="49.06437" pt_clust_5="400.83479" pt_clust_6="85.02790"></scales>
<clustering>
<clus scale="   49.064">  3  4 -1 -1</clus>
<clus scale="   85.028">  1  6  2 -1</clus>
<clus scale="  400.835">  2  5  1 -1</clus>
<clus scale="   85.028">  1  3  2 -1</clus>
</clustering>
</event>
<event>
 6    0  0.2666600E+002  0.3401283E+03  0.7546771E-02  0.1066741E+00
         21   -1    0    0  505  501  0.00000000000E+00  0.00000000000E+00  0.20677335825E+03  0.20677335825E+03  0.00000000000E+00 0.  1.
         21   -1    0    0  504  502 -0.00000000000E+00 -0.00000000000E+00 -0.64052705456E+03  0.64052705456E+03  0.00000000000E+00 0.  1.
         21    1    1    2  503  501  0.13697471683E+03  0.13126002076E+01 -0.62805430514E+02  0.15069279370E+03  0.00000000000E+00 0.  1.
         21    1    1    2  504  503  0.17991925944E+03  0.78850243812E+02 -0.15023050035E+03  0.24730043288E+03  0.00000000000E+00 0.  1.
         21    1    1    2  505  506 -0.33560146144E+03 -0.28997584154E+02 -0.18813623023E+03  0.38582955036E+03  0.00000000000E+00 0.  1.
         21    1    1    2  506  502  0.18707485174E+02 -0.51165259865E+02 -0.32581535211E+02  0.63477635868E+02  0.00000000000E+00 0.  1.
<scales pt_clust_3="66.47655" pt_clust_4="66.47655" pt_clust_5="330.93934" pt_clust_6="54.47801"></scales>
<clustering>
<clus scale="   54.478">  2  6  1 -1</clus>
<clus scale="   66.477">  3  4 -1 -1</clus>
<clus scale="  330.939">  1  5  2 -1</clus>
<clus scale="  330.939">  1  3  2 -1</clus>
</clustering>
</event>
<event>
 6    0  0.2666600E+002  0.3682951E+03  0.7546771E-02  0.1055347E+00
         21   -1    0    0  503  501  0.00000000000E+00  0.00000000000E+00  0.63870262148E+03  0.63870262148E+03  0.00000000000E+00 0. -1.
         21   -1    0    0  506  502 -0.00000000000E+00 -0.00000000000E+00 -0.24032187182E+04  0.24032187182E+04  0.00000000000E+00 0.  1.
         21    1    1    2  503  504  0.21886079954E+03 -0.17402644420E+03  0.46126439240E+03  0.53939789817E+03  0.00000000000E+00 0. -1.
         21    1    1    2  504  505 -0.34309904907E+01 -0.87282902547E+02  0.10549449037E+03  0.13696409848E+03  0.00000000000E+00 0. -1.
         21    1    1    2  505  502 -0.55369666273E+02  0.31693010217E+01 -0.10582003519E+03  0.11947269252E+03  0.00000000000E+00 0.  1.
         21    1    1    2  506  501 -0.16006014277E+03  0.25814004573E+03 -0.22254549443E+04  0.22460866505E+04  0.00000000000E+00 0.  1.
<scales pt_clust_3="82.17398" pt_clust_4="82.17398" pt_clust_5="55.46030" pt_clust_6="337.76315"></scales>
<clustering>
<clus scale="   55.460">  2  5  1 -1</clus>
<clus scale="   82.174">  3  4 -1 -1</clus>
<clus scale="  337.763">  2  6  1 -1</clus>
<clus scale="  368.295">  1  3  2 -1</clus>
</clustering>
</event>
<event>
 6    0  0.2666600E+002  0.3342881E+03  0.7546771E-02  0.1069255E+00
         21   -1    0    0  506  501  0.00000000000E+00  0.00000000000E+00  0.45199992407E+03  0.45199992407E+03  0.00000000000E+00 0. -1.
         21   -1    0    0  505  502 -0.00000000000E+00 -0.00000000000E+00 -0.63947015739E+03  0.63947015739E+03  0.00000000000E+00 0. -1.
         21    1    1    2  503  502 -0.19866758587E+03  0.19222447895E+03 -0.17872663918E+03  0.32918425165E+03  0.00000000000E+00 0. -1.
         21    1    1    2  504  501  0.24457449986E+03  0.20755802653E+03  0.85174665131E+00  0.32077678506E+03  0.00000000000E+00 0. -1.
         21    1    1    2  505  504  0.37381226198E+02 -0.18719182148E+02 -0.29141093259E+02  0.50960447100E+02  0.00000000000E+00 0.  1.
         21    1    1    2  506  503 -0.83288140195E+02 -0.38106332333E+03  0.19545752473E+02  0.39054859765E+03  0.00000000000E+00 0. -1.
<scales pt_clust_3="259.59797" pt_clust_4="14000.00000" pt_clust_5="41.80627" pt_clust_6="334.28807"></scales>
<clustering>
<clus scale="   41.806">  2  5  1 -1</clus>
<clus scale="  259.598">  2  3  1 -1</clus>
<clus scale="  334.288">  2  6  1 -1</clus>
<clus scale="  334.288">  1  3  2 -1</clus>
</clustering>
</event>
<event>
 6    0  0.2666600E+002  0.1364173E+03  0.7546771E-02  0.1218233E+00
         21   -1    0    0  506  501  0.00000000000E+00  0.00000000000E+00  0.97324787621E+03  0.97324787621E+03  0.00000000000E+00 0.  1.
         21   -1    0    0  503  502 -0.00000000000E+00 -0.00000000000E+00 -0.28201275002E+03  0.28201275002E+03  0.00000000000E+00 0. -1.
         21    1    1    2  503  505 -0.13019631234E+03 -0.77650248296E+01 -0.21337552596E+03  0.25008096776E+03  0.00000000000E+00 0. -1.
         21    1    1    2  504  502 -0.20943540496E+02  0.26791565514E+02  0.10613632062E+02  0.35623995519E+02  0.00000000000E+00 0. -1.
         21    1    1    2  505  501  0.12282218872E+03 -0.60515178492E+02  0.90731549327E+03  0.91758856858E+03  0.00000000000E+00 0.  1.
         21    1    1    2  506  504  0.28317664117E+02  0.41488637807E+02 -0.13318473184E+02  0.51967094358E+02  0.00000000000E+00 0. -1.
<scales pt_clust_3="136.41726" pt_clust_4="34.00617" pt_clust_5="14000.00000" pt_clust_6="51.63097"></scales>
<clustering>
<clus scale="   34.006">  2  4  1 -1</clus>
<clus scale="   51.631">  2  6  1 -1</clus>
<clus scale="  136.417">  2  3  1 -1</clus>
<clus scale="  136.417">  1  3  2 -1</clus>
</clustering>
</event>
<event>
 6    0  0.2666600E+002  0.1124223E+03  0.7546771E-02  0.1256149E+00
         21   -1    0    0  504  501  0.00000000000E+00  0.00000000000E+00  0.12211070538E+03  0.12211070538E+03  0.00000000000E+00 0. -1.
         21   -1    0    0  505  502 -0.00000000000E+00 -0.00000000000E+00 -0.25365456031E+03  0.25365456031E+03  0.00000000000E+00 0. -1.
         21    1    1    2  503  501 -0.53028174155E+02 -0.99447080509E+02 -0.64960661552E+02  0.13008303742E+03  0.00000000000E+00 0. -1.
         21    1    1    2  504  502  0.11355389039E+03  0.19828977409E+02 -0.49442656535E+00  0.11527323551E+03  0.00000000000E+00 0. -1.
         21    1    1    2  505  506 -0.10983603689E+02  0.49312933540E+02 -0.14073719895E+02  0.52444966927E+02  0.00000000000E+00 0. -1.
         21    1    1    2  506  503 -0.49542112546E+02  0.30305169560E+02 -0.52015046913E+02  0.77964025825E+02  0.00000000000E+00 0. -1.
<scales pt_clust_3="14000.00000" pt_clust_4="103.59295" pt_clust_5="47.88975" pt_clust_6="112.42233"></scales>
<clustering>
<clus scale="   47.890">  5  6 -1 -1</clus>
<clus scale="  112.422">  2  5  1 -1</clus>
<clus scale="  103.593">  1  4  2 -1</clus>
<clus scale="  103.593">  1  3  2 -1</clus>
</clustering>
</event>
<event>
 6    0  0.2666600E+002  0.1225074E+03  0.7546771E-02  0.1239017E+00
         21   -1    0    0  505  501  0.00000000000E+00  0.00000000000E+00  0.26677235341E+03  0.26677235341E+03  0.00000000000E+00 0. -1.
         21   -1    0    0  503  502 -0.00000000000E+00 -0.00000000000E+00 -0.15347452183E+04  0.15347452183E+04  0.00000000000E+00 0. -1.
         21    1    1    2  503  504 -0.75916993072E+01  0.30815813321E+02 -0.49514992410E+02  0.58813116924E+02  0.00000000000E+00 0.  1.
         21    1    1    2  504  506 -0.94780014343E+02 -0.50594363183E+02  0.25964272332E+02  0.11053137176E+03  0.00000000000E+00 0. -1.
         21    1    1    2  505  502 -0.31285108000E+02  0.84273065174E+01 -0.14148881894E+04  0.14152591162E+04  0.00000000000E+00 0. -1.
         21    1    1    2  506  501  0.13365682165E+03  0.11351243345E+02  0.17046604452E+03  0.21691396689E+03  0.00000000000E+00 0. -1.
<scales pt_clust_3="31.73717" pt_clust_4="122.50737" pt_clust_5="54.03955" pt_clust_6="14000.00000"></scales>
<clustering>
<clus scale="   31.737">  2  3  1 -1</clus>
<clus scale="   54.040">  2  5  1 -1</clus>
<clus scale="  122.507">  2  4  1 -1</clus>
<clus scale="  122.507">  1  3  2 -1</clus>
</clustering>
</event>
<event>
 6    0  0.2666600E+002  0.9218895E+02  0.7546771E-02  0.1297636E+00
         21   -1    0    0  505  501  0.00000000000E+00  0.00000000000E+00  0.76442422633E+03  0.76442422633E+03  0.00000000000E+00 0.  1.
         21   -1    0    0  504  502 -0.00000000000E+00 -0.00000000000E+00 -0.13566080501E+03  0.13566080501E+03  0.00000000000E+00 0.  1.
         21    1    1    2  503  502 -0.96233994857E+01 -0.42784414298E+02 -0.57611578424E+02  0.72403106929E+02  0.00000000000E+00 0.  1.
         21    1    1    2  504  501 -0.17180216380E+02  0.88882757408E+02  0.33231007253E+03  0.34442022110E+03  0.00000000000E+00 0.  1.
         21    1    1    2  505  506  0.10444516424E+03 -0.41375449667E+02  0.38386299768E+03  0.39996439986E+03  0.00000000000E+00 0.  1.
         21    1    1    2  506  503 -0.77641548379E+02 -0.47228934433E+01 -0.29798070476E+02  0.83297303445E+02  0.00000000000E+00 0. -1.
<scales pt_clust_3="43.85335" pt_clust_4="87.09742" pt_clust_5="14000.00000" pt_clust_6="92.18895"></scales>
<clustering>
<clus scale="   43.853">  2  3  1 -1</clus>
<clus scale="   87.097">  1  4  2 -1</clus>
<clus scale="   92.189">  2  6  1 -1</clus>
<clus scale="   87.097">  1  3  2 -1</clus>
</clustering>
</event>
<event>
 6    0  0.2666600E+002  0.1728579E+03  0.7546771E-02  0.1174900E+00
         21   -1    0    0  505  501  0.00000000000E+00  0.00000000000E+00  0.95131381599E+02  0.95131381599E+02  0.00000000000E+00 0. -1.
         21   -1    0    0  503  502 -0.00000000000E+00 -0.00000000000E+00 -0.36211047152E+03  0.36211047152E+03  0.00000000000E+00 0. -1.
         21    1    1    2  503  504  0.37666921082E+02 -0.10635233307E+03 -0.44332452335E+02  0.12122286098E+03  0.00000000000E+00 0. -1.
         21    1    1    2  504  501  0.48084344868E+02 -0.33099920477E+02 -0.52801439773E+01  0.58613896624E+02  0.00000000000E+00 0. -1.
         21    1    1    2  505  506 -0.33889367586E+02  0.83386886494E+02 -0.80913506993E+02  0.12103246543E+03  0.00000000000E+00 0. -1.
         21    1    1    2  506  502 -0.51861898365E+02  0.56065367052E+02 -0.13645298662E+03  0.15637263009E+03  0.00000000000E+00 0. -1.
<scales pt_clust_3="39.91735" pt_clust_4="39.91735" pt_clust_5="172.35253" pt_clust_6="49.64931"></scales>
<clustering>
<clus scale="   39.917">  3  4 -1 -1</clus>
<clus scale="   49.649">  5  6 -1 -1</clus>
<clus scale="  172.353">  2  5  1 -1</clus>
<clus scale="  172.858">  1  3  2 -1</clus>
</clustering>
</event>
<event>
 6    0  0.2666600E+002  0.2295458E+03  0.7546771E-02  0.1126960E+00
         21   -1    0    0  502  501  0.00000000000E+00  0.00000000000E+00  0.16518998860E+03  0.16518998860E+03  0.00000000000E+00 0.  1.
         21   -1    0    0  505  502 -0.00000000000E+00 -0.00000000000E+00 -0.17382773444E+04  0.17382773444E+04  0.00000000000E+00 0.  1.
         21    1    1    2  503  506 -0.67339444955E+02  0.53030816291E+02 -0.55456906314E+03  0.56115391304E+03  0.00000000000E+00 0.  1.
         21    1    1    2  504  501  0.17181743376E+03 -0.14775020713E+03  0.67473502449E+02  0.23644032605E+03  0.00000000000E+00 0.  1.
         21    1    1    2  505  503  0.21163663612E+02  0.63061808820E+02 -0.20813829521E+03  0.21850913556E+03  0.00000000000E+00 0. -1.
         21    1    1    2  506  504 -0.12564165241E+03  0.31657582021E+02 -0.87785349988E+03  0.88736395834E+03  0.00000000000E+00 0.  1.
<scales pt_clust_3="35.96975" pt_clust_4="225.24533" pt_clust_5="66.51836" pt_clust_6="35.96975"></scales>
<clustering>
<clus scale="   35.970">  3  6 -1 -1</clus>
<clus scale="   66.518">  2  5  1 -1</clus>
<clus scale="  225.245">  1  4  2 -1</clus>
<clus scale="  225.245">  1  3  2 -1</clus>
</clustering>
</event>
<event>
 6    0  0.2666600E+002  0.5637609E+02  0.7546771E-02  0.1413701E+00
         21   -1    0    0  505  501  0.00000000000E+00  0.00000000000E+00  0.18283557850E+04  0.18283557850E+04  0.00000000000E+00 0.  1.
         21   -1    0    0  506  502 -0.00000000000E+00 -0.00000000000E+00 -0.16699252275E+03  0.16699252275E+03  0.00000000000E+00 0. -1.
         21    1    1    2  503  501 -0.61671586592E+01 -0.31362343249E+02  0.12170339204E+04  0.12174535695E+04  0.00000000000E+00 0.  1.
         21    1    1    2  504  502 -0.68487008003E+02 -0.82206167480E+02 -0.12952076998E+03  0.16799986337E+03  0.00000000000E+00 0. -1.
         21    1    1    2  505  504  0.39898739898E+02  0.71604043251E+02  0.53903942138E+03  0.54523622977E+03  0.00000000000E+00 0. -1.
         21    1    1    2  506  503  0.34755426764E+02  0.41964467477E+02  0.34810690451E+02  0.64658645129E+02  0.00000000000E+00 0. -1.
<scales pt_clust_3="31.96295" pt_clust_4="14000.00000" pt_clust_5="56.37609" pt_clust_6="52.21700"></scales>
<clustering>
<clus scale="   31.963">  1  3  2 -1</clus>
<clus scale="   52.217">  2  6  1 -1</clus>
<clus scale="   56.376">  1  5  2 -1</clus>
<clus scale="   31.963">  1  3  2 -1</clus>
</clustering>
</event>
<event>
 6    0  0.2666600E+002  0.2020806E+03  0.7546771E-02  0.1147995E+00
         21   -1    0    0  505  501  0.00000000000E+00  0.00000000000E+00  0.71288136475E+02  0.71288136475E+02  0.00000000000E+00 0.  1.
         21   -1    0    0  504  502 -0.00000000000E+00 -0.00000000000E+00 -0.15668029764E+04  0.15668029764E+04  0.00000000000E+00 0.  1.
         21    1    1    2  503  502  0.30038078971E+02  0.17976108189E+03 -0.11654656198E+04  0.11796297909E+04  0.00000000000E+00 0.  1.
         21    1    1    2  504  501  0.49672269670E+02  0.48085183687E+00 -0.22136461354E+03  0.22686969326E+03  0.00000000000E+00 0.  1.
         21    1    1    2  505  506 -0.69735750482E+01 -0.59861198654E+02 -0.13494309021E+02  0.61758321134E+02  0.00000000000E+00 0.  1.
         21    1    1    2  506  503 -0.72736773593E+02 -0.12038073507E+03 -0.95190297642E+02  0.16983330761E+03  0.00000000000E+00 0.  1.
<scales pt_clust_3="194.56393" pt_clust_4="49.67460" pt_clust_5="35.74219" pt_clust_6="35.74219"></scales>
<clustering>
<clus scale="   35.742">  5  6 -1 -1</clus>
<clus scale="   49.675">  2  4  1 -1</clus>
<clus scale="  194.564">  2  3  1 -1</clus>
<clus scale="  202.081">  1  3  2 -1</clus>
</clustering>
</event>
<event>
 6    0  0.2666600E+002  0.1178390E+03  0.7546771E-02  0.1246705E+00
         21   -1    0    0  504  501  0.00000000000E+00  0.00000000000E+00  0.19244040856E+03  0.19244040856E+03  0.00000000000E+00 0.  1.
         21   -1    0    0  503  502 -0.00000000000E+00 -0.00000000000E+00 -0.12905029993E+03  0.12905029993E+03  0.00000000000E+00 0.  1.
         21    1    1    2  503  506 -0.58424770174E+02 -0.52022857148E+02  0.71380481126E+02  0.10590091842E+03  0.00000000000E+00 0.  1.
         21    1    1    2  504  505  0.84625620661E+02  0.51602753128E+01 -0.30749911394E+02  0.90186923466E+02  0.00000000000E+00 0.  1.
         21    1    1    2  505  502  0.41507860327E+02  0.31789443492E+02 -0.36441735744E+00  0.52283878839E+02  0.00000000000E+00 0.  1.
         21    1    1    2  506  501 -0.67708710814E+02  0.15073138343E+02  0.23123956248E+02  0.73118987768E+02  0.00000000000E+00 0.  1.
<scales pt_clust_3="108.77101" pt_clust_4="35.59747" pt_clust_5="35.59747" pt_clust_6="69.36620"></scales>
<clustering>
<clus scale="   35.597">  4  5 -1 -1</clus>
<clus scale="   69.366">  1  6  2 -1</clus>
<clus scale="  108.771">  1  3  2 -1</clus>
<clus scale="   69.366">  1  3  2 -1</clus>
</clustering>
</event>
<event>
 6    0  0.2666600E+002  0.7027450E+02  0.7546771E-02  0.1359162E+00
         21   -1    0    0  505  501  0.00000000000E+00  0.00000000000E+00  0.22009366144E+03  0.22009366144E+03  0.00000000000E+00 0.  1.
         21   -1    0    0  504  502 -0.00000000000E+00 -0.00000000000E+00 -0.15259006336E+04  0.15259006336E+04  0.00000000000E+00 0.  1.
         21    1    1    2  503  501 -0.43422669278E+02 -0.67666257475E+01  0.10043542822E+02  0.45079797955E+02  0.00000000000E+00 0.  1.
         21    1    1    2  504  503  0.29709469251E+02 -0.18763085882E+02 -0.19200746003E+03  0.19519623629E+03  0.00000000000E+00 0.  1.
         21    1    1    2  505  506  0.10022561071E+03 -0.32369301374E+02  0.17416920933E+03  0.20353834575E+03  0.00000000000E+00 0.  1.
         21    1    1    2  506  502 -0.86512410680E+02  0.57899013003E+02 -0.12980122643E+04  0.13021799150E+04  0.00000000000E+00 0.  1.
<scales pt_clust_3="43.59979" pt_clust_4="35.13838" pt_clust_5="14000.00000" pt_clust_6="70.27450"></scales>
<clustering>
<clus scale="   35.138">  2  4  1 -1</clus>
<clus scale="   43.600">  1  3  2 -1</clus>
<clus scale="   70.275">  2  6  1 -1</clus>
<clus scale="   43.600">  1  3  2 -1</clus>
</clustering>
</event>
<event>
 6    0  0.2666600E+002  0.1169688E+03  0.7546771E-02  0.1248183E+00
         21   -1    0    0  505  501  0.00000000000E+00  0.00000000000E+00  0.61697400605E+02  0.61697400605E+02  0.00000000000E+00 0.  1.
         21   -1    0    0  506  502 -0.00000000000E+00 -0.00000000000E+00 -0.55981513262E+03  0.55981513262E+03  0.00000000000E+00 0. -1.
         21    1    1    2  503  501  0.81083581716E+01  0.47437445076E+02  0.60734339351E+01  0.48507146559E+02  0.00000000000E+00 0.  1.
         21    1    1    2  504  503  0.53802340123E+02 -0.13405712124E+02 -0.23759628255E+03  0.24398032380E+03  0.00000000000E+00 0. -1.
         21    1    1    2  505  502 -0.11467961172E+03 -0.50739203292E+02 -0.12529221964E+03  0.17726821598E+03  0.00000000000E+00 0.  1.
         21    1    1    2  506  504  0.52768913429E+02  0.16707470340E+02 -0.14130266376E+03  0.15175684688E+03  0.00000000000E+00 0. -1.
<scales pt_clust_3="48.12543" pt_clust_4="40.89307" pt_clust_5="109.57435" pt_clust_6="40.89307"></scales>
<clustering>
<clus scale="   40.893">  4  6 -1 -1</clus>
<clus scale="   48.125">  1  3  2 -1</clus>
<clus scale="  109.574">  1  5  2 -1</clus>
<clus scale="   48.125">  1  3  2 -1</clus>
</clustering>
</event>
<event>
 6    0  0.2666600E+002  0.1411337E+03  0.7546771E-02  0.1211812E+00
         21   -1    0    0  505  501  0.00000000000E+00  0.00000000000E+00  0.85229314644E+03  0.85229314644E+03  0.00000000000E+00 0. -1.
         21   -1    0    0  506  502 -0.00000000000E+00 -0.00000000000E+00 -0.17408124520E+04  0.17408124520E+04  0.00000000000E+00 0.  1.
         21    1    1    2  503  502 -0.73018921271E+02  0.20301914896E+02 -0.16576736386E+04  0.16594052617E+04  0.00000000000E+00 0.  1.
         21    1    1    2  504  501  0.12269082270E+03  0.29122291830E+02  0.61768086035E+03  0.63042112203E+03  0.00000000000E+00 0. -1.
         21    1    1    2  505  503  0.15599710884E+02 -0.63455245591E+02  0.20660702681E+03  0.21669421473E+03  0.00000000000E+00 0. -1.
         21    1    1    2  506  504 -0.65271612317E+02  0.14031038865E+02 -0.55133554132E+02  0.86584999955E+02  0.00000000000E+00 0. -1.
<scales pt_clust_3="14000.00000" pt_clust_4="141.13371" pt_clust_5="65.34462" pt_clust_6="66.07668"></scales>
<clustering>
<clus scale="   65.345">  1  5  2 -1</clus>
<clus scale="   66.077">  2  6  1 -1</clus>
<clus scale="  141.134">  1  4  2 -1</clus>
<clus scale="   65.345">  1  3  2 -1</clus>
</clustering>
</event>
<event>
 6    0  0.2666600E+002  0.8464845E+02  0.7546771E-02  0.1316354E+00
         21   -1    0    0  504  501  0.00000000000E+00  0.00000000000E+00  0.78540426547E+03  0.78540426547E+03  0.00000000000E+00 0. -1.
         21   -1    0    0  505  502 -0.00000000000E+00 -0.00000000000E+00 -0.48736581167E+03  0.48736581167E+03  0.00000000000E+00 0.  1.
         21    1    1    2  503  502  0.19841412081E+02  0.62928347541E+02 -0.22920509768E+03  0.23851338612E+03  0.00000000000E+00 0. -1.
         21    1    1    2  504  506 -0.80451761324E+02  0.76601405538E+00  0.27539685058E+03  0.28690851850E+03  0.00000000000E+00 0. -1.
         21    1    1    2  505  501  0.64363067582E+01  0.41211263678E+02  0.48458389490E+03  0.48637572462E+03  0.00000000000E+00 0. -1.
         21    1    1    2  506  503  0.54174042485E+02 -0.10490562527E+03 -0.23273719400E+03  0.26097244791E+03  0.00000000000E+00 0.  1.
<scales pt_clust_3="66.62227" pt_clust_4="14000.00000" pt_clust_5="41.71084" pt_clust_6="84.64845"></scales>
<clustering>
<clus scale="   41.711">  1  5  2 -1</clus>
<clus scale="   66.622">  2  3  1 -1</clus>
<clus scale="   84.648">  2  6  1 -1</clus>
<clus scale="   41.711">  1  3  2 -1</clus>
</clustering>
</event>
<event>
 6    0  0.2666600E+002  0.1342212E+03  0.7546771E-02  0.1221323E+00
         21   -1    0    0  506  501  0.00000000000E+00  0.00000000000E+00  0.23230280829E+03  0.23230280829E+03  0.00000000000E+00 0. -1.
         21   -1    0    0  504  502 -0.00000000000E+00 -0.00000000000E+00 -0.26084114581E+03  0.26084114581E+03  0.00000000000E+00 0.  1.
         21    1    1    2  503  501  0.11942191856E+03  0.62664689789E+02  0.13555804367E+03  0.19121830766E+03  0.00000000000E+00 0. -1.
         21    1    1    2  504  503 -0.43032696921E+02  0.10797638260E+02 -0.74088188422E+01  0.44981024810E+02  0.00000000000E+00 0.  1.
         21    1    1    2  505  502 -0.60678513077E+02 -0.10462200149E+03 -0.17863015368E+03  0.21572291707E+03  0.00000000000E+00 0.  1.
         21    1    1    2  506  505 -0.15710708561E+02  0.31159673442E+02  0.21942591334E+02  0.41221704561E+02  0.00000000000E+00 0. -1.
<scales pt_clust_3="134.22117" pt_clust_4="46.56823" pt_clust_5="14000.00000" pt_clust_6="34.89630"></scales>
<clustering>
<clus scale="   34.896">  1  6  2 -1</clus>
<clus scale="   46.568">  2  4  1 -1</clus>
<clus scale="  134.221">  1  3  2 -1</clus>
<clus scale="   34.896">  1  3  2 -1</clus>
</clustering>
</event>
<event>
 6    0  0.2666600E+002  0.1234217E+03  0.7546771E-02  0.1237557E+00
         21   -1    0    0  506  501  0.00000000000E+00  0.00000000000E+00  0.10501074367E+04  0.10501074367E+04  0.00000000000E+00 0.  1.
         21   -1    0    0  503  502 -0.00000000000E+00 -0.00000000000E+00 -0.15028831093E+03  0.15028831093E+03  0.00000000000E+00 0.  1.
         21    1    1    2  503  501 -0.64678234082E+02  0.61377985703E+01 -0.63685153899E+01  0.65280200088E+02  0.00000000000E+00 0. -1.
         21    1    1    2  504  505  0.89529914368E+02 -0.37339632467E+02  0.29911355887E+03  0.31444995598E+03  0.00000000000E+00 0. -1.
         21    1    1    2  505  502 -0.71810578309E+02  0.82346214987E+01 -0.93479110935E+02  0.11816476772E+03  0.00000000000E+00 0.  1.
         21    1    1    2  506  504  0.46958898022E+02  0.22967212398E+02  0.70055319326E+03  0.70250082387E+03  0.00000000000E+00 0.  1.
<scales pt_clust_3="61.24524" pt_clust_4="14000.00000" pt_clust_5="123.42168" pt_clust_6="52.27457"></scales>
<clustering>
<clus scale="   52.275">  1  6  2 -1</clus>
<clus scale="   61.245">  2  3  1 -1</clus>
<clus scale="  123.422">  2  5  1 -1</clus>
<clus scale="   52.275">  1  3  2 -1</clus>
</clustering>
</event>
<event>
 6    0  0.2666600E+002  0.8935806E+02  0.7546771E-02  0.1304414E+00
         21   -1    0    0  503  501  0.00000000000E+00  0.00000000000E+00  0.25390271823E+04  0.25390271823E+04  0.00000000000E+00 0. -1.
         21   -1    0    0  506  502 -0.00000000000E+00 -0.00000000000E+00 -0.40961084515E+02  0.40961084515E+02  0.00000000000E+00 0.  1.
         21    1    1    2  503  504 -0.28691179450E+02 -0.81397308319E+02  0.20222068227E+04  0.20240477117E+04  0.00000000000E+00 0. -1.
         21    1    1    2  504  502 -0.21672477084E+02  0.33341185646E+02  0.11379566733E+03  0.12054370505E+03  0.00000000000E+00 0.  1.
         21    1    1    2  505  501  0.68598639019E+02 -0.58252159932E+01  0.37142220768E+03  0.37774880910E+03  0.00000000000E+00 0. -1.
         21    1    1    2  506  505 -0.18234982486E+02  0.53881338666E+02 -0.93585998454E+01  0.57648041023E+02  0.00000000000E+00 0.  1.
<scales pt_clust_3="14000.00000" pt_clust_4="39.76595" pt_clust_5="66.84292" pt_clust_6="89.35806"></scales>
<clustering>
<clus scale="   39.766">  2  4  1 -1</clus>
<clus scale="   66.843">  1  5  2 -1</clus>
<clus scale="   89.358">  2  6  1 -1</clus>
<clus scale="   66.843">  1  3  2 -1</clus>
</clustering>
</event>
<event>
 6    0  0.2666600E+002  0.1159273E+03  0.7546771E-02  0.1249971E+00
         21   -1    0    0  505  501  0.00000000000E+00  0.00000000000E+00  0.23545121210E+03  0.23545121210E+03  0.00000000000E+00 0.  1.
         21   -1    0    0  504  502 -0.00000000000E+00 -0.00000000000E+00 -0.88955457903E+02  0.88955457903E+02  0.00000000000E+00 0.  1.
         21    1    1    2  503  506  0.36182683384E+02  0.34592943886E+02  0.13172698424E+02  0.51762711746E+02  0.00000000000E+00 0.  1.
         21    1    1    2  504  503  0.54264498334E+02 -0.14538818508E+02  0.27967370825E+02  0.62754974734E+02  0.00000000000E+00 0. -1.
         21    1    1    2  505  502 -0.85134043440E+02 -0.78235527846E+02  0.96897000065E+02  0.15085632831E+03  0.00000000000E+00 0.  1.
         21    1    1    2  506  501 -0.53131382779E+01  0.58181402467E+02  0.84586848841E+01  0.59032655212E+02  0.00000000000E+00 0.  1.
<scales pt_clust_3="43.88473" pt_clust_4="56.17840" pt_clust_5="105.78964" pt_clust_6="43.88473"></scales>
<clustering>
<clus scale="   43.885">  3  6 -1 -1</clus>
<clus scale="   56.178">  2  4  1 -1</clus>
<clus scale="  105.790">  1  5  2 -1</clus>
<clus scale="  105.790">  1  3  2 -1</clus>
</clustering>
</event>
<event>
 6    0  0.2666600E+002  0.6965458E+02  0.7546771E-02  0.1361272E+00
         21   -1    0    0  503  501  0.00000000000E+00  0.00000000000E+00  0.84486966030E+03  0.84486966030E+03  0.00000000000E+00 0. -1.
         21   -1    0    0  506  502 -0.00000000000E+00 -0.00000000000E+00 -0.32261111988E+02  0.32261111988E+02  0.00000000000E+00 0. -1.
         21    1    1    2  503  505 -0.10293795116E+00  0.70583320120E+02  0.50196000673E+03  0.50689827780E+03  0.00000000000E+00 0. -1.
         21    1    1    2  504  502 -0.11586575561E+02  0.42696267405E+02  0.65475660585E+02  0.79020770134E+02  0.00000000000E+00 0.  1.
         21    1    1    2  505  504 -0.39293511796E+02 -0.51119753995E+02  0.55013659138E+02  0.84756781496E+02  0.00000000000E+00 0. -1.
         21    1    1    2  506  501  0.50983025308E+02 -0.62159833530E+02  0.19015922186E+03  0.20645494286E+03  0.00000000000E+00 0. -1.
<scales pt_clust_3="14000.00000" pt_clust_4="44.24048" pt_clust_5="52.98889" pt_clust_6="69.65458"></scales>
<clustering>
<clus scale="   44.240">  2  4  1 -1</clus>
<clus scale="   52.989">  2  5  1 -1</clus>
<clus scale="   69.655">  2  6  1 -1</clus>
<clus scale="   69.655">  1  3  2 -1</clus>
</clustering>
</event>
<event>
 6    0  0.2666600E+002  0.1405343E+03  0.7546771E-02  0.1212612E+00
         21   -1    0    0  506  501  0.00000000000E+00  0.00000000000E+00  0.13375633337E+03  0.13375633337E+03  0.00000000000E+00 0.  1.
         21   -1    0    0  503  502 -0.00000000000E+00 -0.00000000000E+00 -0.21367548379E+04  0.21367548379E+04  0.00000000000E+00 0. -1.
         21    1    1    2  503  501  0.10134597290E+02  0.10992339632E+03  0.10040377437E+03  0.14922057844E+03  0.00000000000E+00 0.  1.
         21    1    1    2  504  505  0.19644699958E+02 -0.66016803409E+02 -0.13494780563E+04  0.13512346787E+04  0.00000000000E+00 0. -1.
         21    1    1    2  505  502  0.13497802227E+02 -0.63862318068E+02 -0.67287864542E+03  0.67603717190E+03  0.00000000000E+00 0. -1.
         21    1    1    2  506  504 -0.43277099475E+02  0.19955725153E+02 -0.81045577208E+02  0.94018742229E+02  0.00000000000E+00 0.  1.
<scales pt_clust_3="133.46299" pt_clust_4="42.84999" pt_clust_5="42.84999" pt_clust_6="47.65646"></scales>
<clustering>
<clus scale="   42.850">  4  5 -1 -1</clus>
<clus scale="   47.656">  1  6  2 -1</clus>
<clus scale="  133.463">  1  3  2 -1</clus>
<clus scale="   47.656">  1  3  2 -1</clus>
</clustering>
</event>
<event>
 6    0  0.2666600E+002  0.1586391E+03  0.7546771E-02  0.1190242E+00
         21   -1    0    0  506  501  0.00000000000E+00  0.00000000000E+00  0.38143597296E+03  0.38143597296E+03  0.00000000000E+00 0.  1.
         21   -1    0    0  503  502 -0.00000000000E+00 -0.00000000000E+00 -0.45557564922E+03  0.45557564922E+03  0.00000000000E+00 0. -1.
         21    1    1    2  503  504 -0.38294198401E+01 -0.38516118711E+02 -0.47940510015E+02  0.61615325669E+02  0.00000000000E+00 0. -1.
         21    1    1    2  504  505 -0.41237276644E+02  0.32475566867E+02  0.13965322916E+03  0.14919182230E+03  0.00000000000E+00 0.  1.
         21    1    1    2  505  501  0.79905798168E+01  0.10595965471E+03  0.21009725660E+03  0.23544034281E+03  0.00000000000E+00 0.  1.
         21    1    1    2  506  502  0.37076116667E+02 -0.99919102867E+02 -0.37594965200E+03  0.39076413140E+03  0.00000000000E+00 0. -1.
<scales pt_clust_3="38.70602" pt_clust_4="51.56954" pt_clust_5="51.56954" pt_clust_6="140.78183"></scales>
<clustering>
<clus scale="   38.706">  2  3  1 -1</clus>
<clus scale="   51.570">  4  5 -1 -1</clus>
<clus scale="  140.782">  2  6  1 -1</clus>
<clus scale="  158.639">  1  3  2 -1</clus>
</clustering>
</event>
<event>
 6    0  0.2666600E+002  0.9481004E+02  0.7546771E-02  0.1291604E+00
         21   -1    0    0  504  501  0.00000000000E+00  0.00000000000E+00  0.15339571137E+03  0.15339571137E+03  0.00000000000E+00 0.  1.
         21   -1    0    0  503  502 -0.00000000000E+00 -0.00000000000E+00 -0.20049203144E+04  0.20049203144E+04  0.00000000000E+00 0.  1.
         21    1    1    2  503  505  0.19494424692E+02 -0.34844314881E+02 -0.17600796874E+03  0.18047981586E+03  0.00000000000E+00 0.  1.
         21    1    1    2  504  506 -0.16254559595E+02  0.59044423687E+02  0.96455429972E+02  0.11425456073E+03  0.00000000000E+00 0.  1.
         21    1    1    2  505  501  0.88359079025E+02 -0.11083658966E+03 -0.72080787032E+02  0.15902111908E+03  0.00000000000E+00 0.  1.
         21    1    1    2  506  502 -0.91598944122E+02  0.86636480851E+02 -0.16998912772E+04  0.17045605301E+04  0.00000000000E+00 0.  1.
<scales pt_clust_3="39.92692" pt_clust_4="61.05209" pt_clust_5="94.81004" pt_clust_6="14000.00000"></scales>
<clustering>
<clus scale="   39.927">  2  3  1 -1</clus>
<clus scale="   61.052">  1  4  2 -1</clus>
<clus scale="   94.810">  1  5  2 -1</clus>
<clus scale="   61.052">  1  3  2 -1</clus>
</clustering>
</event>
<event>
 6    0  0.2666600E+002  0.1890084E+03  0.7546771E-02  0.1159359E+00
         21   -1    0    0  503  501  0.00000000000E+00  0.00000000000E+00  0.89409960914E+02  0.89409960914E+02  0.00000000000E+00 0. -1.
         21   -1    0    0  506  502 -0.00000000000E+00 -0.00000000000E+00 -0.77485156334E+03  0.77485156334E+03  0.00000000000E+00 0.  1.
         21    1    1    2  503  504  0.46735022426E+02 -0.10769996573E+02  0.66919843688E+01  0.48424557841E+02  0.00000000000E+00 0. -1.
         21    1    1    2  504  505  0.13470491418E+03  0.20628347211E+02 -0.62286109221E+02  0.14983491587E+03  0.00000000000E+00 0. -1.
         21    1    1    2  505  502 -0.57366088601E+01 -0.38055886184E+02 -0.11483976364E+03  0.12111701147E+03  0.00000000000E+00 0. -1.
         21    1    1    2  506  501 -0.17570332775E+03  0.28197535547E+02 -0.51500771394E+03  0.54488503908E+03  0.00000000000E+00 0.  1.
<scales pt_clust_3="33.55075" pt_clust_4="33.55075" pt_clust_5="38.48583" pt_clust_6="180.34885"></scales>
<clustering>
<clus scale="   33.551">  3  4 -1 -1</clus>
<clus scale="   38.486">  2  5  1 -1</clus>
<clus scale="  180.349">  2  6  1 -1</clus>
<clus scale="  189.008">  1  3  2 -1</clus>
</clustering>
</event>
<event>
 6    0  0.2666600E+002  0.9747246E+02  0.7546771E-02  0.1285703E+00
         21   -1    0    0  506  501  0.00000000000E+00  0.00000000000E+00  0.51245100517E+02  0.51245100517E+02  0.00000000000E+00 0. -1.
         21   -1    0    0  505  502 -0.00000000000E+00 -0.00000000000E+00 -0.50682773894E+03  0.50682773894E+03  0.00000000000E+00 0. -1.
         21    1    1    2  503  502  0.41502215537E+02 -0.25552998748E+01 -0.13816869364E+03  0.14428981722E+03  0.00000000000E+00 0. -1.
         21    1    1    2  504  501 -0.65261471529E+02 -0.10801876566E+02 -0.11583366511E+03  0.13339107232E+03  0.00000000000E+00 0. -1.
         21    1    1    2  505  504 -0.53978402521E+02 -0.20980934832E+02 -0.18493854400E+03  0.19379404692E+03  0.00000000000E+00 0. -1.
         21    1    1    2  506  503  0.77737658514E+02  0.34338111272E+02 -0.16641735683E+02  0.86597902997E+02  0.00000000000E+00 0. -1.
<scales pt_clust_3="41.58081" pt_clust_4="34.47904" pt_clust_5="34.47904" pt_clust_6="90.23854"></scales>
<clustering>
<clus scale="   34.479">  4  5 -1 -1</clus>
<clus scale="   41.581">  2  3  1 -1</clus>
<clus scale="   90.239">  1  6  2 -1</clus>
<clus scale="   90.239">  1  3  2 -1</clus>
</clustering>
</event>
<event>
 6    0  0.2666600E+002  0.2641539E+03  0.7546771E-02  0.1104673E+00
         21   -1    0    0  504  501  0.00000000000E+00  0.00000000000E+00  0.10866578477E+04  0.10866578477E+04  0.00000000000E+00 0. -1.
         21   -1    0    0  505  502 -0.00000000000E+00 -0.00000000000E+00 -0.88360641242E+02  0.88360641242E+02  0.00000000000E+00 0.  1.
         21    1    1    2  503  502 -0.81493890301E+02  0.84058851652E+02  0.27168972410E+03  0.29584193564E+03  0.00000000000E+00 0. -1.
         21    1    1    2  504  503 -0.40939644610E+02  0.13331535062E+03  0.54180756988E+03  0.55946803304E+03  0.00000000000E+00 0. -1.
         21    1    1    2  505  506  0.11015450131E+03 -0.16842969453E+03  0.17821750254E+03  0.26881974327E+03  0.00000000000E+00 0.  1.
         21    1    1    2  506  501  0.12279033604E+02 -0.48944507742E+02  0.65824099388E+01  0.50888777004E+02  0.00000000000E+00 0.  1.
<scales pt_clust_3="79.53831" pt_clust_4="79.53831" pt_clust_5="260.88797" pt_clust_6="38.20391"></scales>
<clustering>
<clus scale="   38.204">  5  6 -1 -1</clus>
<clus scale="   79.538">  3  4 -1 -1</clus>
<clus scale="  260.888">  2  5  1 -1</clus>
<clus scale="  264.154">  1  3  2 -1</clus>
</clustering>
</event>
<event>
 6    0  0.2666600E+002  0.1442515E+03  0.7546771E-02  0.1207720E+00
         21   -1    0    0  503  501  0.00000000000E+00  0.00000000000E+00  0.14408493321E+03  0.14408493321E+03  0.00000000000E+00 0. -1.
         21   -1    0    0  504  502 -0.00000000000E+00 -0.00000000000E+00 -0.27237610927E+03  0.27237610927E+03  0.00000000000E+00 0. -1.
         21    1    1    2  503  502 -0.69505641659E+02 -0.36760983783E+02 -0.31571527184E+02  0.84729956213E+02  0.00000000000E+00 0. -1.
         21    1    1    2  504  506  0.89356374532E+02 -0.25001114386E+02 -0.76794658424E+02  0.12044516160E+03  0.00000000000E+00 0. -1.
         21    1    1    2  505  501 -0.95974432469E+02  0.85349813211E+02  0.26259504186E+01  0.12846235993E+03  0.00000000000E+00 0. -1.
         21    1    1    2  506  505  0.76123699595E+02 -0.23587715042E+02 -0.22550940868E+02  0.82823564733E+02  0.00000000000E+00 0. -1.
<scales pt_clust_3="78.62827" pt_clust_4="38.25738" pt_clust_5="138.21867" pt_clust_6="38.25738"></scales>
<clustering>
<clus scale="   38.257">  4  6 -1 -1</clus>
<clus scale="   78.628">  2  3  1 -1</clus>
<clus scale="  138.219">  1  5  2 -1</clus>
<clus scale="  138.219">  1  3  2 -1</clus>
</clustering>
</event>
<event>
 6    0  0.2666600E+002  0.2065017E+03  0.7546771E-02  0.1144367E+00
         21   -1    0    0  504  501  0.00000000000E+00  0.00000000000E+00  0.49588260079E+03  0.49588260079E+03  0.00000000000E+00 0.  1.
         21   -1    0    0  503  502 -0.00000000000E+00 -0.00000000000E+00 -0.14380335503E+04  0.14380335503E+04  0.00000000000E+00 0. -1.
         21    1    1    2  503  501  0.77651360589E+02 -0.26101299085E+02  0.87034723983E+02  0.11952428537E+03  0.00000000000E+00 0. -1.
         21    1    1    2  504  505 -0.53071810649E+02 -0.16189074239E+03  0.36610774551E+03  0.40380702183E+03  0.00000000000E+00 0.  1.
         21    1    1    2  505  506 -0.33036082967E+02  0.28981382431E+02 -0.20280270778E+03  0.20750961806E+03  0.00000000000E+00 0.  1.
         21    1    1    2  506  502  0.84565330266E+01  0.15901065904E+03 -0.11924907113E+04  0.12030752259E+04  0.00000000000E+00 0. -1.
<scales pt_clust_3="81.92076" pt_clust_4="188.89747" pt_clust_5="43.82983" pt_clust_6="43.82983"></scales>
<clustering>
<clus scale="   43.830">  5  6 -1 -1</clus>
<clus scale="   81.921">  1  3  2 -1</clus>
<clus scale="  188.897">  1  4  2 -1</clus>
<clus scale="   81.921">  1  3  2 -1</clus>
</clustering>
</event>
<event>
 6    0  0.2666600E+002  0.1476570E+03  0.7546771E-02  0.1203382E+00
         21   -1    0    0  505  501  0.00000000000E+00  0.00000000000E+00  0.82128829288E+03  0.82128829288E+03  0.00000000000E+00 0. -1.
         21   -1    0    0  501  502 -0.00000000000E+00 -0.00000000000E+00 -0.14342232367E+03  0.14342232367E+03  0.00000000000E+00 0. -1.
         21    1    1    2  503  502 -0.37030677145E+02  0.60093565479E+02 -0.48348173653E+02  0.85557311536E+02  0.00000000000E+00 0. -1.
         21    1    1    2  504  506  0.41200216624E+02 -0.97818925206E+02  0.68253347358E+03  0.69073724565E+03  0.00000000000E+00 0. -1.
         21    1    1    2  505  504 -0.37850056481E+01 -0.33175622761E+02  0.95126066894E+02  0.10081625274E+03  0.00000000000E+00 0. -1.
         21    1    1    2  506  503 -0.38453383164E+00  0.70900982488E+02 -0.51445397609E+02  0.87599806616E+02  0.00000000000E+00 0. -1.
<scales pt_clust_3="38.19226" pt_clust_4="31.94126" pt_clust_5="31.94126" pt_clust_6="141.50841"></scales>
<clustering>
<clus scale="   31.941">  4  5 -1 -1</clus>
<clus scale="   38.192">  3  6 -1 -1</clus>
<clus scale="  141.508">  2  3  1 -1</clus>
<clus scale="  147.657">  1  3  2 -1</clus>
</clustering>
</event>
<event>
 6    0  0.4171256E+002  0.1115436E+03  0.7546771E-02  0.1257738E+00
         21   -1    0    0  505  501  0.00000000000E+00  0.00000000000E+00  0.35407435952E+03  0.35407435952E+03  0.00000000000E+00 0. -1.
         21   -1    0    0  506  502 -0.00000000000E+00 -0.00000000000E+00 -0.63298651420E+03  0.63298651420E+03  0.00000000000E+00 0. -1.
         21    1    1    2  503  504 -0.44970969162E+01  0.66668483544E+02  0.92295749221E+02  0.11394479322E+03  0.00000000000E+00 0. -1.
         21    1    1    2  504  501 -0.24130283020E+02  0.47083816487E+02  0.23053224273E+03  0.23652541358E+03  0.00000000000E+00 0. -1.
         21    1    1    2  505  502  0.30901800263E+02  0.12882079083E+00 -0.78599839602E+01  0.31886003233E+02  0.00000000000E+00 0. -1.
         21    1    1    2  506  503 -0.22744203271E+01 -0.11388112082E+03 -0.59388016266E+03  0.60470466368E+03  0.00000000000E+00 0. -1.
<scales pt_clust_3="111.54356" pt_clust_4="47.26919" pt_clust_5="30.90207" pt_clust_6="14000.00000"></scales>
<clustering>
<clus scale="   30.902">  1  5  2 -1</clus>
<clus scale="   47.269">  1  4  2 -1</clus>
<clus scale="  111.544">  1  3  2 -1</clus>
<clus scale="   30.902">  1  3  2 -1</clus>
</clustering>
</event>
<event>
 6    0  0.2666600E+002  0.1625596E+03  0.7546771E-02  0.1185837E+00
         21   -1    0    0  506  501  0.00000000000E+00  0.00000000000E+00  0.65121521785E+03  0.65121521785E+03  0.00000000000E+00 0.  1.
         21   -1    0    0  504  502 -0.00000000000E+00 -0.00000000000E+00 -0.92395752663E+02  0.92395752663E+02  0.00000000000E+00 0. -1.
         21    1    1    2  503  502 -0.60499915019E+01  0.38055420359E+02  0.23680852035E+03  0.23992309752E+03  0.00000000000E+00 0.  1.
         21    1    1    2  504  505  0.55267561028E+02 -0.61888879231E+02  0.63231127023E+01  0.83214893071E+02  0.00000000000E+00 0. -1.
         21    1    1    2  505  501  0.83847093826E+01 -0.76236626779E+02 -0.77079829783E+01  0.77082680387E+02  0.00000000000E+00 0. -1.
         21    1    1    2  506  503 -0.57602278909E+02  0.10007008565E+03  0.32339581511E+03  0.34339029953E+03  0.00000000000E+00 0.  1.
<scales pt_clust_3="33.16234" pt_clust_4="160.29159" pt_clust_5="48.67439" pt_clust_6="33.16234"></scales>
<clustering>
<clus scale="   33.162">  3  6 -1 -1</clus>
<clus scale="   48.674">  4  5 -1 -1</clus>
<clus scale="  160.292">  2  4  1 -1</clus>
<clus scale="  162.560">  1  3  2 -1</clus>
</clustering>
</event>
<event>
 6    0  0.2666600E+002  0.1535084E+03  0.7546771E-02  0.1196227E+00
         21   -1    0    0  502  501  0.00000000000E+00  0.00000000000E+00  0.12746731840E+03  0.12746731840E+03  0.00000000000E+00 0.  1.
         21   -1    0    0  504  502 -0.00000000000E+00 -0.00000000000E+00 -0.38498558839E+03  0.38498558839E+03  0.00000000000E+00 0.  1.
         21    1    1    2  503  501  0.34754297925E+02  0.37889760574E+02 -0.15202529201E+02  0.53615408930E+02  0.00000000000E+00 0.  1.
         21    1    1    2  504  505 -0.30367985059E+02  0.37675420197E+02 -0.32713439436E+02  0.58410794579E+02  0.00000000000E+00 0. -1.
         21    1    1    2  505  506 -0.14347282675E+03 -0.54692388509E+02 -0.20955033759E+03  0.25978270412E+03  0.00000000000E+00 0.  1.
         21    1    1    2  506  503  0.13908651388E+03 -0.20872792262E+02 -0.51963761871E-01  0.14064399917E+03  0.00000000000E+00 0.  1.
<scales pt_clust_3="52.37368" pt_clust_4="48.39062" pt_clust_5="153.50839" pt_clust_6="14000.00000"></scales>
<clustering>
<clus scale="   48.391">  2  4  1 -1</clus>
<clus scale="   52.374">  1  3  2 -1</clus>
<clus scale="  153.508">  2  5  1 -1</clus>
<clus scale="   52.374">  1  3  2 -1</clus>
</clustering>
</event>
<event>
 6    0  0.2666600E+002  0.1537063E+03  0.7546771E-02  0.1195991E+00
         21   -1    0    0  505  501  0.00000000000E+00  0.00000000000E+00  0.52229547721E+03  0.52229547721E+03  0.00000000000E+00 0.  1.
         21   -1    0    0  506  502 -0.00000000000E+00 -0.00000000000E+00 -0.77214836938E+02  0.77214836938E+02  0.00000000000E+00 0.  1.
         21    1    1    2  503  501 -0.11904562559E+03 -0.68537507338E+02  0.27168991191E+03  0.30444155288E+03  0.00000000000E+00 0.  1.
         21    1    1    2  504  503  0.63130442861E+02 -0.10353103677E+02  0.69080239135E+02  0.94152636769E+02  0.00000000000E+00 0.  1.
         21    1    1    2  505  502 -0.46236987391E+02  0.41817393210E+02  0.46885160509E+02  0.78004946342E+02  0.00000000000E+00 0.  1.
         21    1    1    2  506  504  0.10215217012E+03  0.37073217805E+02  0.57425328722E+02  0.12291117816E+03  0.00000000000E+00 0.  1.
<scales pt_clust_3="143.33490" pt_clust_4="42.58633" pt_clust_5="62.34223" pt_clust_6="42.58633"></scales>
<clustering>
<clus scale="   42.586">  4  6 -1 -1</clus>
<clus scale="   62.342">  2  5  1 -1</clus>
<clus scale="  143.335">  1  3  2 -1</clus>
<clus scale="  143.335">  1  3  2 -1</clus>
</clustering>
</event>
<event>
 6    0  0.2666600E+002  0.1491751E+03  0.7546771E-02  0.1201490E+00
         21   -1    0    0  506  501  0.00000000000E+00  0.00000000000E+00  0.27300079263E+03  0.27300079263E+03  0.00000000000E+00 0.  1.
         21   -1    0    0  503  502 -0.00000000000E+00 -0.00000000000E+00 -0.19932623099E+04  0.19932623099E+04  0.00000000000E+00 0. -1.
         21    1    1    2  503  505  0.17253619643E+02  0.33799391119E+02 -0.77089937259E+03  0.77183283740E+03  0.00000000000E+00 0. -1.
         21    1    1    2  504  502 -0.48812334644E+02 -0.56152025548E+02  0.15631807063E+03  0.17312144059E+03  0.00000000000E+00 0.  1.
         21    1    1    2  505  501  0.10332179387E+03  0.29198540557E+02 -0.11987705661E+04  0.12035691995E+04  0.00000000000E+00 0. -1.
         21    1    1    2  506  504 -0.71763078871E+02 -0.68459061278E+01  0.93090350723E+02  0.11773962509E+03  0.00000000000E+00 0.  1.
<scales pt_clust_3="37.94847" pt_clust_4="61.39746" pt_clust_5="135.51669" pt_clust_6="61.39746"></scales>
<clustering>
<clus scale="   37.948">  2  3  1 -1</clus>
<clus scale="   61.397">  4  6 -1 -1</clus>
<clus scale="  135.517">  2  5  1 -1</clus>
<clus scale="  149.175">  1  3  2 -1</clus>
</clustering>
</event>
<event>
 6    0  0.2666600E+002  0.1176951E+03  0.7546771E-02  0.1246949E+00
         21   -1    0    0  506  501  0.00000000000E+00  0.00000000000E+00  0.27591090035E+03  0.27591090035E+03  0.00000000000E+00 0. -1.
         21   -1    0    0  503  502 -0.00000000000E+00 -0.00000000000E+00 -0.10798340581E+04  0.10798340581E+04  0.00000000000E+00 0. -1.
         21    1    1    2  503  504 -0.28151094395E+02 -0.43017386573E+02 -0.40967767028E+03  0.41289075212E+03  0.00000000000E+00 0. -1.
         21    1    1    2  504  505 -0.86608062089E+02  0.10264490622E+02 -0.64539295483E+03  0.65125907466E+03  0.00000000000E+00 0. -1.
         21    1    1    2  505  501  0.92835798827E+02  0.53818442623E+02  0.23213200958E+03  0.25573458934E+03  0.00000000000E+00 0. -1.
         21    1    1    2  506  502  0.21923357657E+02 -0.21065546673E+02  0.19015457718E+02  0.35860542380E+02  0.00000000000E+00 0. -1.
<scales pt_clust_3="51.44663" pt_clust_4="117.69507" pt_clust_5="14000.00000" pt_clust_6="30.40380"></scales>
<clustering>
<clus scale="   30.404">  1  6  2 -1</clus>
<clus scale="   51.447">  2  3  1 -1</clus>
<clus scale="  117.695">  2  4  1 -1</clus>
<clus scale="   30.404">  1  3  2 -1</clus>
</clustering>
</event>
<event>
 6    0  0.2666600E+002  0.1808333E+03  0.7546771E-02  0.1166999E+00
         21   -1    0    0  506  501  0.00000000000E+00  0.00000000000E+00  0.25324317799E+03  0.25324317799E+03  0.00000000000E+00 0. -1.
         21   -1    0    0  505  502 -0.00000000000E+00 -0.00000000000E+00 -0.60420497545E+03  0.60420497545E+03  0.00000000000E+00 0.  1.
         21    1    1    2  503  504 -0.12992413757E+03 -0.21408777326E+02 -0.43427664750E+03  0.45380042291E+03  0.00000000000E+00 0.  1.
         21    1    1    2  504  501  0.36638872791E+02 -0.33763153898E+01 -0.12613847688E+02  0.38896216506E+02  0.00000000000E+00 0. -1.
         21    1    1    2  505  503 -0.34882954996E+02 -0.33853891649E+02 -0.10708846203E+03  0.11760461398E+03  0.00000000000E+00 0. -1.
         21    1    1    2  506  502  0.12816821978E+03  0.58638984365E+02  0.20301715976E+03  0.24714690005E+03  0.00000000000E+00 0. -1.
<scales pt_clust_3="34.43570" pt_clust_4="36.79411" pt_clust_5="34.43570" pt_clust_6="171.72218"></scales>
<clustering>
<clus scale="   34.436">  3  5 -1 -1</clus>
<clus scale="   36.794">  1  4  2 -1</clus>
<clus scale="  171.722">  1  6  2 -1</clus>
<clus scale="   36.794">  1  3  2 -1</clus>
</clustering>
</event>
<event>
 6    0  0.2666600E+002  0.2344986E+03  0.7546771E-02  0.1123513E+00
         21   -1    0    0  504  501  0.00000000000E+00  0.00000000000E+00  0.89925391952E+03  0.89925391952E+03  0.00000000000E+00 0. -1.
         21   -1    0    0  505  502 -0.00000000000E+00 -0.00000000000E+00 -0.11728693821E+03  0.11728693821E+03  0.00000000000E+00 0.  1.
         21    1    1    2  503  502 -0.62952538363E+02 -0.27873247063E+02  0.23119200130E+02  0.72625322050E+02  0.00000000000E+00 0.  1.
         21    1    1    2  504  503 -0.17867315493E+03 -0.11214563820E+03  0.55039951141E+03  0.58944072020E+03  0.00000000000E+00 0. -1.
         21    1    1    2  505  506  0.15064735505E+03  0.76310867427E+02  0.16224155945E+03  0.23418005398E+03  0.00000000000E+00 0.  1.
         21    1    1    2  506  501  0.90978338250E+02  0.63708017834E+02  0.46206710302E+02  0.12029476150E+03  0.00000000000E+00 0.  1.
<scales pt_clust_3="68.84722" pt_clust_4="225.33567" pt_clust_5="52.64181" pt_clust_6="52.64181"></scales>
<clustering>
<clus scale="   52.642">  5  6 -1 -1</clus>
<clus scale="   68.847">  2  3  1 -1</clus>
<clus scale="  225.336">  1  4  2 -1</clus>
<clus scale="  225.336">  1  3  2 -1</clus>
</clustering>
</event>
<event>
 6    0  0.2666600E+002  0.1448387E+03  0.7546771E-02  0.1206962E+00
         21   -1    0    0  502  501  0.00000000000E+00  0.00000000000E+00  0.17973448185E+04  0.17973448185E+04  0.00000000000E+00 0. -1.
         21   -1    0    0  504  502 -0.00000000000E+00 -0.00000000000E+00 -0.29569013581E+03  0.29569013581E+03  0.00000000000E+00 0.  1.
         21    1    1    2  503  505 -0.32234396499E+02 -0.99975645615E+02  0.79996463370E+03  0.80683182957E+03  0.00000000000E+00 0. -1.
         21    1    1    2  504  506  0.30557811323E+02  0.49938729130E+02 -0.41162452922E+02  0.71568177499E+02  0.00000000000E+00 0.  1.
         21    1    1    2  505  501 -0.83168629839E+01 -0.42228426086E+02  0.96911968542E+03  0.97007493260E+03  0.00000000000E+00 0. -1.
         21    1    1    2  506  503  0.99934481604E+01  0.92265342570E+02 -0.22626718350E+03  0.24456001467E+03  0.00000000000E+00 0.  1.
<scales pt_clust_3="14000.00000" pt_clust_4="57.80555" pt_clust_5="43.03963" pt_clust_6="144.83872"></scales>
<clustering>
<clus scale="   43.040">  1  5  2 -1</clus>
<clus scale="   57.806">  2  4  1 -1</clus>
<clus scale="  144.839">  2  6  1 -1</clus>
<clus scale="   43.040">  1  3  2 -1</clus>
</clustering>
</event>
<event>
 6    0  0.2666600E+002  0.8879971E+02  0.7546771E-02  0.1305785E+00
         21   -1    0    0  504  501  0.00000000000E+00  0.00000000000E+00  0.37787424952E+02  0.37787424952E+02  0.00000000000E+00 0.  1.
         21   -1    0    0  506  502 -0.00000000000E+00 -0.00000000000E+00 -0.66026211061E+03  0.66026211061E+03  0.00000000000E+00 0.  1.
         21    1    1    2  503  502 -0.52496420997E+02  0.30684529500E+02 -0.19420627834E+03  0.20350305431E+03  0.00000000000E+00 0.  1.
         21    1    1    2  504  503 -0.20856902883E+02 -0.39330235869E+02 -0.79348926661E+02  0.90984229478E+02  0.00000000000E+00 0. -1.
         21    1    1    2  505  501  0.64378509146E+02 -0.68331332159E+02 -0.78875160548E+02  0.12261751240E+03  0.00000000000E+00 0.  1.
         21    1    1    2  506  505  0.89748147344E+01  0.76977038528E+02 -0.27004432011E+03  0.28094473937E+03  0.00000000000E+00 0.  1.
<scales pt_clust_3="60.88323" pt_clust_4="44.51829" pt_clust_5="88.79971" pt_clust_6="14000.00000"></scales>
<clustering>
<clus scale="   44.518">  1  4  2 -1</clus>
<clus scale="   60.883">  2  3  1 -1</clus>
<clus scale="   88.800">  1  5  2 -1</clus>
<clus scale="   44.518">  1  3  2 -1</clus>
</clustering>
</event>
<event>
 6    0  0.2666600E+002  0.1189615E+03  0.7546771E-02  0.1244820E+00
         21   -1    0    0  506  501  0.00000000000E+00  0.00000000000E+00  0.85386899782E+03  0.85386899782E+03  0.00000000000E+00 0. -1.
         21   -1    0    0  503  502 -0.00000000000E+00 -0.00000000000E+00 -0.12713317128E+04  0.12713317128E+04  0.00000000000E+00 0. -1.
         21    1    1    2  503  504 -0.81971638972E+02  0.19790591535E+02 -0.43778599993E+03  0.44583359995E+03  0.00000000000E+00 0. -1.
         21    1    1    2  504  501  0.94041988297E+02 -0.52293858064E+02  0.70417660534E+03  0.71235049987E+03  0.00000000000E+00 0. -1.
         21    1    1    2  505  502 -0.34573052772E+02  0.72798776306E+01 -0.82303300244E+03  0.82379100244E+03  0.00000000000E+00 0. -1.
         21    1    1    2  506  505  0.22502703447E+02  0.25223388898E+02  0.13917968202E+03  0.14322560839E+03  0.00000000000E+00 0. -1.
<scales pt_clust_3="118.96146" pt_clust_4="14000.00000" pt_clust_5="35.32224" pt_clust_6="33.80223"></scales>
<clustering>
<clus scale="   33.802">  1  6  2 -1</clus>
<clus scale="   35.322">  2  5  1 -1</clus>
<clus scale="  118.961">  2  3  1 -1</clus>
<clus scale="   33.802">  1  3  2 -1</clus>
</clustering>
</event>
<event>
 6    0  0.2666600E+002  0.1502668E+03  0.7546771E-02  0.1200146E+00
         21   -1    0    0  505  501  0.00000000000E+00  0.00000000000E+00  0.35208448241E+03  0.35208448241E+03  0.00000000000E+00 0.  1.
         21   -1    0    0  506  502 -0.00000000000E+00 -0.00000000000E+00 -0.94085312971E+03  0.94085312971E+03  0.00000000000E+00 0. -1.
         21    1    1    2  503  502  0.27858933109E+02 -0.22598670777E+02  0.55211766427E+02  0.65841926056E+02  0.00000000000E+00 0.  1.
         21    1    1    2  504  501 -0.13230287735E+02  0.78860188628E+02 -0.14383888917E+03  0.16457094489E+03  0.00000000000E+00 0. -1.
         21    1    1    2  505  503 -0.12740220289E+00 -0.11905540859E+03  0.26717804062E+03  0.29250352466E+03  0.00000000000E+00 0.  1.
         21    1    1    2  506  504 -0.14501243171E+02  0.62793890739E+02 -0.76731956519E+03  0.77002121652E+03  0.00000000000E+00 0. -1.
<scales pt_clust_3="33.12352" pt_clust_4="137.61809" pt_clust_5="33.12352" pt_clust_6="64.44656"></scales>
<clustering>
<clus scale="   33.124">  3  5 -1 -1</clus>
<clus scale="   64.447">  2  6  1 -1</clus>
<clus scale="  137.618">  2  4  1 -1</clus>
<clus scale="  150.267">  1  3  2 -1</clus>
</clustering>
</event>
<event>
 6    0  0.2666600E+002  0.1168288E+03  0.7546771E-02  0.1248422E+00
         21   -1    0    0  504  501  0.00000000000E+00  0.00000000000E+00  0.45232005704E+03  0.45232005704E+03  0.00000000000E+00 0. -1.
         21   -1    0    0  503  502 -0.00000000000E+00 -0.00000000000E+00 -0.50386666476E+03  0.50386666476E+03  0.00000000000E+00 0. -1.
         21    1    1    2  503  501  0.21019302396E+01 -0.13551779066E+03 -0.36927815355E+03  0.39336477268E+03  0.00000000000E+00 0. -1.
         21    1    1    2  504  506 -0.67969016415E+01  0.48362424857E+02  0.28804075246E+03  0.29215166796E+03  0.00000000000E+00 0. -1.
         21    1    1    2  505  502 -0.45907384660E+02  0.22590905392E+02 -0.10280653806E+03  0.11483475624E+03  0.00000000000E+00 0. -1.
         21    1    1    2  506  505  0.50602356062E+02  0.64564460416E+02  0.13249733144E+03  0.15583552492E+03  0.00000000000E+00 0. -1.
<scales pt_clust_3="116.82882" pt_clust_4="48.83771" pt_clust_5="52.20401" pt_clust_6="14000.00000"></scales>
<clustering>
<clus scale="   48.838">  1  4  2 -1</clus>
<clus scale="   52.204">  2  5  1 -1</clus>
<clus scale="  116.829">  2  3  1 -1</clus>
<clus scale="   48.838">  1  3  2 -1</clus>
</clustering>
</event>
<event>
 6    0  0.2666600E+002  0.9101715E+02  0.7546771E-02  0.1300407E+00
         21   -1    0    0  506  501  0.00000000000E+00  0.00000000000E+00  0.25886204653E+03  0.25886204653E+03  0.00000000000E+00 0. -1.
         21   -1    0    0  504  502 -0.00000000000E+00 -0.00000000000E+00 -0.79720546156E+03  0.79720546156E+03  0.00000000000E+00 0. -1.
         21    1    1    2  503  505  0.25879462231E+02 -0.91087579772E+02  0.20167377231E+02  0.96816408003E+02  0.00000000000E+00 0.  1.
         21    1    1    2  504  501  0.17514339960E+02  0.25959694804E+02 -0.10124902597E+03  0.10598123946E+03  0.00000000000E+00 0. -1.
         21    1    1    2  505  502 -0.78352635929E+02 -0.22685059305E+02 -0.64125396146E+03  0.64642121760E+03  0.00000000000E+00 0. -1.
         21    1    1    2  506  503  0.34958833737E+02  0.87812944274E+02  0.18399219517E+03  0.20684864303E+03  0.00000000000E+00 0. -1.
<scales pt_clust_3="91.01715" pt_clust_4="31.31546" pt_clust_5="62.11070" pt_clust_6="14000.00000"></scales>
<clustering>
<clus scale="   31.315">  2  4  1 -1</clus>
<clus scale="   62.111">  2  5  1 -1</clus>
<clus scale="   91.017">  2  3  1 -1</clus>
<clus scale="   91.017">  1  3  2 -1</clus>
</clustering>
</event>
<event>
 6    0  0.2666600E+002  0.1415315E+03  0.7546771E-02  0.1211283E+00
         21   -1    0    0  502  501  0.00000000000E+00  0.00000000000E+00  0.82119285613E+03  0.82119285613E+03  0.00000000000E+00 0. -1.
         21   -1    0    0  505  502 -0.00000000000E+00 -0.00000000000E+00 -0.42087251201E+02  0.42087251201E+02  0.00000000000E+00 0.  1.
         21    1    1    2  503  504  0.58943852656E+02  0.72603812640E+02  0.21770788967E+03  0.23694391024E+03  0.00000000000E+00 0. -1.
         21    1    1    2  504  501  0.34316732941E+02  0.51269784271E+02  0.31089435025E+03  0.31695666259E+03  0.00000000000E+00 0. -1.
         21    1    1    2  505  506 -0.25036212006E+01 -0.69579274682E+02  0.61965689014E+02  0.93205633947E+02  0.00000000000E+00 0. -1.
         21    1    1    2  506  503 -0.90756964397E+02 -0.54294322229E+02  0.18853767599E+03  0.21617390055E+03  0.00000000000E+00 0.  1.
<scales pt_clust_3="46.96384" pt_clust_4="46.96384" pt_clust_5="69.62430" pt_clust_6="129.18150"></scales>
<clustering>
<clus scale="   46.964">  3  4 -1 -1</clus>
<clus scale="   69.624">  2  5  1 -1</clus>
<clus scale="  129.182">  2  6  1 -1</clus>
<clus scale="  141.532">  1  3  2 -1</clus>
</clustering>
</event>
<event>
 6    0  0.2666600E+002  0.7236831E+02  0.7546771E-02  0.1352220E+00
         21   -1    0    0  504  501  0.00000000000E+00  0.00000000000E+00  0.28461295499E+04  0.28461295499E+04  0.00000000000E+00 0. -1.
         21   -1    0    0  506  502 -0.00000000000E+00 -0.00000000000E+00 -0.17557589203E+03  0.17557589203E+03  0.00000000000E+00 0. -1.
         21    1    1    2  503  501 -0.18941391344E+01  0.74891697198E+02  0.27001267219E+04  0.27011657980E+04  0.00000000000E+00 0. -1.
         21    1    1    2  504  505 -0.21365814841E+02 -0.28035694586E+02  0.10568885735E+03  0.11141199568E+03  0.00000000000E+00 0.  1.
         21    1    1    2  505  502 -0.63748240630E+02 -0.22583648348E+02 -0.72418598227E+02  0.99087399427E+02  0.00000000000E+00 0. -1.
         21    1    1    2  506  503  0.87008194606E+02 -0.24272354264E+02 -0.62843323092E+02  0.11004024885E+03  0.00000000000E+00 0. -1.
<scales pt_clust_3="52.52402" pt_clust_4="35.24909" pt_clust_5="72.36831" pt_clust_6="14000.00000"></scales>
<clustering>
<clus scale="   35.249">  1  4  2 -1</clus>
<clus scale="   52.524">  1  3  2 -1</clus>
<clus scale="   72.368">  2  5  1 -1</clus>
<clus scale="   35.249">  1  3  2 -1</clus>
</clustering>
</event>
<event>
 6    0  0.2666600E+002  0.1350380E+03  0.7546771E-02  0.1220166E+00
         21   -1    0    0  505  501  0.00000000000E+00  0.00000000000E+00  0.21601913444E+03  0.21601913444E+03  0.00000000000E+00 0. -1.
         21   -1    0    0  503  502 -0.00000000000E+00 -0.00000000000E+00 -0.12977471731E+04  0.12977471731E+04  0.00000000000E+00 0.  1.
         21    1    1    2  503  504 -0.50772518788E+01  0.10743572466E+03 -0.10740988475E+04  0.10794704941E+04  0.00000000000E+00 0.  1.
         21    1    1    2  504  501  0.67763496492E+02 -0.16694498339E+03  0.76014906188E+02  0.19555251187E+03  0.00000000000E+00 0. -1.
         21    1    1    2  505  506 -0.74828518381E+01  0.47273119228E+02  0.64417816622E+02  0.80252077678E+02  0.00000000000E+00 0. -1.
         21    1    1    2  506  502 -0.55203392775E+02  0.12236139501E+02 -0.14806191392E+03  0.15849122385E+03  0.00000000000E+00 0.  1.
<scales pt_clust_3="135.03804" pt_clust_4="14000.00000" pt_clust_5="47.86168" pt_clust_6="57.20249"></scales>
<clustering>
<clus scale="   47.862">  1  5  2 -1</clus>
<clus scale="   57.202">  2  6  1 -1</clus>
<clus scale="  135.038">  2  3  1 -1</clus>
<clus scale="   47.862">  1  3  2 -1</clus>
</clustering>
</event>
<event>
 6    0  0.2666600E+002  0.1649227E+03  0.7546771E-02  0.1183249E+00
         21   -1    0    0  506  501  0.00000000000E+00  0.00000000000E+00  0.10102675275E+04  0.10102675275E+04  0.00000000000E+00 0.  1.
         21   -1    0    0  503  502 -0.00000000000E+00 -0.00000000000E+00 -0.61795627786E+02  0.61795627786E+02  0.00000000000E+00 0. -1.
         21    1    1    2  503  504 -0.41533817549E+02 -0.45893335660E+02  0.15128612362E+02  0.63719158580E+02  0.00000000000E+00 0. -1.
         21    1    1    2  504  505 -0.10061361872E+03 -0.22215700522E+02  0.66034334469E+02  0.12238125245E+03  0.00000000000E+00 0. -1.
         21    1    1    2  505  501  0.21923426549E+01  0.36826121956E+02  0.15121526058E+03  0.15565032816E+03  0.00000000000E+00 0. -1.
         21    1    1    2  506  502  0.13995509361E+03  0.31282914225E+02  0.71609369229E+03  0.73031241608E+03  0.00000000000E+00 0.  1.
<scales pt_clust_3="43.60366" pt_clust_4="43.60366" pt_clust_5="36.89132" pt_clust_6="154.91378"></scales>
<clustering>
<clus scale="   36.891">  1  5  2 -1</clus>
<clus scale="   43.604">  3  4 -1 -1</clus>
<clus scale="  154.914">  1  6  2 -1</clus>
<clus scale="   36.891">  1  3  2 -1</clus>
</clustering>
</event>
<event>
 6    0  0.2666600E+002  0.1101852E+03  0.7546771E-02  0.1260227E+00
         21   -1    0    0  504  501  0.00000000000E+00  0.00000000000E+00  0.17662359240E+03  0.17662359240E+03  0.00000000000E+00 0.  1.
         21   -1    0    0  505  502 -0.00000000000E+00 -0.00000000000E+00 -0.15464528837E+03  0.15464528837E+03  0.00000000000E+00 0. -1.
         21    1    1    2  503  501 -0.47030272235E+02  0.60443325233E+02  0.15245901163E+02  0.78087640341E+02  0.00000000000E+00 0.  1.
         21    1    1    2  504  506  0.30614281932E+02 -0.75838741352E+02  0.16882101616E+02  0.83509007317E+02  0.00000000000E+00 0.  1.
         21    1    1    2  505  503 -0.22685013449E+02  0.65897202546E+02 -0.57349047638E+02  0.90254996557E+02  0.00000000000E+00 0. -1.
         21    1    1    2  506  502  0.39101003752E+02 -0.50501786427E+02  0.47199348887E+02  0.79417236556E+02  0.00000000000E+00 0.  1.
<scales pt_clust_3="102.58849" pt_clust_4="35.52894" pt_clust_5="69.69255" pt_clust_6="35.52894"></scales>
<clustering>
<clus scale="   35.529">  4  6 -1 -1</clus>
<clus scale="   69.693">  2  5  1 -1</clus>
<clus scale="  102.588">  1  3  2 -1</clus>
<clus scale="  102.588">  1  3  2 -1</clus>
</clustering>
</event>
<event>
 6    0  0.2666600E+002  0.9138877E+02  0.7546771E-02  0.1299523E+00
         21   -1    0    0  503  501  0.00000000000E+00  0.00000000000E+00  0.25338208899E+03  0.25338208899E+03  0.00000000000E+00 0. -1.
         21   -1    0    0  505  502 -0.00000000000E+00 -0.00000000000E+00 -0.10568441134E+03  0.10568441134E+03  0.00000000000E+00 0. -1.
         21    1    1    2  503  506 -0.49682863316E+02 -0.30886072153E+02  0.60256888938E+02  0.83983504480E+02  0.00000000000E+00 0. -1.
         21    1    1    2  504  502 -0.32749624268E+01 -0.93283741357E+02 -0.75152073359E+01  0.93643259884E+02  0.00000000000E+00 0.  1.
         21    1    1    2  505  501 -0.17076542245E+02  0.47303496487E+02  0.25467531445E+02  0.56372193791E+02  0.00000000000E+00 0. -1.
         21    1    1    2  506  504  0.70034367987E+02  0.76866317023E+02  0.69488464609E+02  0.12506754218E+03  0.00000000000E+00 0. -1.
<scales pt_clust_3="57.42709" pt_clust_4="91.38877" pt_clust_5="50.29144" pt_clust_6="14000.00000"></scales>
<clustering>
<clus scale="   50.291">  1  5  2 -1</clus>
<clus scale="   57.427">  1  3  2 -1</clus>
<clus scale="   91.389">  2  4  1 -1</clus>
<clus scale="   50.291">  1  3  2 -1</clus>
</clustering>
</event>
<event>
 6    0  0.2666600E+002  0.6731463E+02  0.7546771E-02  0.1369470E+00
         21   -1    0    0  503  501  0.00000000000E+00  0.00000000000E+00  0.11562735689E+04  0.11562735689E+04  0.00000000000E+00 0.  1.
         21   -1    0    0  504  502 -0.00000000000E+00 -0.00000000000E+00 -0.80033093411E+02  0.80033093411E+02  0.00000000000E+00 0. -1.
         21    1    1    2  503  506  0.72294609781E+01 -0.42490393071E+02  0.43813368451E+03  0.44024859354E+03  0.00000000000E+00 0.  1.
         21    1    1    2  504  505 -0.21384327277E+01 -0.60976966564E+02 -0.12631754966E+02  0.62308302652E+02  0.00000000000E+00 0. -1.
         21    1    1    2  505  501  0.47321885338E+02  0.72260659898E+02  0.64905630588E+01  0.86620385647E+02  0.00000000000E+00 0.  1.
         21    1    1    2  506  502 -0.52412913589E+02  0.31206699737E+02  0.64424798284E+03  0.64712938042E+03  0.00000000000E+00 0.  1.
<scales pt_clust_3="43.10103" pt_clust_4="67.31463" pt_clust_5="14000.00000" pt_clust_6="46.44196"></scales>
<clustering>
<clus scale="   43.101">  1  3  2 -1</clus>
<clus scale="   46.442">  1  6  2 -1</clus>
<clus scale="   67.315">  2  4  1 -1</clus>
<clus scale="   43.101">  1  3  2 -1</clus>
</clustering>
</event>
<event>
 6    0  0.2666600E+002  0.9171358E+02  0.7546771E-02  0.1298754E+00
         21   -1    0    0  505  501  0.00000000000E+00  0.00000000000E+00  0.18485312765E+03  0.18485312765E+03  0.00000000000E+00 0. -1.
         21   -1    0    0  506  502 -0.00000000000E+00 -0.00000000000E+00 -0.53775729100E+03  0.53775729100E+03  0.00000000000E+00 0. -1.
         21    1    1    2  503  502  0.10872502695E+03  0.97119959877E+02 -0.27890434622E+01  0.14581219721E+03  0.00000000000E+00 0. -1.
         21    1    1    2  504  501 -0.47882538369E+02 -0.89309129743E+01  0.72069297388E+02  0.86985529332E+02  0.00000000000E+00 0. -1.
         21    1    1    2  505  503  0.81769343785E+01 -0.32932099402E+02  0.19655361566E+02  0.39213756070E+02  0.00000000000E+00 0. -1.
         21    1    1    2  506  504 -0.69019422959E+02 -0.55256947501E+02 -0.44183977884E+03  0.45059893604E+03  0.00000000000E+00 0. -1.
<scales pt_clust_3="91.71358" pt_clust_4="50.73730" pt_clust_5="33.93207" pt_clust_6="14000.00000"></scales>
<clustering>
<clus scale="   33.932">  1  5  2 -1</clus>
<clus scale="   50.737">  1  4  2 -1</clus>
<clus scale="   91.714">  1  3  2 -1</clus>
<clus scale="   33.932">  1  3  2 -1</clus>
</clustering>
</event>
<event>
 6    0  0.2666600E+002  0.1490624E+03  0.7546771E-02  0.1201630E+00
         21   -1    0    0  506  501  0.00000000000E+00  0.00000000000E+00  0.42304211340E+03  0.42304211340E+03  0.00000000000E+00 0.  1.
         21   -1    0    0  503  502 -0.00000000000E+00 -0.00000000000E+00 -0.40298276865E+03  0.40298276865E+03  0.00000000000E+00 0. -1.
         21    1    1    2  503  501 -0.12957096528E+03 -0.53263871290E+02 -0.32103628493E+03  0.35027128240E+03  0.00000000000E+00 0. -1.
         21    1    1    2  504  502 -0.23155010982E+02  0.28114556676E+02 -0.34958809121E+02  0.50484662679E+02  0.00000000000E+00 0. -1.
         21    1    1    2  505  504  0.10548133855E+03 -0.36083339956E+02  0.28363905638E+03  0.30476127462E+03  0.00000000000E+00 0.  1.
         21    1    1    2  506  505  0.47244637713E+02  0.61232654570E+02  0.92415382421E+02  0.12050766236E+03  0.00000000000E+00 0.  1.
<scales pt_clust_3="149.06240" pt_clust_4="36.42228" pt_clust_5="14000.00000" pt_clust_6="77.66883"></scales>
<clustering>
<clus scale="   36.422">  2  4  1 -1</clus>
<clus scale="   77.669">  1  6  2 -1</clus>
<clus scale="  149.062">  2  3  1 -1</clus>
<clus scale="   77.669">  1  3  2 -1</clus>
</clustering>
</event>
<event>
 6    0  0.2666600E+002  0.1409908E+03  0.7546771E-02  0.1212002E+00
         21   -1    0    0  503  501  0.00000000000E+00  0.00000000000E+00  0.12711349207E+03  0.12711349207E+03  0.00000000000E+00 0.  1.
         21   -1    0    0  504  502 -0.00000000000E+00 -0.00000000000E+00 -0.31191736527E+03  0.31191736527E+03  0.00000000000E+00 0.  1.
         21    1    1    2  503  502  0.26160060109E+02  0.55847585417E+02  0.14388483691E+02  0.63327166404E+02  0.00000000000E+00 0.  1.
         21    1    1    2  504  506  0.69646487228E+02  0.85643378731E+02 -0.14755099211E+03  0.18427348365E+03  0.00000000000E+00 0.  1.
         21    1    1    2  505  501 -0.26144292512E+02 -0.72835949057E+02  0.64795395454E+01  0.77656834462E+02  0.00000000000E+00 0.  1.
         21    1    1    2  506  505 -0.69662254825E+02 -0.68655015091E+02 -0.58120904332E+02  0.11377337283E+03  0.00000000000E+00 0.  1.
<scales pt_clust_3="61.67091" pt_clust_4="122.87514" pt_clust_5="61.49837" pt_clust_6="61.49837"></scales>
<clustering>
<clus scale="   61.498">  5  6 -1 -1</clus>
<clus scale="   61.671">  1  3  2 -1</clus>
<clus scale="  122.875">  2  4  1 -1</clus>
<clus scale="   61.671">  1  3  2 -1</clus>
</clustering>
</event>
<event>
 6    0  0.2666600E+002  0.1242098E+03  0.7546771E-02  0.1236309E+00
         21   -1    0    0  503  501  0.00000000000E+00  0.00000000000E+00  0.84266906507E+03  0.84266906507E+03  0.00000000000E+00 0. -1.
         21   -1    0    0  501  502 -0.00000000000E+00 -0.00000000000E+00 -0.16372358452E+03  0.16372358452E+03  0.00000000000E+00 0.  1.
         21    1    1    2  503  506  0.38323468802E+02  0.39280463141E+02  0.14037819118E+03  0.15072385214E+03  0.00000000000E+00 0. -1.
         21    1    1    2  504  505  0.36590516040E+02 -0.53250993759E+02 -0.43621876054E+02  0.77957695392E+02  0.00000000000E+00 0.  1.
         21    1    1    2  505  502  0.30124412039E+02 -0.45953782160E+02 -0.84142556434E+02  0.10049477647E+03  0.00000000000E+00 0.  1.
         21    1    1    2  506  504 -0.10503839688E+03  0.59924312778E+02  0.66633172185E+03  0.67721632557E+03  0.00000000000E+00 0. -1.
<scales pt_clust_3="54.87844" pt_clust_4="32.33029" pt_clust_5="32.33029" pt_clust_6="119.15961"></scales>
<clustering>
<clus scale="   32.330">  4  5 -1 -1</clus>
<clus scale="   54.878">  1  3  2 -1</clus>
<clus scale="  119.160">  1  6  2 -1</clus>
<clus scale="   54.878">  1  3  2 -1</clus>
</clustering>
</event>
<event>
 6    0  0.2666600E+002  0.1324294E+03  0.7546771E-02  0.1223895E+00
         21   -1    0    0  503  501  0.00000000000E+00  0.00000000000E+00  0.13454544293E+03  0.13454544293E+03  0.00000000000E+00 0. -1.
         21   -1    0    0  506  502 -0.00000000000E+00 -0.00000000000E+00 -0.90628714609E+03  0.90628714609E+03  0.00000000000E+00 0. -1.
         21    1    1    2  503  505 -0.12413471866E+03  0.12257256194E+03 -0.66598383481E+03  0.68845328784E+03  0.00000000000E+00 0. -1.
         21    1    1    2  504  501  0.87796167515E+02 -0.96029253318E+02  0.75386736760E+02  0.15037601073E+03  0.00000000000E+00 0. -1.
         21    1    1    2  505  502  0.26662696203E+02  0.15217979127E+02 -0.13727808686E+03  0.14066897096E+03  0.00000000000E+00 0.  1.
         21    1    1    2  506  504  0.96758549373E+01 -0.41761287751E+02 -0.43866518248E+02  0.61334319484E+02  0.00000000000E+00 0.  1.
<scales pt_clust_3="14000.00000" pt_clust_4="132.42938" pt_clust_5="30.69994" pt_clust_6="42.31188"></scales>
<clustering>
<clus scale="   30.700">  2  5  1 -1</clus>
<clus scale="   42.312">  2  6  1 -1</clus>
<clus scale="  132.429">  1  4  2 -1</clus>
<clus scale="  132.429">  1  3  2 -1</clus>
</clustering>
</event>
<event>
 6    0  0.2666600E+002  0.1321025E+03  0.7546771E-02  0.1224369E+00
         21   -1    0    0  504  501  0.00000000000E+00  0.00000000000E+00  0.15233923006E+04  0.15233923006E+04  0.00000000000E+00 0. -1.
         21   -1    0    0  506  502 -0.00000000000E+00 -0.00000000000E+00 -0.97221963539E+03  0.97221963539E+03  0.00000000000E+00 0. -1.
         21    1    1    2  503  502 -0.25882961375E+02 -0.34289311928E+02 -0.15942385887E+03  0.16511102743E+03  0.00000000000E+00 0. -1.
         21    1    1    2  504  505 -0.39437844251E+02  0.56626551349E+02  0.61750657618E+03  0.62135036936E+03  0.00000000000E+00 0.  1.
         21    1    1    2  505  503  0.48733561874E+01  0.58421628258E+02  0.89701131161E+03  0.89892498542E+03  0.00000000000E+00 0. -1.
         21    1    1    2  506  501  0.60447449438E+02 -0.80758867679E+02 -0.80392136375E+03  0.81022555374E+03  0.00000000000E+00 0. -1.
<scales pt_clust_3="42.96143" pt_clust_4="50.82880" pt_clust_5="50.82880" pt_clust_6="120.03803"></scales>
<clustering>
<clus scale="   42.961">  2  3  1 -1</clus>
<clus scale="   50.829">  4  5 -1 -1</clus>
<clus scale="  120.038">  2  6  1 -1</clus>
<clus scale="  132.102">  1  3  2 -1</clus>
</clustering>
</event>
<event>
 6    0  0.2666600E+002  0.1417627E+03  0.7546771E-02  0.1210977E+00
         21   -1    0    0  503  501  0.00000000000E+00  0.00000000000E+00  0.19981731055E+03  0.19981731055E+03  0.00000000000E+00 0. -1.
         21   -1    0    0  506  502 -0.00000000000E+00 -0.00000000000E+00 -0.39404370551E+03  0.39404370551E+03  0.00000000000E+00 0.  1.
         21    1    1    2  503  504  0.42102632045E+02 -0.26748150865E+02 -0.35441394861E+01  0.50006560815E+02  0.00000000000E+00 0.  1.
         21    1    1    2  504  505 -0.12339579388E+03  0.10367675191E+03 -0.27200605974E+03  0.31616876406E+03  0.00000000000E+00 0.  1.
         21    1    1    2  505  502 -0.16484827268E+02 -0.49386369347E+02 -0.42724829132E+02  0.67351124948E+02  0.00000000000E+00 0.  1.
         21    1    1    2  506  501  0.97777989100E+02 -0.27542231693E+02  0.12404863341E+03  0.16033456623E+03  0.00000000000E+00 0. -1.
<scales pt_clust_3="49.88081" pt_clust_4="141.76268" pt_clust_5="53.01219" pt_clust_6="14000.00000"></scales>
<clustering>
<clus scale="   49.881">  1  3  2 -1</clus>
<clus scale="   53.012">  2  5  1 -1</clus>
<clus scale="  141.763">  2  4  1 -1</clus>
<clus scale="   49.881">  1  3  2 -1</clus>
</clustering>
</event>
<event>
 6    0  0.2666600E+002  0.1485437E+03  0.7546771E-02  0.1202274E+00
         21   -1    0    0  506  501  0.00000000000E+00  0.00000000000E+00  0.14467123293E+03  0.14467123293E+03  0.00000000000E+00 0. -1.
         21   -1    0    0  505  502 -0.00000000000E+00 -0.00000000000E+00 -0.45725716804E+03  0.45725716804E+03  0.00000000000E+00 0. -1.
         21    1    1    2  503  501  0.35155921829E+02  0.18707966624E+02  0.77985223373E+01  0.40580091246E+02  0.00000000000E+00 0.  1.
         21    1    1    2  504  503 -0.14659743679E+02  0.13266449790E+03  0.32873476005E+02  0.13746069443E+03  0.00000000000E+00 0. -1.
         21    1    1    2  505  504 -0.81504153315E+02 -0.15283972295E+03 -0.26488164509E+03  0.31648885261E+03  0.00000000000E+00 0. -1.
         21    1    1    2  506  502  0.61007975165E+02  0.14672584295E+01 -0.88376288366E+02  0.10739876269E+03  0.00000000000E+00 0. -1.
<scales pt_clust_3="39.82370" pt_clust_4="148.54367" pt_clust_5="14000.00000" pt_clust_6="63.85121"></scales>
<clustering>
<clus scale="   39.824">  1  3  2 -1</clus>
<clus scale="   63.851">  2  6  1 -1</clus>
<clus scale="  148.544">  1  4  2 -1</clus>
<clus scale="   39.824">  1  3  2 -1</clus>
</clustering>
</event>
<event>
 6    0  0.2666600E+002  0.1664071E+03  0.7546771E-02  0.1181647E+00
         21   -1    0    0  503  501  0.00000000000E+00  0.00000000000E+00  0.22289454909E+02  0.22289454909E+02  0.00000000000E+00 0.  1.
         21   -1    0    0  506  502 -0.00000000000E+00 -0.00000000000E+00 -0.17010752794E+04  0.17010752794E+04  0.00000000000E+00 0.  1.
         21    1    1    2  503  505  0.84078245754E+02 -0.98016290683E+02 -0.67175655346E+03  0.68405643902E+03  0.00000000000E+00 0.  1.
         21    1    1    2  504  501 -0.12509644457E+03  0.81359402858E+02 -0.43617390673E+03  0.46099473943E+03  0.00000000000E+00 0.  1.
         21    1    1    2  505  502  0.54562181258E+02 -0.13810351594E+02 -0.28370666298E+03  0.28923559265E+03  0.00000000000E+00 0.  1.
         21    1    1    2  506  504 -0.13543982437E+02  0.30467239418E+02 -0.28714870129E+03  0.28907796317E+03  0.00000000000E+00 0.  1.
<scales pt_clust_3="34.98017" pt_clust_4="158.20954" pt_clust_5="34.98017" pt_clust_6="33.34205"></scales>
<clustering>
<clus scale="   33.342">  2  6  1 -1</clus>
<clus scale="   34.980">  3  5 -1 -1</clus>
<clus scale="  158.210">  1  4  2 -1</clus>
<clus scale="  158.210">  1  3  2 -1</clus>
</clustering>
</event>
<event>
 6    0  0.2666600E+002  0.1047868E+03  0.7546771E-02  0.1270540E+00
         21   -1    0    0  505  501  0.00000000000E+00  0.00000000000E+00  0.16897008325E+03  0.16897008325E+03  0.00000000000E+00 0. -1.
         21   -1    0    0  503  502 -0.00000000000E+00 -0.00000000000E+00 -0.16798480028E+03  0.16798480028E+03  0.00000000000E+00 0. -1.
         21    1    1    2  503  504  0.11699061210E+02  0.40134896670E+02 -0.38641809785E+02  0.56928616946E+02  0.00000000000E+00 0. -1.
         21    1    1    2  504  506  0.80615535137E+02  0.43803415128E+02 -0.13119669011E+02  0.92680793034E+02  0.00000000000E+00 0. -1.
         21    1    1    2  505  502 -0.59392626351E+02 -0.11382426862E+03  0.15457263820E+02  0.12931502309E+03  0.00000000000E+00 0. -1.
         21    1    1    2  506  501 -0.32921969996E+02  0.29885956823E+02  0.37289497949E+02  0.58030450463E+02  0.00000000000E+00 0. -1.
<scales pt_clust_3="41.80524" pt_clust_4="14000.00000" pt_clust_5="104.78678" pt_clust_6="46.15787"></scales>
<clustering>
<clus scale="   41.805">  2  3  1 -1</clus>
<clus scale="   46.158">  1  6  2 -1</clus>
<clus scale="  104.787">  2  5  1 -1</clus>
<clus scale="   46.158">  1  3  2 -1</clus>
</clustering>
</event>
<event>
 6    0  0.2666600E+002  0.1949507E+03  0.7546771E-02  0.1154070E+00
         21   -1    0    0  504  501  0.00000000000E+00  0.00000000000E+00  0.18204718346E+03  0.18204718346E+03  0.00000000000E+00 0. -1.
         21   -1    0    0  506  502 -0.00000000000E+00 -0.00000000000E+00 -0.93627351395E+03  0.93627351395E+03  0.00000000000E+00 0. -1.
         21    1    1    2  503  501  0.39146804188E+01  0.94921661180E+02 -0.33125584957E+03  0.34460975662E+03  0.00000000000E+00 0. -1.
         21    1    1    2  504  505  0.55817298116E+01 -0.71924804144E+02  0.80104492029E+02  0.10780103340E+03  0.00000000000E+00 0. -1.
         21    1    1    2  505  502 -0.46224773459E+02 -0.10377344446E+03  0.36317779188E+02  0.11926708909E+03  0.00000000000E+00 0. -1.
         21    1    1    2  506  503  0.36728363229E+02  0.80776587419E+02 -0.53939275213E+03  0.54664281830E+03  0.00000000000E+00 0. -1.
<scales pt_clust_3="190.53127" pt_clust_4="59.01293" pt_clust_5="59.01293" pt_clust_6="59.42239"></scales>
<clustering>
<clus scale="   59.013">  4  5 -1 -1</clus>
<clus scale="   59.422">  3  6 -1 -1</clus>
<clus scale="  190.531">  2  3  1 -1</clus>
<clus scale="  194.951">  1  3  2 -1</clus>
</clustering>
</event>
<event>
 6    0  0.2666600E+002  0.1045327E+03  0.7546771E-02  0.1271043E+00
         21   -1    0    0  506  501  0.00000000000E+00  0.00000000000E+00  0.26380979206E+03  0.26380979206E+03  0.00000000000E+00 0. -1.
         21   -1    0    0  504  502 -0.00000000000E+00 -0.00000000000E+00 -0.87376600151E+03  0.87376600151E+03  0.00000000000E+00 0. -1.
         21    1    1    2  503  505 -0.80786488896E+02 -0.99031411019E+01 -0.37306348142E+03  0.38183882747E+03  0.00000000000E+00 0. -1.
         21    1    1    2  504  501  0.13500564974E+03  0.96336370265E+02  0.20192335039E+03  0.26130491984E+03  0.00000000000E+00 0. -1.
         21    1    1    2  505  502 -0.22195639702E+02 -0.20776166473E+02 -0.41712195624E+03  0.41822843267E+03  0.00000000000E+00 0. -1.
         21    1    1    2  506  503 -0.32023521141E+02 -0.65657062690E+02 -0.21694122180E+02  0.76203613592E+02  0.00000000000E+00 0. -1.
<scales pt_clust_3="14000.00000" pt_clust_4="104.53270" pt_clust_5="30.40223" pt_clust_6="76.10760"></scales>
<clustering>
<clus scale="   30.402">  2  5  1 -1</clus>
<clus scale="   76.108">  1  6  2 -1</clus>
<clus scale="  104.533">  1  4  2 -1</clus>
<clus scale="   76.108">  1  3  2 -1</clus>
</clustering>
</event>
<event>
 6    0  0.2666600E+002  0.7145422E+02  0.7546771E-02  0.1355217E+00
         21   -1    0    0  505  501  0.00000000000E+00  0.00000000000E+00  0.15342642251E+03  0.15342642251E+03  0.00000000000E+00 0.  1.
         21   -1    0    0  506  502 -0.00000000000E+00 -0.00000000000E+00 -0.27263691653E+03  0.27263691653E+03  0.00000000000E+00 0.  1.
         21    1    1    2  503  502  0.45409077105E+02 -0.11418105430E+02 -0.12799984041E+03  0.13629496161E+03  0.00000000000E+00 0.  1.
         21    1    1    2  504  503 -0.11968493821E+02  0.69160955352E+02 -0.84397422384E+02  0.10976979318E+03  0.00000000000E+00 0.  1.
         21    1    1    2  505  504  0.22640108187E+02  0.30376765611E+02  0.58959049504E+02  0.70082036972E+02  0.00000000000E+00 0.  1.
         21    1    1    2  506  501 -0.56080691470E+02 -0.88119615534E+02  0.34227719271E+02  0.10991654727E+03  0.00000000000E+00 0.  1.
<scales pt_clust_3="47.52937" pt_clust_4="71.45422" pt_clust_5="37.88565" pt_clust_6="14000.00000"></scales>
<clustering>
<clus scale="   37.886">  1  5  2 -1</clus>
<clus scale="   47.529">  2  3  1 -1</clus>
<clus scale="   71.454">  2  4  1 -1</clus>
<clus scale="   37.886">  1  3  2 -1</clus>
</clustering>
</event>
<event>
 6    0  0.2666600E+002  0.1290739E+03  0.7546771E-02  0.1228836E+00
         21   -1    0    0  506  501  0.00000000000E+00  0.00000000000E+00  0.12867396196E+04  0.12867396196E+04  0.00000000000E+00 0.  1.
         21   -1    0    0  504  502 -0.00000000000E+00 -0.00000000000E+00 -0.64821518792E+02  0.64821518792E+02  0.00000000000E+00 0. -1.
         21    1    1    2  503  505  0.58524769969E+02  0.44302418352E+02  0.52130263222E+03  0.52644495185E+03  0.00000000000E+00 0.  1.
         21    1    1    2  504  503 -0.19752844645E+02 -0.54317146506E+02  0.88808966035E+02  0.10596017990E+03  0.00000000000E+00 0. -1.
         21    1    1    2  505  501  0.54491611005E+02  0.39027233821E+01  0.62267107036E+03  0.62506305985E+03  0.00000000000E+00 0. -1.
         21    1    1    2  506  502 -0.93263536328E+02  0.61120047722E+01 -0.10864567769E+02  0.94092946832E+02  0.00000000000E+00 0. -1.
<scales pt_clust_3="40.45040" pt_clust_4="57.79729" pt_clust_5="40.45040" pt_clust_6="120.25660"></scales>
<clustering>
<clus scale="   40.450">  3  5 -1 -1</clus>
<clus scale="   57.797">  2  4  1 -1</clus>
<clus scale="  120.257">  2  6  1 -1</clus>
<clus scale="  129.074">  1  3  2 -1</clus>
</clustering>
</event>
<event>
 6    0  0.2666600E+002  0.1790749E+03  0.7546771E-02  0.1168701E+00
         21   -1    0    0  506  501  0.00000000000E+00  0.00000000000E+00  0.30402610904E+03  0.30402610904E+03  0.00000000000E+00 0. -1.
         21   -1    0    0  503  502 -0.00000000000E+00 -0.00000000000E+00 -0.70699752847E+03  0.70699752847E+03  0.00000000000E+00 0.  1.
         21    1    1    2  503  505 -0.10746855017E+03 -0.13823031909E+03 -0.42038008632E+03  0.45538612996E+03  0.00000000000E+00 0.  1.
         21    1    1    2  504  501 -0.66495946778E+02  0.45623675319E+02  0.18666111855E+03  0.20333618435E+03  0.00000000000E+00 0. -1.
         21    1    1    2  505  504 -0.33565759633E+02  0.28469962476E+02  0.33384424975E+02  0.55242364305E+02  0.00000000000E+00 0. -1.
         21    1    1    2  506  502  0.20753025658E+03  0.64136681293E+02 -0.20263687664E+03  0.29705895889E+03  0.00000000000E+00 0.  1.
<scales pt_clust_3="179.07491" pt_clust_4="135.80436" pt_clust_5="40.06177" pt_clust_6="14000.00000"></scales>
<clustering>
<clus scale="   40.062">  4  5 -1 -1</clus>
<clus scale="  135.804">  1  4  2 -1</clus>
<clus scale="  179.075">  2  3  1 -1</clus>
<clus scale="  135.804">  1  3  2 -1</clus>
</clustering>
</event>
<event>
 6    0  0.2666600E+002  0.1195509E+03  0.7546771E-02  0.1243840E+00
         21   -1    0    0  502  501  0.00000000000E+00  0.00000000000E+00  0.99047851305E+03  0.99047851305E+03  0.00000000000E+00 0.  1.
         21   -1    0    0  505  502 -0.00000000000E+00 -0.00000000000E+00 -0.41371518846E+02  0.41371518846E+02  0.00000000000E+00 0. -1.
         21    1    1    2  503  504 -0.95991666754E+01 -0.73175851581E+02  0.33293941991E+03  0.34102126999E+03  0.00000000000E+00 0.  1.
         21    1    1    2  504  501  0.62352163717E+01 -0.46851879022E+02  0.47698679940E+03  0.47932283828E+03  0.00000000000E+00 0.  1.
         21    1    1    2  505  506 -0.44512595712E+02  0.49023841844E+02  0.29865177048E+02  0.72640464249E+02  0.00000000000E+00 0. -1.
         21    1    1    2  506  503  0.47876546016E+02  0.71003888758E+02  0.10931559785E+03  0.13886545939E+03  0.00000000000E+00 0.  1.
<scales pt_clust_3="40.53796" pt_clust_4="40.53796" pt_clust_5="66.21713" pt_clust_6="108.28855"></scales>
<clustering>
<clus scale="   40.538">  3  4 -1 -1</clus>
<clus scale="   66.217">  2  5  1 -1</clus>
<clus scale="  108.289">  2  6  1 -1</clus>
<clus scale="  119.551">  1  3  2 -1</clus>
</clustering>
</event>
<event>
 6    0  0.2666600E+002  0.7644640E+02  0.7546771E-02  0.1339450E+00
         21   -1    0    0  504  501  0.00000000000E+00  0.00000000000E+00  0.26688767749E+03  0.26688767749E+03  0.00000000000E+00 0.  1.
         21   -1    0    0  506  502 -0.00000000000E+00 -0.00000000000E+00 -0.44612586205E+03  0.44612586205E+03  0.00000000000E+00 0. -1.
         21    1    1    2  503  505  0.22637768792E+02 -0.56474491080E+02 -0.95909368500E+02  0.11358012011E+03  0.00000000000E+00 0.  1.
         21    1    1    2  504  503  0.57740210493E+02 -0.49145685987E+02  0.19177619363E+03  0.20622157696E+03  0.00000000000E+00 0.  1.
         21    1    1    2  505  502 -0.61843493498E+02  0.64582915112E+02 -0.31841686695E+03  0.33073383826E+03  0.00000000000E+00 0. -1.
         21    1    1    2  506  501 -0.18534485787E+02  0.41037261954E+02  0.43311857254E+02  0.62478004217E+02  0.00000000000E+00 0.  1.
<scales pt_clust_3="14000.00000" pt_clust_4="41.96723" pt_clust_5="76.44640" pt_clust_6="45.02870"></scales>
<clustering>
<clus scale="   45.029">  1  6  2 -1</clus>
<clus scale="   41.967">  1  4  2 -1</clus>
<clus scale="   76.446">  2  5  1 -1</clus>
<clus scale="   45.029">  1  3  2 -1</clus>
</clustering>
</event>
<event>
 6    0  0.2666600E+002  0.1409396E+03  0.7546771E-02  0.1212070E+00
         21   -1    0    0  505  501  0.00000000000E+00  0.00000000000E+00  0.17882266219E+04  0.17882266219E+04  0.00000000000E+00 0. -1.
         21   -1    0    0  503  502 -0.00000000000E+00 -0.00000000000E+00 -0.14425223161E+03  0.14425223161E+03  0.00000000000E+00 0.  1.
         21    1    1    2  503  504 -0.73267484847E+02 -0.69060446413E+02 -0.64284880928E+02  0.11945717019E+03  0.00000000000E+00 0. -1.
         21    1    1    2  504  501 -0.38987569611E+02  0.75951508638E+00 -0.40474712858E+02  0.56203290191E+02  0.00000000000E+00 0.  1.
         21    1    1    2  505  506  0.19099653124E+02 -0.25329462348E+02  0.20444495510E+03  0.20689156115E+03  0.00000000000E+00 0. -1.
         21    1    1    2  506  502  0.93155401334E+02  0.93630393675E+02  0.15442890290E+04  0.15499268320E+04  0.00000000000E+00 0. -1.
<scales pt_clust_3="31.77968" pt_clust_4="31.77968" pt_clust_5="31.72347" pt_clust_6="131.33229"></scales>
<clustering>
<clus scale="   31.723">  1  5  2 -1</clus>
<clus scale="   31.780">  3  4 -1 -1</clus>
<clus scale="  131.332">  1  6  2 -1</clus>
<clus scale="   31.723">  1  3  2 -1</clus>
</clustering>
</event>
<event>
 6    0  0.2666600E+002  0.1651102E+03  0.7546771E-02  0.1183045E+00
         21   -1    0    0  504  501  0.00000000000E+00  0.00000000000E+00  0.19727419611E+03  0.19727419611E+03  0.00000000000E+00 0. -1.
         21   -1    0    0  503  502 -0.00000000000E+00 -0.00000000000E+00 -0.75565996120E+03  0.75565996120E+03  0.00000000000E+00 0. -1.
         21    1    1    2  503  505 -0.11506415122E+03 -0.12480837821E+03 -0.62166249540E+03  0.64442311283E+03  0.00000000000E+00 0. -1.
         21    1    1    2  504  502  0.13305920270E+02  0.12900840604E+03  0.11817235317E+03  0.17545632333E+03  0.00000000000E+00 0. -1.
         21    1    1    2  505  506  0.67702124068E+02 -0.30074629178E+02 -0.51348767934E+02  0.90137433355E+02  0.00000000000E+00 0. -1.
         21    1    1    2  506  501  0.34056106879E+02  0.25874601350E+02 -0.35468549330E+01  0.42917287784E+02  0.00000000000E+00 0.  1.
<scales pt_clust_3="14000.00000" pt_clust_4="165.11017" pt_clust_5="76.44287" pt_clust_6="42.77047"></scales>
<clustering>
<clus scale="   42.770">  1  6  2 -1</clus>
<clus scale="   76.443">  1  5  2 -1</clus>
<clus scale="  165.110">  1  4  2 -1</clus>
<clus scale="   42.770">  1  3  2 -1</clus>
</clustering>
</event>
<event>
 6    0  0.2666600E+002  0.1157576E+03  0.7546771E-02  0.1250265E+00
         21   -1    0    0  505  501  0.00000000000E+00  0.00000000000E+00  0.39784172612E+03  0.39784172612E+03  0.00000000000E+00 0. -1.
         21   -1    0    0  503  502 -0.00000000000E+00 -0.00000000000E+00 -0.32197918240E+03  0.32197918240E+03  0.00000000000E+00 0.  1.
         21    1    1    2  503  501 -0.35754617746E+02 -0.59274159134E+01 -0.34261644624E+02  0.49873712935E+02  0.00000000000E+00 0.  1.
         21    1    1    2  504  502  0.17702427114E+02 -0.10311716309E+03 -0.26094469089E+03  0.28113814567E+03  0.00000000000E+00 0.  1.
         21    1    1    2  505  506  0.16506239553E+02  0.56838131893E+02  0.25079567301E+03  0.25768488272E+03  0.00000000000E+00 0. -1.
         21    1    1    2  506  504  0.15459510787E+01  0.52206447115E+02  0.12027320622E+03  0.13112416718E+03  0.00000000000E+00 0. -1.
<scales pt_clust_3="36.24261" pt_clust_4="110.16374" pt_clust_5="33.39481" pt_clust_6="33.39481"></scales>
<clustering>
<clus scale="   33.395">  5  6 -1 -1</clus>
<clus scale="   36.243">  2  3  1 -1</clus>
<clus scale="  110.164">  2  4  1 -1</clus>
<clus scale="  115.758">  1  3  2 -1</clus>
</clustering>
</event>
<event>
 6    0  0.2666600E+002  0.1072096E+03  0.7546771E-02  0.1265826E+00
         21   -1    0    0  503  501  0.00000000000E+00  0.00000000000E+00  0.57080607681E+02  0.57080607681E+02  0.00000000000E+00 0.  1.
         21   -1    0    0  505  502 -0.00000000000E+00 -0.00000000000E+00 -0.98123604623E+03  0.98123604623E+03  0.00000000000E+00 0.  1.
         21    1    1    2  503  502 -0.48436827172E+02  0.91489416814E+01 -0.35868338433E+03  0.36205469138E+03  0.00000000000E+00 0.  1.
         21    1    1    2  504  506 -0.51646726622E+02 -0.50468774113E+02 -0.60838476557E+02  0.94423523345E+02  0.00000000000E+00 0.  1.
         21    1    1    2  505  504  0.12437931262E+03  0.81129271274E+02 -0.51334647650E+03  0.53439384072E+03  0.00000000000E+00 0.  1.
         21    1    1    2  506  501 -0.24295758823E+02 -0.39809438843E+02  0.87128988300E+01  0.47444598468E+02  0.00000000000E+00 0.  1.
<scales pt_clust_3="50.31537" pt_clust_4="14000.00000" pt_clust_5="107.20955" pt_clust_6="46.63770"></scales>
<clustering>
<clus scale="   46.638">  1  6  2 -1</clus>
<clus scale="   50.315">  2  3  1 -1</clus>
<clus scale="  107.210">  2  5  1 -1</clus>
<clus scale="   46.638">  1  3  2 -1</clus>
</clustering>
</event>
<event>
 6    0  0.2666600E+002  0.9138803E+02  0.7546771E-02  0.1299525E+00
         21   -1    0    0  503  501  0.00000000000E+00  0.00000000000E+00  0.46568956800E+03  0.46568956800E+03  0.00000000000E+00 0.  1.
         21   -1    0    0  505  502 -0.00000000000E+00 -0.00000000000E+00 -0.30351069734E+03  0.30351069734E+03  0.00000000000E+00 0.  1.
         21    1    1    2  503  506 -0.29153503136E+02 -0.13798045181E+03  0.24487276708E+03  0.28257955320E+03  0.00000000000E+00 0.  1.
         21    1    1    2  504  501 -0.24990175999E+02  0.71328089169E+02  0.17163029372E+03  0.18753443130E+03  0.00000000000E+00 0.  1.
         21    1    1    2  505  504 -0.14255958701E+02 -0.29868330853E+02 -0.26572870036E+02  0.42443691738E+02  0.00000000000E+00 0. -1.
         21    1    1    2  506  502  0.68399637837E+02  0.96520693498E+02 -0.22775132010E+03  0.25664258910E+03  0.00000000000E+00 0.  1.
<scales pt_clust_3="14000.00000" pt_clust_4="74.88837" pt_clust_5="33.09607" pt_clust_6="91.38803"></scales>
<clustering>
<clus scale="   33.096">  2  5  1 -1</clus>
<clus scale="   74.888">  1  4  2 -1</clus>
<clus scale="   91.388">  2  6  1 -1</clus>
<clus scale="   74.888">  1  3  2 -1</clus>
</clustering>
</event>
<event>
 6    0  0.2666600E+002  0.1315196E+03  0.7546771E-02  0.1225218E+00
         21   -1    0    0  503  501  0.00000000000E+00  0.00000000000E+00  0.95909682328E+03  0.95909682328E+03  0.00000000000E+00 0.  1.
         21   -1    0    0  505  502 -0.00000000000E+00 -0.00000000000E+00 -0.13478027706E+03  0.13478027706E+03  0.00000000000E+00 0.  1.
         21    1    1    2  503  506  0.89788383962E+01 -0.83421308487E+02  0.30148395595E+03  0.31294138420E+03  0.00000000000E+00 0. -1.
         21    1    1    2  504  501 -0.50377295208E+02  0.20847533786E+03  0.57458472100E+03  0.61330860094E+03  0.00000000000E+00 0.  1.
         21    1    1    2  505  504 -0.77635548560E+01 -0.54384359498E+02  0.16944264511E+02  0.57489472444E+02  0.00000000000E+00 0.  1.
         21    1    1    2  506  502  0.49162011668E+02 -0.70669669877E+02 -0.68696395246E+02  0.11013764275E+03  0.00000000000E+00 0.  1.
<scales pt_clust_3="86.56938" pt_clust_4="131.51963" pt_clust_5="54.93570" pt_clust_6="14000.00000"></scales>
<clustering>
<clus scale="   54.936">  2  5  1 -1</clus>
<clus scale="   86.569">  1  3  2 -1</clus>
<clus scale="  131.520">  1  4  2 -1</clus>
<clus scale="   86.569">  1  3  2 -1</clus>
</clustering>
</event>
<event>
 6    0  0.2666600E+002  0.1547936E+03  0.7546771E-02  0.1194703E+00
         21   -1    0    0  503  501  0.00000000000E+00  0.00000000000E+00  0.44353030104E+03  0.44353030104E+03  0.00000000000E+00 0.  1.
         21   -1    0    0  501  502 -0.00000000000E+00 -0.00000000000E+00 -0.27945521621E+03  0.27945521621E+03  0.00000000000E+00 0.  1.
         21    1    1    2  503  505 -0.26775452445E+02  0.53782318166E+02  0.79658413047E+02  0.99774372311E+02  0.00000000000E+00 0.  1.
         21    1    1    2  504  506 -0.76359975521E+02 -0.75447825494E+02 -0.15291849538E+03  0.18683491768E+03  0.00000000000E+00 0.  1.
         21    1    1    2  505  504  0.14982648140E+03  0.13547595700E+02  0.31289662787E+03  0.34718267758E+03  0.00000000000E+00 0.  1.
         21    1    1    2  506  502 -0.46691053436E+02  0.81179116280E+01 -0.75561460705E+02  0.89193549677E+02  0.00000000000E+00 0.  1.
<scales pt_clust_3="60.07880" pt_clust_4="43.63996" pt_clust_5="140.16884" pt_clust_6="43.63996"></scales>
<clustering>
<clus scale="   43.640">  4  6 -1 -1</clus>
<clus scale="   60.079">  1  3  2 -1</clus>
<clus scale="  140.169">  1  5  2 -1</clus>
<clus scale="   60.079">  1  3  2 -1</clus>
</clustering>
</event>
<event>
 6    0  0.2666600E+002  0.1222247E+03  0.7546771E-02  0.1239471E+00
         21   -1    0    0  505  501  0.00000000000E+00  0.00000000000E+00  0.73133026964E+02  0.73133026964E+02  0.00000000000E+00 0.  1.
         21   -1    0    0  504  502 -0.00000000000E+00 -0.00000000000E+00 -0.65847363534E+03  0.65847363534E+03  0.00000000000E+00 0.  1.
         21    1    1    2  503  506 -0.28813192888E+02 -0.38314116145E+02 -0.78878386346E+02  0.92303691220E+02  0.00000000000E+00 0.  1.
         21    1    1    2  504  501 -0.82076543895E+02  0.55398953961E+02 -0.38215053888E+03  0.39477162705E+03  0.00000000000E+00 0.  1.
         21    1    1    2  505  503  0.10975396100E+03 -0.63072463008E+02 -0.16932868028E+02  0.12771370155E+03  0.00000000000E+00 0.  1.
         21    1    1    2  506  502  0.11357757849E+01  0.45987625192E+02 -0.10737881512E+03  0.11681764248E+03  0.00000000000E+00 0. -1.
<scales pt_clust_3="42.28254" pt_clust_4="14000.00000" pt_clust_5="122.22472" pt_clust_6="46.00165"></scales>
<clustering>
<clus scale="   46.002">  2  6  1 -1</clus>
<clus scale="   42.283">  2  3  1 -1</clus>
<clus scale="  122.225">  1  5  2 -1</clus>
<clus scale="  122.225">  1  3  2 -1</clus>
</clustering>
</event>
<event>
 6    0  0.2666600E+002  0.2435969E+03  0.7546771E-02  0.1117420E+00
         21   -1    0    0  505  501  0.00000000000E+00  0.00000000000E+00  0.13964306457E+04  0.13964306457E+04  0.00000000000E+00 0.  1.
         21   -1    0    0  506  502 -0.00000000000E+00 -0.00000000000E+00 -0.13422311610E+04  0.13422311610E+04  0.00000000000E+00 0. -1.
         21    1    1    2  503  501 -0.19593723433E+03  0.12199670189E+03  0.11854096086E+04  0.12076715345E+04  0.00000000000E+00 0.  1.
         21    1    1    2  504  502  0.95427269525E+02  0.10537401715E+03 -0.35811154102E+03  0.38529718799E+03  0.00000000000E+00 0.  1.
         21    1    1    2  505  504 -0.39689354881E+02 -0.53707001868E+02  0.16679264836E+03  0.17966489498E+03  0.00000000000E+00 0. -1.
         21    1    1    2  506  503  0.14019931969E+03 -0.17366371717E+03 -0.93989123128E+03  0.96602818930E+03  0.00000000000E+00 0. -1.
<scales pt_clust_3="243.59692" pt_clust_4="141.42363" pt_clust_5="66.78089" pt_clust_6="14000.00000"></scales>
<clustering>
<clus scale="   66.781">  1  5  2 -1</clus>
<clus scale="  141.424">  2  4  1 -1</clus>
<clus scale="  243.597">  1  3  2 -1</clus>
<clus scale="   66.781">  1  3  2 -1</clus>
</clustering>
</event>
<event>
 6    0  0.2666600E+002  0.1576761E+03  0.7546771E-02  0.1191346E+00
         21   -1    0    0  505  501  0.00000000000E+00  0.00000000000E+00  0.29524468661E+03  0.29524468661E+03  0.00000000000E+00 0.  1.
         21   -1    0    0  503  502 -0.00000000000E+00 -0.00000000000E+00 -0.24288596431E+03  0.24288596431E+03  0.00000000000E+00 0.  1.
         21    1    1    2  503  504  0.14293523244E+03 -0.36909443516E+02 -0.17518478890E+03  0.22909058897E+03  0.00000000000E+00 0.  1.
         21    1    1    2  504  506 -0.10557529320E+03  0.18936275061E+02  0.16921364654E+03  0.20034466108E+03  0.00000000000E+00 0.  1.
         21    1    1    2  505  502  0.18289027177E+02  0.29139628774E+02  0.16300290593E+02  0.38069751162E+02  0.00000000000E+00 0.  1.
         21    1    1    2  506  501 -0.55648966418E+02 -0.11166460319E+02  0.42029574064E+02  0.70625649699E+02  0.00000000000E+00 0.  1.
<scales pt_clust_3="148.70832" pt_clust_4="37.66192" pt_clust_5="34.40358" pt_clust_6="37.66192"></scales>
<clustering>
<clus scale="   34.404">  1  5  2 -1</clus>
<clus scale="   37.662">  4  6 -1 -1</clus>
<clus scale="  148.708">  2  3  1 -1</clus>
<clus scale="   34.404">  1  3  2 -1</clus>
</clustering>
</event>
<event>
 6    0  0.2666600E+002  0.9005604E+02  0.7546771E-02  0.1302716E+00
         21   -1    0    0  503  501  0.00000000000E+00  0.00000000000E+00  0.55955777873E+03  0.55955777873E+03  0.00000000000E+00 0.  1.
         21   -1    0    0  505  502 -0.00000000000E+00 -0.00000000000E+00 -0.78682876990E+02  0.78682876990E+02  0.00000000000E+00 0.  1.
         21    1    1    2  503  506  0.60764870000E+02  0.16507017615E+02  0.21619696500E+03  0.22517988083E+03  0.00000000000E+00 0.  1.
         21    1    1    2  504  501 -0.48974701789E+02 -0.10249799097E+02  0.18946287065E+03  0.19595856489E+03  0.00000000000E+00 0.  1.
         21    1    1    2  505  504 -0.23737011526E+02 -0.89354547841E+02 -0.15229892383E+02  0.93699682806E+02  0.00000000000E+00 0.  1.
         21    1    1    2  506  502  0.11946843314E+02  0.83097329323E+02  0.90444958477E+02  0.12340252720E+03  0.00000000000E+00 0.  1.
<scales pt_clust_3="32.96645" pt_clust_4="50.03579" pt_clust_5="14000.00000" pt_clust_6="90.05604"></scales>
<clustering>
<clus scale="   50.036">  1  4  2 -1</clus>
<clus scale="   32.966">  1  3  2 -1</clus>
<clus scale="   90.056">  1  6  2 -1</clus>
<clus scale="   50.036">  1  3  2 -1</clus>
</clustering>
</event>
<event>
 6    0  0.2666600E+002  0.1314256E+03  0.7546771E-02  0.1225356E+00
         21   -1    0    0  505  501  0.00000000000E+00  0.00000000000E+00  0.95493945551E+02  0.95493945551E+02  0.00000000000E+00 0.  1.
         21   -1    0    0  504  502 -0.00000000000E+00 -0.00000000000E+00 -0.32815456628E+03  0.32815456628E+03  0.00000000000E+00 0.  1.
         21    1    1    2  503  502  0.64114772454E+02 -0.72799381433E+00 -0.80683314328E+02  0.10305838749E+03  0.00000000000E+00 0.  1.
         21    1    1    2  504  501 -0.88773540470E+02 -0.10016699309E+03 -0.44576413390E+01  0.13391802925E+03  0.00000000000E+00 0.  1.
         21    1    1    2  505  506  0.95394577187E+01  0.66244692451E+02 -0.54661976244E+02  0.86413495349E+02  0.00000000000E+00 0.  1.
         21    1    1    2  506  503  0.15119310297E+02  0.34650294449E+02 -0.92857688819E+02  0.10025859974E+03  0.00000000000E+00 0.  1.
<scales pt_clust_3="64.11891" pt_clust_4="122.37700" pt_clust_5="36.01733" pt_clust_6="36.01733"></scales>
<clustering>
<clus scale="   36.017">  5  6 -1 -1</clus>
<clus scale="   64.119">  2  3  1 -1</clus>
<clus scale="  122.377">  1  4  2 -1</clus>
<clus scale="  122.377">  1  3  2 -1</clus>
</clustering>
</event>
<event>
 6    0  0.2666600E+002  0.8660437E+02  0.7546771E-02  0.1311289E+00
         21   -1    0    0  504  501  0.00000000000E+00  0.00000000000E+00  0.28655294434E+03  0.28655294434E+03  0.00000000000E+00 0.  1.
         21   -1    0    0  503  502 -0.00000000000E+00 -0.00000000000E+00 -0.26574577348E+04  0.26574577348E+04  0.00000000000E+00 0.  1.
         21    1    1    2  503  505 -0.10838422129E+03 -0.46357577525E+01 -0.40312707366E+03  0.41746864217E+03  0.00000000000E+00 0. -1.
         21    1    1    2  504  506  0.95196943753E+02  0.68158862131E+02  0.25026569407E+03  0.27629876260E+03  0.00000000000E+00 0.  1.
         21    1    1    2  505  501 -0.23629270536E+02 -0.21884954334E+02 -0.71153095667E+00  0.32214902275E+02  0.00000000000E+00 0.  1.
         21    1    1    2  506  502  0.36816548069E+02 -0.41638150044E+02 -0.22173318799E+04  0.22180283721E+04  0.00000000000E+00 0.  1.
<scales pt_clust_3="14000.00000" pt_clust_4="86.60437" pt_clust_5="32.20704" pt_clust_6="55.58149"></scales>
<clustering>
<clus scale="   32.207">  1  5  2 -1</clus>
<clus scale="   55.581">  2  6  1 -1</clus>
<clus scale="   86.604">  1  4  2 -1</clus>
<clus scale="   32.207">  1  3  2 -1</clus>
</clustering>
</event>
<event>
 6    0  0.2666600E+002  0.2593991E+03  0.7546771E-02  0.1107505E+00
         21   -1    0    0  504  501  0.00000000000E+00  0.00000000000E+00  0.10974961596E+03  0.10974961596E+03  0.00000000000E+00 0. -1.
         21   -1    0    0  506  502 -0.00000000000E+00 -0.00000000000E+00 -0.87016056365E+03  0.87016056365E+03  0.00000000000E+00 0. -1.
         21    1    1    2  503  502  0.10400104470E+03  0.86035682712E+02 -0.38597180730E+03  0.40889190752E+03  0.00000000000E+00 0. -1.
         21    1    1    2  504  503  0.99044784815E+02  0.42940464082E+02 -0.27108177428E+03  0.29178601955E+03  0.00000000000E+00 0. -1.
         21    1    1    2  505  501 -0.38879908714E+02 -0.62494838129E+02  0.10947529265E+01  0.73610125515E+02  0.00000000000E+00 0. -1.
         21    1    1    2  506  505 -0.16416592080E+03 -0.66481308665E+02 -0.10445211903E+03  0.20562212703E+03  0.00000000000E+00 0. -1.
<scales pt_clust_3="243.37245" pt_clust_4="33.07375" pt_clust_5="62.58445" pt_clust_6="62.58445"></scales>
<clustering>
<clus scale="   33.074">  3  4 -1 -1</clus>
<clus scale="   62.584">  5  6 -1 -1</clus>
<clus scale="  243.372">  2  3  1 -1</clus>
<clus scale="  259.399">  1  3  2 -1</clus>
</clustering>
</event>
<event>
 6    0  0.2666600E+002  0.1864836E+03  0.7546771E-02  0.1161672E+00
         21   -1    0    0  503  501  0.00000000000E+00  0.00000000000E+00  0.15409295536E+03  0.15409295536E+03  0.00000000000E+00 0. -1.
         21   -1    0    0  504  502 -0.00000000000E+00 -0.00000000000E+00 -0.32182718731E+03  0.32182718731E+03  0.00000000000E+00 0.  1.
         21    1    1    2  503  505  0.72682270709E+02  0.25859073512E+02  0.16892950027E+02  0.78973260784E+02  0.00000000000E+00 0. -1.
         21    1    1    2  504  506 -0.28912184239E+02  0.44165940440E+02 -0.61795499915E+02  0.81272556883E+02  0.00000000000E+00 0. -1.
         21    1    1    2  505  502  0.92028048615E+02  0.52432943368E+02 -0.27361839107E+02  0.10939399216E+03  0.00000000000E+00 0. -1.
         21    1    1    2  506  501 -0.13579813508E+03 -0.12245795732E+03 -0.95469842953E+02  0.20628033284E+03  0.00000000000E+00 0.  1.
<scales pt_clust_3="39.23494" pt_clust_4="52.78773" pt_clust_5="39.23494" pt_clust_6="180.72803"></scales>
<clustering>
<clus scale="   39.235">  3  5 -1 -1</clus>
<clus scale="   52.788">  2  4  1 -1</clus>
<clus scale="  180.728">  2  6  1 -1</clus>
<clus scale="  186.484">  1  3  2 -1</clus>
</clustering>
</event>
<event>
 6    0  0.2666600E+002  0.2874679E+03  0.7546771E-02  0.1091679E+00
         21   -1    0    0  503  501  0.00000000000E+00  0.00000000000E+00  0.17373893892E+03  0.17373893892E+03  0.00000000000E+00 0.  1.
         21   -1    0    0  506  502 -0.00000000000E+00 -0.00000000000E+00 -0.33623511073E+04  0.33623511073E+04  0.00000000000E+00 0.  1.
         21    1    1    2  503  505 -0.56604100894E+02 -0.26657885623E+03  0.46785101211E+02  0.27650887242E+03  0.00000000000E+00 0.  1.
         21    1    1    2  504  501  0.82046777423E+02  0.14562789208E+03 -0.16703641156E+04  0.16787064768E+04  0.00000000000E+00 0.  1.
         21    1    1    2  505  502 -0.29531655844E+02  0.56454212625E+02 -0.13391848345E+03  0.14830157460E+03  0.00000000000E+00 0.  1.
         21    1    1    2  506  504  0.40889793153E+01  0.64496751533E+02 -0.14311146706E+04  0.14325731224E+04  0.00000000000E+00 0.  1.
<scales pt_clust_3="270.77560" pt_clust_4="60.02340" pt_clust_5="63.71183" pt_clust_6="60.02340"></scales>
<clustering>
<clus scale="   60.023">  4  6 -1 -1</clus>
<clus scale="   63.712">  2  5  1 -1</clus>
<clus scale="  270.776">  1  3  2 -1</clus>
<clus scale="  270.776">  1  3  2 -1</clus>
</clustering>
</event>
<event>
 6    0  0.2666600E+002  0.1276022E+03  0.7546771E-02  0.1231058E+00
         21   -1    0    0  505  501  0.00000000000E+00  0.00000000000E+00  0.15686666272E+03  0.15686666272E+03  0.00000000000E+00 0. -1.
         21   -1    0    0  503  502 -0.00000000000E+00 -0.00000000000E+00 -0.53414731802E+03  0.53414731802E+03  0.00000000000E+00 0. -1.
         21    1    1    2  503  501  0.30548540369E+02 -0.49442356419E+01 -0.18071823731E+02  0.35836428362E+02  0.00000000000E+00 0. -1.
         21    1    1    2  504  502  0.25762740574E+02  0.20394183645E+02 -0.23458128320E+03  0.23687131518E+03  0.00000000000E+00 0. -1.
         21    1    1    2  505  506 -0.10749643489E+03  0.10292764909E+03  0.85587252612E+02  0.17168215478E+03  0.00000000000E+00 0. -1.
         21    1    1    2  506  504  0.51185153946E+02 -0.11837759709E+03 -0.21021480098E+03  0.24662408242E+03  0.00000000000E+00 0. -1.
<scales pt_clust_3="30.94606" pt_clust_4="33.01995" pt_clust_5="14000.00000" pt_clust_6="127.60225"></scales>
<clustering>
<clus scale="   30.946">  1  3  2 -1</clus>
<clus scale="   33.020">  2  4  1 -1</clus>
<clus scale="  127.602">  2  6  1 -1</clus>
<clus scale="   30.946">  1  3  2 -1</clus>
</clustering>
</event>
<event>
 6    0  0.2919297E+002  0.1019217E+03  0.7546771E-02  0.1276306E+00
         21   -1    0    0  503  501  0.00000000000E+00  0.00000000000E+00  0.26307836728E+03  0.26307836728E+03  0.00000000000E+00 0.  1.
         21   -1    0    0  504  502 -0.00000000000E+00 -0.00000000000E+00 -0.63193952940E+03  0.63193952940E+03  0.00000000000E+00 0. -1.
         21    1    1    2  503  505 -0.63143383381E+01  0.46460509384E+02  0.25536656915E+02  0.53390735594E+02  0.00000000000E+00 0.  1.
         21    1    1    2  504  501  0.90162955643E+02 -0.98746522220E+02 -0.53615613104E+03  0.55257907223E+03  0.00000000000E+00 0. -1.
         21    1    1    2  505  506 -0.62436420712E+02  0.29404616647E+02  0.20617182896E+03  0.21741610145E+03  0.00000000000E+00 0.  1.
         21    1    1    2  506  502 -0.21412196592E+02  0.22881396190E+02 -0.64413516949E+02  0.71631987410E+02  0.00000000000E+00 0. -1.
<scales pt_clust_3="47.52091" pt_clust_4="14000.00000" pt_clust_5="101.92165" pt_clust_6="31.33752"></scales>
<clustering>
<clus scale="   31.338">  2  6  1 -1</clus>
<clus scale="   47.521">  1  3  2 -1</clus>
<clus scale="  101.922">  1  5  2 -1</clus>
<clus scale="   47.521">  1  3  2 -1</clus>
</clustering>
</event>
<event>
 6    0  0.2666600E+002  0.1047197E+03  0.7546771E-02  0.1270673E+00
         21   -1    0    0  505  501  0.00000000000E+00  0.00000000000E+00  0.10128825050E+04  0.10128825050E+04  0.00000000000E+00 0. -1.
         21   -1    0    0  503  502 -0.00000000000E+00 -0.00000000000E+00 -0.11264441172E+03  0.11264441172E+03  0.00000000000E+00 0.  1.
         21    1    1    2  503  504 -0.36546686427E+02 -0.62068927699E+02 -0.54046432483E+02  0.90051257285E+02  0.00000000000E+00 0.  1.
         21    1    1    2  504  506 -0.82456426031E+02  0.28043168843E+02  0.32018463763E+02  0.92793661067E+02  0.00000000000E+00 0.  1.
         21    1    1    2  505  502  0.52406480982E+02  0.25764536514E+02  0.87345885076E+02  0.10506928300E+03  0.00000000000E+00 0. -1.
         21    1    1    2  506  501  0.66596631475E+02  0.82612223425E+01  0.83492017696E+03  0.83761271541E+03  0.00000000000E+00 0. -1.
<scales pt_clust_3="71.07382" pt_clust_4="14000.00000" pt_clust_5="58.39735" pt_clust_6="104.71970"></scales>
<clustering>
<clus scale="   58.397">  1  5  2 -1</clus>
<clus scale="   71.074">  2  3  1 -1</clus>
<clus scale="  104.720">  1  6  2 -1</clus>
<clus scale="   58.397">  1  3  2 -1</clus>
</clustering>
</event>
<event>
 6    0  0.2666600E+002  0.7793994E+02  0.7546771E-02  0.1335001E+00
         21   -1    0    0  505  501  0.00000000000E+00  0.00000000000E+00  0.62527152897E+03  0.62527152897E+03  0.00000000000E+00 0. -1.
         21   -1    0    0  504  502 -0.00000000000E+00 -0.00000000000E+00 -0.16162654257E+03  0.16162654257E+03  0.00000000000E+00 0. -1.
         21    1    1    2  503  502  0.86565194122E+02  0.45751000666E+02 -0.80975015738E+01  0.98245897762E+02  0.00000000000E+00 0. -1.
         21    1    1    2  504  506 -0.11083821437E+02 -0.80758769468E+02 -0.83029818240E+02  0.11635626610E+03  0.00000000000E+00 0. -1.
         21    1    1    2  505  503 -0.35994327759E+02  0.44721196551E+02  0.96952381553E+02  0.11267360534E+03  0.00000000000E+00 0. -1.
         21    1    1    2  506  501 -0.39487044925E+02 -0.97134277486E+01  0.45781992466E+03  0.45962230234E+03  0.00000000000E+00 0. -1.
<scales pt_clust_3="14000.00000" pt_clust_4="77.93994" pt_clust_5="72.05985" pt_clust_6="40.66420"></scales>
<clustering>
<clus scale="   40.664">  1  6  2 -1</clus>
<clus scale="   72.060">  1  5  2 -1</clus>
<clus scale="   77.940">  2  4  1 -1</clus>
<clus scale="   40.664">  1  3  2 -1</clus>
</clustering>
</event>
<event>
 6    0  0.2666600E+002  0.9431415E+02  0.7546771E-02  0.1292728E+00
         21   -1    0    0  503  501  0.00000000000E+00  0.00000000000E+00  0.15450566775E+02  0.15450566775E+02  0.00000000000E+00 0. -1.
         21   -1    0    0  506  502 -0.00000000000E+00 -0.00000000000E+00 -0.12198045570E+04  0.12198045570E+04  0.00000000000E+00 0. -1.
         21    1    1    2  503  504  0.17440379763E+02 -0.38368776541E+02 -0.19028037831E+03  0.19489215538E+03  0.00000000000E+00 0. -1.
         21    1    1    2  504  502 -0.29155564350E+02 -0.14514943746E+02 -0.20403804790E+03  0.20662104325E+03  0.00000000000E+00 0.  1.
         21    1    1    2  505  501  0.95264717016E+02 -0.45170745296E+01 -0.35861459132E+03  0.37107976956E+03  0.00000000000E+00 0. -1.
         21    1    1    2  506  505 -0.83549532429E+02  0.57400794816E+02 -0.45142097271E+03  0.46266215559E+03  0.00000000000E+00 0. -1.
<scales pt_clust_3="42.81293" pt_clust_4="32.56886" pt_clust_5="94.31415" pt_clust_6="14000.00000"></scales>
<clustering>
<clus scale="   32.569">  2  4  1 -1</clus>
<clus scale="   42.813">  2  3  1 -1</clus>
<clus scale="   94.314">  1  5  2 -1</clus>
<clus scale="   94.314">  1  3  2 -1</clus>
</clustering>
</event>
<event>
 6    0  0.2666600E+002  0.9110316E+02  0.7546771E-02  0.1300202E+00
         21   -1    0    0  503  501  0.00000000000E+00  0.00000000000E+00  0.14058189545E+04  0.14058189545E+04  0.00000000000E+00 0. -1.
         21   -1    0    0  505  502 -0.00000000000E+00 -0.00000000000E+00 -0.48490089640E+03  0.48490089640E+03  0.00000000000E+00 0.  1.
         21    1    1    2  503  506 -0.26686755629E+02 -0.78514137698E+02  0.79428283962E+02  0.11482815438E+03  0.00000000000E+00 0.  1.
         21    1    1    2  504  502  0.17818838814E+02  0.45120254642E+02 -0.30874864841E+03  0.31253651993E+03  0.00000000000E+00 0.  1.
         21    1    1    2  505  501 -0.52953582678E+02  0.16302675488E+02  0.12996122258E+04  0.13007927569E+04  0.00000000000E+00 0. -1.
         21    1    1    2  506  504  0.61821499492E+02  0.17091207567E+02 -0.14937380325E+03  0.16256241962E+03  0.00000000000E+00 0.  1.
<scales pt_clust_3="91.10316" pt_clust_4="48.51132" pt_clust_5="55.39384" pt_clust_6="14000.00000"></scales>
<clustering>
<clus scale="   48.511">  2  4  1 -1</clus>
<clus scale="   55.394">  1  5  2 -1</clus>
<clus scale="   91.103">  1  3  2 -1</clus>
<clus scale="   55.394">  1  3  2 -1</clus>
</clustering>
</event>
<event>
 6    0  0.2666600E+002  0.1366341E+03  0.7546771E-02  0.1217931E+00
         21   -1    0    0  506  501  0.00000000000E+00  0.00000000000E+00  0.74789708036E+03  0.74789708036E+03  0.00000000000E+00 0. -1.
         21   -1    0    0  504  502 -0.00000000000E+00 -0.00000000000E+00 -0.99346008711E+02  0.99346008711E+02  0.00000000000E+00 0. -1.
         21    1    1    2  503  505 -0.57263114848E+02  0.45234292023E+02  0.44612670900E+03  0.45205557842E+03  0.00000000000E+00 0. -1.
         21    1    1    2  504  501  0.40031892531E+02 -0.29832278741E+02  0.21207393109E+02  0.54242702707E+02  0.00000000000E+00 0. -1.
         21    1    1    2  505  502  0.73453715101E+02 -0.45008024361E+02 -0.51054677156E+02  0.10013865676E+03  0.00000000000E+00 0. -1.
         21    1    1    2  506  503 -0.56222492785E+02  0.29606011080E+02  0.23227164670E+03  0.24080615118E+03  0.00000000000E+00 0. -1.
<scales pt_clust_3="34.32349" pt_clust_4="49.92512" pt_clust_5="131.58986" pt_clust_6="34.32349"></scales>
<clustering>
<clus scale="   34.323">  3  6 -1 -1</clus>
<clus scale="   49.925">  2  4  1 -1</clus>
<clus scale="  131.590">  2  5  1 -1</clus>
<clus scale="  136.634">  1  3  2 -1</clus>
</clustering>
</event>
<event>
 6    0  0.2666600E+002  0.2268388E+03  0.7546771E-02  0.1128885E+00
         21   -1    0    0  503  501  0.00000000000E+00  0.00000000000E+00  0.32098415506E+03  0.32098415506E+03  0.00000000000E+00 0.  1.
         21   -1    0    0  506  502 -0.00000000000E+00 -0.00000000000E+00 -0.31935340990E+03  0.31935340990E+03  0.00000000000E+00 0.  1.
         21    1    1    2  503  504 -0.94495961724E+02 -0.51150943718E+01 -0.79553695633E+02  0.12363026111E+03  0.00000000000E+00 0.  1.
         21    1    1    2  504  502 -0.77168393728E+02 -0.32138779086E+02 -0.43592943446E+02  0.94277286926E+02  0.00000000000E+00 0.  1.
         21    1    1    2  505  501  0.24038775402E+03 -0.68221186420E+02  0.15355952122E+03  0.29329324765E+03  0.00000000000E+00 0.  1.
         21    1    1    2  506  505 -0.68723398572E+02  0.10547505988E+03 -0.28782136980E+02  0.12913676927E+03  0.00000000000E+00 0.  1.
<scales pt_clust_3="35.93774" pt_clust_4="35.93774" pt_clust_5="223.59275" pt_clust_6="125.88842"></scales>
<clustering>
<clus scale="   35.938">  3  4 -1 -1</clus>
<clus scale="  125.888">  2  6  1 -1</clus>
<clus scale="  223.593">  1  5  2 -1</clus>
<clus scale="  223.593">  1  3  2 -1</clus>
</clustering>
</event>
<event>
 6    0  0.2666600E+002  0.1042204E+03  0.7546771E-02  0.1271663E+00
         21   -1    0    0  506  501  0.00000000000E+00  0.00000000000E+00  0.66501302056E+03  0.66501302056E+03  0.00000000000E+00 0. -1.
         21   -1    0    0  505  502 -0.00000000000E+00 -0.00000000000E+00 -0.86649091455E+02  0.86649091455E+02  0.00000000000E+00 0. -1.
         21    1    1    2  503  502 -0.10290435574E+03  0.36226525900E+01 -0.23475356477E+01  0.10299485893E+03  0.00000000000E+00 0. -1.
         21    1    1    2  504  501  0.34858775432E+02 -0.66214210479E+02  0.37979243844E+03  0.38709398367E+03  0.00000000000E+00 0. -1.
         21    1    1    2  505  504  0.10387967498E+03  0.69523209323E+02  0.12220937205E+03  0.17481302618E+03  0.00000000000E+00 0. -1.
         21    1    1    2  506  503 -0.35834094670E+02 -0.69316514332E+01  0.78709654266E+02  0.86760243240E+02  0.00000000000E+00 0.  1.
<scales pt_clust_3="14000.00000" pt_clust_4="71.66911" pt_clust_5="104.22036" pt_clust_6="36.49836"></scales>
<clustering>
<clus scale="   36.498">  1  6  2 -1</clus>
<clus scale="   71.669">  1  4  2 -1</clus>
<clus scale="  104.220">  1  5  2 -1</clus>
<clus scale="   36.498">  1  3  2 -1</clus>
</clustering>
</event>
<event>
 6    0  0.2666600E+002  0.1777891E+03  0.7546771E-02  0.1169960E+00
         21   -1    0    0  503  501  0.00000000000E+00  0.00000000000E+00  0.91576177166E+03  0.91576177166E+03  0.00000000000E+00 0. -1.
         21   -1    0    0  506  502 -0.00000000000E+00 -0.00000000000E+00 -0.35089718772E+02  0.35089718772E+02  0.00000000000E+00 0. -1.
         21    1    1    2  503  505  0.81810729021E+02 -0.86557415343E+02  0.31158581065E+03  0.33357292895E+03  0.00000000000E+00 0. -1.
         21    1    1    2  504  501 -0.42611326553E+01  0.42772950380E+02  0.61919162320E+02  0.75376821358E+02  0.00000000000E+00 0. -1.
         21    1    1    2  505  502  0.98653533843E+01 -0.54972427388E+02  0.19921975560E+03  0.20690046881E+03  0.00000000000E+00 0. -1.
         21    1    1    2  506  504 -0.87414949750E+02  0.98756892352E+02  0.30794732432E+03  0.33500127131E+03  0.00000000000E+00 0. -1.
<scales pt_clust_3="176.60455" pt_clust_4="32.16194" pt_clust_5="35.93641" pt_clust_6="32.16194"></scales>
<clustering>
<clus scale="   32.162">  4  6 -1 -1</clus>
<clus scale="   35.936">  3  5 -1 -1</clus>
<clus scale="  176.605">  1  3  2 -1</clus>
<clus scale="  176.605">  1  3  2 -1</clus>
</clustering>
</event>
<event>
 6    0  0.2666600E+002  0.1845270E+03  0.7546771E-02  0.1163492E+00
         21   -1    0    0  505  501  0.00000000000E+00  0.00000000000E+00  0.20699774877E+04  0.20699774877E+04  0.00000000000E+00 0. -1.
         21   -1    0    0  501  502 -0.00000000000E+00 -0.00000000000E+00 -0.57060854721E+03  0.57060854721E+03  0.00000000000E+00 0. -1.
         21    1    1    2  503  506 -0.15874178153E+03  0.46635399765E+01  0.16874795477E+04  0.16949359650E+04  0.00000000000E+00 0. -1.
         21    1    1    2  504  502  0.10669300872E+03 -0.29825456402E+02 -0.27039859562E+03  0.29221286158E+03  0.00000000000E+00 0. -1.
         21    1    1    2  505  503 -0.13033949624E+02  0.48054509223E+02  0.36196645860E+03  0.36537492641E+03  0.00000000000E+00 0. -1.
         21    1    1    2  506  504  0.65082722438E+02 -0.22892592797E+02 -0.27967847016E+03  0.28806228187E+03  0.00000000000E+00 0. -1.
<scales pt_clust_3="179.44868" pt_clust_4="33.92774" pt_clust_5="49.79076" pt_clust_6="33.92774"></scales>
<clustering>
<clus scale="   33.928">  4  6 -1 -1</clus>
<clus scale="   49.791">  1  5  2 -1</clus>
<clus scale="  179.449">  1  3  2 -1</clus>
<clus scale="   49.791">  1  3  2 -1</clus>
</clustering>
</event>
<event>
 6    0  0.2666600E+002  0.1202053E+03  0.7546771E-02  0.1242759E+00
         21   -1    0    0  504  501  0.00000000000E+00  0.00000000000E+00  0.14060109708E+04  0.14060109708E+04  0.00000000000E+00 0.  1.
         21   -1    0    0  505  502 -0.00000000000E+00 -0.00000000000E+00 -0.47068080227E+02  0.47068080227E+02  0.00000000000E+00 0. -1.
         21    1    1    2  503  506  0.26387361936E+01 -0.88131194029E+02  0.61098645563E+02  0.10727122065E+03  0.00000000000E+00 0. -1.
         21    1    1    2  504  503  0.31704077057E+01  0.65989384232E+02  0.27064900128E+03  0.27859564284E+03  0.00000000000E+00 0. -1.
         21    1    1    2  505  501  0.16617236253E+02  0.63807202062E+02  0.10165832378E+04  0.10187192797E+04  0.00000000000E+00 0.  1.
         21    1    1    2  506  502 -0.22426380152E+02 -0.41665392264E+02  0.10612005987E+02  0.48492907835E+02  0.00000000000E+00 0. -1.
<scales pt_clust_3="31.77479" pt_clust_4="112.10702" pt_clust_5="65.93551" pt_clust_6="31.77479"></scales>
<clustering>
<clus scale="   31.775">  3  6 -1 -1</clus>
<clus scale="   65.936">  1  5  2 -1</clus>
<clus scale="  112.107">  1  4  2 -1</clus>
<clus scale="   65.936">  1  3  2 -1</clus>
</clustering>
</event>
<event>
 6    0  0.2666600E+002  0.7710665E+02  0.7546771E-02  0.1337469E+00
         21   -1    0    0  506  501  0.00000000000E+00  0.00000000000E+00  0.94946342326E+03  0.94946342326E+03  0.00000000000E+00 0.  1.
         21   -1    0    0  505  502 -0.00000000000E+00 -0.00000000000E+00 -0.46370221193E+03  0.46370221193E+03  0.00000000000E+00 0. -1.
         21    1    1    2  503  502  0.51178591749E+02  0.13402162363E+02 -0.23542883002E+03  0.24129981396E+03  0.00000000000E+00 0. -1.
         21    1    1    2  504  501 -0.35570229589E+02 -0.42752360877E+01  0.69970350190E+02  0.78608961208E+02  0.00000000000E+00 0.  1.
         21    1    1    2  505  504 -0.10683039116E+03  0.38098437401E+02 -0.20318576303E+03  0.23269868436E+03  0.00000000000E+00 0. -1.
         21    1    1    2  506  503  0.91222029000E+02 -0.47225363677E+02  0.85440545419E+03  0.86055817566E+03  0.00000000000E+00 0.  1.
<scales pt_clust_3="52.78526" pt_clust_4="35.82623" pt_clust_5="77.10665" pt_clust_6="14000.00000"></scales>
<clustering>
<clus scale="   35.826">  1  4  2 -1</clus>
<clus scale="   52.785">  2  3  1 -1</clus>
<clus scale="   77.107">  2  5  1 -1</clus>
<clus scale="   35.826">  1  3  2 -1</clus>
</clustering>
</event>
<event>
 6    0  0.2666600E+002  0.2207393E+03  0.7546771E-02  0.1133333E+00
         21   -1    0    0  504  501  0.00000000000E+00  0.00000000000E+00  0.26602251698E+03  0.26602251698E+03  0.00000000000E+00 0.  1.
         21   -1    0    0  505  502 -0.00000000000E+00 -0.00000000000E+00 -0.18020733973E+03  0.18020733973E+03  0.00000000000E+00 0.  1.
         21    1    1    2  503  501  0.58153554382E+02  0.24781134459E+02  0.16313534894E+02  0.65284545897E+02  0.00000000000E+00 0. -1.
         21    1    1    2  504  506 -0.10476342894E+03 -0.89613775207E+02  0.81759837454E+02  0.16028311131E+03  0.00000000000E+00 0.  1.
         21    1    1    2  505  503  0.98346862370E+02  0.11243464473E+03 -0.48010086670E+00  0.14937832899E+03  0.00000000000E+00 0.  1.
         21    1    1    2  506  502 -0.51736987809E+02 -0.47602003986E+02 -0.11778094232E+02  0.71283870509E+02  0.00000000000E+00 0.  1.
<scales pt_clust_3="32.58396" pt_clust_4="52.50207" pt_clust_5="214.07815" pt_clust_6="52.50207"></scales>
<clustering>
<clus scale="   32.584">  3  5 -1 -1</clus>
<clus scale="   52.502">  4  6 -1 -1</clus>
<clus scale="  214.078">  2  3  1 -1</clus>
<clus scale="  220.739">  1  3  2 -1</clus>
</clustering>
</event>
<event>
 6    0  0.2666600E+002  0.1223599E+03  0.7546771E-02  0.1239254E+00
         21   -1    0    0  503  501  0.00000000000E+00  0.00000000000E+00  0.24889975816E+04  0.24889975816E+04  0.00000000000E+00 0.  1.
         21   -1    0    0  506  502 -0.00000000000E+00 -0.00000000000E+00 -0.42432290789E+02  0.42432290789E+02  0.00000000000E+00 0.  1.
         21    1    1    2  503  502  0.84261238897E+02 -0.44643946166E+02  0.22257151419E+04  0.22277569282E+04  0.00000000000E+00 0.  1.
         21    1    1    2  504  501  0.26866201563E+02  0.24798474060E+02  0.16394547096E+03  0.16797283873E+03  0.00000000000E+00 0.  1.
         21    1    1    2  505  504 -0.58954819489E+02  0.35366596069E+02  0.32647574458E+02  0.76107364798E+02  0.00000000000E+00 0.  1.
         21    1    1    2  506  505 -0.52172620971E+02 -0.15521123962E+02  0.24257103485E+02  0.59592740644E+02  0.00000000000E+00 0.  1.
<scales pt_clust_3="111.97641" pt_clust_4="36.56169" pt_clust_5="43.72792" pt_clust_6="43.72792"></scales>
<clustering>
<clus scale="   36.562">  1  4  2 -1</clus>
<clus scale="   43.728">  5  6 -1 -1</clus>
<clus scale="  111.976">  1  3  2 -1</clus>
<clus scale="   36.562">  1  3  2 -1</clus>
</clustering>
</event>
<event>
 6    0  0.2666600E+002  0.6795762E+02  0.7546771E-02  0.1367179E+00
         21   -1    0    0  503  501  0.00000000000E+00  0.00000000000E+00  0.10718686961E+04  0.10718686961E+04  0.00000000000E+00 0.  1.
         21   -1    0    0  505  502 -0.00000000000E+00 -0.00000000000E+00 -0.26847857075E+02  0.26847857075E+02  0.00000000000E+00 0.  1.
         21    1    1    2  503  506  0.23659978632E+02  0.34402075061E+02  0.33178373147E+03  0.33440057091E+03  0.00000000000E+00 0.  1.
         21    1    1    2  504  502  0.51311441537E+02  0.23366979785E+02  0.75042784812E+02  0.93863194753E+02  0.00000000000E+00 0.  1.
         21    1    1    2  505  501 -0.95968689317E+02  0.34714242302E+01  0.15082377275E+03  0.17880114804E+03  0.00000000000E+00 0.  1.
         21    1    1    2  506  504  0.20997269148E+02 -0.61240479076E+02  0.48737054997E+03  0.49165163944E+03  0.00000000000E+00 0.  1.
<scales pt_clust_3="41.75281" pt_clust_4="14000.00000" pt_clust_5="67.95762" pt_clust_6="53.13268"></scales>
<clustering>
<clus scale="   41.753">  1  3  2 -1</clus>
<clus scale="   53.133">  1  6  2 -1</clus>
<clus scale="   67.958">  1  5  2 -1</clus>
<clus scale="   41.753">  1  3  2 -1</clus>
</clustering>
</event>
<event>
 6    0  0.2666600E+002  0.9090474E+02  0.7546771E-02  0.1300675E+00
         21   -1    0    0  505  501  0.00000000000E+00  0.00000000000E+00  0.34069625883E+02  0.34069625883E+02  0.00000000000E+00 0.  1.
         21   -1    0    0  503  502 -0.00000000000E+00 -0.00000000000E+00 -0.85557459026E+03  0.85557459026E+03  0.00000000000E+00 0.  1.
         21    1    1    2  503  506 -0.11089467855E+03  0.62343080897E+02 -0.20598585806E+03  0.24210424033E+03  0.00000000000E+00 0.  1.
         21    1    1    2  504  502  0.83211176626E+02 -0.17187642315E+02 -0.52867825371E+03  0.53546261392E+03  0.00000000000E+00 0.  1.
         21    1    1    2  505  504 -0.19968647476E-01 -0.31434334643E+02 -0.70316813711E+02  0.77023191855E+02  0.00000000000E+00 0.  1.
         21    1    1    2  506  501  0.27703470576E+02 -0.13721103939E+02 -0.16524038904E+02  0.35054170036E+02  0.00000000000E+00 0.  1.
<scales pt_clust_3="90.90474" pt_clust_4="14000.00000" pt_clust_5="33.49699" pt_clust_6="30.91522"></scales>
<clustering>
<clus scale="   30.915">  1  6  2 -1</clus>
<clus scale="   33.497">  1  5  2 -1</clus>
<clus scale="   90.905">  1  3  2 -1</clus>
<clus scale="   30.915">  1  3  2 -1</clus>
</clustering>
</event>
<event>
 6    0  0.2666600E+002  0.1557491E+03  0.7546771E-02  0.1193581E+00
         21   -1    0    0  504  501  0.00000000000E+00  0.00000000000E+00  0.80728414413E+02  0.80728414413E+02  0.00000000000E+00 0.  1.
         21   -1    0    0  505  502 -0.00000000000E+00 -0.00000000000E+00 -0.19321232928E+04  0.19321232928E+04  0.00000000000E+00 0. -1.
         21    1    1    2  503  502  0.44250102243E+02 -0.67145499777E+02 -0.50368768098E+03  0.51006653454E+03  0.00000000000E+00 0.  1.
         21    1    1    2  504  503 -0.40782443679E+02 -0.10517974851E+03 -0.12693285211E+04  0.12743315431E+04  0.00000000000E+00 0. -1.
         21    1    1    2  505  506  0.59819173983E+02  0.10989181574E+03 -0.37586960887E+02  0.13064197017E+03  0.00000000000E+00 0.  1.
         21    1    1    2  506  501 -0.63286832548E+02  0.62433432555E+02 -0.40791715447E+02  0.97811659446E+02  0.00000000000E+00 0.  1.
<scales pt_clust_3="80.41511" pt_clust_4="14000.00000" pt_clust_5="155.74905" pt_clust_6="85.07895"></scales>
<clustering>
<clus scale="   80.415">  2  3  1 -1</clus>
<clus scale="   85.079">  1  6  2 -1</clus>
<clus scale="  155.749">  1  5  2 -1</clus>
<clus scale="   85.079">  1  3  2 -1</clus>
</clustering>
</event>
<event>
 6    0  0.2666600E+002  0.1233133E+03  0.7546771E-02  0.1237729E+00
         21   -1    0    0  506  501  0.00000000000E+00  0.00000000000E+00  0.89527507839E+02  0.89527507839E+02  0.00000000000E+00 0.  1.
         21   -1    0    0  505  502 -0.00000000000E+00 -0.00000000000E+00 -0.26161501041E+04  0.26161501041E+04  0.00000000000E+00 0.  1.
         21    1    1    2  503  504  0.28572103467E+02  0.39149504130E+02 -0.65251285270E+01  0.48904254135E+02  0.00000000000E+00 0.  1.
         21    1    1    2  504  502 -0.65114093144E+02 -0.69002089672E+02 -0.22258316702E+04  0.22278527235E+04  0.00000000000E+00 0.  1.
         21    1    1    2  505  501  0.28796593187E+02 -0.35118133258E+02 -0.34384265346E+03  0.34682891661E+03  0.00000000000E+00 0. -1.
         21    1    1    2  506  503  0.77453964900E+01  0.64970718800E+02  0.49576855936E+02  0.82091717686E+02  0.00000000000E+00 0.  1.
<scales pt_clust_3="48.29295" pt_clust_4="109.81643" pt_clust_5="45.41505" pt_clust_6="48.29295"></scales>
<clustering>
<clus scale="   45.415">  2  5  1 -1</clus>
<clus scale="   48.293">  3  6 -1 -1</clus>
<clus scale="  109.816">  2  4  1 -1</clus>
<clus scale="  123.313">  1  3  2 -1</clus>
</clustering>
</event>
<event>
 6    0  0.2666600E+002  0.7810903E+02  0.7546771E-02  0.1334505E+00
         21   -1    0    0  505  501  0.00000000000E+00  0.00000000000E+00  0.38505125445E+03  0.38505125445E+03  0.00000000000E+00 0. -1.
         21   -1    0    0  501  502 -0.00000000000E+00 -0.00000000000E+00 -0.12311639021E+03  0.12311639021E+03  0.00000000000E+00 0.  1.
         21    1    1    2  503  504 -0.13719425420E+03 -0.47428785710E+01 -0.70326040690E+01  0.13745623232E+03  0.00000000000E+00 0. -1.
         21    1    1    2  504  502  0.55536138708E+02  0.16773356749E+02 -0.24326410532E+02  0.62907729641E+02  0.00000000000E+00 0.  1.
         21    1    1    2  505  506  0.33365937156E+02  0.41022208303E+01  0.18634988945E+03  0.18935784979E+03  0.00000000000E+00 0. -1.
         21    1    1    2  506  503  0.48292178340E+02 -0.16132699009E+02  0.10694398939E+03  0.11844583291E+03  0.00000000000E+00 0. -1.
<scales pt_clust_3="78.10903" pt_clust_4="61.25703" pt_clust_5="33.61717" pt_clust_6="14000.00000"></scales>
<clustering>
<clus scale="   33.617">  1  5  2 -1</clus>
<clus scale="   61.257">  2  4  1 -1</clus>
<clus scale="   78.109">  2  3  1 -1</clus>
<clus scale="   33.617">  1  3  2 -1</clus>
</clustering>
</event>
<event>
 6    0  0.2666600E+002  0.2141313E+03  0.7546771E-02  0.1138336E+00
         21   -1    0    0  504  501  0.00000000000E+00  0.00000000000E+00  0.81462552866E+03  0.81462552866E+03  0.00000000000E+00 0.  1.
         21   -1    0    0  506  502 -0.00000000000E+00 -0.00000000000E+00 -0.59209445553E+02  0.59209445553E+02  0.00000000000E+00 0.  1.
         21    1    1    2  503  501  0.37244562681E+02  0.55470211996E+02  0.11976659070E+03  0.13714276545E+03  0.00000000000E+00 0.  1.
         21    1    1    2  504  505 -0.42008480636E+02 -0.54814481162E+02  0.13151593655E+03  0.14854555313E+03  0.00000000000E+00 0.  1.
         21    1    1    2  505  502 -0.11940060305E+03 -0.71197745644E+02  0.35697745884E+03  0.38309075832E+03  0.00000000000E+00 0.  1.
         21    1    1    2  506  503  0.12416452100E+03  0.70542014810E+02  0.14715609703E+03  0.20505589731E+03  0.00000000000E+00 0.  1.
<scales pt_clust_3="42.82713" pt_clust_4="32.14030" pt_clust_5="209.78887" pt_clust_6="42.82713"></scales>
<clustering>
<clus scale="   32.140">  4  5 -1 -1</clus>
<clus scale="   42.827">  3  6 -1 -1</clus>
<clus scale="  209.789">  1  4  2 -1</clus>
<clus scale="  209.789">  1  3  2 -1</clus>
</clustering>
</event>
<event>
 6    0  0.2666600E+002  0.9711407E+02  0.7546771E-02  0.1286484E+00
         21   -1    0    0  506  501  0.00000000000E+00  0.00000000000E+00  0.15252198004E+02  0.15252198004E+02  0.00000000000E+00 0.  1.
         21   -1    0    0  504  502 -0.00000000000E+00 -0.00000000000E+00 -0.39988146762E+04  0.39988146762E+04  0.00000000000E+00 0.  1.
         21    1    1    2  503  502  0.11124935980E+02  0.72740551333E+02 -0.23767599402E+04  0.23778988131E+04  0.00000000000E+00 0.  1.
         21    1    1    2  504  501  0.65429005532E+02 -0.37880949712E+02 -0.42999738814E+03  0.43659326028E+03  0.00000000000E+00 0.  1.
         21    1    1    2  505  503 -0.39022450427E+02  0.70555112968E+02 -0.85650636618E+03  0.86029293320E+03  0.00000000000E+00 0.  1.
         21    1    1    2  506  505 -0.37531491084E+02 -0.10541471459E+03 -0.32029878371E+03  0.33928186766E+03  0.00000000000E+00 0.  1.
<scales pt_clust_3="73.58636" pt_clust_4="70.84461" pt_clust_5="97.11407" pt_clust_6="14000.00000"></scales>
<clustering>
<clus scale="   73.586">  2  3  1 -1</clus>
<clus scale="   70.845">  2  4  1 -1</clus>
<clus scale="   97.114">  2  5  1 -1</clus>
<clus scale="   97.114">  1  3  2 -1</clus>
</clustering>
</event>
<event>
 6    0  0.2666600E+002  0.1404534E+03  0.7546771E-02  0.1212720E+00
         21   -1    0    0  505  501  0.00000000000E+00  0.00000000000E+00  0.94860242115E+02  0.94860242115E+02  0.00000000000E+00 0.  1.
         21   -1    0    0  506  502 -0.00000000000E+00 -0.00000000000E+00 -0.51083379775E+03  0.51083379775E+03  0.00000000000E+00 0.  1.
         21    1    1    2  503  504 -0.32247559468E+02  0.17143822816E+02  0.80634914581E+01  0.37401011308E+02  0.00000000000E+00 0.  1.
         21    1    1    2  504  502 -0.27507062764E+02 -0.17617840374E+02 -0.83591526996E+02  0.89747257266E+02  0.00000000000E+00 0.  1.
         21    1    1    2  505  503 -0.12802437578E+02  0.10380913136E+03  0.10937278152E+02  0.10516587952E+03  0.00000000000E+00 0.  1.
         21    1    1    2  506  501  0.72557059810E+02 -0.10333511380E+03 -0.35138279825E+03  0.37337989177E+03  0.00000000000E+00 0.  1.
<scales pt_clust_3="34.48502" pt_clust_4="32.66538" pt_clust_5="34.48502" pt_clust_6="128.14827"></scales>
<clustering>
<clus scale="   32.665">  2  4  1 -1</clus>
<clus scale="   34.485">  3  5 -1 -1</clus>
<clus scale="  128.148">  2  6  1 -1</clus>
<clus scale="  140.453">  1  3  2 -1</clus>
</clustering>
</event>
<event>
 6    0  0.2666600E+002  0.1077692E+03  0.7546771E-02  0.1264758E+00
         21   -1    0    0  504  501  0.00000000000E+00  0.00000000000E+00  0.15022198024E+03  0.15022198024E+03  0.00000000000E+00 0.  1.
         21   -1    0    0  505  502 -0.00000000000E+00 -0.00000000000E+00 -0.32228171469E+03  0.32228171469E+03  0.00000000000E+00 0.  1.
         21    1    1    2  503  502 -0.55210430101E+02 -0.21233510428E+02 -0.40616546726E+02  0.71754842519E+02  0.00000000000E+00 0.  1.
         21    1    1    2  504  506 -0.99648674943E+01  0.35672751990E+02 -0.86768567328E+01  0.38041183755E+02  0.00000000000E+00 0.  1.
         21    1    1    2  505  501  0.23677805946E+02  0.82482041632E+02  0.90553818681E+02  0.12475543982E+03  0.00000000000E+00 0.  1.
         21    1    1    2  506  503  0.41497491649E+02 -0.96921283194E+02 -0.21332014967E+03  0.23795222883E+03  0.00000000000E+00 0.  1.
<scales pt_clust_3="58.90273" pt_clust_4="37.03841" pt_clust_5="14000.00000" pt_clust_6="107.76922"></scales>
<clustering>
<clus scale="   37.038">  1  4  2 -1</clus>
<clus scale="   58.903">  2  3  1 -1</clus>
<clus scale="  107.769">  2  6  1 -1</clus>
<clus scale="   37.038">  1  3  2 -1</clus>
</clustering>
</event>
<event>
 6    0  0.2855464E+002  0.8534385E+02  0.7546771E-02  0.1314536E+00
         21   -1    0    0  506  501  0.00000000000E+00  0.00000000000E+00  0.40769936010E+03  0.40769936010E+03  0.00000000000E+00 0.  1.
         21   -1    0    0  503  502 -0.00000000000E+00 -0.00000000000E+00 -0.15531700073E+04  0.15531700073E+04  0.00000000000E+00 0. -1.
         21    1    1    2  503  501  0.84183755912E+02 -0.47551499099E+02 -0.45491729766E+02  0.10685292370E+03  0.00000000000E+00 0. -1.
         21    1    1    2  504  505 -0.17669762237E+02  0.36225798582E+02 -0.96717910612E+03  0.96801857023E+03  0.00000000000E+00 0. -1.
         21    1    1    2  505  502  0.17234387962E+02  0.31756481786E+02 -0.50381026763E+03  0.50510423086E+03  0.00000000000E+00 0. -1.
         21    1    1    2  506  504 -0.83748381637E+02 -0.20430781269E+02  0.37101045635E+03  0.38089364259E+03  0.00000000000E+00 0.  1.
<scales pt_clust_3="85.34385" pt_clust_4="65.54990" pt_clust_5="36.13168" pt_clust_6="14000.00000"></scales>
<clustering>
<clus scale="   36.132">  2  5  1 -1</clus>
<clus scale="   65.550">  2  4  1 -1</clus>
<clus scale="   85.344">  2  3  1 -1</clus>
<clus scale="   85.344">  1  3  2 -1</clus>
</clustering>
</event>
<event>
 6    0  0.2666600E+002  0.1211200E+03  0.7546771E-02  0.1241261E+00
         21   -1    0    0  503  501  0.00000000000E+00  0.00000000000E+00  0.19505702786E+04  0.19505702786E+04  0.00000000000E+00 0. -1.
         21   -1    0    0  506  502 -0.00000000000E+00 -0.00000000000E+00 -0.10394346197E+02  0.10394346197E+02  0.00000000000E+00 0. -1.
         21    1    1    2  503  505 -0.22538993624E+02 -0.36552233670E+02  0.31345372352E+03  0.31638158734E+03  0.00000000000E+00 0. -1.
         21    1    1    2  504  501  0.78662094132E+02  0.31630619447E+02  0.69448986498E+03  0.69964590594E+03  0.00000000000E+00 0. -1.
         21    1    1    2  505  502 -0.10466078733E+03  0.10824375293E+02  0.66394086231E+03  0.67222653634E+03  0.00000000000E+00 0. -1.
         21    1    1    2  506  504  0.48537686819E+02 -0.59027610693E+01  0.26829148158E+03  0.27271059517E+03  0.00000000000E+00 0. -1.
<scales pt_clust_3="42.94266" pt_clust_4="31.19642" pt_clust_5="113.94084" pt_clust_6="31.19642"></scales>
<clustering>
<clus scale="   31.196">  4  6 -1 -1</clus>
<clus scale="   42.943">  1  3  2 -1</clus>
<clus scale="  113.941">  2  5  1 -1</clus>
<clus scale="   42.943">  1  3  2 -1</clus>
</clustering>
</event>
<event>
 6    0  0.2666600E+002  0.1310079E+03  0.7546771E-02  0.1225968E+00
         21   -1    0    0  504  501  0.00000000000E+00  0.00000000000E+00  0.98958535240E+02  0.98958535240E+02  0.00000000000E+00 0. -1.
         21   -1    0    0  506  502 -0.00000000000E+00 -0.00000000000E+00 -0.53174521159E+03  0.53174521159E+03  0.00000000000E+00 0.  1.
         21    1    1    2  503  505 -0.52150339419E+02  0.76381547670E+02  0.26517086844E+02  0.96213068866E+02  0.00000000000E+00 0. -1.
         21    1    1    2  504  502  0.29898841267E+02  0.14165185844E+02 -0.46028027363E+02  0.56684852492E+02  0.00000000000E+00 0.  1.
         21    1    1    2  505  501 -0.39301555095E+02  0.54847959405E+01  0.87511523935E+01  0.40635918688E+02  0.00000000000E+00 0. -1.
         21    1    1    2  506  503  0.61553053247E+02 -0.96031529454E+02 -0.42202688823E+03  0.43716990678E+03  0.00000000000E+00 0.  1.
<scales pt_clust_3="32.21142" pt_clust_4="33.08464" pt_clust_5="32.21142" pt_clust_6="121.42823"></scales>
<clustering>
<clus scale="   32.211">  3  5 -1 -1</clus>
<clus scale="   33.085">  2  4  1 -1</clus>
<clus scale="  121.428">  2  6  1 -1</clus>
<clus scale="  131.008">  1  3  2 -1</clus>
</clustering>
</event>
<event>
 6    0  0.2666600E+002  0.1516770E+03  0.7546771E-02  0.1198427E+00
         21   -1    0    0  503  501  0.00000000000E+00  0.00000000000E+00  0.31666115166E+03  0.31666115166E+03  0.00000000000E+00 0. -1.
         21   -1    0    0  501  502 -0.00000000000E+00 -0.00000000000E+00 -0.12354559847E+03  0.12354559847E+03  0.00000000000E+00 0. -1.
         21    1    1    2  503  504 -0.28942343822E+02  0.33736837693E+02  0.59957719199E+02  0.74637534625E+02  0.00000000000E+00 0. -1.
         21    1    1    2  504  505 -0.11781081101E+03 -0.62759110389E+02  0.15785354678E+03  0.20672647474E+03  0.00000000000E+00 0. -1.
         21    1    1    2  505  506  0.94123908879E+02  0.17275318699E+02  0.75824376617E+01  0.95996042730E+02  0.00000000000E+00 0. -1.
         21    1    1    2  506  502  0.52629245950E+02  0.11746953997E+02 -0.32278150457E+02  0.62846698039E+02  0.00000000000E+00 0. -1.
<scales pt_clust_3="44.45035" pt_clust_4="144.09561" pt_clust_5="35.54655" pt_clust_6="35.54655"></scales>
<clustering>
<clus scale="   35.547">  5  6 -1 -1</clus>
<clus scale="   44.450">  1  3  2 -1</clus>
<clus scale="  144.096">  1  4  2 -1</clus>
<clus scale="   44.450">  1  3  2 -1</clus>
</clustering>
</event>
<event>
 6    0  0.2666600E+002  0.1393191E+03  0.7546771E-02  0.1214248E+00
         21   -1    0    0  504  501  0.00000000000E+00  0.00000000000E+00  0.41370311927E+03  0.41370311927E+03  0.00000000000E+00 0.  1.
         21   -1    0    0  503  502 -0.00000000000E+00 -0.00000000000E+00 -0.64979835657E+03  0.64979835657E+03  0.00000000000E+00 0. -1.
         21    1    1    2  503  505 -0.37571814945E+02 -0.47938363233E+02 -0.35733284682E+03  0.36248653956E+03  0.00000000000E+00 0. -1.
         21    1    1    2  504  502  0.62510317698E+02  0.35746227951E+02  0.15316279192E+02  0.73620113011E+02  0.00000000000E+00 0. -1.
         21    1    1    2  505  506 -0.25699854487E+02 -0.70110241613E+02 -0.25060399012E+03  0.26149242506E+03  0.00000000000E+00 0. -1.
         21    1    1    2  506  501  0.76135173432E+00  0.82302376895E+02  0.35652532045E+03  0.36590239821E+03  0.00000000000E+00 0.  1.
<scales pt_clust_3="38.56929" pt_clust_4="72.00925" pt_clust_5="38.56929" pt_clust_6="132.61240"></scales>
<clustering>
<clus scale="   38.569">  3  5 -1 -1</clus>
<clus scale="   72.009">  1  4  2 -1</clus>
<clus scale="  132.612">  1  6  2 -1</clus>
<clus scale="   72.009">  1  3  2 -1</clus>
</clustering>
</event>
<event>
 6    0  0.2666600E+002  0.1741204E+03  0.7546771E-02  0.1173618E+00
         21   -1    0    0  503  501  0.00000000000E+00  0.00000000000E+00  0.19580503407E+03  0.19580503407E+03  0.00000000000E+00 0.  1.
         21   -1    0    0  506  502 -0.00000000000E+00 -0.00000000000E+00 -0.27614479111E+03  0.27614479111E+03  0.00000000000E+00 0. -1.
         21    1    1    2  503  504 -0.41123201630E+02  0.10799286582E+03  0.75492702045E+02  0.13803160813E+03  0.00000000000E+00 0.  1.
         21    1    1    2  504  502 -0.51853387915E+02  0.45880297006E+02  0.17748281579E+02  0.71475709096E+02  0.00000000000E+00 0. -1.
         21    1    1    2  505  501  0.58509118499E+02 -0.12388280076E+03 -0.80886866015E+02  0.15910044113E+03  0.00000000000E+00 0. -1.
         21    1    1    2  506  505  0.34467471047E+02 -0.29990362064E+02 -0.92693874651E+02  0.10334206682E+03  0.00000000000E+00 0. -1.
<scales pt_clust_3="41.52439" pt_clust_4="41.52439" pt_clust_5="165.65050" pt_clust_6="45.68838"></scales>
<clustering>
<clus scale="   41.524">  3  4 -1 -1</clus>
<clus scale="   45.688">  2  6  1 -1</clus>
<clus scale="  165.651">  2  5  1 -1</clus>
<clus scale="  174.120">  1  3  2 -1</clus>
</clustering>
</event>
<event>
 6    0  0.2666600E+002  0.6810991E+02  0.7546771E-02  0.1366641E+00
         21   -1    0    0  505  501  0.00000000000E+00  0.00000000000E+00  0.57714920100E+03  0.57714920100E+03  0.00000000000E+00 0.  1.
         21   -1    0    0  506  502 -0.00000000000E+00 -0.00000000000E+00 -0.57055954879E+02  0.57055954879E+02  0.00000000000E+00 0.  1.
         21    1    1    2  503  502  0.65740241558E+02  0.52629834959E+02  0.80123833150E+02  0.11623901035E+03  0.00000000000E+00 0.  1.
         21    1    1    2  504  501  0.27926373596E+02 -0.36856796189E+02  0.82226017997E+02  0.94336757434E+02  0.00000000000E+00 0. -1.
         21    1    1    2  505  503 -0.24540482711E+02 -0.42058307850E+02  0.34520085660E+03  0.34861837007E+03  0.00000000000E+00 0.  1.
         21    1    1    2  506  504 -0.69126132443E+02  0.26285269080E+02  0.12542538373E+02  0.75011018030E+02  0.00000000000E+00 0.  1.
<scales pt_clust_3="68.10991" pt_clust_4="46.24182" pt_clust_5="68.37591" pt_clust_6="14000.00000"></scales>
<clustering>
<clus scale="   46.242">  1  4  2 -1</clus>
<clus scale="   68.376">  1  5  2 -1</clus>
<clus scale="   68.110">  1  3  2 -1</clus>
<clus scale="   46.242">  1  3  2 -1</clus>
</clustering>
</event>
<event>
 6    0  0.2666600E+002  0.1741906E+03  0.7546771E-02  0.1173547E+00
         21   -1    0    0  506  501  0.00000000000E+00  0.00000000000E+00  0.10284284293E+04  0.10284284293E+04  0.00000000000E+00 0.  1.
         21   -1    0    0  503  502 -0.00000000000E+00 -0.00000000000E+00 -0.37479016578E+02  0.37479016578E+02  0.00000000000E+00 0.  1.
         21    1    1    2  503  504 -0.25009131492E+02 -0.20651836325E+02  0.27965618935E+02  0.42825586324E+02  0.00000000000E+00 0.  1.
         21    1    1    2  504  501 -0.15398898941E+03  0.40360117342E+02  0.46699957899E+03  0.49338641520E+03  0.00000000000E+00 0.  1.
         21    1    1    2  505  502  0.55895712138E+02  0.13675728869E+02  0.17856918636E+03  0.18761212784E+03  0.00000000000E+00 0.  1.
         21    1    1    2  506  505  0.12310240876E+03 -0.33384009887E+02  0.31741502846E+03  0.34208331653E+03  0.00000000000E+00 0.  1.
<scales pt_clust_3="32.43386" pt_clust_4="167.91126" pt_clust_5="31.13139" pt_clust_6="31.13139"></scales>
<clustering>
<clus scale="   31.131">  5  6 -1 -1</clus>
<clus scale="   32.434">  2  3  1 -1</clus>
<clus scale="  167.911">  1  4  2 -1</clus>
<clus scale="  167.911">  1  3  2 -1</clus>
</clustering>
</event>
<event>
 6    0  0.2666600E+002  0.7760081E+02  0.7546771E-02  0.1336001E+00
         21   -1    0    0  506  501  0.00000000000E+00  0.00000000000E+00  0.16949184116E+03  0.16949184116E+03  0.00000000000E+00 0.  1.
         21   -1    0    0  503  502 -0.00000000000E+00 -0.00000000000E+00 -0.21702508700E+03  0.21702508700E+03  0.00000000000E+00 0.  1.
         21    1    1    2  503  504 -0.24301679725E+02 -0.58671003191E+02  0.50326806120E+02  0.81028671883E+02  0.00000000000E+00 0.  1.
         21    1    1    2  504  501  0.20187625743E+02  0.27928189939E+02  0.67843095361E+02  0.76093426882E+02  0.00000000000E+00 0. -1.
         21    1    1    2  505  502  0.75157252164E+02 -0.11329396780E+02 -0.82587142046E+02  0.11223904764E+03  0.00000000000E+00 0.  1.
         21    1    1    2  506  505 -0.71043198182E+02  0.42072210032E+02 -0.83116005275E+02  0.11715578175E+03  0.00000000000E+00 0.  1.
<scales pt_clust_3="41.27532" pt_clust_4="34.46047" pt_clust_5="14000.00000" pt_clust_6="77.60081"></scales>
<clustering>
<clus scale="   34.460">  1  4  2 -1</clus>
<clus scale="   41.275">  1  3  2 -1</clus>
<clus scale="   77.601">  1  6  2 -1</clus>
<clus scale="   34.460">  1  3  2 -1</clus>
</clustering>
</event>
<event>
 6    0  0.2666600E+002  0.1487757E+03  0.7546771E-02  0.1201986E+00
         21   -1    0    0  504  501  0.00000000000E+00  0.00000000000E+00  0.12344389665E+04  0.12344389665E+04  0.00000000000E+00 0. -1.
         21   -1    0    0  506  502 -0.00000000000E+00 -0.00000000000E+00 -0.37380097508E+03  0.37380097508E+03  0.00000000000E+00 0.  1.
         21    1    1    2  503  502 -0.15882007968E+03 -0.15834041758E+02 -0.29542853736E+03  0.33578647274E+03  0.00000000000E+00 0.  1.
         21    1    1    2  504  505  0.13071626980E+03 -0.87011879607E+02  0.10195179420E+04  0.10315399383E+04  0.00000000000E+00 0. -1.
         21    1    1    2  505  503 -0.32051179169E+02  0.12886201116E+03  0.95806771564E+02  0.16374258299E+03  0.00000000000E+00 0.  1.
         21    1    1    2  506  501  0.60154989046E+02 -0.26016089792E+02  0.40741815321E+02  0.77170947583E+02  0.00000000000E+00 0.  1.
<scales pt_clust_3="112.38464" pt_clust_4="148.77571" pt_clust_5="14000.00000" pt_clust_6="65.53976"></scales>
<clustering>
<clus scale="   65.540">  2  6  1 -1</clus>
<clus scale="  112.385">  2  3  1 -1</clus>
<clus scale="  148.776">  1  4  2 -1</clus>
<clus scale="  148.776">  1  3  2 -1</clus>
</clustering>
</event>
<event>
 6    0  0.2666600E+002  0.1307911E+03  0.7546771E-02  0.1226287E+00
         21   -1    0    0  505  501  0.00000000000E+00  0.00000000000E+00  0.26626530051E+03  0.26626530051E+03  0.00000000000E+00 0. -1.
         21   -1    0    0  504  502 -0.00000000000E+00 -0.00000000000E+00 -0.10143364158E+03  0.10143364158E+03  0.00000000000E+00 0. -1.
         21    1    1    2  503  501  0.40795285317E+02  0.16976808741E+02  0.61596789317E+02  0.75806541890E+02  0.00000000000E+00 0. -1.
         21    1    1    2  504  503  0.10384395230E+03 -0.62208211279E+01  0.39151261938E+02  0.11115343610E+03  0.00000000000E+00 0. -1.
         21    1    1    2  505  506 -0.41928321279E+02  0.10278812096E+02  0.62406461530E+02  0.75882834317E+02  0.00000000000E+00 0. -1.
         21    1    1    2  506  502 -0.10271091634E+03 -0.21034799708E+02  0.16771461514E+01  0.10485612978E+03  0.00000000000E+00 0. -1.
<scales pt_clust_3="40.00391" pt_clust_4="40.00391" pt_clust_5="43.16987" pt_clust_6="115.49312"></scales>
<clustering>
<clus scale="   40.004">  3  4 -1 -1</clus>
<clus scale="   43.170">  1  5  2 -1</clus>
<clus scale="  115.493">  2  6  1 -1</clus>
<clus scale="   43.170">  1  3  2 -1</clus>
</clustering>
</event>
<event>
 6    0  0.2666600E+002  0.1430240E+03  0.7546771E-02  0.1209317E+00
         21   -1    0    0  505  501  0.00000000000E+00  0.00000000000E+00  0.27801763713E+03  0.27801763713E+03  0.00000000000E+00 0.  1.
         21   -1    0    0  506  502 -0.00000000000E+00 -0.00000000000E+00 -0.21813567914E+03  0.21813567914E+03  0.00000000000E+00 0.  1.
         21    1    1    2  503  501 -0.14831858402E+03 -0.59182253490E+02  0.17909237064E+03  0.23994795001E+03  0.00000000000E+00 0.  1.
         21    1    1    2  504  502 -0.45861487698E+01  0.32623559659E+02 -0.49143332130E+02  0.59164148757E+02  0.00000000000E+00 0. -1.
         21    1    1    2  505  504  0.10762074837E+03  0.33295617043E+02  0.81839331202E+00  0.11265652827E+03  0.00000000000E+00 0. -1.
         21    1    1    2  506  503  0.45283984416E+02 -0.67369232117E+01 -0.70885473831E+02  0.84384689246E+02  0.00000000000E+00 0.  1.
<scales pt_clust_3="14000.00000" pt_clust_4="32.94434" pt_clust_5="143.02399" pt_clust_6="43.98343"></scales>
<clustering>
<clus scale="   32.944">  2  4  1 -1</clus>
<clus scale="   43.983">  2  6  1 -1</clus>
<clus scale="  143.024">  2  5  1 -1</clus>
<clus scale="  143.024">  1  3  2 -1</clus>
</clustering>
</event>
<event>
 6    0  0.2666600E+002  0.2193259E+03  0.7546771E-02  0.1134387E+00
         21   -1    0    0  503  501  0.00000000000E+00  0.00000000000E+00  0.10249993615E+03  0.10249993615E+03  0.00000000000E+00 0. -1.
         21   -1    0    0  505  502 -0.00000000000E+00 -0.00000000000E+00 -0.10348382257E+04  0.10348382257E+04  0.00000000000E+00 0.  1.
         21    1    1    2  503  502  0.90681061230E+02  0.15944006167E+03 -0.39075009843E+02  0.18753944792E+03  0.00000000000E+00 0. -1.
         21    1    1    2  504  506  0.27670258348E+01 -0.49030629348E+02 -0.33133559678E+03  0.33495512646E+03  0.00000000000E+00 0.  1.
         21    1    1    2  505  504 -0.53766924421E+02 -0.15516927525E+03 -0.50947030240E+03  0.53528345311E+03  0.00000000000E+00 0.  1.
         21    1    1    2  506  501 -0.39681162644E+02  0.44759842926E+02 -0.52457380529E+02  0.79560134361E+02  0.00000000000E+00 0.  1.
<scales pt_clust_3="205.04099" pt_clust_4="42.57694" pt_clust_5="42.57694" pt_clust_6="59.81671"></scales>
<clustering>
<clus scale="   42.577">  4  5 -1 -1</clus>
<clus scale="   59.817">  1  6  2 -1</clus>
<clus scale="  205.041">  1  3  2 -1</clus>
<clus scale="   59.817">  1  3  2 -1</clus>
</clustering>
</event>
<event>
 6    0  0.2666600E+002  0.9860596E+02  0.7546771E-02  0.1283255E+00
         21   -1    0    0  506  501  0.00000000000E+00  0.00000000000E+00  0.24397425628E+03  0.24397425628E+03  0.00000000000E+00 0.  1.
         21   -1    0    0  505  502 -0.00000000000E+00 -0.00000000000E+00 -0.30926180117E+03  0.30926180117E+03  0.00000000000E+00 0. -1.
         21    1    1    2  503  501 -0.79208057354E+02  0.39493231052E+02  0.81714316643E+02  0.12046103600E+03  0.00000000000E+00 0.  1.
         21    1    1    2  504  503  0.82468225068E+02  0.10295991284E+03 -0.14175467789E+03  0.19363920187E+03  0.00000000000E+00 0. -1.
         21    1    1    2  505  504  0.19604419375E+02 -0.90604521490E+02 -0.95164334230E+02  0.13285241090E+03  0.00000000000E+00 0.  1.
         21    1    1    2  506  502 -0.22864587088E+02 -0.51848622400E+02  0.89917150592E+02  0.10628340867E+03  0.00000000000E+00 0.  1.
<scales pt_clust_3="95.11951" pt_clust_4="98.60596" pt_clust_5="14000.00000" pt_clust_6="56.66629"></scales>
<clustering>
<clus scale="   56.666">  1  6  2 -1</clus>
<clus scale="   95.120">  1  3  2 -1</clus>
<clus scale="   98.606">  1  4  2 -1</clus>
<clus scale="   56.666">  1  3  2 -1</clus>
</clustering>
</event>
<event>
 6    0  0.2666600E+002  0.7918708E+02  0.7546771E-02  0.1331374E+00
         21   -1    0    0  503  501  0.00000000000E+00  0.00000000000E+00  0.28182487125E+04  0.28182487125E+04  0.00000000000E+00 0.  1.
         21   -1    0    0  505  502 -0.00000000000E+00 -0.00000000000E+00 -0.48645660285E+02  0.48645660285E+02  0.00000000000E+00 0.  1.
         21    1    1    2  503  506  0.26501802317E+02  0.44551897942E+02  0.20409076337E+04  0.20415658663E+04  0.00000000000E+00 0.  1.
         21    1    1    2  504  502 -0.17539399086E+02 -0.63960531620E+02  0.10969993146E+03  0.12818991804E+03  0.00000000000E+00 0.  1.
         21    1    1    2  505  501  0.75436078724E+01  0.84389117378E+02  0.10975648415E+02  0.85433564889E+02  0.00000000000E+00 0.  1.
         21    1    1    2  506  504 -0.16506011103E+02 -0.64980483700E+02  0.60801983867E+03  0.61170502359E+03  0.00000000000E+00 0.  1.
<scales pt_clust_3="51.83838" pt_clust_4="14000.00000" pt_clust_5="79.18708" pt_clust_6="30.31825"></scales>
<clustering>
<clus scale="   51.838">  1  3  2 -1</clus>
<clus scale="   30.318">  1  6  2 -1</clus>
<clus scale="   79.187">  2  5  1 -1</clus>
<clus scale="   51.838">  1  3  2 -1</clus>
</clustering>
</event>
<event>
 6    0  0.2666600E+002  0.1340905E+03  0.7546771E-02  0.1221509E+00
         21   -1    0    0  503  501  0.00000000000E+00  0.00000000000E+00  0.85511328984E+02  0.85511328984E+02  0.00000000000E+00 0.  1.
         21   -1    0    0  504  502 -0.00000000000E+00 -0.00000000000E+00 -0.96615830272E+03  0.96615830272E+03  0.00000000000E+00 0.  1.
         21    1    1    2  503  505  0.35799230733E+02 -0.50725990724E+02 -0.31351931262E+01  0.62165428430E+02  0.00000000000E+00 0.  1.
         21    1    1    2  504  506 -0.87475198849E+02  0.96439327404E+02 -0.83007746548E+03  0.84022678664E+03  0.00000000000E+00 0.  1.
         21    1    1    2  505  502  0.10243553608E+02 -0.73981048446E+02  0.72937885185E+01  0.75042156623E+02  0.00000000000E+00 0.  1.
         21    1    1    2  506  501  0.41432414508E+02  0.28267711766E+02 -0.54728103653E+02  0.74235260018E+02  0.00000000000E+00 0.  1.
<scales pt_clust_3="30.74159" pt_clust_4="129.78217" pt_clust_5="30.74159" pt_clust_6="50.15684"></scales>
<clustering>
<clus scale="   30.742">  3  5 -1 -1</clus>
<clus scale="   50.157">  1  6  2 -1</clus>
<clus scale="  129.782">  2  4  1 -1</clus>
<clus scale="   50.157">  1  3  2 -1</clus>
</clustering>
</event>
<event>
 6    0  0.2666600E+002  0.1320316E+03  0.7546771E-02  0.1224472E+00
         21   -1    0    0  506  501  0.00000000000E+00  0.00000000000E+00  0.20658865745E+04  0.20658865745E+04  0.00000000000E+00 0.  1.
         21   -1    0    0  503  502 -0.00000000000E+00 -0.00000000000E+00 -0.50827583184E+02  0.50827583184E+02  0.00000000000E+00 0.  1.
         21    1    1    2  503  501  0.11996944643E+03 -0.32563657666E+02  0.14416221211E+04  0.14469718034E+04  0.00000000000E+00 0.  1.
         21    1    1    2  504  505  0.62761265260E+01 -0.10189594485E+03  0.29784518698E+03  0.31485540927E+03  0.00000000000E+00 0.  1.
         21    1    1    2  505  502 -0.86512847440E+02  0.12636996433E+03  0.12132573722E+03  0.19538110238E+03  0.00000000000E+00 0.  1.
         21    1    1    2  506  504 -0.39732725519E+02  0.80896381854E+01  0.15426594607E+03  0.15950584265E+03  0.00000000000E+00 0. -1.
<scales pt_clust_3="93.71677" pt_clust_4="14000.00000" pt_clust_5="132.03162" pt_clust_6="40.54789"></scales>
<clustering>
<clus scale="   40.548">  1  6  2 -1</clus>
<clus scale="   93.717">  1  3  2 -1</clus>
<clus scale="  132.032">  2  5  1 -1</clus>
<clus scale="   40.548">  1  3  2 -1</clus>
</clustering>
</event>
<event>
 6    0  0.2666600E+002  0.1373589E+03  0.7546771E-02  0.1216928E+00
         21   -1    0    0  503  501  0.00000000000E+00  0.00000000000E+00  0.62889279025E+02  0.62889279025E+02  0.00000000000E+00 0.  1.
         21   -1    0    0  504  502 -0.00000000000E+00 -0.00000000000E+00 -0.11956901274E+04  0.11956901274E+04  0.00000000000E+00 0.  1.
         21    1    1    2  503  505  0.56184832075E+02 -0.62152001259E+02  0.35653160241E+01  0.83858917797E+02  0.00000000000E+00 0.  1.
         21    1    1    2  504  501 -0.10322473930E+03  0.48359636747E+02 -0.10156730363E+04  0.10220497629E+04  0.00000000000E+00 0.  1.
         21    1    1    2  505  506  0.44671167920E+02 -0.18424812128E+02 -0.31183013314E+02  0.57509714524E+02  0.00000000000E+00 0.  1.
         21    1    1    2  506  502  0.23687393054E+01  0.32217176639E+02 -0.89510114852E+02  0.95161011225E+02  0.00000000000E+00 0.  1.
<scales pt_clust_3="38.43881" pt_clust_4="127.70934" pt_clust_5="38.43881" pt_clust_6="32.30414"></scales>
<clustering>
<clus scale="   32.304">  2  6  1 -1</clus>
<clus scale="   38.439">  3  5 -1 -1</clus>
<clus scale="  127.709">  2  4  1 -1</clus>
<clus scale="  137.359">  1  3  2 -1</clus>
</clustering>
</event>
<event>
 6    0  0.2666600E+002  0.1461059E+03  0.7546771E-02  0.1205341E+00
         21   -1    0    0  504  501  0.00000000000E+00  0.00000000000E+00  0.46475069453E+03  0.46475069453E+03  0.00000000000E+00 0.  1.
         21   -1    0    0  505  502 -0.00000000000E+00 -0.00000000000E+00 -0.29952518380E+03  0.29952518380E+03  0.00000000000E+00 0.  1.
         21    1    1    2  503  502 -0.70358648636E+02  0.56466126407E+02 -0.14162500294E+03  0.16791784994E+03  0.00000000000E+00 0.  1.
         21    1    1    2  504  503 -0.66987839204E+02 -0.65146856807E+02 -0.11497213477E+03  0.14815557811E+03  0.00000000000E+00 0. -1.
         21    1    1    2  505  506  0.10465382569E+03 -0.13528099410E+02  0.35711404640E+03  0.37237867130E+03  0.00000000000E+00 0.  1.
         21    1    1    2  506  501  0.32692662154E+02  0.22208829810E+02  0.64708602047E+02  0.75823778982E+02  0.00000000000E+00 0.  1.
<scales pt_clust_3="90.21509" pt_clust_4="131.66338" pt_clust_5="38.76229" pt_clust_6="38.76229"></scales>
<clustering>
<clus scale="   38.762">  5  6 -1 -1</clus>
<clus scale="   90.215">  2  3  1 -1</clus>
<clus scale="  131.663">  2  4  1 -1</clus>
<clus scale="  146.106">  1  3  2 -1</clus>
</clustering>
</event>
<event>
 6    0  0.2666600E+002  0.1299934E+03  0.7546771E-02  0.1227466E+00
         21   -1    0    0  506  501  0.00000000000E+00  0.00000000000E+00  0.47162350853E+02  0.47162350853E+02  0.00000000000E+00 0. -1.
         21   -1    0    0  504  502 -0.00000000000E+00 -0.00000000000E+00 -0.83843088877E+03  0.83843088877E+03  0.00000000000E+00 0. -1.
         21    1    1    2  503  501 -0.16126424507E+02  0.11340843398E+03 -0.69093234603E+02  0.13377372512E+03  0.00000000000E+00 0. -1.
         21    1    1    2  504  505 -0.19504384705E+02 -0.44198649948E+02 -0.40586752202E+03  0.40873265971E+03  0.00000000000E+00 0. -1.
         21    1    1    2  505  503  0.18086414873E+01 -0.74604650017E+02 -0.29122530081E+03  0.30063482969E+03  0.00000000000E+00 0. -1.
         21    1    1    2  506  502  0.33822167724E+02  0.53948659898E+01 -0.25082480475E+02  0.42452025104E+02  0.00000000000E+00 0. -1.
<scales pt_clust_3="118.58253" pt_clust_4="42.67554" pt_clust_5="42.67554" pt_clust_6="34.24972"></scales>
<clustering>
<clus scale="   34.250">  1  6  2 -1</clus>
<clus scale="   42.676">  4  5 -1 -1</clus>
<clus scale="  118.583">  1  3  2 -1</clus>
<clus scale="   34.250">  1  3  2 -1</clus>
</clustering>
</event>
<event>
 6    0  0.2666600E+002  0.1209774E+03  0.7546771E-02  0.1241493E+00
         21   -1    0    0  504  501  0.00000000000E+00  0.00000000000E+00  0.40187765307E+02  0.40187765307E+02  0.00000000000E+00 0.  1.
         21   -1    0    0  506  502 -0.00000000000E+00 -0.00000000000E+00 -0.10306262743E+04  0.10306262743E+04  0.00000000000E+00 0.  1.
         21    1    1    2  503  501 -0.25956734763E+02 -0.70465242622E+02 -0.37611998655E+03  0.38354314853E+03  0.00000000000E+00 0.  1.
         21    1    1    2  504  505 -0.23771412694E+02  0.45565129378E+02 -0.16875085216E+02  0.54092786744E+02  0.00000000000E+00 0.  1.
         21    1    1    2  505  502  0.65923146471E+02  0.65499591541E+02 -0.11095967038E+03  0.14473460603E+03  0.00000000000E+00 0.  1.
         21    1    1    2  506  503 -0.16194999014E+02 -0.40599478297E+02 -0.48648376680E+03  0.48844349826E+03  0.00000000000E+00 0.  1.
<scales pt_clust_3="35.48556" pt_clust_4="51.39320" pt_clust_5="111.67901" pt_clust_6="35.48556"></scales>
<clustering>
<clus scale="   35.486">  3  6 -1 -1</clus>
<clus scale="   51.393">  1  4  2 -1</clus>
<clus scale="  111.679">  1  5  2 -1</clus>
<clus scale="   51.393">  1  3  2 -1</clus>
</clustering>
</event>
<event>
 6    0  0.2666600E+002  0.2261262E+03  0.7546771E-02  0.1129396E+00
         21   -1    0    0  504  501  0.00000000000E+00  0.00000000000E+00  0.15190508520E+04  0.15190508520E+04  0.00000000000E+00 0. -1.
         21   -1    0    0  503  502 -0.00000000000E+00 -0.00000000000E+00 -0.26678572798E+03  0.26678572798E+03  0.00000000000E+00 0.  1.
         21    1    1    2  503  506 -0.13626632508E+03 -0.63714820495E+02 -0.14861984935E+03  0.21146146060E+03  0.00000000000E+00 0.  1.
         21    1    1    2  504  502  0.24675517706E+03  0.13678983536E+03  0.11922306931E+04  0.12251586028E+04  0.00000000000E+00 0. -1.
         21    1    1    2  505  501 -0.95788649940E+02 -0.41287679592E+01  0.24981641874E+03  0.26758317446E+03  0.00000000000E+00 0. -1.
         21    1    1    2  506  505 -0.14700202039E+02 -0.68946246904E+02 -0.41162138465E+02  0.81633342117E+02  0.00000000000E+00 0.  1.
<scales pt_clust_3="66.71523" pt_clust_4="204.04796" pt_clust_5="95.87759" pt_clust_6="66.71523"></scales>
<clustering>
<clus scale="   66.715">  3  6 -1 -1</clus>
<clus scale="   95.878">  1  5  2 -1</clus>
<clus scale="  204.048">  1  4  2 -1</clus>
<clus scale="   95.878">  1  3  2 -1</clus>
</clustering>
</event>
<event>
 6    0  0.2666600E+002  0.1139294E+03  0.7546771E-02  0.1253462E+00
         21   -1    0    0  503  501  0.00000000000E+00  0.00000000000E+00  0.15518274236E+03  0.15518274236E+03  0.00000000000E+00 0. -1.
         21   -1    0    0  506  502 -0.00000000000E+00 -0.00000000000E+00 -0.49617035963E+03  0.49617035963E+03  0.00000000000E+00 0. -1.
         21    1    1    2  503  505 -0.84798649215E+02  0.88792275709E+02 -0.35633140466E+02  0.12784600046E+03  0.00000000000E+00 0. -1.
         21    1    1    2  504  501  0.33362438268E+02  0.80981922478E+02  0.58318251519E+02  0.10522424871E+03  0.00000000000E+00 0. -1.
         21    1    1    2  505  502  0.17250823690E+02 -0.72053169930E+02 -0.26537218800E+03  0.27552068594E+03  0.00000000000E+00 0. -1.
         21    1    1    2  506  504  0.34185387256E+02 -0.97721028257E+02 -0.98300540323E+02  0.14276216688E+03  0.00000000000E+00 0. -1.
<scales pt_clust_3="14000.00000" pt_clust_4="81.47055" pt_clust_5="74.08947" pt_clust_6="113.92938"></scales>
<clustering>
<clus scale="   74.089">  2  5  1 -1</clus>
<clus scale="   81.471">  1  4  2 -1</clus>
<clus scale="  113.929">  1  6  2 -1</clus>
<clus scale="   81.471">  1  3  2 -1</clus>
</clustering>
</event>
<event>
 6    0  0.2666600E+002  0.1044045E+03  0.7546771E-02  0.1271297E+00
         21   -1    0    0  503  501  0.00000000000E+00  0.00000000000E+00  0.32340498592E+03  0.32340498592E+03  0.00000000000E+00 0.  1.
         21   -1    0    0  505  502 -0.00000000000E+00 -0.00000000000E+00 -0.10240513063E+03  0.10240513063E+03  0.00000000000E+00 0.  1.
         21    1    1    2  503  504 -0.40320129758E+01  0.36442547998E+02  0.28567709729E+02  0.46480431069E+02  0.00000000000E+00 0.  1.
         21    1    1    2  504  502  0.40696746340E+02 -0.92107361278E+02 -0.31292906499E+01  0.10074613454E+03  0.00000000000E+00 0.  1.
         21    1    1    2  505  506 -0.33153460535E+02 -0.26351610500E+02 -0.20792301761E+02  0.47179223541E+02  0.00000000000E+00 0.  1.
         21    1    1    2  506  501 -0.35112728290E+01  0.82016423781E+02  0.21635373797E+03  0.23140432740E+03  0.00000000000E+00 0.  1.
<scales pt_clust_3="36.66492" pt_clust_4="104.40455" pt_clust_5="41.47436" pt_clust_6="14000.00000"></scales>
<clustering>
<clus scale="   36.665">  1  3  2 -1</clus>
<clus scale="   41.474">  2  5  1 -1</clus>
<clus scale="  104.405">  2  4  1 -1</clus>
<clus scale="   36.665">  1  3  2 -1</clus>
</clustering>
</event>
<event>
 6    0  0.2666600E+002  0.9966457E+02  0.7546771E-02  0.1281003E+00
         21   -1    0    0  506  501  0.00000000000E+00  0.00000000000E+00  0.12741367720E+03  0.12741367720E+03  0.00000000000E+00 0. -1.
         21   -1    0    0  505  502 -0.00000000000E+00 -0.00000000000E+00 -0.65913921632E+03  0.65913921632E+03  0.00000000000E+00 0.  1.
         21    1    1    2  503  502 -0.45423046195E+02 -0.12010997516E+02 -0.11056848540E+03  0.12013703489E+03  0.00000000000E+00 0. -1.
         21    1    1    2  504  501 -0.52600753116E+02  0.30415306253E+02  0.41540176523E+02  0.73603779444E+02  0.00000000000E+00 0. -1.
         21    1    1    2  505  504  0.14760751512E+03  0.29871655206E+02 -0.49430099846E+03  0.51673375289E+03  0.00000000000E+00 0.  1.
         21    1    1    2  506  503 -0.49583715804E+02 -0.48275963944E+02  0.31603768208E+02  0.76078326300E+02  0.00000000000E+00 0. -1.
<scales pt_clust_3="46.98422" pt_clust_4="61.75103" pt_clust_5="99.66457" pt_clust_6="14000.00000"></scales>
<clustering>
<clus scale="   46.984">  2  3  1 -1</clus>
<clus scale="   61.751">  1  4  2 -1</clus>
<clus scale="   99.665">  2  5  1 -1</clus>
<clus scale="   61.751">  1  3  2 -1</clus>
</clustering>
</event>
<event>
 6    0  0.2666600E+002  0.1400825E+03  0.7546771E-02  0.1213218E+00
         21   -1    0    0  504  501  0.00000000000E+00  0.00000000000E+00  0.28295595130E+03  0.28295595130E+03  0.00000000000E+00 0. -1.
         21   -1    0    0  505  502 -0.00000000000E+00 -0.00000000000E+00 -0.15678692655E+03  0.15678692655E+03  0.00000000000E+00 0. -1.
         21    1    1    2  503  501  0.79228787530E+02  0.10961036544E+02  0.13278848940E+03  0.15501654110E+03  0.00000000000E+00 0. -1.
         21    1    1    2  504  506 -0.11946349822E+03  0.53945205551E+01 -0.45002023439E+02  0.12777249459E+03  0.00000000000E+00 0. -1.
         21    1    1    2  505  503  0.84934431580E+02 -0.43833470013E+02  0.41914693307E+02  0.10436509127E+03  0.00000000000E+00 0. -1.
         21    1    1    2  506  502 -0.44699720887E+02  0.27477912914E+02 -0.35321345215E+01  0.52588750886E+02  0.00000000000E+00 0. -1.
<scales pt_clust_3="79.98341" pt_clust_4="30.67434" pt_clust_5="132.20683" pt_clust_6="30.67434"></scales>
<clustering>
<clus scale="   30.674">  4  6 -1 -1</clus>
<clus scale="   79.983">  1  3  2 -1</clus>
<clus scale="  132.207">  1  5  2 -1</clus>
<clus scale="   79.983">  1  3  2 -1</clus>
</clustering>
</event>
<event>
 6    0  0.2666600E+002  0.1224232E+03  0.7546771E-02  0.1239152E+00
         21   -1    0    0  506  501  0.00000000000E+00  0.00000000000E+00  0.13924656163E+03  0.13924656163E+03  0.00000000000E+00 0.  1.
         21   -1    0    0  503  502 -0.00000000000E+00 -0.00000000000E+00 -0.30276080539E+03  0.30276080539E+03  0.00000000000E+00 0.  1.
         21    1    1    2  503  501  0.14345722909E+03 -0.45714720385E+02 -0.88372282984E+02  0.17458371240E+03  0.00000000000E+00 0.  1.
         21    1    1    2  504  505 -0.52908684323E+02 -0.21044067874E+02 -0.28316311984E+02  0.63592414593E+02  0.00000000000E+00 0. -1.
         21    1    1    2  505  502 -0.40766113378E+02 -0.48258413852E+02 -0.46603538477E+02  0.78502485986E+02  0.00000000000E+00 0. -1.
         21    1    1    2  506  504 -0.49782431384E+02  0.11501720211E+03 -0.22211030856E+00  0.12532875404E+03  0.00000000000E+00 0.  1.
<scales pt_clust_3="14000.00000" pt_clust_4="30.02505" pt_clust_5="120.73929" pt_clust_6="122.42318"></scales>
<clustering>
<clus scale="   30.025">  4  5 -1 -1</clus>
<clus scale="  120.739">  2  4  1 -1</clus>
<clus scale="  122.423">  1  6  2 -1</clus>
<clus scale="  122.423">  1  3  2 -1</clus>
</clustering>
</event>
<event>
 6    0  0.2666600E+002  0.6595603E+02  0.7546771E-02  0.1374411E+00
         21   -1    0    0  504  501  0.00000000000E+00  0.00000000000E+00  0.19440739535E+03  0.19440739535E+03  0.00000000000E+00 0.  1.
         21   -1    0    0  505  502 -0.00000000000E+00 -0.00000000000E+00 -0.23295045610E+03  0.23295045610E+03  0.00000000000E+00 0.  1.
         21    1    1    2  503  502  0.17192530562E+02 -0.27053755220E+02 -0.63697822611E+02  0.71308494472E+02  0.00000000000E+00 0. -1.
         21    1    1    2  504  503 -0.10653589625E+03 -0.31812428958E+02  0.13167066059E+03  0.17233424119E+03  0.00000000000E+00 0.  1.
         21    1    1    2  505  506  0.34077053721E+02  0.61911640621E+02 -0.10715557160E+03  0.12836126114E+03  0.00000000000E+00 0.  1.
         21    1    1    2  506  501  0.55266311967E+02 -0.30454564439E+01  0.63967287131E+00  0.55353854651E+02  0.00000000000E+00 0. -1.
<scales pt_clust_3="32.05447" pt_clust_4="14000.00000" pt_clust_5="65.95603" pt_clust_6="58.59356"></scales>
<clustering>
<clus scale="   32.054">  2  3  1 -1</clus>
<clus scale="   58.594">  1  6  2 -1</clus>
<clus scale="   65.956">  2  5  1 -1</clus>
<clus scale="   58.594">  1  3  2 -1</clus>
</clustering>
</event>
<event>
 6    0  0.2666600E+002  0.1361644E+03  0.7546771E-02  0.1218585E+00
         21   -1    0    0  503  501  0.00000000000E+00  0.00000000000E+00  0.80185184815E+03  0.80185184815E+03  0.00000000000E+00 0.  1.
         21   -1    0    0  504  502 -0.00000000000E+00 -0.00000000000E+00 -0.79358392481E+02  0.79358392481E+02  0.00000000000E+00 0.  1.
         21    1    1    2  503  506  0.13122203081E+03  0.16336520902E+02  0.56985525936E+03  0.58499668367E+03  0.00000000000E+00 0.  1.
         21    1    1    2  504  505 -0.40404964214E+00  0.46312925404E+02  0.35881471430E+02  0.58587799989E+02  0.00000000000E+00 0. -1.
         21    1    1    2  505  501 -0.15988903818E+03 -0.46695752899E+02  0.70887121800E+02  0.18102481020E+03  0.00000000000E+00 0.  1.
         21    1    1    2  506  502  0.29071057012E+02 -0.15953693407E+02  0.45869603073E+02  0.56600946769E+02  0.00000000000E+00 0. -1.
<scales pt_clust_3="136.16445" pt_clust_4="44.05222" pt_clust_5="14000.00000" pt_clust_6="33.16092"></scales>
<clustering>
<clus scale="   33.161">  2  6  1 -1</clus>
<clus scale="   44.052">  2  4  1 -1</clus>
<clus scale="  136.164">  1  3  2 -1</clus>
<clus scale="  136.164">  1  3  2 -1</clus>
</clustering>
</event>
<event>
 6    0  0.2666600E+002  0.1468890E+03  0.7546771E-02  0.1204349E+00
         21   -1    0    0  505  501  0.00000000000E+00  0.00000000000E+00  0.14204640944E+04  0.14204640944E+04  0.00000000000E+00 0. -1.
         21   -1    0    0  501  502 -0.00000000000E+00 -0.00000000000E+00 -0.40197298267E+03  0.40197298267E+03  0.00000000000E+00 0.  1.
         21    1    1    2  503  506  0.33861596642E+02 -0.93210373176E+02  0.76955183438E+03  0.77591546395E+03  0.00000000000E+00 0. -1.
         21    1    1    2  504  502 -0.74688984865E+01  0.69773045444E+02 -0.27898488236E+03  0.28767451555E+03  0.00000000000E+00 0.  1.
         21    1    1    2  505  503  0.38457888485E+02 -0.21110784616E+02  0.62912944770E+03  0.63065722574E+03  0.00000000000E+00 0. -1.
         21    1    1    2  506  504 -0.64850586641E+02  0.44548112348E+02 -0.10120528804E+03  0.12818987179E+03  0.00000000000E+00 0.  1.
<scales pt_clust_3="41.20489" pt_clust_4="70.17166" pt_clust_5="41.20489" pt_clust_6="133.18560"></scales>
<clustering>
<clus scale="   41.205">  3  5 -1 -1</clus>
<clus scale="   70.172">  2  4  1 -1</clus>
<clus scale="  133.186">  2  6  1 -1</clus>
<clus scale="  146.889">  1  3  2 -1</clus>
</clustering>
</event>
<event>
 6    0  0.2666600E+002  0.7996488E+02  0.7546771E-02  0.1329151E+00
         21   -1    0    0  506  501  0.00000000000E+00  0.00000000000E+00  0.73060770501E+03  0.73060770501E+03  0.00000000000E+00 0. -1.
         21   -1    0    0  505  502 -0.00000000000E+00 -0.00000000000E+00 -0.61756625183E+02  0.61756625183E+02  0.00000000000E+00 0.  1.
         21    1    1    2  503  501  0.74030247279E+02  0.90099335080E+01  0.45870960891E+03  0.46473235493E+03  0.00000000000E+00 0. -1.
         21    1    1    2  504  502  0.10262784128E+02 -0.36887090157E+02 -0.64778480796E+01  0.38832263314E+02  0.00000000000E+00 0.  1.
         21    1    1    2  505  503 -0.10192762207E+03 -0.37009104941E+02  0.18513188985E+03  0.21455239600E+03  0.00000000000E+00 0.  1.
         21    1    1    2  506  504  0.17634590668E+02  0.64886261590E+02  0.31487429149E+02  0.74247315949E+02  0.00000000000E+00 0.  1.
<scales pt_clust_3="14000.00000" pt_clust_4="38.28815" pt_clust_5="79.96488" pt_clust_6="50.39845"></scales>
<clustering>
<clus scale="   38.288">  2  4  1 -1</clus>
<clus scale="   50.398">  2  6  1 -1</clus>
<clus scale="   79.965">  2  5  1 -1</clus>
<clus scale="   79.965">  1  3  2 -1</clus>
</clustering>
</event>
<event>
 6    0  0.2666600E+002  0.1471293E+03  0.7546771E-02  0.1204046E+00
         21   -1    0    0  506  501  0.00000000000E+00  0.00000000000E+00  0.38148478679E+03  0.38148478679E+03  0.00000000000E+00 0. -1.
         21   -1    0    0  503  502 -0.00000000000E+00 -0.00000000000E+00 -0.97944084239E+03  0.97944084239E+03  0.00000000000E+00 0. -1.
         21    1    1    2  503  505 -0.32963654367E+02 -0.11689601690E+02 -0.35042423025E+03  0.35216528853E+03  0.00000000000E+00 0. -1.
         21    1    1    2  504  502  0.30149870910E+02  0.15867311430E+03 -0.59577649254E+03  0.61728097409E+03  0.00000000000E+00 0. -1.
         21    1    1    2  505  501  0.36233366840E+02 -0.13814114441E+03  0.29846655177E+03  0.33087477265E+03  0.00000000000E+00 0. -1.
         21    1    1    2  506  504 -0.33419583384E+02 -0.88423682029E+01  0.49778115417E+02  0.60604593914E+02  0.00000000000E+00 0. -1.
<scales pt_clust_3="35.06690" pt_clust_4="14000.00000" pt_clust_5="147.12928" pt_clust_6="34.56958"></scales>
<clustering>
<clus scale="   34.570">  1  6  2 -1</clus>
<clus scale="   35.067">  2  3  1 -1</clus>
<clus scale="  147.129">  1  5  2 -1</clus>
<clus scale="   34.570">  1  3  2 -1</clus>
</clustering>
</event>
<event>
 6    0  0.2666600E+002  0.1797097E+03  0.7546771E-02  0.1168084E+00
         21   -1    0    0  503  501  0.00000000000E+00  0.00000000000E+00  0.10095149052E+03  0.10095149052E+03  0.00000000000E+00 0.  1.
         21   -1    0    0  506  502 -0.00000000000E+00 -0.00000000000E+00 -0.29444468918E+03  0.29444468918E+03  0.00000000000E+00 0.  1.
         21    1    1    2  503  504  0.59946521701E+02  0.34486255851E+02 -0.47285203521E+02  0.83778146188E+02  0.00000000000E+00 0.  1.
         21    1    1    2  504  502  0.49990875164E+02  0.77071672597E+02 -0.73928117889E+02  0.11791733092E+03  0.00000000000E+00 0. -1.
         21    1    1    2  505  501 -0.14097213898E+02 -0.74719846107E+02 -0.40880402576E+02  0.86330725450E+02  0.00000000000E+00 0.  1.
         21    1    1    2  506  505 -0.95840182968E+02 -0.36838082342E+02 -0.31399474671E+02  0.10736997714E+03  0.00000000000E+00 0.  1.
<scales pt_clust_3="33.11898" pt_clust_4="161.20917" pt_clust_5="75.82782" pt_clust_6="75.82782"></scales>
<clustering>
<clus scale="   33.119">  3  4 -1 -1</clus>
<clus scale="   75.828">  5  6 -1 -1</clus>
<clus scale="  161.209">  2  3  1 -1</clus>
<clus scale="  179.710">  1  3  2 -1</clus>
</clustering>
</event>
<event>
 6    0  0.2666600E+002  0.8509349E+02  0.7546771E-02  0.1315188E+00
         21   -1    0    0  504  501  0.00000000000E+00  0.00000000000E+00  0.58248591918E+02  0.58248591918E+02  0.00000000000E+00 0. -1.
         21   -1    0    0  505  502 -0.00000000000E+00 -0.00000000000E+00 -0.16716173677E+04  0.16716173677E+04  0.00000000000E+00 0. -1.
         21    1    1    2  503  502 -0.11697721722E+01 -0.67322248336E+02 -0.12859441044E+04  0.12877056703E+04  0.00000000000E+00 0. -1.
         21    1    1    2  504  503  0.53074163089E+02 -0.48652048408E+02 -0.71701399624E+02  0.10161190536E+03  0.00000000000E+00 0. -1.
         21    1    1    2  505  506 -0.29204575537E+02  0.18210415093E+02 -0.23570798864E+03  0.23820743556E+03  0.00000000000E+00 0.  1.
         21    1    1    2  506  501 -0.22699815380E+02  0.97763881651E+02 -0.20015283106E+02  0.10234094846E+03  0.00000000000E+00 0. -1.
<scales pt_clust_3="57.86753" pt_clust_4="14000.00000" pt_clust_5="34.41695" pt_clust_6="85.09349"></scales>
<clustering>
<clus scale="   34.417">  2  5  1 -1</clus>
<clus scale="   57.868">  2  3  1 -1</clus>
<clus scale="   85.093">  1  6  2 -1</clus>
<clus scale="   85.093">  1  3  2 -1</clus>
</clustering>
</event>
<event>
 6    0  0.2666600E+002  0.9934125E+02  0.7546771E-02  0.1281687E+00
         21   -1    0    0  504  501  0.00000000000E+00  0.00000000000E+00  0.48394402169E+03  0.48394402169E+03  0.00000000000E+00 0.  1.
         21   -1    0    0  503  502 -0.00000000000E+00 -0.00000000000E+00 -0.25787962789E+03  0.25787962789E+03  0.00000000000E+00 0. -1.
         21    1    1    2  503  506 -0.98491114807E+02 -0.22240804842E+02 -0.22011559251E+03  0.24216941831E+03  0.00000000000E+00 0. -1.
         21    1    1    2  504  502  0.14548996035E+02  0.27664178564E+02  0.26093192212E+02  0.40716516809E+02  0.00000000000E+00 0.  1.
         21    1    1    2  505  501  0.20318227767E+01  0.70426297390E+02  0.20208416017E+03  0.21401401697E+03  0.00000000000E+00 0.  1.
         21    1    1    2  506  505  0.81910295996E+02 -0.75849671112E+02  0.21800263393E+03  0.24492369750E+03  0.00000000000E+00 0.  1.
<scales pt_clust_3="14000.00000" pt_clust_4="31.25668" pt_clust_5="83.65987" pt_clust_6="99.34125"></scales>
<clustering>
<clus scale="   31.257">  1  4  2 -1</clus>
<clus scale="   83.660">  1  5  2 -1</clus>
<clus scale="   99.341">  1  6  2 -1</clus>
<clus scale="   31.257">  1  3  2 -1</clus>
</clustering>
</event>
<event>
 6    0  0.2666600E+002  0.1018433E+03  0.7546771E-02  0.1276467E+00
         21   -1    0    0  505  501  0.00000000000E+00  0.00000000000E+00  0.37007786137E+02  0.37007786137E+02  0.00000000000E+00 0. -1.
         21   -1    0    0  503  502 -0.00000000000E+00 -0.00000000000E+00 -0.14815322372E+04  0.14815322372E+04  0.00000000000E+00 0.  1.
         21    1    1    2  503  504 -0.31742095491E+02 -0.30543069882E+02 -0.36532919249E+03  0.36797535057E+03  0.00000000000E+00 0. -1.
         21    1    1    2  504  506  0.11886604699E+03  0.45002652096E+02 -0.23578050268E+03  0.26785597112E+03  0.00000000000E+00 0. -1.
         21    1    1    2  505  502 -0.75339687248E+02  0.37304854227E+02 -0.82064989978E+03  0.82494483369E+03  0.00000000000E+00 0.  1.
         21    1    1    2  506  501 -0.11784264245E+02 -0.51764436441E+02 -0.22764856072E+02  0.57763867909E+02  0.00000000000E+00 0. -1.
<scales pt_clust_3="44.05042" pt_clust_4="14000.00000" pt_clust_5="101.84334" pt_clust_6="54.42587"></scales>
<clustering>
<clus scale="   44.050">  2  3  1 -1</clus>
<clus scale="   54.426">  1  6  2 -1</clus>
<clus scale="  101.843">  2  5  1 -1</clus>
<clus scale="   54.426">  1  3  2 -1</clus>
</clustering>
</event>
<event>
 6    0  0.2666600E+002  0.1178501E+03  0.7546771E-02  0.1246686E+00
         21   -1    0    0  505  501  0.00000000000E+00  0.00000000000E+00  0.19001515777E+04  0.19001515777E+04  0.00000000000E+00 0. -1.
         21   -1    0    0  503  502 -0.00000000000E+00 -0.00000000000E+00 -0.57539548631E+02  0.57539548631E+02  0.00000000000E+00 0. -1.
         21    1    1    2  503  504  0.21281837441E+02  0.81992834813E+02  0.21392749723E+02  0.87369281251E+02  0.00000000000E+00 0. -1.
         21    1    1    2  504  501  0.10407913447E+03 -0.53752539342E+02  0.55337652176E+03  0.56563891004E+03  0.00000000000E+00 0. -1.
         21    1    1    2  505  506 -0.29494381998E+02 -0.68601747107E+02  0.11276330499E+04  0.11301028332E+04  0.00000000000E+00 0. -1.
         21    1    1    2  506  502 -0.95866589918E+02  0.40361451636E+02  0.14020970763E+03  0.17458010183E+03  0.00000000000E+00 0. -1.
<scales pt_clust_3="79.50952" pt_clust_4="14000.00000" pt_clust_5="74.67341" pt_clust_6="117.85009"></scales>
<clustering>
<clus scale="   74.673">  1  5  2 -1</clus>
<clus scale="   79.510">  2  3  1 -1</clus>
<clus scale="  117.850">  2  6  1 -1</clus>
<clus scale="   74.673">  1  3  2 -1</clus>
</clustering>
</event>
<event>
 6    0  0.2666600E+002  0.7691845E+02  0.7546771E-02  0.1338031E+00
         21   -1    0    0  503  501  0.00000000000E+00  0.00000000000E+00  0.13554835958E+03  0.13554835958E+03  0.00000000000E+00 0. -1.
         21   -1    0    0  504  502 -0.00000000000E+00 -0.00000000000E+00 -0.53024026291E+03  0.53024026291E+03  0.00000000000E+00 0. -1.
         21    1    1    2  503  505  0.53307101958E+02 -0.44945682872E+01 -0.53463703120E+02  0.75632108357E+02  0.00000000000E+00 0. -1.
         21    1    1    2  504  506 -0.27641915817E+02 -0.55306023804E+02  0.11734944089E+02  0.62932826822E+02  0.00000000000E+00 0. -1.
         21    1    1    2  505  502 -0.75986355506E+02  0.44699466684E+02 -0.42724177720E+03  0.43624248387E+03  0.00000000000E+00 0. -1.
         21    1    1    2  506  501  0.50321169364E+02  0.15101125408E+02  0.74278632895E+02  0.90981203441E+02  0.00000000000E+00 0. -1.
<scales pt_clust_3="76.91845" pt_clust_4="45.33864" pt_clust_5="14000.00000" pt_clust_6="52.53822"></scales>
<clustering>
<clus scale="   52.538">  1  6  2 -1</clus>
<clus scale="   45.339">  1  4  2 -1</clus>
<clus scale="   76.918">  1  3  2 -1</clus>
<clus scale="   52.538">  1  3  2 -1</clus>
</clustering>
</event>
<event>
 6    0  0.2666600E+002  0.9419137E+02  0.7546771E-02  0.1293008E+00
         21   -1    0    0  503  501  0.00000000000E+00  0.00000000000E+00  0.16285709291E+03  0.16285709291E+03  0.00000000000E+00 0.  1.
         21   -1    0    0  505  502 -0.00000000000E+00 -0.00000000000E+00 -0.20842010785E+04  0.20842010785E+04  0.00000000000E+00 0.  1.
         21    1    1    2  503  506  0.30859388715E+02  0.65941903946E+01 -0.28718245002E+01  0.31686473373E+02  0.00000000000E+00 0. -1.
         21    1    1    2  504  501 -0.36628275200E+02  0.86837745922E+02  0.12803303653E+03  0.15898076331E+03  0.00000000000E+00 0.  1.
         21    1    1    2  505  504 -0.21265427313E+02  0.39341316899E+02 -0.20084164969E+03  0.20576036029E+03  0.00000000000E+00 0.  1.
         21    1    1    2  506  502  0.27034313798E+02 -0.13277325322E+03 -0.18456635479E+04  0.18506305745E+04  0.00000000000E+00 0.  1.
<scales pt_clust_3="31.55606" pt_clust_4="14000.00000" pt_clust_5="44.57671" pt_clust_6="94.19137"></scales>
<clustering>
<clus scale="   31.556">  1  3  2 -1</clus>
<clus scale="   44.577">  2  5  1 -1</clus>
<clus scale="   94.191">  2  6  1 -1</clus>
<clus scale="   31.556">  1  3  2 -1</clus>
</clustering>
</event>
<event>
 6    0  0.2666600E+002  0.4049523E+03  0.7546771E-02  0.1042078E+00
         21   -1    0    0  504  501  0.00000000000E+00  0.00000000000E+00  0.14976958016E+04  0.14976958016E+04  0.00000000000E+00 0. -1.
         21   -1    0    0  501  502 -0.00000000000E+00 -0.00000000000E+00 -0.11252873297E+03  0.11252873297E+03  0.00000000000E+00 0.  1.
         21    1    1    2  503  505  0.13907789039E+03 -0.23331432132E+03  0.31533591499E+03  0.41619102754E+03  0.00000000000E+00 0.  1.
         21    1    1    2  504  506 -0.45338493810E+02  0.34818235042E+02  0.61819956501E+02  0.84199735951E+02  0.00000000000E+00 0. -1.
         21    1    1    2  505  502  0.10587772038E+03 -0.70600723164E+02  0.23273075943E+03  0.26525112661E+03  0.00000000000E+00 0.  1.
         21    1    1    2  506  503 -0.19961711696E+03  0.26909680944E+03  0.77528043768E+03  0.84458264444E+03  0.00000000000E+00 0. -1.
<scales pt_clust_3="73.78013" pt_clust_4="40.32768" pt_clust_5="73.78013" pt_clust_6="402.36754"></scales>
<clustering>
<clus scale="   40.328">  4  6 -1 -1</clus>
<clus scale="   73.780">  3  5 -1 -1</clus>
<clus scale="  402.368">  1  4  2 -1</clus>
<clus scale="  402.368">  1  3  2 -1</clus>
</clustering>
</event>
<event>
 6    0  0.2666600E+002  0.1412413E+03  0.7546771E-02  0.1211668E+00
         21   -1    0    0  506  501  0.00000000000E+00  0.00000000000E+00  0.26793359756E+04  0.26793359756E+04  0.00000000000E+00 0.  1.
         21   -1    0    0  505  502 -0.00000000000E+00 -0.00000000000E+00 -0.33247226521E+02  0.33247226521E+02  0.00000000000E+00 0.  1.
         21    1    1    2  503  504 -0.12381394896E+01  0.12913686644E+03  0.13238155592E+03  0.18493982700E+03  0.00000000000E+00 0.  1.
         21    1    1    2  504  502  0.31058253346E+02  0.16103826145E+02  0.72276224665E+02  0.80298200286E+02  0.00000000000E+00 0. -1.
         21    1    1    2  505  501 -0.29423388644E+02 -0.10155981251E+03  0.21559700600E+04  0.21585613336E+04  0.00000000000E+00 0.  1.
         21    1    1    2  506  503 -0.39672521306E+00 -0.43680880082E+02  0.28546090850E+03  0.28878384123E+03  0.00000000000E+00 0.  1.
<scales pt_clust_3="14000.00000" pt_clust_4="34.98497" pt_clust_5="141.24133" pt_clust_6="42.78760"></scales>
<clustering>
<clus scale="   34.985">  2  4  1 -1</clus>
<clus scale="   42.788">  1  6  2 -1</clus>
<clus scale="  141.241">  1  5  2 -1</clus>
<clus scale="   42.788">  1  3  2 -1</clus>
</clustering>
</event>
<event>
 6    0  0.2666600E+002  0.3247157E+03  0.7546771E-02  0.1073499E+00
         21   -1    0    0  504  501  0.00000000000E+00  0.00000000000E+00  0.91212502073E+03  0.91212502073E+03  0.00000000000E+00 0.  1.
         21   -1    0    0  506  502 -0.00000000000E+00 -0.00000000000E+00 -0.13033378883E+03  0.13033378883E+03  0.00000000000E+00 0.  1.
         21    1    1    2  503  502  0.37714922864E+02 -0.26537991867E+01  0.41064022308E+02  0.55818563085E+02  0.00000000000E+00 0.  1.
         21    1    1    2  504  503  0.16734964811E+03  0.26347336096E+03  0.40757296163E+03  0.51336131107E+03  0.00000000000E+00 0.  1.
         21    1    1    2  505  501 -0.14485769088E+03 -0.16401533421E+03  0.18643410346E+03  0.28747600839E+03  0.00000000000E+00 0.  1.
         21    1    1    2  506  505 -0.60206880092E+02 -0.96804227560E+02  0.14672014450E+03  0.18580292701E+03  0.00000000000E+00 0.  1.
<scales pt_clust_3="37.80817" pt_clust_4="320.18336" pt_clust_5="39.38592" pt_clust_6="39.38592"></scales>
<clustering>
<clus scale="   37.808">  2  3  1 -1</clus>
<clus scale="   39.386">  5  6 -1 -1</clus>
<clus scale="  320.183">  1  4  2 -1</clus>
<clus scale="  320.183">  1  3  2 -1</clus>
</clustering>
</event>
<event>
 6    0  0.2666600E+002  0.1206407E+03  0.7546771E-02  0.1242044E+00
         21   -1    0    0  504  501  0.00000000000E+00  0.00000000000E+00  0.38789624747E+03  0.38789624747E+03  0.00000000000E+00 0. -1.
         21   -1    0    0  505  502 -0.00000000000E+00 -0.00000000000E+00 -0.30456695180E+03  0.30456695180E+03  0.00000000000E+00 0.  1.
         21    1    1    2  503  506 -0.47180621164E+02  0.10400623455E+03 -0.92325064844E+02  0.14685784091E+03  0.00000000000E+00 0.  1.
         21    1    1    2  504  503  0.24232719028E+02 -0.80143894777E+02  0.30785253398E+03  0.31903518806E+03  0.00000000000E+00 0. -1.
         21    1    1    2  505  501 -0.13560006466E+02 -0.47529928053E+02  0.30550663618E+02  0.58106031387E+02  0.00000000000E+00 0. -1.
         21    1    1    2  506  502  0.36507908602E+02  0.23667588276E+02 -0.16274883709E+03  0.16846413891E+03  0.00000000000E+00 0.  1.
<scales pt_clust_3="120.64066" pt_clust_4="14000.00000" pt_clust_5="46.26384" pt_clust_6="43.50841"></scales>
<clustering>
<clus scale="   43.508">  2  6  1 -1</clus>
<clus scale="   46.264">  1  5  2 -1</clus>
<clus scale="  120.641">  2  3  1 -1</clus>
<clus scale="   46.264">  1  3  2 -1</clus>
</clustering>
</event>
<event>
 6    0  0.2666600E+002  0.1274665E+03  0.7546771E-02  0.1231264E+00
         21   -1    0    0  506  501  0.00000000000E+00  0.00000000000E+00  0.11446290648E+04  0.11446290648E+04  0.00000000000E+00 0.  1.
         21   -1    0    0  505  502 -0.00000000000E+00 -0.00000000000E+00 -0.73824935790E+02  0.73824935790E+02  0.00000000000E+00 0.  1.
         21    1    1    2  503  504  0.77058448718E+02  0.18253651108E+02 -0.87375227551E+00  0.79195730571E+02  0.00000000000E+00 0.  1.
         21    1    1    2  504  502  0.36939710297E+02 -0.32570157185E+02 -0.55082405061E+01  0.49555000246E+02  0.00000000000E+00 0.  1.
         21    1    1    2  505  501 -0.94980890767E+02 -0.13278191860E+02  0.10107821975E+04  0.10153217868E+04  0.00000000000E+00 0.  1.
         21    1    1    2  506  503 -0.19017268248E+02  0.27594697936E+02  0.66403924252E+02  0.74381482923E+02  0.00000000000E+00 0.  1.
<scales pt_clust_3="45.35990" pt_clust_4="45.35990" pt_clust_5="113.63199" pt_clust_6="33.51304"></scales>
<clustering>
<clus scale="   33.513">  1  6  2 -1</clus>
<clus scale="   45.360">  3  4 -1 -1</clus>
<clus scale="  113.632">  1  5  2 -1</clus>
<clus scale="   33.513">  1  3  2 -1</clus>
</clustering>
</event>
<event>
 6    0  0.2666600E+002  0.2250482E+03  0.7546771E-02  0.1130174E+00
         21   -1    0    0  505  501  0.00000000000E+00  0.00000000000E+00  0.15154121424E+03  0.15154121424E+03  0.00000000000E+00 0. -1.
         21   -1    0    0  506  502 -0.00000000000E+00 -0.00000000000E+00 -0.14590563061E+04  0.14590563061E+04  0.00000000000E+00 0. -1.
         21    1    1    2  503  501  0.14741841902E+03  0.43835468707E+02  0.76408166176E+02  0.17173219396E+03  0.00000000000E+00 0. -1.
         21    1    1    2  504  502 -0.73149716986E+02 -0.50387252144E+02 -0.40689703329E+03  0.41647923354E+03  0.00000000000E+00 0. -1.
         21    1    1    2  505  504 -0.12373617842E+03 -0.18144298025E+02 -0.95454232466E+03  0.96269980107E+03  0.00000000000E+00 0. -1.
         21    1    1    2  506  503  0.49467476392E+02  0.24696081462E+02 -0.22483900059E+02  0.59686291743E+02  0.00000000000E+00 0.  1.
<scales pt_clust_3="50.82668" pt_clust_4="60.52135" pt_clust_5="220.49418" pt_clust_6="50.82668"></scales>
<clustering>
<clus scale="   50.827">  3  6 -1 -1</clus>
<clus scale="   60.521">  4  5 -1 -1</clus>
<clus scale="  220.494">  2  4  1 -1</clus>
<clus scale="  225.048">  1  3  2 -1</clus>
</clustering>
</event>
<event>
 6    0  0.2666600E+002  0.1815282E+03  0.7546771E-02  0.1166332E+00
         21   -1    0    0  505  501  0.00000000000E+00  0.00000000000E+00  0.10159629366E+04  0.10159629366E+04  0.00000000000E+00 0.  1.
         21   -1    0    0  504  502 -0.00000000000E+00 -0.00000000000E+00 -0.48741663001E+03  0.48741663001E+03  0.00000000000E+00 0.  1.
         21    1    1    2  503  506  0.75673420152E+02  0.25702389452E+00  0.40592925801E+03  0.41292262603E+03  0.00000000000E+00 0.  1.
         21    1    1    2  504  501  0.58818400679E+02 -0.40441732535E+02  0.48489035361E+02  0.86292088508E+02  0.00000000000E+00 0. -1.
         21    1    1    2  505  503  0.37829710696E+02  0.10963594820E+02  0.52195490398E+03  0.52343883044E+03  0.00000000000E+00 0.  1.
         21    1    1    2  506  502 -0.17232153153E+03  0.29221113821E+02 -0.44782689080E+03  0.48072602160E+03  0.00000000000E+00 0.  1.
<scales pt_clust_3="38.14020" pt_clust_4="71.38024" pt_clust_5="38.14020" pt_clust_6="173.65943"></scales>
<clustering>
<clus scale="   38.140">  3  5 -1 -1</clus>
<clus scale="   71.380">  1  4  2 -1</clus>
<clus scale="  173.659">  2  6  1 -1</clus>
<clus scale="   71.380">  1  3  2 -1</clus>
</clustering>
</event>
<event>
 6    0  0.2666600E+002  0.1559708E+03  0.7546771E-02  0.1193322E+00
         21   -1    0    0  505  501  0.00000000000E+00  0.00000000000E+00  0.10109981956E+03  0.10109981956E+03  0.00000000000E+00 0.  1.
         21   -1    0    0  503  502 -0.00000000000E+00 -0.00000000000E+00 -0.42464345528E+03  0.42464345528E+03  0.00000000000E+00 0.  1.
         21    1    1    2  503  501 -0.17446672304E+02 -0.14260755488E+03 -0.16894217971E+03  0.22177186739E+03  0.00000000000E+00 0.  1.
         21    1    1    2  504  502 -0.52596320231E+02  0.69739205393E+01 -0.13137305204E+03  0.14168234637E+03  0.00000000000E+00 0.  1.
         21    1    1    2  505  506  0.33476971431E+02  0.33909224250E+02 -0.25750064584E+02  0.54162800255E+02  0.00000000000E+00 0.  1.
         21    1    1    2  506  504  0.36566021104E+02  0.10172441009E+03  0.25216606157E+01  0.10812626082E+03  0.00000000000E+00 0.  1.
<scales pt_clust_3="147.75392" pt_clust_4="53.05665" pt_clust_5="33.16806" pt_clust_6="33.16806"></scales>
<clustering>
<clus scale="   33.168">  5  6 -1 -1</clus>
<clus scale="   53.057">  2  4  1 -1</clus>
<clus scale="  147.754">  2  3  1 -1</clus>
<clus scale="  155.971">  1  3  2 -1</clus>
</clustering>
</event>
<event>
 6    0  0.2666600E+002  0.1802723E+03  0.7546771E-02  0.1167540E+00
         21   -1    0    0  505  501  0.00000000000E+00  0.00000000000E+00  0.46979534634E+03  0.46979534634E+03  0.00000000000E+00 0.  1.
         21   -1    0    0  504  502 -0.00000000000E+00 -0.00000000000E+00 -0.17414073791E+03  0.17414073791E+03  0.00000000000E+00 0.  1.
         21    1    1    2  503  502 -0.98791561243E+02  0.10137576882E+03  0.17974839045E+02  0.14268817020E+03  0.00000000000E+00 0.  1.
         21    1    1    2  504  501 -0.14234142929E+02  0.45243315030E+02 -0.81276042786E+02  0.94102941032E+02  0.00000000000E+00 0. -1.
         21    1    1    2  505  506  0.37317317058E+02 -0.29890006927E+02  0.55108711646E+02  0.72958651069E+02  0.00000000000E+00 0. -1.
         21    1    1    2  506  503  0.75708387113E+02 -0.11672907692E+03  0.30384710053E+03  0.33418632195E+03  0.00000000000E+00 0.  1.
<scales pt_clust_3="172.77818" pt_clust_4="47.42962" pt_clust_5="30.15327" pt_clust_6="30.15327"></scales>
<clustering>
<clus scale="   30.153">  5  6 -1 -1</clus>
<clus scale="   47.430">  2  4  1 -1</clus>
<clus scale="  172.778">  2  3  1 -1</clus>
<clus scale="  180.272">  1  3  2 -1</clus>
</clustering>
</event>
<event>
 6    0  0.2666600E+002  0.9117824E+02  0.7546771E-02  0.1300023E+00
         21   -1    0    0  502  501  0.00000000000E+00  0.00000000000E+00  0.16252011293E+04  0.16252011293E+04  0.00000000000E+00 0.  1.
         21   -1    0    0  503  502 -0.00000000000E+00 -0.00000000000E+00 -0.40545679979E+03  0.40545679979E+03  0.00000000000E+00 0. -1.
         21    1    1    2  503  505 -0.84778982541E+02  0.33133164567E+02 -0.31906845429E+03  0.33179807263E+03  0.00000000000E+00 0. -1.
         21    1    1    2  504  506  0.75705096480E+02  0.28475637652E+02  0.11036624735E+04  0.11066223290E+04  0.00000000000E+00 0.  1.
         21    1    1    2  505  504  0.23363198008E+02 -0.10151933118E+03 -0.42646128906E+02  0.11256423026E+03  0.00000000000E+00 0. -1.
         21    1    1    2  506  501 -0.14289311947E+02  0.39910528961E+02  0.47779643922E+03  0.47967329724E+03  0.00000000000E+00 0.  1.
<scales pt_clust_3="91.17824" pt_clust_4="14000.00000" pt_clust_5="89.94312" pt_clust_6="42.39145"></scales>
<clustering>
<clus scale="   42.391">  1  6  2 -1</clus>
<clus scale="   91.178">  2  3  1 -1</clus>
<clus scale="   89.943">  2  5  1 -1</clus>
<clus scale="   42.391">  1  3  2 -1</clus>
</clustering>
</event>
<event>
 6    0  0.2666600E+002  0.1347535E+03  0.7546771E-02  0.1220568E+00
         21   -1    0    0  504  501  0.00000000000E+00  0.00000000000E+00  0.20837776298E+03  0.20837776298E+03  0.00000000000E+00 0.  1.
         21   -1    0    0  506  502 -0.00000000000E+00 -0.00000000000E+00 -0.39293860050E+03  0.39293860050E+03  0.00000000000E+00 0.  1.
         21    1    1    2  503  502  0.66424947705E+01 -0.99492254013E+02  0.41748017517E+02  0.10810054723E+03  0.00000000000E+00 0.  1.
         21    1    1    2  504  503  0.72490265963E+02 -0.93448711704E+00  0.10817293802E+03  0.13021941655E+03  0.00000000000E+00 0.  1.
         21    1    1    2  505  501 -0.10370910674E+02  0.58558085611E+02 -0.16434785013E+03  0.17477648875E+03  0.00000000000E+00 0.  1.
         21    1    1    2  506  505 -0.68761850060E+02  0.41868655519E+02 -0.17013394294E+03  0.18821991095E+03  0.00000000000E+00 0.  1.
<scales pt_clust_3="120.90377" pt_clust_4="72.49629" pt_clust_5="51.14267" pt_clust_6="51.14267"></scales>
<clustering>
<clus scale="   51.143">  5  6 -1 -1</clus>
<clus scale="   72.496">  1  4  2 -1</clus>
<clus scale="  120.904">  1  3  2 -1</clus>
<clus scale="   72.496">  1  3  2 -1</clus>
</clustering>
</event>
<event>
 6    0  0.2666600E+002  0.7776936E+02  0.7546771E-02  0.1335504E+00
         21   -1    0    0  505  501  0.00000000000E+00  0.00000000000E+00  0.85013494396E+02  0.85013494396E+02  0.00000000000E+00 0. -1.
         21   -1    0    0  504  502 -0.00000000000E+00 -0.00000000000E+00 -0.15526286724E+04  0.15526286724E+04  0.00000000000E+00 0.  1.
         21    1    1    2  503  501 -0.20164411851E+02 -0.41365217332E+02  0.40371595542E+01  0.46195057825E+02  0.00000000000E+00 0. -1.
         21    1    1    2  504  503  0.46489632009E+02 -0.13371063729E+03 -0.10202381790E+04  0.10300125059E+04  0.00000000000E+00 0.  1.
         21    1    1    2  505  506 -0.14402490673E+02  0.10324269244E+03 -0.57859070798E-01  0.10424245118E+03  0.00000000000E+00 0. -1.
         21    1    1    2  506  502 -0.11922729485E+02  0.71833162180E+02 -0.45135629943E+03  0.45719215184E+03  0.00000000000E+00 0.  1.
<scales pt_clust_3="46.01831" pt_clust_4="77.76936" pt_clust_5="14000.00000" pt_clust_6="71.00070"></scales>
<clustering>
<clus scale="   46.018">  1  3  2 -1</clus>
<clus scale="   71.001">  2  6  1 -1</clus>
<clus scale="   77.769">  2  4  1 -1</clus>
<clus scale="   46.018">  1  3  2 -1</clus>
</clustering>
</event>
<event>
 6    0  0.2666600E+002  0.2169748E+03  0.7546771E-02  0.1136159E+00
         21   -1    0    0  504  501  0.00000000000E+00  0.00000000000E+00  0.19650342460E+03  0.19650342460E+03  0.00000000000E+00 0.  1.
         21   -1    0    0  506  502 -0.00000000000E+00 -0.00000000000E+00 -0.24324990281E+03  0.24324990281E+03  0.00000000000E+00 0.  1.
         21    1    1    2  503  502 -0.90739469785E+02  0.45348228870E+02  0.12435016107E+01  0.10144781681E+03  0.00000000000E+00 0.  1.
         21    1    1    2  504  503 -0.10058390809E+03  0.33493540941E+02 -0.58486657644E+02  0.12107695476E+03  0.00000000000E+00 0.  1.
         21    1    1    2  505  501  0.13196562379E+03 -0.20837053603E+02  0.12726138566E+02  0.13420530269E+03  0.00000000000E+00 0.  1.
         21    1    1    2  506  505  0.59357754078E+02 -0.58004716208E+02 -0.22294607430E+01  0.83023253168E+02  0.00000000000E+00 0.  1.
<scales pt_clust_3="57.20399" pt_clust_4="215.03603" pt_clust_5="51.42685" pt_clust_6="51.42685"></scales>
<clustering>
<clus scale="   51.427">  5  6 -1 -1</clus>
<clus scale="   57.204">  3  4 -1 -1</clus>
<clus scale="  215.036">  2  3  1 -1</clus>
<clus scale="  216.975">  1  3  2 -1</clus>
</clustering>
</event>
<event>
 6    0  0.2666600E+002  0.1422804E+03  0.7546771E-02  0.1210293E+00
         21   -1    0    0  505  501  0.00000000000E+00  0.00000000000E+00  0.88259564021E+03  0.88259564021E+03  0.00000000000E+00 0.  1.
         21   -1    0    0  503  502 -0.00000000000E+00 -0.00000000000E+00 -0.16637869425E+03  0.16637869425E+03  0.00000000000E+00 0. -1.
         21    1    1    2  503  501  0.34212416080E+02  0.66786313084E+02 -0.35206478169E+02  0.82887858787E+02  0.00000000000E+00 0. -1.
         21    1    1    2  504  506 -0.48767702790E+02 -0.32215959262E+02  0.22555053292E+03  0.23300042868E+03  0.00000000000E+00 0.  1.
         21    1    1    2  505  504 -0.78775871667E+02  0.60651393416E-01  0.60239547175E+03  0.60752444068E+03  0.00000000000E+00 0.  1.
         21    1    1    2  506  502  0.93331158377E+02 -0.34631005215E+02 -0.76522580546E+02  0.12556160631E+03  0.00000000000E+00 0. -1.
<scales pt_clust_3="75.03933" pt_clust_4="52.29664" pt_clust_5="52.29664" pt_clust_6="128.67628"></scales>
<clustering>
<clus scale="   52.297">  4  5 -1 -1</clus>
<clus scale="   75.039">  2  3  1 -1</clus>
<clus scale="  128.676">  2  6  1 -1</clus>
<clus scale="  142.280">  1  3  2 -1</clus>
</clustering>
</event>
<event>
 6    0  0.2666600E+002  0.1446964E+03  0.7546771E-02  0.1207146E+00
         21   -1    0    0  505  501  0.00000000000E+00  0.00000000000E+00  0.16371257061E+04  0.16371257061E+04  0.00000000000E+00 0.  1.
         21   -1    0    0  503  502 -0.00000000000E+00 -0.00000000000E+00 -0.27151202444E+02  0.27151202444E+02  0.00000000000E+00 0.  1.
         21    1    1    2  503  506 -0.21802573784E+02  0.29503102904E+02  0.12140617978E+03  0.12682762236E+03  0.00000000000E+00 0.  1.
         21    1    1    2  504  502  0.57477929039E+02 -0.68938451551E+02  0.15187255551E+03  0.17641285539E+03  0.00000000000E+00 0.  1.
         21    1    1    2  505  504  0.72357577106E+02 -0.38118754845E+02  0.19270191645E+03  0.20933868978E+03  0.00000000000E+00 0.  1.
         21    1    1    2  506  501 -0.10803293236E+03  0.77554103492E+02  0.11439938519E+04  0.11516977410E+04  0.00000000000E+00 0.  1.
<scales pt_clust_3="36.68495" pt_clust_4="41.69723" pt_clust_5="41.69723" pt_clust_6="138.50218"></scales>
<clustering>
<clus scale="   36.685">  2  3  1 -1</clus>
<clus scale="   41.697">  4  5 -1 -1</clus>
<clus scale="  138.502">  1  6  2 -1</clus>
<clus scale="  138.502">  1  3  2 -1</clus>
</clustering>
</event>
<event>
 6    0  0.3024277E+002  0.9708388E+02  0.7546771E-02  0.1286550E+00
         21   -1    0    0  504  501  0.00000000000E+00  0.00000000000E+00  0.10599469711E+03  0.10599469711E+03  0.00000000000E+00 0.  1.
         21   -1    0    0  506  502 -0.00000000000E+00 -0.00000000000E+00 -0.21641825114E+04  0.21641825114E+04  0.00000000000E+00 0. -1.
         21    1    1    2  503  505 -0.53244996979E+02 -0.32163349454E+02 -0.36647422002E+02  0.72197952124E+02  0.00000000000E+00 0. -1.
         21    1    1    2  504  503 -0.59131218099E+01 -0.56782973827E+02  0.73638554948E+02  0.93176756228E+02  0.00000000000E+00 0.  1.
         21    1    1    2  505  502  0.25512070353E+02 -0.23215460950E+02 -0.92814483640E+02  0.99016926503E+02  0.00000000000E+00 0.  1.
         21    1    1    2  506  501  0.33646048436E+02  0.11216178423E+03 -0.20023644636E+04  0.20057855736E+04  0.00000000000E+00 0. -1.
<scales pt_clust_3="14000.00000" pt_clust_4="57.18676" pt_clust_5="34.49382" pt_clust_6="97.08388"></scales>
<clustering>
<clus scale="   34.494">  2  5  1 -1</clus>
<clus scale="   57.187">  1  4  2 -1</clus>
<clus scale="   97.084">  2  6  1 -1</clus>
<clus scale="   57.187">  1  3  2 -1</clus>
</clustering>
</event>
<event>
 6    0  0.2666600E+002  0.1525148E+03  0.7546771E-02  0.1197416E+00
         21   -1    0    0  503  501  0.00000000000E+00  0.00000000000E+00  0.11753723306E+03  0.11753723306E+03  0.00000000000E+00 0.  1.
         21   -1    0    0  505  502 -0.00000000000E+00 -0.00000000000E+00 -0.43472917105E+03  0.43472917105E+03  0.00000000000E+00 0.  1.
         21    1    1    2  503  504  0.33679763042E+01 -0.69153731624E+02 -0.27216211446E+01  0.69289170031E+02  0.00000000000E+00 0.  1.
         21    1    1    2  504  506 -0.30640121149E+01 -0.80776824305E+02  0.34442279021E+02  0.87866683671E+02  0.00000000000E+00 0.  1.
         21    1    1    2  505  501  0.33624165780E+02  0.14035016692E+03 -0.31358195802E+03  0.34519907050E+03  0.00000000000E+00 0.  1.
         21    1    1    2  506  502 -0.33928129969E+02  0.95803890088E+01 -0.35330637848E+02  0.49911479917E+02  0.00000000000E+00 0.  1.
<scales pt_clust_3="32.22598" pt_clust_4="32.22598" pt_clust_5="148.48657" pt_clust_6="35.25481"></scales>
<clustering>
<clus scale="   32.226">  3  4 -1 -1</clus>
<clus scale="   35.255">  2  6  1 -1</clus>
<clus scale="  148.487">  2  5  1 -1</clus>
<clus scale="  152.515">  1  3  2 -1</clus>
</clustering>
</event>
<event>
 6    0  0.2666600E+002  0.1212404E+03  0.7546771E-02  0.1241065E+00
         21   -1    0    0  504  501  0.00000000000E+00  0.00000000000E+00  0.77003509168E+03  0.77003509168E+03  0.00000000000E+00 0.  1.
         21   -1    0    0  503  502 -0.00000000000E+00 -0.00000000000E+00 -0.50096943920E+02  0.50096943920E+02  0.00000000000E+00 0. -1.
         21    1    1    2  503  506 -0.64264355601E+02  0.45181589685E+01  0.28161606868E+01  0.64484509165E+02  0.00000000000E+00 0. -1.
         21    1    1    2  504  505  0.33090512251E+02  0.28869116123E+02  0.28109657643E+03  0.28450605116E+03  0.00000000000E+00 0. -1.
         21    1    1    2  505  502  0.85326359384E+02 -0.27156130676E+02  0.38892983497E+03  0.39910457222E+03  0.00000000000E+00 0.  1.
         21    1    1    2  506  501 -0.54152516033E+02 -0.62311444152E+01  0.47095575680E+02  0.72036903057E+02  0.00000000000E+00 0.  1.
<scales pt_clust_3="42.36730" pt_clust_4="43.91364" pt_clust_5="112.15080" pt_clust_6="42.36730"></scales>
<clustering>
<clus scale="   42.367">  3  6 -1 -1</clus>
<clus scale="   43.914">  1  4  2 -1</clus>
<clus scale="  112.151">  1  5  2 -1</clus>
<clus scale="   43.914">  1  3  2 -1</clus>
</clustering>
</event>
<event>
 6    0  0.2666600E+002  0.8695965E+02  0.7546771E-02  0.1310386E+00
         21   -1    0    0  506  501  0.00000000000E+00  0.00000000000E+00  0.65183935587E+02  0.65183935587E+02  0.00000000000E+00 0.  1.
         21   -1    0    0  504  502 -0.00000000000E+00 -0.00000000000E+00 -0.11428606934E+04  0.11428606934E+04  0.00000000000E+00 0.  1.
         21    1    1    2  503  501  0.32841560740E+02  0.44853352836E+01 -0.39486140190E+02  0.51554258908E+02  0.00000000000E+00 0.  1.
         21    1    1    2  504  503  0.51277636937E+02  0.85286904700E+02 -0.76288415579E+03  0.76934744253E+03  0.00000000000E+00 0.  1.
         21    1    1    2  505  502 -0.38659439802E+02 -0.76128815360E+00 -0.28418330883E+03  0.28680182158E+03  0.00000000000E+00 0.  1.
         21    1    1    2  506  505 -0.45459757875E+02 -0.89010951830E+02  0.88768470123E+01  0.10034110596E+03  0.00000000000E+00 0.  1.
<scales pt_clust_3="33.14644" pt_clust_4="86.95965" pt_clust_5="37.93828" pt_clust_6="14000.00000"></scales>
<clustering>
<clus scale="   33.146">  1  3  2 -1</clus>
<clus scale="   37.938">  2  5  1 -1</clus>
<clus scale="   86.960">  2  4  1 -1</clus>
<clus scale="   33.146">  1  3  2 -1</clus>
</clustering>
</event>
<event>
 6    0  0.2666600E+002  0.1611315E+03  0.7546771E-02  0.1187425E+00
         21   -1    0    0  504  501  0.00000000000E+00  0.00000000000E+00  0.50955812784E+03  0.50955812784E+03  0.00000000000E+00 0.  1.
         21   -1    0    0  506  502 -0.00000000000E+00 -0.00000000000E+00 -0.32969145159E+03  0.32969145159E+03  0.00000000000E+00 0. -1.
         21    1    1    2  503  502  0.14887893204E+03  0.25304151438E+02 -0.24024636289E+03  0.28376671998E+03  0.00000000000E+00 0. -1.
         21    1    1    2  504  503  0.33468032727E+02  0.54472764500E+02  0.20947203500E+03  0.21901124340E+03  0.00000000000E+00 0.  1.
         21    1    1    2  505  501 -0.19217747859E+03 -0.51248746575E+02  0.22727655224E+03  0.30201531170E+03  0.00000000000E+00 0.  1.
         21    1    1    2  506  505  0.98305138275E+01 -0.28528169363E+02 -0.16635548100E+02  0.34456304357E+02  0.00000000000E+00 0. -1.
<scales pt_clust_3="14000.00000" pt_clust_4="63.63328" pt_clust_5="161.13154" pt_clust_6="30.17442"></scales>
<clustering>
<clus scale="   30.174">  2  6  1 -1</clus>
<clus scale="   63.633">  1  4  2 -1</clus>
<clus scale="  161.132">  1  5  2 -1</clus>
<clus scale="   63.633">  1  3  2 -1</clus>
</clustering>
</event>
<event>
 6    0  0.2666600E+002  0.1623534E+03  0.7546771E-02  0.1186065E+00
         21   -1    0    0  505  501  0.00000000000E+00  0.00000000000E+00  0.67437534938E+03  0.67437534938E+03  0.00000000000E+00 0. -1.
         21   -1    0    0  506  502 -0.00000000000E+00 -0.00000000000E+00 -0.55455630442E+03  0.55455630442E+03  0.00000000000E+00 0.  1.
         21    1    1    2  503  502 -0.68755269825E+02  0.47165569216E+02 -0.19429800921E+03  0.21143224549E+03  0.00000000000E+00 0.  1.
         21    1    1    2  504  503  0.70132911840E+02  0.11937997455E+03 -0.31400742533E+03  0.34317760243E+03  0.00000000000E+00 0.  1.
         21    1    1    2  505  504  0.71098460360E+02 -0.25075381124E+02  0.11819600318E+03  0.14019294195E+03  0.00000000000E+00 0.  1.
         21    1    1    2  506  501 -0.72476102375E+02 -0.14147016264E+03  0.50992847632E+03  0.53412886394E+03  0.00000000000E+00 0. -1.
<scales pt_clust_3="82.23428" pt_clust_4="14000.00000" pt_clust_5="75.39075" pt_clust_6="162.35340"></scales>
<clustering>
<clus scale="   75.391">  1  5  2 -1</clus>
<clus scale="   82.234">  2  3  1 -1</clus>
<clus scale="  162.353">  1  6  2 -1</clus>
<clus scale="   75.391">  1  3  2 -1</clus>
</clustering>
</event>
<event>
 6    0  0.2666600E+002  0.1141667E+03  0.7546771E-02  0.1253043E+00
         21   -1    0    0  506  501  0.00000000000E+00  0.00000000000E+00  0.13363414922E+04  0.13363414922E+04  0.00000000000E+00 0.  1.
         21   -1    0    0  503  502 -0.00000000000E+00 -0.00000000000E+00 -0.38558946913E+02  0.38558946913E+02  0.00000000000E+00 0.  1.
         21    1    1    2  503  501 -0.26790757091E+02 -0.69603057989E+02  0.15744989701E+03  0.17422055107E+03  0.00000000000E+00 0.  1.
         21    1    1    2  504  505  0.44603563394E+02  0.75084278364E+01  0.31310165805E+03  0.31635186522E+03  0.00000000000E+00 0.  1.
         21    1    1    2  505  502 -0.78351500734E+02  0.91552271789E+02  0.10758735744E+03  0.16154199336E+03  0.00000000000E+00 0.  1.
         21    1    1    2  506  504  0.60538694430E+02 -0.29457641637E+02  0.71964363283E+03  0.72278602951E+03  0.00000000000E+00 0.  1.
<scales pt_clust_3="74.58103" pt_clust_4="33.87522" pt_clust_5="106.42353" pt_clust_6="33.87522"></scales>
<clustering>
<clus scale="   33.875">  4  6 -1 -1</clus>
<clus scale="   74.581">  2  3  1 -1</clus>
<clus scale="  106.424">  2  5  1 -1</clus>
<clus scale="  114.167">  1  3  2 -1</clus>
</clustering>
</event>
<event>
 6    0  0.2666600E+002  0.1064551E+03  0.7546771E-02  0.1267279E+00
         21   -1    0    0  506  501  0.00000000000E+00  0.00000000000E+00  0.13606115499E+04  0.13606115499E+04  0.00000000000E+00 0.  1.
         21   -1    0    0  505  502 -0.00000000000E+00 -0.00000000000E+00 -0.58210840815E+03  0.58210840815E+03  0.00000000000E+00 0.  1.
         21    1    1    2  503  502 -0.27767721429E+02  0.12023020377E+02 -0.25248315677E+03  0.25428988148E+03  0.00000000000E+00 0.  1.
         21    1    1    2  504  503  0.55833070288E+02 -0.11444223711E+03 -0.30944226411E+03  0.33461750132E+03  0.00000000000E+00 0.  1.
         21    1    1    2  505  501 -0.43593711840E+02  0.35085216638E+01  0.97519556954E+02  0.10687743178E+03  0.00000000000E+00 0. -1.
         21    1    1    2  506  504  0.15528362982E+02  0.98910695068E+02  0.12429090057E+04  0.12469351435E+04  0.00000000000E+00 0.  1.
<scales pt_clust_3="30.25887" pt_clust_4="14000.00000" pt_clust_5="44.14258" pt_clust_6="106.45507"></scales>
<clustering>
<clus scale="   30.259">  2  3  1 -1</clus>
<clus scale="   44.143">  1  5  2 -1</clus>
<clus scale="  106.455">  1  6  2 -1</clus>
<clus scale="   44.143">  1  3  2 -1</clus>
</clustering>
</event>
<event>
 6    0  0.2666600E+002  0.2199422E+03  0.7546771E-02  0.1133926E+00
         21   -1    0    0  506  501  0.00000000000E+00  0.00000000000E+00  0.70390092290E+03  0.70390092290E+03  0.00000000000E+00 0. -1.
         21   -1    0    0  504  502 -0.00000000000E+00 -0.00000000000E+00 -0.96399040492E+02  0.96399040492E+02  0.00000000000E+00 0. -1.
         21    1    1    2  503  501 -0.85772785970E+02 -0.69333490113E+02  0.20437632819E+03  0.23223648979E+03  0.00000000000E+00 0. -1.
         21    1    1    2  504  505  0.14834029119E+03  0.10646689145E+03  0.16646146282E+03  0.24708188839E+03  0.00000000000E+00 0. -1.
         21    1    1    2  505  503 -0.47095521950E+02 -0.12183832558E+03  0.14759747155E+03  0.19709789287E+03  0.00000000000E+00 0. -1.
         21    1    1    2  506  502 -0.15471983274E+02  0.84704924239E+02  0.89066619862E+02  0.12388369235E+03  0.00000000000E+00 0. -1.
<scales pt_clust_3="72.59623" pt_clust_4="205.26271" pt_clust_5="72.59623" pt_clust_6="86.10637"></scales>
<clustering>
<clus scale="   72.596">  3  5 -1 -1</clus>
<clus scale="   86.106">  2  6  1 -1</clus>
<clus scale="  205.263">  2  4  1 -1</clus>
<clus scale="  219.942">  1  3  2 -1</clus>
</clustering>
</event>
<event>
 6    0  0.2666600E+002  0.8811483E+02  0.7546771E-02  0.1307482E+00
         21   -1    0    0  506  501  0.00000000000E+00  0.00000000000E+00  0.66944983997E+02  0.66944983997E+02  0.00000000000E+00 0.  1.
         21   -1    0    0  505  502 -0.00000000000E+00 -0.00000000000E+00 -0.22628999920E+04  0.22628999920E+04  0.00000000000E+00 0.  1.
         21    1    1    2  503  501 -0.68904825065E+02  0.29355328222E+02 -0.67856235819E+02  0.10106472655E+03  0.00000000000E+00 0.  1.
         21    1    1    2  504  503 -0.40586277910E+02 -0.18724634471E+02 -0.89504665589E+03  0.89616202448E+03  0.00000000000E+00 0.  1.
         21    1    1    2  505  504 -0.15712786440E+02 -0.38412054156E+02 -0.11992789061E+04  0.11999967801E+04  0.00000000000E+00 0.  1.
         21    1    1    2  506  502  0.12520388942E+03  0.27781360405E+02 -0.33773210134E+02  0.13262144485E+03  0.00000000000E+00 0.  1.
<scales pt_clust_3="74.89733" pt_clust_4="34.04052" pt_clust_5="34.04052" pt_clust_6="80.72320"></scales>
<clustering>
<clus scale="   34.041">  4  5 -1 -1</clus>
<clus scale="   74.897">  1  3  2 -1</clus>
<clus scale="   80.723">  1  6  2 -1</clus>
<clus scale="   74.897">  1  3  2 -1</clus>
</clustering>
</event>
<event>
 6    0  0.2666600E+002  0.9793447E+02  0.7546771E-02  0.1284700E+00
         21   -1    0    0  503  501  0.00000000000E+00  0.00000000000E+00  0.20696191734E+04  0.20696191734E+04  0.00000000000E+00 0. -1.
         21   -1    0    0  505  502 -0.00000000000E+00 -0.00000000000E+00 -0.34982152479E+03  0.34982152479E+03  0.00000000000E+00 0.  1.
         21    1    1    2  503  504  0.51663797202E+01  0.46582460270E+02  0.64970909011E+03  0.65139735865E+03  0.00000000000E+00 0. -1.
         21    1    1    2  504  502 -0.56179886416E+02 -0.81659397976E+00 -0.32568898669E+03  0.33049986765E+03  0.00000000000E+00 0.  1.
         21    1    1    2  505  506 -0.20426737252E+02 -0.71762026677E+02  0.50446219484E+02  0.90065871048E+02  0.00000000000E+00 0.  1.
         21    1    1    2  506  501  0.71440243948E+02  0.25996160386E+02  0.13453313257E+04  0.13474776009E+04  0.00000000000E+00 0. -1.
<scales pt_clust_3="46.86808" pt_clust_4="56.17597" pt_clust_5="97.93447" pt_clust_6="14000.00000"></scales>
<clustering>
<clus scale="   46.868">  1  3  2 -1</clus>
<clus scale="   56.176">  2  4  1 -1</clus>
<clus scale="   97.934">  2  5  1 -1</clus>
<clus scale="   46.868">  1  3  2 -1</clus>
</clustering>
</event>
<event>
 6    0  0.2666600E+002  0.1485948E+03  0.7546771E-02  0.1202210E+00
         21   -1    0    0  506  501  0.00000000000E+00  0.00000000000E+00  0.73867351048E+02  0.73867351048E+02  0.00000000000E+00 0. -1.
         21   -1    0    0  503  502 -0.00000000000E+00 -0.00000000000E+00 -0.16164829213E+04  0.16164829213E+04  0.00000000000E+00 0. -1.
         21    1    1    2  503  501 -0.82299100399E+02  0.93048356454E+02 -0.13745301091E+04  0.13801319355E+04  0.00000000000E+00 0. -1.
         21    1    1    2  504  502  0.11418334877E+02  0.34505826620E+02 -0.15558402479E+03  0.15977302404E+03  0.00000000000E+00 0. -1.
         21    1    1    2  505  504  0.43899922777E+02 -0.48268103875E+02  0.28091550871E+01  0.65306235719E+02  0.00000000000E+00 0. -1.
         21    1    1    2  506  505  0.26980842746E+02 -0.79286079199E+02 -0.15310591402E+02  0.85139077039E+02  0.00000000000E+00 0. -1.
<scales pt_clust_3="144.55811" pt_clust_4="36.34598" pt_clust_5="30.36255" pt_clust_6="30.36255"></scales>
<clustering>
<clus scale="   30.363">  5  6 -1 -1</clus>
<clus scale="   36.346">  2  4  1 -1</clus>
<clus scale="  144.558">  2  3  1 -1</clus>
<clus scale="  148.595">  1  3  2 -1</clus>
</clustering>
</event>
<event>
 6    0  0.2666600E+002  0.1371731E+03  0.7546771E-02  0.1217184E+00
         21   -1    0    0  503  501  0.00000000000E+00  0.00000000000E+00  0.38722758652E+03  0.38722758652E+03  0.00000000000E+00 0.  1.
         21   -1    0    0  504  502 -0.00000000000E+00 -0.00000000000E+00 -0.14851417065E+03  0.14851417065E+03  0.00000000000E+00 0.  1.
         21    1    1    2  503  506 -0.32830853761E+02 -0.47992525031E+02  0.55360917491E+02  0.80286851993E+02  0.00000000000E+00 0.  1.
         21    1    1    2  504  505  0.59111182820E+02  0.25626199768E+02 -0.24482258906E+02  0.68921803880E+02  0.00000000000E+00 0. -1.
         21    1    1    2  505  501 -0.87173882572E+02  0.12875752351E+03  0.21314340657E+03  0.26383308630E+03  0.00000000000E+00 0.  1.
         21    1    1    2  506  502  0.60893553513E+02 -0.10639119825E+03 -0.53086492785E+01  0.12270001500E+03  0.00000000000E+00 0.  1.
<scales pt_clust_3="58.14763" pt_clust_4="61.04155" pt_clust_5="137.17310" pt_clust_6="14000.00000"></scales>
<clustering>
<clus scale="   58.148">  1  3  2 -1</clus>
<clus scale="   61.042">  2  4  1 -1</clus>
<clus scale="  137.173">  1  5  2 -1</clus>
<clus scale="   58.148">  1  3  2 -1</clus>
</clustering>
</event>
<event>
 6    0  0.2666600E+002  0.2196196E+03  0.7546771E-02  0.1134167E+00
         21   -1    0    0  504  501  0.00000000000E+00  0.00000000000E+00  0.27202772422E+03  0.27202772422E+03  0.00000000000E+00 0.  1.
         21   -1    0    0  503  502 -0.00000000000E+00 -0.00000000000E+00 -0.36287300969E+03  0.36287300969E+03  0.00000000000E+00 0.  1.
         21    1    1    2  503  506 -0.75567318471E+02 -0.10118500694E+03 -0.16610476080E+03  0.20866148857E+03  0.00000000000E+00 0.  1.
         21    1    1    2  504  502  0.10527159681E+03  0.16404373762E+03  0.12736121532E+03  0.23283757454E+03  0.00000000000E+00 0.  1.
         21    1    1    2  505  501 -0.17393872123E+02  0.32491557082E+02  0.44047155057E+02  0.57431698022E+02  0.00000000000E+00 0.  1.
         21    1    1    2  506  505 -0.12310406212E+02 -0.95350287763E+02 -0.96148895045E+02  0.13596997277E+03  0.00000000000E+00 0.  1.
<scales pt_clust_3="52.24289" pt_clust_4="211.15754" pt_clust_5="36.85442" pt_clust_6="52.24289"></scales>
<clustering>
<clus scale="   36.854">  1  5  2 -1</clus>
<clus scale="   52.243">  3  6 -1 -1</clus>
<clus scale="  211.158">  1  4  2 -1</clus>
<clus scale="   36.854">  1  3  2 -1</clus>
</clustering>
</event>
<event>
 6    0  0.2666600E+002  0.1643211E+03  0.7546771E-02  0.1183903E+00
         21   -1    0    0  503  501  0.00000000000E+00  0.00000000000E+00  0.60868982386E+03  0.60868982386E+03  0.00000000000E+00 0. -1.
         21   -1    0    0  506  502 -0.00000000000E+00 -0.00000000000E+00 -0.28939689983E+03  0.28939689983E+03  0.00000000000E+00 0. -1.
         21    1    1    2  503  505  0.40089952553E+02 -0.12789069997E+03 -0.17258433329E+03  0.21851450188E+03  0.00000000000E+00 0. -1.
         21    1    1    2  504  501  0.11053362239E+01  0.43927815393E+02  0.20659315732E+03  0.21121460031E+03  0.00000000000E+00 0. -1.
         21    1    1    2  505  502  0.31615951416E+02 -0.99799929578E+01 -0.78732587527E+02  0.85428268050E+02  0.00000000000E+00 0. -1.
         21    1    1    2  506  504 -0.72811240193E+02  0.93942877539E+02  0.36401668752E+03  0.38292935345E+03  0.00000000000E+00 0. -1.
<scales pt_clust_3="154.07810" pt_clust_4="34.86639" pt_clust_5="33.15371" pt_clust_6="34.86639"></scales>
<clustering>
<clus scale="   33.154">  2  5  1 -1</clus>
<clus scale="   34.866">  4  6 -1 -1</clus>
<clus scale="  154.078">  2  3  1 -1</clus>
<clus scale="  164.321">  1  3  2 -1</clus>
</clustering>
</event>
<event>
 6    0  0.2666600E+002  0.1349142E+03  0.7546771E-02  0.1220341E+00
         21   -1    0    0  506  501  0.00000000000E+00  0.00000000000E+00  0.41508392098E+03  0.41508392098E+03  0.00000000000E+00 0.  1.
         21   -1    0    0  503  502 -0.00000000000E+00 -0.00000000000E+00 -0.75565989792E+03  0.75565989792E+03  0.00000000000E+00 0.  1.
         21    1    1    2  503  501  0.19812834981E+02  0.14357677111E+03  0.35210042621E+03  0.38076442555E+03  0.00000000000E+00 0.  1.
         21    1    1    2  504  502 -0.65099229447E+02 -0.44171287505E+02 -0.42293422912E+03  0.43018876610E+03  0.00000000000E+00 0.  1.
         21    1    1    2  505  504 -0.14508491256E+02 -0.54270742940E+02 -0.27873146140E+03  0.28433613458E+03  0.00000000000E+00 0.  1.
         21    1    1    2  506  505  0.59794885723E+02 -0.45134740670E+02  0.89892873762E+01  0.75454492653E+02  0.00000000000E+00 0.  1.
<scales pt_clust_3="126.56603" pt_clust_4="39.48083" pt_clust_5="39.48083" pt_clust_6="74.91711"></scales>
<clustering>
<clus scale="   39.481">  4  5 -1 -1</clus>
<clus scale="   74.917">  1  6  2 -1</clus>
<clus scale="  126.566">  1  3  2 -1</clus>
<clus scale="   74.917">  1  3  2 -1</clus>
</clustering>
</event>
<event>
 6    0  0.2666600E+002  0.1007600E+03  0.7546771E-02  0.1278706E+00
         21   -1    0    0  504  501  0.00000000000E+00  0.00000000000E+00  0.16904155326E+03  0.16904155326E+03  0.00000000000E+00 0.  1.
         21   -1    0    0  503  502 -0.00000000000E+00 -0.00000000000E+00 -0.53139518818E+03  0.53139518818E+03  0.00000000000E+00 0.  1.
         21    1    1    2  503  506 -0.36460611290E+02 -0.10265976235E+03 -0.28655762279E+03  0.30656756867E+03  0.00000000000E+00 0.  1.
         21    1    1    2  504  502 -0.62170355791E+01  0.90630777645E+02  0.34570202371E+02  0.97199219544E+02  0.00000000000E+00 0.  1.
         21    1    1    2  505  501 -0.68603431736E+02 -0.22880765562E+02  0.57412524885E+02  0.92337198855E+02  0.00000000000E+00 0.  1.
         21    1    1    2  506  505  0.11128107861E+03  0.34909750264E+02 -0.16777873939E+03  0.20433275437E+03  0.00000000000E+00 0.  1.
<scales pt_clust_3="14000.00000" pt_clust_4="92.23792" pt_clust_5="72.31846" pt_clust_6="100.76004"></scales>
<clustering>
<clus scale="   72.318">  1  5  2 -1</clus>
<clus scale="   92.238">  1  4  2 -1</clus>
<clus scale="  100.760">  1  6  2 -1</clus>
<clus scale="   72.318">  1  3  2 -1</clus>
</clustering>
</event>
<event>
 6    0  0.2666600E+002  0.8665314E+02  0.7546771E-02  0.1311165E+00
         21   -1    0    0  506  501  0.00000000000E+00  0.00000000000E+00  0.68204155675E+03  0.68204155675E+03  0.00000000000E+00 0.  1.
         21   -1    0    0  503  502 -0.00000000000E+00 -0.00000000000E+00 -0.54194260149E+02  0.54194260149E+02  0.00000000000E+00 0. -1.
         21    1    1    2  503  501  0.30672046883E+02 -0.67354254420E+02  0.17022213327E+03  0.18561504439E+03  0.00000000000E+00 0.  1.
         21    1    1    2  504  505  0.57192631124E+02 -0.17710184624E+02  0.47197484661E+02  0.76238115485E+02  0.00000000000E+00 0.  1.
         21    1    1    2  505  502  0.16647211592E+02  0.44915486407E+02 -0.10832730027E+01  0.47913505960E+02  0.00000000000E+00 0. -1.
         21    1    1    2  506  504 -0.10451188960E+03  0.40148952637E+02  0.41151095167E+03  0.42646915106E+03  0.00000000000E+00 0.  1.
<scales pt_clust_3="86.65314" pt_clust_4="65.47080" pt_clust_5="47.90126" pt_clust_6="14000.00000"></scales>
<clustering>
<clus scale="   47.901">  2  5  1 -1</clus>
<clus scale="   65.471">  2  4  1 -1</clus>
<clus scale="   86.653">  2  3  1 -1</clus>
<clus scale="   86.653">  1  3  2 -1</clus>
</clustering>
</event>
<event>
 6    0  0.2666600E+002  0.1087883E+03  0.7546771E-02  0.1262830E+00
         21   -1    0    0  504  501  0.00000000000E+00  0.00000000000E+00  0.22116509674E+04  0.22116509674E+04  0.00000000000E+00 0. -1.
         21   -1    0    0  505  502 -0.00000000000E+00 -0.00000000000E+00 -0.27893211473E+03  0.27893211473E+03  0.00000000000E+00 0. -1.
         21    1    1    2  503  501 -0.40609520121E+02 -0.93822624962E+02  0.14787696475E+04  0.14822993924E+04  0.00000000000E+00 0. -1.
         21    1    1    2  504  502  0.33391022596E+02  0.12828223855E+03  0.71481995702E+03  0.72700678406E+03  0.00000000000E+00 0. -1.
         21    1    1    2  505  506 -0.44149625095E+02 -0.35870702226E+01 -0.12991715293E+03  0.13726078498E+03  0.00000000000E+00 0.  1.
         21    1    1    2  506  503  0.51368122621E+02 -0.30872543367E+02 -0.13095359895E+03  0.14401612075E+03  0.00000000000E+00 0. -1.
<scales pt_clust_3="108.78830" pt_clust_4="14000.00000" pt_clust_5="44.29511" pt_clust_6="35.58655"></scales>
<clustering>
<clus scale="   44.295">  2  5  1 -1</clus>
<clus scale="   35.587">  2  6  1 -1</clus>
<clus scale="  108.788">  1  3  2 -1</clus>
<clus scale="  108.788">  1  3  2 -1</clus>
</clustering>
</event>
<event>
 6    0  0.2666600E+002  0.1199569E+03  0.7546771E-02  0.1243168E+00
         21   -1    0    0  505  501  0.00000000000E+00  0.00000000000E+00  0.91607064580E+03  0.91607064580E+03  0.00000000000E+00 0.  1.
         21   -1    0    0  506  502 -0.00000000000E+00 -0.00000000000E+00 -0.77764514199E+02  0.77764514199E+02  0.00000000000E+00 0. -1.
         21    1    1    2  503  501 -0.19282225267E+02  0.44694092034E+02  0.17517135942E+03  0.18180861155E+03  0.00000000000E+00 0. -1.
         21    1    1    2  504  503  0.74851914540E+02 -0.20030442626E+02 -0.33109669013E+02  0.84263146892E+02  0.00000000000E+00 0. -1.
         21    1    1    2  505  502 -0.10813742888E+03 -0.15940872946E+02  0.64374629153E+03  0.65296026129E+03  0.00000000000E+00 0.  1.
         21    1    1    2  506  504  0.52567739605E+02 -0.87227764617E+01  0.52498149663E+02  0.74803140271E+02  0.00000000000E+00 0. -1.
<scales pt_clust_3="48.67613" pt_clust_4="14000.00000" pt_clust_5="119.95688" pt_clust_6="51.13578"></scales>
<clustering>
<clus scale="   48.676">  1  3  2 -1</clus>
<clus scale="   51.136">  2  6  1 -1</clus>
<clus scale="  119.957">  1  5  2 -1</clus>
<clus scale="   48.676">  1  3  2 -1</clus>
</clustering>
</event>
<event>
 6    0  0.2666600E+002  0.1390975E+03  0.7546771E-02  0.1214548E+00
         21   -1    0    0  505  501  0.00000000000E+00  0.00000000000E+00  0.20168101081E+03  0.20168101081E+03  0.00000000000E+00 0. -1.
         21   -1    0    0  506  502 -0.00000000000E+00 -0.00000000000E+00 -0.32572243924E+03  0.32572243924E+03  0.00000000000E+00 0. -1.
         21    1    1    2  503  504  0.68673449382E+02 -0.71484767315E+02  0.50208137038E+02  0.11111692775E+03  0.00000000000E+00 0. -1.
         21    1    1    2  504  501  0.36859897466E+02 -0.44771030860E+02  0.78595668519E+02  0.97674850168E+02  0.00000000000E+00 0. -1.
         21    1    1    2  505  502 -0.14259985584E+02  0.26479859079E+02  0.52292599189E+01  0.30526632389E+02  0.00000000000E+00 0. -1.
         21    1    1    2  506  503 -0.91273361264E+02  0.89775939096E+02 -0.25807449390E+03  0.28808503974E+03  0.00000000000E+00 0. -1.
<scales pt_clust_3="34.55745" pt_clust_4="34.55745" pt_clust_5="30.07541" pt_clust_6="130.37344"></scales>
<clustering>
<clus scale="   30.075">  1  5  2 -1</clus>
<clus scale="   34.557">  3  4 -1 -1</clus>
<clus scale="  130.373">  2  6  1 -1</clus>
<clus scale="   30.075">  1  3  2 -1</clus>
</clustering>
</event>
<event>
 6    0  0.2666600E+002  0.1510970E+03  0.7546771E-02  0.1199132E+00
         21   -1    0    0  503  501  0.00000000000E+00  0.00000000000E+00  0.64043291050E+03  0.64043291050E+03  0.00000000000E+00 0.  1.
         21   -1    0    0  505  502 -0.00000000000E+00 -0.00000000000E+00 -0.37976459866E+03  0.37976459866E+03  0.00000000000E+00 0. -1.
         21    1    1    2  503  506  0.39817031039E+02 -0.17304898989E+02 -0.51870270422E+02  0.67641558553E+02  0.00000000000E+00 0.  1.
         21    1    1    2  504  501 -0.90129322320E+02  0.32612489635E+02  0.33823921481E+03  0.35155744290E+03  0.00000000000E+00 0.  1.
         21    1    1    2  505  504 -0.46147038539E+02 -0.21268889553E+02  0.27783793276E+03  0.28244615718E+03  0.00000000000E+00 0.  1.
         21    1    1    2  506  502  0.96459329820E+02  0.59612989072E+01 -0.30353856531E+03  0.31855235052E+03  0.00000000000E+00 0. -1.
<scales pt_clust_3="43.07527" pt_clust_4="149.69807" pt_clust_5="44.34621" pt_clust_6="43.07527"></scales>
<clustering>
<clus scale="   43.075">  3  6 -1 -1</clus>
<clus scale="   44.346">  4  5 -1 -1</clus>
<clus scale="  149.698">  1  4  2 -1</clus>
<clus scale="  149.698">  1  3  2 -1</clus>
</clustering>
</event>
<event>
 6    0  0.2666600E+002  0.1677935E+03  0.7546771E-02  0.1180169E+00
         21   -1    0    0  506  501  0.00000000000E+00  0.00000000000E+00  0.23270951533E+02  0.23270951533E+02  0.00000000000E+00 0.  1.
         21   -1    0    0  505  502 -0.00000000000E+00 -0.00000000000E+00 -0.19353975217E+04  0.19353975217E+04  0.00000000000E+00 0.  1.
         21    1    1    2  503  502  0.73824218431E+02  0.24132257792E+02 -0.67768391321E+03  0.68212012675E+03  0.00000000000E+00 0.  1.
         21    1    1    2  504  501 -0.27965869882E+02 -0.44704894805E+02 -0.10391239435E+03  0.11652640558E+03  0.00000000000E+00 0.  1.
         21    1    1    2  505  504 -0.11027174823E+03 -0.32514253555E+02 -0.24573570507E+03  0.27129886083E+03  0.00000000000E+00 0.  1.
         21    1    1    2  506  503  0.64413399678E+02  0.53086890569E+02 -0.88479455758E+03  0.88872308012E+03  0.00000000000E+00 0.  1.
<scales pt_clust_3="32.52603" pt_clust_4="37.59956" pt_clust_5="37.59956" pt_clust_6="161.89320"></scales>
<clustering>
<clus scale="   32.526">  3  6 -1 -1</clus>
<clus scale="   37.600">  4  5 -1 -1</clus>
<clus scale="  161.893">  2  3  1 -1</clus>
<clus scale="  167.793">  1  3  2 -1</clus>
</clustering>
</event>
<event>
 6    0  0.2666600E+002  0.1976282E+03  0.7546771E-02  0.1151756E+00
         21   -1    0    0  503  501  0.00000000000E+00  0.00000000000E+00  0.11202761209E+04  0.11202761209E+04  0.00000000000E+00 0.  1.
         21   -1    0    0  505  502 -0.00000000000E+00 -0.00000000000E+00 -0.48925913899E+03  0.48925913899E+03  0.00000000000E+00 0.  1.
         21    1    1    2  503  506 -0.49716029789E+02  0.24281437538E+02  0.30641938280E+03  0.31137454935E+03  0.00000000000E+00 0.  1.
         21    1    1    2  504  501  0.36322950952E+00  0.17161760154E+03  0.76296216467E+03  0.78202557363E+03  0.00000000000E+00 0.  1.
         21    1    1    2  505  504 -0.50119021664E+02 -0.80996833767E+02 -0.71692400517E+02  0.11921494749E+03  0.00000000000E+00 0.  1.
         21    1    1    2  506  502  0.99471821944E+02 -0.11490220532E+03 -0.36667216505E+03  0.39692018942E+03  0.00000000000E+00 0.  1.
<scales pt_clust_3="55.32876" pt_clust_4="197.62820" pt_clust_5="95.42420" pt_clust_6="14000.00000"></scales>
<clustering>
<clus scale="   55.329">  1  3  2 -1</clus>
<clus scale="   95.424">  2  5  1 -1</clus>
<clus scale="  197.628">  1  4  2 -1</clus>
<clus scale="   55.329">  1  3  2 -1</clus>
</clustering>
</event>
<event>
 6    0  0.2666600E+002  0.3024432E+03  0.7546771E-02  0.1084026E+00
         21   -1    0    0  503  501  0.00000000000E+00  0.00000000000E+00  0.11896579081E+04  0.11896579081E+04  0.00000000000E+00 0. -1.
         21   -1    0    0  504  502 -0.00000000000E+00 -0.00000000000E+00 -0.19772678907E+03  0.19772678907E+03  0.00000000000E+00 0.  1.
         21    1    1    2  503  506 -0.16928355510E+03 -0.15537360666E+03  0.22053290673E+02  0.23083376552E+03  0.00000000000E+00 0.  1.
         21    1    1    2  504  505  0.13395900653E+02  0.31670581642E+02  0.31553238515E+02  0.46669934183E+02  0.00000000000E+00 0. -1.
         21    1    1    2  505  501  0.23816890458E+03  0.16466726040E+03  0.97028579108E+03  0.10125681459E+04  0.00000000000E+00 0. -1.
         21    1    1    2  506  502 -0.82281250138E+02 -0.40964235387E+02 -0.31961201189E+02  0.97312851600E+02  0.00000000000E+00 0.  1.
<scales pt_clust_3="47.46812" pt_clust_4="34.38715" pt_clust_5="292.78535" pt_clust_6="47.46812"></scales>
<clustering>
<clus scale="   34.387">  2  4  1 -1</clus>
<clus scale="   47.468">  3  6 -1 -1</clus>
<clus scale="  292.785">  1  5  2 -1</clus>
<clus scale="  292.785">  1  3  2 -1</clus>
</clustering>
</event>
<event>
 6    0  0.2666600E+002  0.1704046E+03  0.7546771E-02  0.1177427E+00
         21   -1    0    0  504  501  0.00000000000E+00  0.00000000000E+00  0.32666853320E+03  0.32666853320E+03  0.00000000000E+00 0. -1.
         21   -1    0    0  506  502 -0.00000000000E+00 -0.00000000000E+00 -0.25555320959E+03  0.25555320959E+03  0.00000000000E+00 0. -1.
         21    1    1    2  503  505  0.25430335677E+02 -0.54009994113E+02 -0.58163517847E+02  0.83347322963E+02  0.00000000000E+00 0. -1.
         21    1    1    2  504  502  0.39626072766E+02  0.17613653759E+03  0.70782803292E+02  0.19391882518E+03  0.00000000000E+00 0. -1.
         21    1    1    2  505  501 -0.17637886772E+02 -0.28722117747E+02  0.15735290975E+03  0.16092232071E+03  0.00000000000E+00 0. -1.
         21    1    1    2  506  503 -0.47418521670E+02 -0.93404425731E+02 -0.98856871576E+02  0.14403327394E+03  0.00000000000E+00 0. -1.
<scales pt_clust_3="51.98668" pt_clust_4="155.58181" pt_clust_5="33.70542" pt_clust_6="51.98668"></scales>
<clustering>
<clus scale="   33.705">  1  5  2 -1</clus>
<clus scale="   51.987">  3  6 -1 -1</clus>
<clus scale="  155.582">  1  4  2 -1</clus>
<clus scale="   33.705">  1  3  2 -1</clus>
</clustering>
</event>
<event>
 6    0  0.2666600E+002  0.2108206E+03  0.7546771E-02  0.1140918E+00
         21   -1    0    0  506  501  0.00000000000E+00  0.00000000000E+00  0.10386950347E+03  0.10386950347E+03  0.00000000000E+00 0.  1.
         21   -1    0    0  504  502 -0.00000000000E+00 -0.00000000000E+00 -0.73351082050E+03  0.73351082050E+03  0.00000000000E+00 0.  1.
         21    1    1    2  503  505  0.12230456835E+03  0.12053026573E+03 -0.41514324565E+03  0.44925479052E+03  0.00000000000E+00 0.  1.
         21    1    1    2  504  503 -0.14622578911E+01  0.38220262839E+02 -0.15471653994E+03  0.15937419622E+03  0.00000000000E+00 0. -1.
         21    1    1    2  505  501 -0.30085324952E+02  0.48498426475E+01  0.47604966159E+01  0.30843314984E+02  0.00000000000E+00 0.  1.
         21    1    1    2  506  502 -0.90756985506E+02 -0.16360037122E+03 -0.64542028056E+02  0.19790802224E+03  0.00000000000E+00 0.  1.
<scales pt_clust_3="36.66034" pt_clust_4="36.66034" pt_clust_5="30.47372" pt_clust_6="196.36919"></scales>
<clustering>
<clus scale="   30.474">  1  5  2 -1</clus>
<clus scale="   36.660">  3  4 -1 -1</clus>
<clus scale="  196.369">  1  6  2 -1</clus>
<clus scale="   30.474">  1  3  2 -1</clus>
</clustering>
</event>
<event>
 6    0  0.2666600E+002  0.1311410E+03  0.7546771E-02  0.1225772E+00
         21   -1    0    0  504  501  0.00000000000E+00  0.00000000000E+00  0.83527673293E+03  0.83527673293E+03  0.00000000000E+00 0. -1.
         21   -1    0    0  505  502 -0.00000000000E+00 -0.00000000000E+00 -0.13900280099E+03  0.13900280099E+03  0.00000000000E+00 0. -1.
         21    1    1    2  503  502  0.85147072016E+02 -0.24598195486E+02 -0.66997844900E+02  0.11110268365E+03  0.00000000000E+00 0. -1.
         21    1    1    2  504  506 -0.11247885487E+03  0.32436967851E+02  0.74335253640E+03  0.75251355008E+03  0.00000000000E+00 0. -1.
         21    1    1    2  505  501 -0.56368687257E+01 -0.34906817850E+02  0.47982086108E+02  0.59603194619E+02  0.00000000000E+00 0. -1.
         21    1    1    2  506  503  0.32968651582E+02  0.27068045485E+02 -0.28062845676E+02  0.51060105571E+02  0.00000000000E+00 0.  1.
<scales pt_clust_3="39.65999" pt_clust_4="117.87772" pt_clust_5="35.35902" pt_clust_6="39.65999"></scales>
<clustering>
<clus scale="   35.359">  1  5  2 -1</clus>
<clus scale="   39.660">  3  6 -1 -1</clus>
<clus scale="  117.878">  1  4  2 -1</clus>
<clus scale="   35.359">  1  3  2 -1</clus>
</clustering>
</event>
<event>
 6    0  0.2666600E+002  0.8651837E+02  0.7546771E-02  0.1311509E+00
         21   -1    0    0  506  501  0.00000000000E+00  0.00000000000E+00  0.45561695970E+03  0.45561695970E+03  0.00000000000E+00 0.  1.
         21   -1    0    0  503  502 -0.00000000000E+00 -0.00000000000E+00 -0.67265569290E+02  0.67265569290E+02  0.00000000000E+00 0.  1.
         21    1    1    2  503  501 -0.84082457858E+02 -0.37914594757E+02  0.46911136626E+02  0.10347961613E+03  0.00000000000E+00 0.  1.
         21    1    1    2  504  502  0.54110947066E+01 -0.39782026716E+02 -0.13316664014E+02  0.42299209638E+02  0.00000000000E+00 0.  1.
         21    1    1    2  505  504  0.30746275744E+02  0.66544685004E+02  0.15627458786E+03  0.17261307999E+03  0.00000000000E+00 0.  1.
         21    1    1    2  506  505  0.47925087408E+02  0.11151936469E+02  0.19848232993E+03  0.20449062322E+03  0.00000000000E+00 0.  1.
<scales pt_clust_3="86.51837" pt_clust_4="40.14834" pt_clust_5="14000.00000" pt_clust_6="49.01486"></scales>
<clustering>
<clus scale="   40.148">  2  4  1 -1</clus>
<clus scale="   49.015">  1  6  2 -1</clus>
<clus scale="   86.518">  2  3  1 -1</clus>
<clus scale="   49.015">  1  3  2 -1</clus>
</clustering>
</event>
<event>
 6    0  0.2666600E+002  0.9100255E+02  0.7546771E-02  0.1300442E+00
         21   -1    0    0  505  501  0.00000000000E+00  0.00000000000E+00  0.52979774263E+03  0.52979774263E+03  0.00000000000E+00 0.  1.
         21   -1    0    0  504  502 -0.00000000000E+00 -0.00000000000E+00 -0.63977050781E+02  0.63977050781E+02  0.00000000000E+00 0.  1.
         21    1    1    2  503  501  0.39496716009E+02  0.68497225069E+02  0.33671389452E+03  0.34587296393E+03  0.00000000000E+00 0.  1.
         21    1    1    2  504  503 -0.11674419142E+02  0.64941711398E+02  0.66664428061E+02  0.93796929109E+02  0.00000000000E+00 0.  1.
         21    1    1    2  505  506 -0.79195008654E+01 -0.65969816287E+02  0.48829435007E+02  0.82456345287E+02  0.00000000000E+00 0.  1.
         21    1    1    2  506  502 -0.19902796002E+02 -0.67469120180E+02  0.13612934265E+02  0.71648555086E+02  0.00000000000E+00 0.  1.
<scales pt_clust_3="83.73902" pt_clust_4="65.98271" pt_clust_5="34.62472" pt_clust_6="34.62472"></scales>
<clustering>
<clus scale="   34.625">  5  6 -1 -1</clus>
<clus scale="   65.983">  2  4  1 -1</clus>
<clus scale="   83.739">  1  3  2 -1</clus>
<clus scale="   83.739">  1  3  2 -1</clus>
</clustering>
</event>
<event>
 6    0  0.2666600E+002  0.1204765E+03  0.7546771E-02  0.1242313E+00
         21   -1    0    0  506  501  0.00000000000E+00  0.00000000000E+00  0.57120137791E+02  0.57120137791E+02  0.00000000000E+00 0. -1.
         21   -1    0    0  504  502 -0.00000000000E+00 -0.00000000000E+00 -0.36738346173E+03  0.36738346173E+03  0.00000000000E+00 0. -1.
         21    1    1    2  503  502 -0.32385284973E+02  0.35913418973E+02 -0.67470479802E+02  0.83011119676E+02  0.00000000000E+00 0. -1.
         21    1    1    2  504  501 -0.38050161446E+02 -0.11708947744E+03 -0.13938346028E+03  0.18597179763E+03  0.00000000000E+00 0. -1.
         21    1    1    2  505  503  0.34420554964E+02  0.62222610133E+02 -0.85087942917E+02  0.11088907000E+03  0.00000000000E+00 0. -1.
         21    1    1    2  506  505  0.36014891455E+02  0.18953448338E+02 -0.18321440932E+02  0.44631612208E+02  0.00000000000E+00 0. -1.
<scales pt_clust_3="48.35887" pt_clust_4="112.12541" pt_clust_5="33.34281" pt_clust_6="33.34281"></scales>
<clustering>
<clus scale="   33.343">  5  6 -1 -1</clus>
<clus scale="   48.359">  2  3  1 -1</clus>
<clus scale="  112.125">  2  4  1 -1</clus>
<clus scale="  120.476">  1  3  2 -1</clus>
</clustering>
</event>
<event>
 6    0  0.2666600E+002  0.1285567E+03  0.7546771E-02  0.1229613E+00
         21   -1    0    0  506  501  0.00000000000E+00  0.00000000000E+00  0.17699257247E+04  0.17699257247E+04  0.00000000000E+00 0. -1.
         21   -1    0    0  503  502 -0.00000000000E+00 -0.00000000000E+00 -0.14129244192E+02  0.14129244192E+02  0.00000000000E+00 0. -1.
         21    1    1    2  503  504 -0.82849508455E+02  0.50015823829E+02  0.61756646894E+03  0.62510316528E+03  0.00000000000E+00 0. -1.
         21    1    1    2  504  501 -0.17731666862E+02  0.52117673437E+02  0.33740516349E+03  0.34186679897E+03  0.00000000000E+00 0. -1.
         21    1    1    2  505  502  0.21456534666E+02 -0.36157562783E+02  0.96446412154E+02  0.10521246430E+03  0.00000000000E+00 0. -1.
         21    1    1    2  506  505  0.79124640650E+02 -0.65975934483E+02  0.70437843592E+03  0.71187254034E+03  0.00000000000E+00 0. -1.
<scales pt_clust_3="37.80362" pt_clust_4="37.80362" pt_clust_5="42.04465" pt_clust_6="118.38307"></scales>
<clustering>
<clus scale="   37.804">  3  4 -1 -1</clus>
<clus scale="   42.045">  2  5  1 -1</clus>
<clus scale="  118.383">  1  6  2 -1</clus>
<clus scale="  118.383">  1  3  2 -1</clus>
</clustering>
</event>
<event>
 6    0  0.2666600E+002  0.1545032E+03  0.7546771E-02  0.1195046E+00
         21   -1    0    0  504  501  0.00000000000E+00  0.00000000000E+00  0.48408955989E+03  0.48408955989E+03  0.00000000000E+00 0.  1.
         21   -1    0    0  506  502 -0.00000000000E+00 -0.00000000000E+00 -0.31116376882E+03  0.31116376882E+03  0.00000000000E+00 0.  1.
         21    1    1    2  503  502  0.10118733602E+03  0.11358592589E+03 -0.22486375934E+03  0.27148545043E+03  0.00000000000E+00 0.  1.
         21    1    1    2  504  505  0.29717019763E+02 -0.91848883884E+02  0.30208559862E+03  0.31713566124E+03  0.00000000000E+00 0.  1.
         21    1    1    2  505  503 -0.11233265856E+03 -0.58737656238E+02  0.10452952269E+03  0.16430203758E+03  0.00000000000E+00 0.  1.
         21    1    1    2  506  501 -0.18571697220E+02  0.37000614230E+02 -0.88255709048E+01  0.42330179457E+02  0.00000000000E+00 0. -1.
<scales pt_clust_3="154.50320" pt_clust_4="95.45852" pt_clust_5="14000.00000" pt_clust_6="41.39992"></scales>
<clustering>
<clus scale="   41.400">  2  6  1 -1</clus>
<clus scale="   95.459">  1  4  2 -1</clus>
<clus scale="  154.503">  2  3  1 -1</clus>
<clus scale="   95.459">  1  3  2 -1</clus>
</clustering>
</event>
<event>
 6    0  0.2666600E+002  0.1446949E+03  0.7546771E-02  0.1207148E+00
         21   -1    0    0  504  501  0.00000000000E+00  0.00000000000E+00  0.30342698109E+03  0.30342698109E+03  0.00000000000E+00 0.  1.
         21   -1    0    0  505  502 -0.00000000000E+00 -0.00000000000E+00 -0.32905282568E+03  0.32905282568E+03  0.00000000000E+00 0. -1.
         21    1    1    2  503  502 -0.66436174037E+02  0.17084579200E+03  0.13896011598E+03  0.23002600657E+03  0.00000000000E+00 0.  1.
         21    1    1    2  504  503  0.99217530402E+01 -0.38909060521E+02  0.92592884061E+02  0.10092471626E+03  0.00000000000E+00 0. -1.
         21    1    1    2  505  506 -0.13932005043E+02 -0.30261492806E+02 -0.63773836009E+02  0.71951100552E+02  0.00000000000E+00 0. -1.
         21    1    1    2  506  501  0.70446426040E+02 -0.10167523867E+03 -0.19340500862E+03  0.22957798339E+03  0.00000000000E+00 0. -1.
<scales pt_clust_3="144.69487" pt_clust_4="40.56832" pt_clust_5="33.31454" pt_clust_6="14000.00000"></scales>
<clustering>
<clus scale="   33.315">  2  5  1 -1</clus>
<clus scale="   40.568">  1  4  2 -1</clus>
<clus scale="  144.695">  1  3  2 -1</clus>
<clus scale="   40.568">  1  3  2 -1</clus>
</clustering>
</event>
<event>
 6    0  0.2666600E+002  0.2142319E+03  0.7546771E-02  0.1138258E+00
         21   -1    0    0  506  501  0.00000000000E+00  0.00000000000E+00  0.12597009276E+04  0.12597009276E+04  0.00000000000E+00 0. -1.
         21   -1    0    0  504  502 -0.00000000000E+00 -0.00000000000E+00 -0.51159709776E+02  0.51159709776E+02  0.00000000000E+00 0. -1.
         21    1    1    2  503  505  0.73828522020E+02  0.66692468961E+02  0.15758596401E+03  0.18636488976E+03  0.00000000000E+00 0. -1.
         21    1    1    2  504  501 -0.37627690192E+02  0.17977481845E+02  0.11447866531E+03  0.12183758753E+03  0.00000000000E+00 0. -1.
         21    1    1    2  505  502  0.11852342085E+03 -0.13511942810E+02  0.12223541302E+03  0.17079774613E+03  0.00000000000E+00 0. -1.
         21    1    1    2  506  503 -0.15472425268E+03 -0.71158007996E+02  0.81424117543E+03  0.83186041391E+03  0.00000000000E+00 0. -1.
<scales pt_clust_3="89.64244" pt_clust_4="41.70171" pt_clust_5="89.64244" pt_clust_6="190.93873"></scales>
<clustering>
<clus scale="   41.702">  1  4  2 -1</clus>
<clus scale="   89.642">  3  5 -1 -1</clus>
<clus scale="  190.939">  1  6  2 -1</clus>
<clus scale="   41.702">  1  3  2 -1</clus>
</clustering>
</event>
<event>
 6    0  0.2666600E+002  0.1063953E+03  0.7546771E-02  0.1267395E+00
         21   -1    0    0  503  501  0.00000000000E+00  0.00000000000E+00  0.23779430095E+03  0.23779430095E+03  0.00000000000E+00 0.  1.
         21   -1    0    0  506  502 -0.00000000000E+00 -0.00000000000E+00 -0.48003290229E+03  0.48003290229E+03  0.00000000000E+00 0.  1.
         21    1    1    2  503  504 -0.23668325430E+01 -0.49319830456E+02  0.57046129433E+01  0.49705031751E+02  0.00000000000E+00 0. -1.
         21    1    1    2  504  502  0.54591370309E+02 -0.73129049144E+01 -0.10438645689E+03  0.11802638973E+03  0.00000000000E+00 0.  1.
         21    1    1    2  505  501 -0.88713096974E+02 -0.16134534825E+02  0.18809997618E+03  0.20859515293E+03  0.00000000000E+00 0.  1.
         21    1    1    2  506  505  0.36488559208E+02  0.72767270195E+02 -0.33165673357E+03  0.34150062883E+03  0.00000000000E+00 0.  1.
<scales pt_clust_3="49.37659" pt_clust_4="55.23851" pt_clust_5="106.39527" pt_clust_6="14000.00000"></scales>
<clustering>
<clus scale="   49.377">  1  3  2 -1</clus>
<clus scale="   55.239">  2  4  1 -1</clus>
<clus scale="  106.395">  1  5  2 -1</clus>
<clus scale="   49.377">  1  3  2 -1</clus>
</clustering>
</event>
<event>
 6    0  0.2666600E+002  0.1863388E+03  0.7546771E-02  0.1161806E+00
         21   -1    0    0  506  501  0.00000000000E+00  0.00000000000E+00  0.31357420643E+03  0.31357420643E+03  0.00000000000E+00 0. -1.
         21   -1    0    0  505  502 -0.00000000000E+00 -0.00000000000E+00 -0.18253063623E+03  0.18253063623E+03  0.00000000000E+00 0. -1.
         21    1    1    2  503  504  0.49279171893E+02  0.23691272599E+02  0.51232105377E+01  0.54917760934E+02  0.00000000000E+00 0. -1.
         21    1    1    2  504  501 -0.14329332797E+03 -0.10550618856E+03  0.19680997726E+03  0.26532753497E+03  0.00000000000E+00 0. -1.
         21    1    1    2  505  503  0.10677840216E+03  0.52943065733E+02 -0.79345288055E+02  0.14317915391E+03  0.00000000000E+00 0. -1.
         21    1    1    2  506  502 -0.12764246088E+02  0.28871850231E+02  0.84556704535E+01  0.32680392849E+02  0.00000000000E+00 0.  1.
<scales pt_clust_3="39.79273" pt_clust_4="176.67895" pt_clust_5="39.79273" pt_clust_6="31.56754"></scales>
<clustering>
<clus scale="   31.568">  2  6  1 -1</clus>
<clus scale="   39.793">  3  5 -1 -1</clus>
<clus scale="  176.679">  1  4  2 -1</clus>
<clus scale="  176.679">  1  3  2 -1</clus>
</clustering>
</event>
<event>
 6    0  0.2666600E+002  0.1401186E+03  0.7546771E-02  0.1213169E+00
         21   -1    0    0  504  501  0.00000000000E+00  0.00000000000E+00  0.18743068578E+03  0.18743068578E+03  0.00000000000E+00 0. -1.
         21   -1    0    0  506  502 -0.00000000000E+00 -0.00000000000E+00 -0.37901097500E+03  0.37901097500E+03  0.00000000000E+00 0.  1.
         21    1    1    2  503  502  0.47320994822E+02  0.32811827287E+02 -0.12082402772E+03  0.13384445537E+03  0.00000000000E+00 0.  1.
         21    1    1    2  504  505  0.36376638583E+01 -0.13440491620E+03  0.10428541406E+03  0.17015687375E+03  0.00000000000E+00 0. -1.
         21    1    1    2  505  503 -0.65278848321E+01  0.11441282953E+03 -0.18260127332E+03  0.21558324114E+03  0.00000000000E+00 0.  1.
         21    1    1    2  506  501 -0.44430773848E+02 -0.12819740616E+02  0.75595977556E+01  0.46857090525E+02  0.00000000000E+00 0.  1.
<scales pt_clust_3="55.80663" pt_clust_4="140.11862" pt_clust_5="14000.00000" pt_clust_6="46.24326"></scales>
<clustering>
<clus scale="   46.243">  1  6  2 -1</clus>
<clus scale="   55.807">  2  3  1 -1</clus>
<clus scale="  140.119">  1  4  2 -1</clus>
<clus scale="   46.243">  1  3  2 -1</clus>
</clustering>
</event>
<event>
 6    0  0.2666600E+002  0.1457865E+03  0.7546771E-02  0.1205748E+00
         21   -1    0    0  505  501  0.00000000000E+00  0.00000000000E+00  0.59017280058E+03  0.59017280058E+03  0.00000000000E+00 0. -1.
         21   -1    0    0  504  502 -0.00000000000E+00 -0.00000000000E+00 -0.11193077778E+03  0.11193077778E+03  0.00000000000E+00 0. -1.
         21    1    1    2  503  506 -0.70459915158E+02 -0.57621118404E+02  0.27504417835E+03  0.28971381219E+03  0.00000000000E+00 0. -1.
         21    1    1    2  504  501  0.13122315573E+03  0.76523708025E+02 -0.20343781408E+02  0.15326207597E+03  0.00000000000E+00 0. -1.
         21    1    1    2  505  503 -0.17004955521E+02 -0.51473481923E+02  0.18382435880E+03  0.19165093984E+03  0.00000000000E+00 0. -1.
         21    1    1    2  506  502 -0.43758285051E+02  0.32570892301E+02  0.39717267059E+02  0.67476750355E+02  0.00000000000E+00 0. -1.
<scales pt_clust_3="30.86895" pt_clust_4="140.19187" pt_clust_5="30.86895" pt_clust_6="54.54952"></scales>
<clustering>
<clus scale="   30.869">  3  5 -1 -1</clus>
<clus scale="   54.550">  2  6  1 -1</clus>
<clus scale="  140.192">  2  4  1 -1</clus>
<clus scale="  145.787">  1  3  2 -1</clus>
</clustering>
</event>
<event>
 6    0  0.2666600E+002  0.8641019E+02  0.7546771E-02  0.1311785E+00
         21   -1    0    0  506  501  0.00000000000E+00  0.00000000000E+00  0.86089300609E+01  0.86089300609E+01  0.00000000000E+00 0.  1.
         21   -1    0    0  503  502 -0.00000000000E+00 -0.00000000000E+00 -0.30196854873E+04  0.30196854873E+04  0.00000000000E+00 0.  1.
         21    1    1    2  503  505 -0.68691237465E+02  0.51982055115E+02 -0.64941272736E+03  0.65510114533E+03  0.00000000000E+00 0.  1.
         21    1    1    2  504  501  0.18688836727E+02  0.51657704006E+02 -0.34251474901E+03  0.34689212198E+03  0.00000000000E+00 0.  1.
         21    1    1    2  505  504 -0.24416288542E+01 -0.10871191814E+03 -0.10237956807E+04  0.10295541941E+04  0.00000000000E+00 0.  1.
         21    1    1    2  506  502  0.52444029592E+02  0.50721590210E+01 -0.99535340017E+03  0.99674695599E+03  0.00000000000E+00 0.  1.
<scales pt_clust_3="14000.00000" pt_clust_4="59.34229" pt_clust_5="86.41019" pt_clust_6="52.68874"></scales>
<clustering>
<clus scale="   52.689">  2  6  1 -1</clus>
<clus scale="   59.342">  1  4  2 -1</clus>
<clus scale="   86.410">  1  5  2 -1</clus>
<clus scale="   59.342">  1  3  2 -1</clus>
</clustering>
</event>
<event>
 6    0  0.2666600E+002  0.3499402E+03  0.7546771E-02  0.1062640E+00
         21   -1    0    0  503  501  0.00000000000E+00  0.00000000000E+00  0.92008178818E+02  0.92008178818E+02  0.00000000000E+00 0.  1.
         21   -1    0    0  506  502 -0.00000000000E+00 -0.00000000000E+00 -0.15964171008E+04  0.15964171008E+04  0.00000000000E+00 0.  1.
         21    1    1    2  503  504 -0.20661615511E+03  0.26739471153E+03 -0.54831417747E+03  0.64407965697E+03  0.00000000000E+00 0.  1.
         21    1    1    2  504  505  0.13561682401E+03 -0.12820018835E+03 -0.47290357147E+03  0.50839453101E+03  0.00000000000E+00 0.  1.
         21    1    1    2  505  502  0.35987211166E+02 -0.15732708639E+03 -0.46559611712E+03  0.49277442685E+03  0.00000000000E+00 0.  1.
         21    1    1    2  506  501  0.35012119930E+02  0.18132563216E+02 -0.17595055937E+02  0.43176664811E+02  0.00000000000E+00 0. -1.
<scales pt_clust_3="334.47619" pt_clust_4="94.42884" pt_clust_5="94.42884" pt_clust_6="39.42890"></scales>
<clustering>
<clus scale="   39.429">  1  6  2 -1</clus>
<clus scale="   94.429">  4  5 -1 -1</clus>
<clus scale="  334.476">  1  3  2 -1</clus>
<clus scale="   39.429">  1  3  2 -1</clus>
</clustering>
</event>
<event>
 6    0  0.2666600E+002  0.9365907E+02  0.7546771E-02  0.1294225E+00
         21   -1    0    0  505  501  0.00000000000E+00  0.00000000000E+00  0.93560240302E+03  0.93560240302E+03  0.00000000000E+00 0.  1.
         21   -1    0    0  503  502 -0.00000000000E+00 -0.00000000000E+00 -0.71392031803E+03  0.71392031803E+03  0.00000000000E+00 0. -1.
         21    1    1    2  503  504  0.51092557449E+02  0.12344115194E+02 -0.58470130501E+03  0.58705914752E+03  0.00000000000E+00 0. -1.
         21    1    1    2  504  501 -0.39292824826E+02 -0.11144060998E+03  0.72913622116E+03  0.73864914854E+03  0.00000000000E+00 0.  1.
         21    1    1    2  505  506 -0.93861139783E+01  0.67836732830E+02  0.19252851000E+03  0.20434565965E+03  0.00000000000E+00 0. -1.
         21    1    1    2  506  502 -0.24136186443E+01  0.31259761958E+02 -0.11528134116E+03  0.11946876534E+03  0.00000000000E+00 0. -1.
<scales pt_clust_3="65.01319" pt_clust_4="93.65907" pt_clust_5="14000.00000" pt_clust_6="31.35280"></scales>
<clustering>
<clus scale="   31.353">  2  6  1 -1</clus>
<clus scale="   65.013">  2  3  1 -1</clus>
<clus scale="   93.659">  1  4  2 -1</clus>
<clus scale="   93.659">  1  3  2 -1</clus>
</clustering>
</event>
<event>
 6    0  0.2666600E+002  0.7897739E+02  0.7546771E-02  0.1331979E+00
         21   -1    0    0  503  501  0.00000000000E+00  0.00000000000E+00  0.56504842840E+03  0.56504842840E+03  0.00000000000E+00 0. -1.
         21   -1    0    0  504  502 -0.00000000000E+00 -0.00000000000E+00 -0.28657332236E+03  0.28657332236E+03  0.00000000000E+00 0. -1.
         21    1    1    2  503  505  0.16904855134E+01  0.57043954344E+02  0.14704013569E+03  0.15772657345E+03  0.00000000000E+00 0. -1.
         21    1    1    2  504  506 -0.71561700777E+02 -0.10839535569E+03 -0.32368277310E+02  0.13385938716E+03  0.00000000000E+00 0. -1.
         21    1    1    2  505  502  0.38952934813E+02  0.35433355320E+02 -0.19375874138E+03  0.20078671186E+03  0.00000000000E+00 0. -1.
         21    1    1    2  506  501  0.30918280450E+02  0.15918046029E+02  0.35756198903E+03  0.35924907829E+03  0.00000000000E+00 0. -1.
<scales pt_clust_3="78.97739" pt_clust_4="14000.00000" pt_clust_5="53.22919" pt_clust_6="34.77534"></scales>
<clustering>
<clus scale="   34.775">  1  6  2 -1</clus>
<clus scale="   53.229">  2  5  1 -1</clus>
<clus scale="   78.977">  1  3  2 -1</clus>
<clus scale="   34.775">  1  3  2 -1</clus>
</clustering>
</event>
<event>
 6    0  0.2666600E+002  0.2594299E+03  0.7546771E-02  0.1107486E+00
         21   -1    0    0  505  501  0.00000000000E+00  0.00000000000E+00  0.90342315425E+03  0.90342315425E+03  0.00000000000E+00 0. -1.
         21   -1    0    0  506  502 -0.00000000000E+00 -0.00000000000E+00 -0.17623857575E+03  0.17623857575E+03  0.00000000000E+00 0. -1.
         21    1    1    2  503  501  0.34341320601E+02 -0.24555612378E+03 -0.72654993645E+01  0.24805226003E+03  0.00000000000E+00 0. -1.
         21    1    1    2  504  502  0.16904343403E+02  0.48623697416E+02  0.39829041688E+02  0.65087428418E+02  0.00000000000E+00 0. -1.
         21    1    1    2  505  504 -0.30518525436E+02  0.23866486960E+03  0.67382720312E+03  0.71549661078E+03  0.00000000000E+00 0. -1.
         21    1    1    2  506  503 -0.20727138568E+02 -0.41732443236E+02  0.20793833058E+02  0.51025430766E+02  0.00000000000E+00 0. -1.
<scales pt_clust_3="35.06965" pt_clust_4="51.47835" pt_clust_5="246.49438" pt_clust_6="35.06965"></scales>
<clustering>
<clus scale="   35.070">  3  6 -1 -1</clus>
<clus scale="   51.478">  2  4  1 -1</clus>
<clus scale="  246.494">  1  5  2 -1</clus>
<clus scale="  246.494">  1  3  2 -1</clus>
</clustering>
</event>
<event>
 6    0  0.2666600E+002  0.1147546E+03  0.7546771E-02  0.1252010E+00
         21   -1    0    0  502  501  0.00000000000E+00  0.00000000000E+00  0.30864091959E+03  0.30864091959E+03  0.00000000000E+00 0.  1.
         21   -1    0    0  506  502 -0.00000000000E+00 -0.00000000000E+00 -0.91604689226E+03  0.91604689226E+03  0.00000000000E+00 0. -1.
         21    1    1    2  503  505 -0.77350424975E+02  0.13869719441E+02  0.39480420867E+02  0.87944078783E+02  0.00000000000E+00 0.  1.
         21    1    1    2  504  503  0.13244977214E+03  0.16904810193E+02 -0.68510589039E+03  0.69799627205E+03  0.00000000000E+00 0. -1.
         21    1    1    2  505  501 -0.40002233559E+02 -0.46887107084E+00  0.23535236172E+03  0.23872815648E+03  0.00000000000E+00 0.  1.
         21    1    1    2  506  504 -0.15097113602E+02 -0.30305658564E+02 -0.19713286487E+03  0.20001930454E+03  0.00000000000E+00 0. -1.
<scales pt_clust_3="14000.00000" pt_clust_4="114.75458" pt_clust_5="40.04139" pt_clust_6="33.85788"></scales>
<clustering>
<clus scale="   33.858">  2  6  1 -1</clus>
<clus scale="   40.041">  1  5  2 -1</clus>
<clus scale="  114.755">  2  4  1 -1</clus>
<clus scale="   40.041">  1  3  2 -1</clus>
</clustering>
</event>
<event>
 6    0  0.2666600E+002  0.1298008E+03  0.7546771E-02  0.1227752E+00
         21   -1    0    0  503  501  0.00000000000E+00  0.00000000000E+00  0.10394376045E+04  0.10394376045E+04  0.00000000000E+00 0. -1.
         21   -1    0    0  501  502 -0.00000000000E+00 -0.00000000000E+00 -0.24273756301E+03  0.24273756301E+03  0.00000000000E+00 0.  1.
         21    1    1    2  503  505 -0.22929114333E+02  0.22432557326E+02  0.24905431360E+03  0.25111155895E+03  0.00000000000E+00 0. -1.
         21    1    1    2  504  502 -0.79349271585E+02  0.80463219111E+01 -0.14683952446E+03  0.16710145464E+03  0.00000000000E+00 0.  1.
         21    1    1    2  505  506  0.11661868671E+03  0.73397270979E+02  0.73776332670E+03  0.75052102149E+03  0.00000000000E+00 0. -1.
         21    1    1    2  506  504 -0.14340300792E+02 -0.10387615022E+03 -0.43278074346E+02  0.11344113244E+03  0.00000000000E+00 0. -1.
<scales pt_clust_3="32.07747" pt_clust_4="80.07843" pt_clust_5="14000.00000" pt_clust_6="129.80077"></scales>
<clustering>
<clus scale="   32.077">  1  3  2 -1</clus>
<clus scale="   80.078">  2  4  1 -1</clus>
<clus scale="  129.801">  2  6  1 -1</clus>
<clus scale="   32.077">  1  3  2 -1</clus>
</clustering>
</event>
<event>
 6    0  0.2666600E+002  0.1280518E+03  0.7546771E-02  0.1230375E+00
         21   -1    0    0  505  501  0.00000000000E+00  0.00000000000E+00  0.95389338584E+03  0.95389338584E+03  0.00000000000E+00 0. -1.
         21   -1    0    0  506  502 -0.00000000000E+00 -0.00000000000E+00 -0.10469745087E+04  0.10469745087E+04  0.00000000000E+00 0.  1.
         21    1    1    2  503  502 -0.27406993409E+02  0.80460597337E+02 -0.94999509205E+03  0.95379018968E+03  0.00000000000E+00 0.  1.
         21    1    1    2  504  501 -0.49891231636E+02 -0.33026690034E+02  0.11344011167E+03  0.12825192468E+03  0.00000000000E+00 0.  1.
         21    1    1    2  505  503  0.10662137183E+03 -0.82543360679E+02  0.81927198870E+03  0.83029399299E+03  0.00000000000E+00 0. -1.
         21    1    1    2  506  504 -0.29323146784E+02  0.35109453375E+02 -0.75798131132E+02  0.88531787154E+02  0.00000000000E+00 0.  1.
<scales pt_clust_3="128.05183" pt_clust_4="59.87219" pt_clust_5="14000.00000" pt_clust_6="45.74408"></scales>
<clustering>
<clus scale="   45.744">  2  6  1 -1</clus>
<clus scale="   59.872">  1  4  2 -1</clus>
<clus scale="  128.052">  2  3  1 -1</clus>
<clus scale="   59.872">  1  3  2 -1</clus>
</clustering>
</event>
<event>
 6    0  0.2666600E+002  0.1022841E+03  0.7546771E-02  0.1275565E+00
         21   -1    0    0  503  501  0.00000000000E+00  0.00000000000E+00  0.38950861332E+02  0.38950861332E+02  0.00000000000E+00 0.  1.
         21   -1    0    0  504  502 -0.00000000000E+00 -0.00000000000E+00 -0.18687151213E+04  0.18687151213E+04  0.00000000000E+00 0. -1.
         21    1    1    2  503  506  0.87168289215E+02  0.34533224118E+02 -0.35225464548E+02  0.10015831251E+03  0.00000000000E+00 0.  1.
         21    1    1    2  504  501 -0.90055877495E+01  0.34534363790E+02 -0.10444321537E+03  0.11037258777E+03  0.00000000000E+00 0.  1.
         21    1    1    2  505  502  0.21157462762E+02 -0.32228771585E+02 -0.76942942778E+03  0.77039468864E+03  0.00000000000E+00 0. -1.
         21    1    1    2  506  505 -0.99320164227E+02 -0.36838816322E+02 -0.92066615229E+03  0.92674039374E+03  0.00000000000E+00 0. -1.
<scales pt_clust_3="102.28411" pt_clust_4="35.68925" pt_clust_5="38.09982" pt_clust_6="14000.00000"></scales>
<clustering>
<clus scale="   35.689">  1  4  2 -1</clus>
<clus scale="   38.100">  2  5  1 -1</clus>
<clus scale="  102.284">  1  3  2 -1</clus>
<clus scale="   35.689">  1  3  2 -1</clus>
</clustering>
</event>
<event>
 6    0  0.2666600E+002  0.8480962E+02  0.7546771E-02  0.1315931E+00
         21   -1    0    0  505  501  0.00000000000E+00  0.00000000000E+00  0.62945425391E+02  0.62945425391E+02  0.00000000000E+00 0.  1.
         21   -1    0    0  506  502 -0.00000000000E+00 -0.00000000000E+00 -0.73091994139E+03  0.73091994139E+03  0.00000000000E+00 0.  1.
         21    1    1    2  503  501 -0.48379588550E+02 -0.30460106630E+02 -0.13735070901E+02  0.58796724882E+02  0.00000000000E+00 0. -1.
         21    1    1    2  504  502  0.57776639797E+01 -0.75791659268E+02 -0.47542042143E+03  0.48145854872E+03  0.00000000000E+00 0.  1.
         21    1    1    2  505  504  0.79982103762E+02  0.10337078653E+03 -0.94357816341E+02  0.16120190425E+03  0.00000000000E+00 0.  1.
         21    1    1    2  506  503 -0.37380179191E+02  0.28809793662E+01 -0.84461207325E+02  0.92408188930E+02  0.00000000000E+00 0.  1.
<scales pt_clust_3="58.88237" pt_clust_4="14000.00000" pt_clust_5="84.80962" pt_clust_6="37.49104"></scales>
<clustering>
<clus scale="   37.491">  2  6  1 -1</clus>
<clus scale="   58.882">  1  3  2 -1</clus>
<clus scale="   84.810">  1  5  2 -1</clus>
<clus scale="   58.882">  1  3  2 -1</clus>
</clustering>
</event>
<event>
 6    0  0.2666600E+002  0.1277359E+03  0.7546771E-02  0.1230854E+00
         21   -1    0    0  504  501  0.00000000000E+00  0.00000000000E+00  0.26915069043E+04  0.26915069043E+04  0.00000000000E+00 0.  1.
         21   -1    0    0  505  502 -0.00000000000E+00 -0.00000000000E+00 -0.80833598435E+03  0.80833598435E+03  0.00000000000E+00 0.  1.
         21    1    1    2  503  502 -0.21072944217E+01 -0.45504541060E+02 -0.20883178375E+03  0.21374241004E+03  0.00000000000E+00 0. -1.
         21    1    1    2  504  506 -0.11503965615E+02 -0.31682661441E+02  0.21815575699E+03  0.22074434663E+03  0.00000000000E+00 0. -1.
         21    1    1    2  505  501 -0.33168716929E+02  0.14047999910E+03  0.24648815701E+04  0.24691042806E+04  0.00000000000E+00 0.  1.
         21    1    1    2  506  503  0.46779976966E+02 -0.63292796599E+02 -0.59103462333E+03  0.59625185142E+03  0.00000000000E+00 0.  1.
<scales pt_clust_3="37.83353" pt_clust_4="33.70656" pt_clust_5="117.66278" pt_clust_6="37.83353"></scales>
<clustering>
<clus scale="   33.707">  1  4  2 -1</clus>
<clus scale="   37.834">  3  6 -1 -1</clus>
<clus scale="  117.663">  1  5  2 -1</clus>
<clus scale="   33.707">  1  3  2 -1</clus>
</clustering>
</event>
<event>
 6    0  0.2666600E+002  0.8704385E+02  0.7546771E-02  0.1310173E+00
         21   -1    0    0  505  501  0.00000000000E+00  0.00000000000E+00  0.37552001629E+03  0.37552001629E+03  0.00000000000E+00 0.  1.
         21   -1    0    0  506  502 -0.00000000000E+00 -0.00000000000E+00 -0.12801728503E+03  0.12801728503E+03  0.00000000000E+00 0.  1.
         21    1    1    2  503  502  0.41025421123E+02 -0.10454375086E+03 -0.64294744485E+02  0.12940747734E+03  0.00000000000E+00 0.  1.
         21    1    1    2  504  501 -0.31636749815E+02 -0.10152597617E+02  0.18078237065E+02  0.37825676895E+02  0.00000000000E+00 0.  1.
         21    1    1    2  505  503  0.46823007861E+01  0.85899243684E+02  0.29177662129E+03  0.30419434699E+03  0.00000000000E+00 0.  1.
         21    1    1    2  506  504 -0.14070972094E+02  0.28797104793E+02  0.19426173877E+01  0.32109800100E+02  0.00000000000E+00 0.  1.
<scales pt_clust_3="87.04385" pt_clust_4="33.74209" pt_clust_5="14000.00000" pt_clust_6="32.05098"></scales>
<clustering>
<clus scale="   32.051">  2  6  1 -1</clus>
<clus scale="   33.742">  2  4  1 -1</clus>
<clus scale="   87.044">  2  3  1 -1</clus>
<clus scale="   87.044">  1  3  2 -1</clus>
</clustering>
</event>
<event>
 6    0  0.2666600E+002  0.4626913E+03  0.7546771E-02  0.1024004E+00
         21   -1    0    0  506  501  0.00000000000E+00  0.00000000000E+00  0.67407387873E+03  0.67407387873E+03  0.00000000000E+00 0. -1.
         21   -1    0    0  501  502 -0.00000000000E+00 -0.00000000000E+00 -0.10047615928E+04  0.10047615928E+04  0.00000000000E+00 0. -1.
         21    1    1    2  503  502 -0.20262190461E+03 -0.18989108028E+03 -0.63294599824E+03  0.69118369142E+03  0.00000000000E+00 0. -1.
         21    1    1    2  504  505  0.23216841056E+02  0.53559310630E+02  0.33894283167E+02  0.67501436245E+02  0.00000000000E+00 0. -1.
         21    1    1    2  505  503 -0.79708811377E+02 -0.15387123054E+03 -0.22996045762E+03  0.28794385263E+03  0.00000000000E+00 0.  1.
         21    1    1    2  506  504  0.25911387493E+03  0.29020300019E+03  0.49832445863E+03  0.63220649124E+03  0.00000000000E+00 0. -1.
<scales pt_clust_3="100.54549" pt_clust_4="35.60998" pt_clust_5="100.54549" pt_clust_6="454.24046"></scales>
<clustering>
<clus scale="   35.610">  4  6 -1 -1</clus>
<clus scale="  100.545">  3  5 -1 -1</clus>
<clus scale="  454.240">  1  4  2 -1</clus>
<clus scale="  454.240">  1  3  2 -1</clus>
</clustering>
</event>
<event>
 6    0  0.2666600E+002  0.8804717E+02  0.7546771E-02  0.1307651E+00
         21   -1    0    0  506  501  0.00000000000E+00  0.00000000000E+00  0.14494998018E+04  0.14494998018E+04  0.00000000000E+00 0. -1.
         21   -1    0    0  501  502 -0.00000000000E+00 -0.00000000000E+00 -0.95460351593E+03  0.95460351593E+03  0.00000000000E+00 0. -1.
         21    1    1    2  503  505  0.68283851739E+02 -0.67632181904E+01  0.91427402668E+03  0.91684536394E+03  0.00000000000E+00 0. -1.
         21    1    1    2  504  502  0.54957662292E+02  0.61198087688E+02 -0.10999578818E+03  0.13734854931E+03  0.00000000000E+00 0. -1.
         21    1    1    2  505  504 -0.13557126586E+03 -0.24816623959E+02 -0.82341817410E+03  0.83487299776E+03  0.00000000000E+00 0. -1.
         21    1    1    2  506  503  0.12329751828E+02 -0.29618245538E+02  0.51403622151E+03  0.51503640674E+03  0.00000000000E+00 0.  1.
<scales pt_clust_3="88.04717" pt_clust_4="82.05222" pt_clust_5="14000.00000" pt_clust_6="32.08213"></scales>
<clustering>
<clus scale="   32.082">  1  6  2 -1</clus>
<clus scale="   82.052">  2  4  1 -1</clus>
<clus scale="   88.047">  1  3  2 -1</clus>
<clus scale="   32.082">  1  3  2 -1</clus>
</clustering>
</event>
<event>
 6    0  0.2666600E+002  0.3436185E+03  0.7546771E-02  0.1065265E+00
         21   -1    0    0  506  501  0.00000000000E+00  0.00000000000E+00  0.56164681948E+03  0.56164681948E+03  0.00000000000E+00 0. -1.
         21   -1    0    0  501  502 -0.00000000000E+00 -0.00000000000E+00 -0.28720154923E+03  0.28720154923E+03  0.00000000000E+00 0. -1.
         21    1    1    2  503  504 -0.52979259953E+02 -0.13449133593E+03  0.57285425101E+02  0.15548743150E+03  0.00000000000E+00 0.  1.
         21    1    1    2  504  502 -0.33536107640E+02 -0.20281394435E+03 -0.48788673428E+02  0.21127825537E+03  0.00000000000E+00 0. -1.
         21    1    1    2  505  503  0.14651475737E+03  0.25906975224E+03  0.16219738647E+03  0.33895678608E+03  0.00000000000E+00 0. -1.
         21    1    1    2  506  505 -0.59999389778E+02  0.78235528039E+02  0.10375113211E+03  0.14312589575E+03  0.00000000000E+00 0. -1.
<scales pt_clust_3="96.28828" pt_clust_4="96.28828" pt_clust_5="323.86502" pt_clust_6="98.59374"></scales>
<clustering>
<clus scale="   96.288">  3  4 -1 -1</clus>
<clus scale="   98.594">  1  6  2 -1</clus>
<clus scale="  323.865">  1  5  2 -1</clus>
<clus scale="   98.594">  1  3  2 -1</clus>
</clustering>
</event>
<event>
 6    0  0.2666600E+002  0.6599008E+02  0.7546771E-02  0.1374285E+00
         21   -1    0    0  504  501  0.00000000000E+00  0.00000000000E+00  0.35696351202E+03  0.35696351202E+03  0.00000000000E+00 0.  1.
         21   -1    0    0  505  502 -0.00000000000E+00 -0.00000000000E+00 -0.64994061516E+03  0.64994061516E+03  0.00000000000E+00 0. -1.
         21    1    1    2  503  501 -0.51409009892E+02 -0.75737536985E+02  0.31449290003E+03  0.32754365354E+03  0.00000000000E+00 0.  1.
         21    1    1    2  504  506 -0.40322715108E+01  0.34077231221E+02  0.15390694750E+02  0.37608381860E+02  0.00000000000E+00 0. -1.
         21    1    1    2  505  503 -0.10680178426E+02  0.73719534788E+02 -0.22066174353E+03  0.23289534361E+03  0.00000000000E+00 0. -1.
         21    1    1    2  506  502  0.66121459829E+02 -0.32059229024E+02 -0.40219895439E+03  0.40885674818E+03  0.00000000000E+00 0. -1.
<scales pt_clust_3="69.84738" pt_clust_4="34.31497" pt_clust_5="65.99008" pt_clust_6="14000.00000"></scales>
<clustering>
<clus scale="   34.315">  1  4  2 -1</clus>
<clus scale="   69.847">  1  3  2 -1</clus>
<clus scale="   65.990">  1  5  2 -1</clus>
<clus scale="   34.315">  1  3  2 -1</clus>
</clustering>
</event>
<event>
 6    0  0.2666600E+002  0.3967136E+03  0.7546771E-02  0.1044924E+00
         21   -1    0    0  503  501  0.00000000000E+00  0.00000000000E+00  0.21563956844E+03  0.21563956844E+03  0.00000000000E+00 0.  1.
         21   -1    0    0  504  502 -0.00000000000E+00 -0.00000000000E+00 -0.81315473905E+03  0.81315473905E+03  0.00000000000E+00 0.  1.
         21    1    1    2  503  506  0.15776348027E+03  0.29739456821E+02 -0.97663225192E+02  0.18791449267E+03  0.00000000000E+00 0.  1.
         21    1    1    2  504  505 -0.99462103498E+02 -0.35847783021E+02 -0.10057314620E+03  0.14592029097E+03  0.00000000000E+00 0.  1.
         21    1    1    2  505  501 -0.27405090270E+03  0.76246169705E+02 -0.36925342955E+03  0.46611744325E+03  0.00000000000E+00 0.  1.
         21    1    1    2  506  502  0.21574952593E+03 -0.70137843505E+02 -0.30025369655E+02  0.22884208060E+03  0.00000000000E+00 0.  1.
<scales pt_clust_3="107.19479" pt_clust_4="68.72855" pt_clust_5="392.24122" pt_clust_6="107.19479"></scales>
<clustering>
<clus scale="   68.729">  4  5 -1 -1</clus>
<clus scale="  107.195">  3  6 -1 -1</clus>
<clus scale="  392.241">  2  4  1 -1</clus>
<clus scale="  396.714">  1  3  2 -1</clus>
</clustering>
</event>
<event>
 6    0  0.2666600E+002  0.1374769E+03  0.7546771E-02  0.1216765E+00
         21   -1    0    0  506  501  0.00000000000E+00  0.00000000000E+00  0.14488905318E+03  0.14488905318E+03  0.00000000000E+00 0.  1.
         21   -1    0    0  505  502 -0.00000000000E+00 -0.00000000000E+00 -0.28986940309E+03  0.28986940309E+03  0.00000000000E+00 0.  1.
         21    1    1    2  503  502  0.47021782070E+02 -0.60632189147E+02  0.28290657923E+02  0.81778185817E+02  0.00000000000E+00 0.  1.
         21    1    1    2  504  501 -0.10032520456E+02  0.48942874200E+02 -0.58961504381E+02  0.77282050959E+02  0.00000000000E+00 0.  1.
         21    1    1    2  505  504 -0.73079718462E+02  0.40648038687E+02 -0.17818014401E+03  0.19682751845E+03  0.00000000000E+00 0.  1.
         21    1    1    2  506  503  0.36090456848E+02 -0.28958723740E+02  0.63870640563E+02  0.78870701037E+02  0.00000000000E+00 0.  1.
<scales pt_clust_3="131.58404" pt_clust_4="48.67546" pt_clust_5="48.67546" pt_clust_6="37.88670"></scales>
<clustering>
<clus scale="   37.887">  3  6 -1 -1</clus>
<clus scale="   48.675">  4  5 -1 -1</clus>
<clus scale="  131.584">  1  3  2 -1</clus>
<clus scale="  131.584">  1  3  2 -1</clus>
</clustering>
</event>
<event>
 6    0  0.2666600E+002  0.8756293E+02  0.7546771E-02  0.1308863E+00
         21   -1    0    0  504  501  0.00000000000E+00  0.00000000000E+00  0.17643917439E+03  0.17643917439E+03  0.00000000000E+00 0.  1.
         21   -1    0    0  503  502 -0.00000000000E+00 -0.00000000000E+00 -0.16365873227E+03  0.16365873227E+03  0.00000000000E+00 0.  1.
         21    1    1    2  503  501  0.23983971298E+02 -0.13979438409E+03  0.30578275129E+02  0.14509559474E+03  0.00000000000E+00 0.  1.
         21    1    1    2  504  505 -0.11710295885E+02  0.59744815481E+02  0.45626080202E+02  0.76080964775E+02  0.00000000000E+00 0.  1.
         21    1    1    2  505  506  0.16075871158E+02  0.64174972760E+02 -0.31147965925E+02  0.73123570369E+02  0.00000000000E+00 0.  1.
         21    1    1    2  506  502 -0.28349546570E+02  0.15874595853E+02 -0.32275947284E+02  0.45797776773E+02  0.00000000000E+00 0.  1.
<scales pt_clust_3="87.56293" pt_clust_4="63.52353" pt_clust_5="14000.00000" pt_clust_6="32.49153"></scales>
<clustering>
<clus scale="   32.492">  2  6  1 -1</clus>
<clus scale="   63.524">  1  4  2 -1</clus>
<clus scale="   87.563">  1  3  2 -1</clus>
<clus scale="   63.524">  1  3  2 -1</clus>
</clustering>
</event>
<event>
 6    0  0.2666600E+002  0.1441759E+03  0.7546771E-02  0.1207818E+00
         21   -1    0    0  505  501  0.00000000000E+00  0.00000000000E+00  0.14017950137E+04  0.14017950137E+04  0.00000000000E+00 0.  1.
         21   -1    0    0  504  502 -0.00000000000E+00 -0.00000000000E+00 -0.52127724562E+02  0.52127724562E+02  0.00000000000E+00 0. -1.
         21    1    1    2  503  502 -0.10370978614E+02  0.37137824882E+02  0.44163978563E+02  0.58627913462E+02  0.00000000000E+00 0.  1.
         21    1    1    2  504  506 -0.76727310188E+02  0.46402461118E+02  0.39435101108E+02  0.97956090805E+02  0.00000000000E+00 0. -1.
         21    1    1    2  505  503  0.11789604262E+03 -0.69123345240E+02  0.12537416898E+04  0.12611684021E+04  0.00000000000E+00 0.  1.
         21    1    1    2  506  501 -0.30797753821E+02 -0.14416940760E+02  0.12326519651E+02  0.36170331875E+02  0.00000000000E+00 0.  1.
<scales pt_clust_3="38.55872" pt_clust_4="32.15223" pt_clust_5="134.39038" pt_clust_6="32.15223"></scales>
<clustering>
<clus scale="   32.152">  4  6 -1 -1</clus>
<clus scale="   38.559">  2  3  1 -1</clus>
<clus scale="  134.390">  1  5  2 -1</clus>
<clus scale="  134.390">  1  3  2 -1</clus>
</clustering>
</event>
<event>
 6    0  0.2666600E+002  0.1534920E+03  0.7546771E-02  0.1196247E+00
         21   -1    0    0  504  501  0.00000000000E+00  0.00000000000E+00  0.35956453210E+03  0.35956453210E+03  0.00000000000E+00 0.  1.
         21   -1    0    0  505  502 -0.00000000000E+00 -0.00000000000E+00 -0.62244442448E+03  0.62244442448E+03  0.00000000000E+00 0. -1.
         21    1    1    2  503  506 -0.22509845919E+02  0.37211005223E+02  0.48780038066E+02  0.65351696128E+02  0.00000000000E+00 0. -1.
         21    1    1    2  504  503 -0.31028183122E+01  0.10621816316E+03  0.24997475176E+03  0.27162345661E+03  0.00000000000E+00 0.  1.
         21    1    1    2  505  501 -0.11269863611E+03 -0.83602587142E+02 -0.14409030800E+03  0.20112780021E+03  0.00000000000E+00 0. -1.
         21    1    1    2  506  502  0.13831130034E+03 -0.59826581245E+02 -0.41754437421E+03  0.44390600363E+03  0.00000000000E+00 0. -1.
<scales pt_clust_3="35.44564" pt_clust_4="35.44564" pt_clust_5="140.32240" pt_clust_6="143.14294"></scales>
<clustering>
<clus scale="   35.446">  3  4 -1 -1</clus>
<clus scale="  140.322">  2  5  1 -1</clus>
<clus scale="  143.143">  2  6  1 -1</clus>
<clus scale="  153.492">  1  3  2 -1</clus>
</clustering>
</event>
<event>
 6    0  0.2666600E+002  0.1526979E+03  0.7546771E-02  0.1197197E+00
         21   -1    0    0  503  501  0.00000000000E+00  0.00000000000E+00  0.72903762521E+03  0.72903762521E+03  0.00000000000E+00 0.  1.
         21   -1    0    0  504  502 -0.00000000000E+00 -0.00000000000E+00 -0.97501494114E+02  0.97501494114E+02  0.00000000000E+00 0.  1.
         21    1    1    2  503  506  0.42736919056E+02 -0.88609087288E+01  0.34702559597E+03  0.34975952341E+03  0.00000000000E+00 0.  1.
         21    1    1    2  504  505 -0.81950726951E+02  0.64711288173E+02 -0.96160668688E+01  0.10486153349E+03  0.00000000000E+00 0.  1.
         21    1    1    2  505  501 -0.88555666406E+01  0.53380073968E+02 -0.42252266351E+00  0.54111291638E+02  0.00000000000E+00 0.  1.
         21    1    1    2  506  502  0.48069374535E+02 -0.10923045341E+03  0.29454912465E+03  0.31780677078E+03  0.00000000000E+00 0. -1.
<scales pt_clust_3="43.64585" pt_clust_4="39.29807" pt_clust_5="39.29807" pt_clust_6="142.60580"></scales>
<clustering>
<clus scale="   39.298">  4  5 -1 -1</clus>
<clus scale="   43.646">  1  3  2 -1</clus>
<clus scale="  142.606">  1  6  2 -1</clus>
<clus scale="   43.646">  1  3  2 -1</clus>
</clustering>
</event>
<event>
 6    0  0.2666600E+002  0.1485172E+03  0.7546771E-02  0.1202307E+00
         21   -1    0    0  506  501  0.00000000000E+00  0.00000000000E+00  0.34849295029E+02  0.34849295029E+02  0.00000000000E+00 0. -1.
         21   -1    0    0  505  502 -0.00000000000E+00 -0.00000000000E+00 -0.15453860348E+04  0.15453860348E+04  0.00000000000E+00 0. -1.
         21    1    1    2  503  502 -0.33866826124E+02 -0.44895700636E+01 -0.36438435695E+03  0.36598234621E+03  0.00000000000E+00 0. -1.
         21    1    1    2  504  503  0.51987328797E+02  0.66649132591E+02 -0.13197094822E+03  0.15671987878E+03  0.00000000000E+00 0. -1.
         21    1    1    2  505  501 -0.40407672218E+02 -0.11469746540E+03 -0.98674611882E+03  0.99421134149E+03  0.00000000000E+00 0. -1.
         21    1    1    2  506  504  0.22287169545E+02  0.52537902873E+02 -0.27435315833E+02  0.63321763395E+02  0.00000000000E+00 0. -1.
<scales pt_clust_3="34.16311" pt_clust_4="47.66118" pt_clust_5="137.00960" pt_clust_6="47.66118"></scales>
<clustering>
<clus scale="   34.163">  2  3  1 -1</clus>
<clus scale="   47.661">  4  6 -1 -1</clus>
<clus scale="  137.010">  2  5  1 -1</clus>
<clus scale="  148.517">  1  3  2 -1</clus>
</clustering>
</event>
<event>
 6    0  0.2666600E+002  0.9739199E+02  0.7546771E-02  0.1285878E+00
         21   -1    0    0  505  501  0.00000000000E+00  0.00000000000E+00  0.15828624906E+04  0.15828624906E+04  0.00000000000E+00 0. -1.
         21   -1    0    0  503  502 -0.00000000000E+00 -0.00000000000E+00 -0.19341120269E+02  0.19341120269E+02  0.00000000000E+00 0. -1.
         21    1    1    2  503  501 -0.77004408908E+02 -0.53826862076E+02  0.21352344530E+03  0.23327938564E+03  0.00000000000E+00 0. -1.
         21    1    1    2  504  506  0.52226151271E+02  0.70648730646E+02  0.50985348039E+03  0.51736774685E+03  0.00000000000E+00 0. -1.
         21    1    1    2  505  504  0.21486585078E+02  0.24466391317E+02  0.76548623012E+03  0.76617846886E+03  0.00000000000E+00 0. -1.
         21    1    1    2  506  502  0.32916725586E+01 -0.41288259886E+02  0.74658214503E+02  0.85378009496E+02  0.00000000000E+00 0. -1.
<scales pt_clust_3="14000.00000" pt_clust_4="97.39199" pt_clust_5="32.56190" pt_clust_6="39.26462"></scales>
<clustering>
<clus scale="   32.562">  1  5  2 -1</clus>
<clus scale="   39.265">  2  6  1 -1</clus>
<clus scale="   97.392">  1  4  2 -1</clus>
<clus scale="   32.562">  1  3  2 -1</clus>
</clustering>
</event>
<event>
 6    0  0.2666600E+002  0.1201968E+03  0.7546771E-02  0.1242773E+00
         21   -1    0    0  506  501  0.00000000000E+00  0.00000000000E+00  0.18200369116E+04  0.18200369116E+04  0.00000000000E+00 0. -1.
         21   -1    0    0  505  502 -0.00000000000E+00 -0.00000000000E+00 -0.18535884955E+03  0.18535884955E+03  0.00000000000E+00 0.  1.
         21    1    1    2  503  502 -0.23138917832E+02  0.58172798039E+02  0.77144117286E+01  0.63079284226E+02  0.00000000000E+00 0.  1.
         21    1    1    2  504  503  0.41946156086E+02  0.62599634920E+02 -0.14490446448E+03  0.16332635466E+03  0.00000000000E+00 0.  1.
         21    1    1    2  505  501 -0.31365127719E+02 -0.16916401362E+02  0.16923343505E+03  0.17294476405E+03  0.00000000000E+00 0.  1.
         21    1    1    2  506  504  0.12557889465E+02 -0.10385603160E+03  0.16026346798E+04  0.16060453582E+04  0.00000000000E+00 0. -1.
<scales pt_clust_3="62.52183" pt_clust_4="14000.00000" pt_clust_5="35.63616" pt_clust_6="120.19679"></scales>
<clustering>
<clus scale="   35.636">  1  5  2 -1</clus>
<clus scale="   62.522">  2  3  1 -1</clus>
<clus scale="  120.197">  1  6  2 -1</clus>
<clus scale="   35.636">  1  3  2 -1</clus>
</clustering>
</event>
<event>
 6    0  0.2666600E+002  0.9144274E+02  0.7546771E-02  0.1299395E+00
         21   -1    0    0  505  501  0.00000000000E+00  0.00000000000E+00  0.55291736618E+02  0.55291736618E+02  0.00000000000E+00 0. -1.
         21   -1    0    0  503  502 -0.00000000000E+00 -0.00000000000E+00 -0.22893600106E+04  0.22893600106E+04  0.00000000000E+00 0.  1.
         21    1    1    2  503  506  0.47621112369E+02  0.95611495503E+01 -0.26146046745E+03  0.26593375484E+03  0.00000000000E+00 0. -1.
         21    1    1    2  504  501  0.35501143687E+02  0.28470067289E+02  0.14936296447E+02  0.47895395249E+02  0.00000000000E+00 0. -1.
         21    1    1    2  505  502 -0.45324141015E+02  0.78634935787E+02 -0.18247459160E+04  0.18270017484E+04  0.00000000000E+00 0.  1.
         21    1    1    2  506  504 -0.37798115041E+02 -0.11666615263E+03 -0.16279818694E+03  0.20382084864E+03  0.00000000000E+00 0. -1.
<scales pt_clust_3="52.39373" pt_clust_4="45.50688" pt_clust_5="91.44274" pt_clust_6="14000.00000"></scales>
<clustering>
<clus scale="   45.507">  1  4  2 -1</clus>
<clus scale="   52.394">  2  3  1 -1</clus>
<clus scale="   91.443">  2  5  1 -1</clus>
<clus scale="   45.507">  1  3  2 -1</clus>
</clustering>
</event>
<event>
 6    0  0.2666600E+002  0.2767826E+03  0.7546771E-02  0.1097459E+00
         21   -1    0    0  502  501  0.00000000000E+00  0.00000000000E+00  0.11631793179E+04  0.11631793179E+04  0.00000000000E+00 0.  1.
         21   -1    0    0  503  502 -0.00000000000E+00 -0.00000000000E+00 -0.24468774120E+03  0.24468774120E+03  0.00000000000E+00 0. -1.
         21    1    1    2  503  504  0.16183959245E+02 -0.10322129830E+03 -0.17335732248E+02  0.10591073870E+03  0.00000000000E+00 0. -1.
         21    1    1    2  504  506  0.19566417464E+03 -0.73165593893E+02 -0.97214335615E+02  0.23040898510E+03  0.00000000000E+00 0. -1.
         21    1    1    2  505  501 -0.14943720853E+03  0.16070814363E+03  0.83221736133E+03  0.86066504705E+03  0.00000000000E+00 0.  1.
         21    1    1    2  506  505 -0.62410925355E+02  0.15678748564E+02  0.20082428318E+03  0.21088228820E+03  0.00000000000E+00 0.  1.
<scales pt_clust_3="104.48233" pt_clust_4="267.51061" pt_clust_5="38.46888" pt_clust_6="38.46888"></scales>
<clustering>
<clus scale="   38.469">  5  6 -1 -1</clus>
<clus scale="  104.482">  2  3  1 -1</clus>
<clus scale="  267.511">  2  4  1 -1</clus>
<clus scale="  276.783">  1  3  2 -1</clus>
</clustering>
</event>
<event>
 6    0  0.2666600E+002  0.1313529E+03  0.7546771E-02  0.1225462E+00
         21   -1    0    0  502  501  0.00000000000E+00  0.00000000000E+00  0.10638202148E+03  0.10638202148E+03  0.00000000000E+00 0.  1.
         21   -1    0    0  506  502 -0.00000000000E+00 -0.00000000000E+00 -0.43231301801E+03  0.43231301801E+03  0.00000000000E+00 0. -1.
         21    1    1    2  503  501 -0.12187944005E+02  0.28636099568E+02  0.14465337672E+02  0.34319355639E+02  0.00000000000E+00 0.  1.
         21    1    1    2  504  505  0.63322329819E+02  0.70001914716E+01 -0.16863562898E+03  0.18026839850E+03  0.00000000000E+00 0. -1.
         21    1    1    2  505  503 -0.11450853006E+03 -0.60826234407E+01  0.23193238083E+02  0.11699199997E+03  0.00000000000E+00 0.  1.
         21    1    1    2  506  504  0.63374144246E+02 -0.29553667599E+02 -0.19495394331E+03  0.20711528538E+03  0.00000000000E+00 0.  1.
<scales pt_clust_3="31.12189" pt_clust_4="34.78402" pt_clust_5="126.27545" pt_clust_6="34.78402"></scales>
<clustering>
<clus scale="   31.122">  1  3  2 -1</clus>
<clus scale="   34.784">  4  6 -1 -1</clus>
<clus scale="  126.275">  1  5  2 -1</clus>
<clus scale="   31.122">  1  3  2 -1</clus>
</clustering>
</event>
<event>
 6    0  0.2666600E+002  0.7798309E+02  0.7546771E-02  0.1334875E+00
         21   -1    0    0  503  501  0.00000000000E+00  0.00000000000E+00  0.43211238271E+03  0.43211238271E+03  0.00000000000E+00 0.  1.
         21   -1    0    0  506  502 -0.00000000000E+00 -0.00000000000E+00 -0.34157783885E+03  0.34157783885E+03  0.00000000000E+00 0.  1.
         21    1    1    2  503  505  0.86753238254E+02 -0.22316388736E+02  0.30107515141E+03  0.31411843682E+03  0.00000000000E+00 0.  1.
         21    1    1    2  504  501 -0.23167784712E+02  0.29663610742E+02  0.98132182995E+02  0.10510281343E+03  0.00000000000E+00 0.  1.
         21    1    1    2  505  502 -0.49468952604E+02  0.70729786239E+02 -0.21518815723E+03  0.23185302013E+03  0.00000000000E+00 0.  1.
         21    1    1    2  506  504 -0.14116500938E+02 -0.78077008245E+02 -0.93484633321E+02  0.12261595117E+03  0.00000000000E+00 0.  1.
<scales pt_clust_3="65.40506" pt_clust_4="37.63876" pt_clust_5="77.98309" pt_clust_6="14000.00000"></scales>
<clustering>
<clus scale="   37.639">  1  4  2 -1</clus>
<clus scale="   65.405">  1  3  2 -1</clus>
<clus scale="   77.983">  2  5  1 -1</clus>
<clus scale="   37.639">  1  3  2 -1</clus>
</clustering>
</event>
<event>
 6    0  0.2666600E+002  0.1410895E+03  0.7546771E-02  0.1211870E+00
         21   -1    0    0  504  501  0.00000000000E+00  0.00000000000E+00  0.39666773812E+02  0.39666773812E+02  0.00000000000E+00 0. -1.
         21   -1    0    0  505  502 -0.00000000000E+00 -0.00000000000E+00 -0.25212010337E+04  0.25212010337E+04  0.00000000000E+00 0. -1.
         21    1    1    2  503  506 -0.84986449796E+02  0.83786669598E+02 -0.10312524086E+03  0.15772671921E+03  0.00000000000E+00 0. -1.
         21    1    1    2  504  502  0.36197689595E+01 -0.47850863330E+02 -0.19986019913E+03  0.20554052409E+03  0.00000000000E+00 0. -1.
         21    1    1    2  505  503  0.13026323809E+03 -0.17908764808E+02 -0.20950585239E+04  0.20991806624E+04  0.00000000000E+00 0. -1.
         21    1    1    2  506  501 -0.48896557253E+02 -0.18027041460E+02 -0.83490296007E+02  0.98419901759E+02  0.00000000000E+00 0. -1.
<scales pt_clust_3="141.08948" pt_clust_4="47.98758" pt_clust_5="14000.00000" pt_clust_6="52.66104"></scales>
<clustering>
<clus scale="   47.988">  2  4  1 -1</clus>
<clus scale="   52.661">  1  6  2 -1</clus>
<clus scale="  141.089">  1  3  2 -1</clus>
<clus scale="   52.661">  1  3  2 -1</clus>
</clustering>
</event>
<event>
 6    0  0.2666600E+002  0.1363397E+03  0.7546771E-02  0.1218341E+00
         21   -1    0    0  503  501  0.00000000000E+00  0.00000000000E+00  0.87606045843E+02  0.87606045843E+02  0.00000000000E+00 0.  1.
         21   -1    0    0  506  502 -0.00000000000E+00 -0.00000000000E+00 -0.33256629463E+03  0.33256629463E+03  0.00000000000E+00 0.  1.
         21    1    1    2  503  504 -0.26132710541E+01 -0.74395536201E+02 -0.15472018112E+02  0.76032284831E+02  0.00000000000E+00 0.  1.
         21    1    1    2  504  502 -0.30137239685E+02 -0.48231922940E+02  0.20317624157E+02  0.60393521654E+02  0.00000000000E+00 0.  1.
         21    1    1    2  505  501  0.24942851246E+02  0.45121243657E+02 -0.13937720667E+03  0.14860712700E+03  0.00000000000E+00 0.  1.
         21    1    1    2  506  505  0.78076594940E+01  0.77506215484E+02 -0.11042864816E+03  0.13513940698E+03  0.00000000000E+00 0.  1.
<scales pt_clust_3="43.51463" pt_clust_4="43.51463" pt_clust_5="36.37375" pt_clust_6="134.57017"></scales>
<clustering>
<clus scale="   36.374">  5  6 -1 -1</clus>
<clus scale="   43.515">  3  4 -1 -1</clus>
<clus scale="  134.570">  2  5  1 -1</clus>
<clus scale="  136.340">  1  3  2 -1</clus>
</clustering>
</event>
<event>
 6    0  0.2666600E+002  0.1596000E+03  0.7546771E-02  0.1189149E+00
         21   -1    0    0  503  501  0.00000000000E+00  0.00000000000E+00  0.37671883494E+03  0.37671883494E+03  0.00000000000E+00 0. -1.
         21   -1    0    0  506  502 -0.00000000000E+00 -0.00000000000E+00 -0.12642764242E+03  0.12642764242E+03  0.00000000000E+00 0. -1.
         21    1    1    2  503  505  0.69903146513E+01  0.13630819671E+03  0.20774052583E+03  0.24856571578E+03  0.00000000000E+00 0. -1.
         21    1    1    2  504  502  0.74619502648E+00 -0.56092186902E+02  0.34774620644E+01  0.56204830583E+02  0.00000000000E+00 0. -1.
         21    1    1    2  505  504 -0.83244073995E+02 -0.72943236466E+02 -0.47266370609E+01  0.11078191504E+03  0.00000000000E+00 0. -1.
         21    1    1    2  506  501  0.75507564318E+02 -0.72727733375E+01  0.43799841686E+02  0.87594015965E+02  0.00000000000E+00 0. -1.
<scales pt_clust_3="145.06961" pt_clust_4="47.36823" pt_clust_5="47.36823" pt_clust_6="75.85701"></scales>
<clustering>
<clus scale="   47.368">  4  5 -1 -1</clus>
<clus scale="   75.857">  1  6  2 -1</clus>
<clus scale="  145.070">  1  3  2 -1</clus>
<clus scale="   75.857">  1  3  2 -1</clus>
</clustering>
</event>
<event>
 6    0  0.2666600E+002  0.2202514E+03  0.7546771E-02  0.1133696E+00
         21   -1    0    0  506  501  0.00000000000E+00  0.00000000000E+00  0.60374366165E+02  0.60374366165E+02  0.00000000000E+00 0.  1.
         21   -1    0    0  501  502 -0.00000000000E+00 -0.00000000000E+00 -0.93723169331E+03  0.93723169331E+03  0.00000000000E+00 0.  1.
         21    1    1    2  503  504 -0.10238240780E+03 -0.31027494974E+02 -0.15544568572E+03  0.18870141515E+03  0.00000000000E+00 0.  1.
         21    1    1    2  504  505  0.14506839170E+03  0.73222189276E+02 -0.41366949319E+03  0.44444209619E+03  0.00000000000E+00 0.  1.
         21    1    1    2  505  502  0.52306400176E+02 -0.29380726758E+01 -0.22918203583E+03  0.23509359268E+03  0.00000000000E+00 0.  1.
         21    1    1    2  506  503 -0.94992384077E+02 -0.39256621626E+02 -0.78560112393E+02  0.12936895545E+03  0.00000000000E+00 0.  1.
<scales pt_clust_3="215.42991" pt_clust_4="38.56836" pt_clust_5="38.56836" pt_clust_6="49.14057"></scales>
<clustering>
<clus scale="   38.568">  4  5 -1 -1</clus>
<clus scale="   49.141">  3  6 -1 -1</clus>
<clus scale="  215.430">  1  3  2 -1</clus>
<clus scale="  215.430">  1  3  2 -1</clus>
</clustering>
</event>
<event>
 6    0  0.2666600E+002  0.1287850E+03  0.7546771E-02  0.1229270E+00
         21   -1    0    0  505  501  0.00000000000E+00  0.00000000000E+00  0.51722370522E+02  0.51722370522E+02  0.00000000000E+00 0.  1.
         21   -1    0    0  504  502 -0.00000000000E+00 -0.00000000000E+00 -0.27793883953E+04  0.27793883953E+04  0.00000000000E+00 0.  1.
         21    1    1    2  503  502  0.23936551288E+02 -0.27325070681E+02 -0.14309245812E+04  0.14313856137E+04  0.00000000000E+00 0.  1.
         21    1    1    2  504  501 -0.12556579525E+03  0.70381123259E+02 -0.15680121434E+03  0.21285415727E+03  0.00000000000E+00 0.  1.
         21    1    1    2  505  506  0.74302502640E+02 -0.94739270382E+02 -0.13764839805E+03  0.18287556626E+03  0.00000000000E+00 0.  1.
         21    1    1    2  506  503  0.27326741325E+02  0.51683217804E+02 -0.10022918312E+04  0.10039954286E+04  0.00000000000E+00 0.  1.
<scales pt_clust_3="36.32655" pt_clust_4="14000.00000" pt_clust_5="128.78499" pt_clust_6="54.95698"></scales>
<clustering>
<clus scale="   36.327">  2  3  1 -1</clus>
<clus scale="   54.957">  2  6  1 -1</clus>
<clus scale="  128.785">  1  5  2 -1</clus>
<clus scale="  128.785">  1  3  2 -1</clus>
</clustering>
</event>
<event>
 6    0  0.2666600E+002  0.2128445E+03  0.7546771E-02  0.1139333E+00
         21   -1    0    0  505  501  0.00000000000E+00  0.00000000000E+00  0.22095527275E+03  0.22095527275E+03  0.00000000000E+00 0. -1.
         21   -1    0    0  506  502 -0.00000000000E+00 -0.00000000000E+00 -0.18270459697E+04  0.18270459697E+04  0.00000000000E+00 0. -1.
         21    1    1    2  503  504  0.10067628434E+02  0.12634619562E+03 -0.89110783983E+03  0.90007660813E+03  0.00000000000E+00 0. -1.
         21    1    1    2  504  502 -0.30254592575E+02  0.77992075411E+02 -0.82210528999E+03  0.82635053823E+03  0.00000000000E+00 0. -1.
         21    1    1    2  505  503  0.87798033329E+02 -0.52010643051E+00  0.40875087161E+02  0.96848014526E+02  0.00000000000E+00 0. -1.
         21    1    1    2  506  501 -0.67611069188E+02 -0.20381816460E+03  0.66247345748E+02  0.22472608153E+03  0.00000000000E+00 0. -1.
<scales pt_clust_3="46.59754" pt_clust_4="46.59754" pt_clust_5="87.79957" pt_clust_6="204.97066"></scales>
<clustering>
<clus scale="   46.598">  3  4 -1 -1</clus>
<clus scale="   87.800">  1  5  2 -1</clus>
<clus scale="  204.971">  1  6  2 -1</clus>
<clus scale="   87.800">  1  3  2 -1</clus>
</clustering>
</event>
<event>
 6    0  0.2666600E+002  0.2055149E+03  0.7546771E-02  0.1145168E+00
         21   -1    0    0  506  501  0.00000000000E+00  0.00000000000E+00  0.33015341543E+03  0.33015341543E+03  0.00000000000E+00 0.  1.
         21   -1    0    0  504  502 -0.00000000000E+00 -0.00000000000E+00 -0.21531586656E+03  0.21531586656E+03  0.00000000000E+00 0.  1.
         21    1    1    2  503  501  0.99607235798E+02  0.96867329176E+02  0.10121913802E+03  0.17190170094E+03  0.00000000000E+00 0.  1.
         21    1    1    2  504  503  0.71316649181E+02  0.16060093009E+02  0.10588017747E+03  0.12866469220E+03  0.00000000000E+00 0. -1.
         21    1    1    2  505  502 -0.36812847609E+02 -0.17222301233E+02 -0.66795226524E+02  0.78188206881E+02  0.00000000000E+00 0.  1.
         21    1    1    2  506  505 -0.13411103737E+03 -0.95705120952E+02 -0.25466540097E+02  0.16671468197E+03  0.00000000000E+00 0.  1.
<scales pt_clust_3="54.41814" pt_clust_4="54.41814" pt_clust_5="40.64226" pt_clust_6="191.71313"></scales>
<clustering>
<clus scale="   40.642">  2  5  1 -1</clus>
<clus scale="   54.418">  3  4 -1 -1</clus>
<clus scale="  191.713">  2  6  1 -1</clus>
<clus scale="  205.515">  1  3  2 -1</clus>
</clustering>
</event>
<event>
 6    0  0.2666600E+002  0.1019824E+03  0.7546771E-02  0.1276182E+00
         21   -1    0    0  506  501  0.00000000000E+00  0.00000000000E+00  0.73981230204E+03  0.73981230204E+03  0.00000000000E+00 0.  1.
         21   -1    0    0  505  502 -0.00000000000E+00 -0.00000000000E+00 -0.27520579106E+03  0.27520579106E+03  0.00000000000E+00 0.  1.
         21    1    1    2  503  501  0.18892042655E+02  0.56005650235E+02  0.57086461908E+03  0.57391633140E+03  0.00000000000E+00 0.  1.
         21    1    1    2  504  502 -0.52061206600E+02 -0.13949672261E+03 -0.20099280383E+03  0.25013558732E+03  0.00000000000E+00 0.  1.
         21    1    1    2  505  503  0.33103284846E+02  0.38190557483E+02 -0.29645350435E+02  0.58593454847E+02  0.00000000000E+00 0. -1.
         21    1    1    2  506  504  0.65879098792E-01  0.45300514896E+02  0.12438004617E+03  0.13237271953E+03  0.00000000000E+00 0.  1.
<scales pt_clust_3="101.98241" pt_clust_4="14000.00000" pt_clust_5="51.35667" pt_clust_6="45.30056"></scales>
<clustering>
<clus scale="   45.301">  1  6  2 -1</clus>
<clus scale="   51.357">  2  5  1 -1</clus>
<clus scale="  101.982">  1  3  2 -1</clus>
<clus scale="   45.301">  1  3  2 -1</clus>
</clustering>
</event>
<event>
 6    0  0.2666600E+002  0.1410685E+03  0.7546771E-02  0.1211898E+00
         21   -1    0    0  502  501  0.00000000000E+00  0.00000000000E+00  0.31633929839E+03  0.31633929839E+03  0.00000000000E+00 0.  1.
         21   -1    0    0  506  502 -0.00000000000E+00 -0.00000000000E+00 -0.76528688609E+03  0.76528688609E+03  0.00000000000E+00 0. -1.
         21    1    1    2  503  505  0.28889114039E+02 -0.47200766790E+02 -0.20120141185E+03  0.20867319288E+03  0.00000000000E+00 0.  1.
         21    1    1    2  504  501 -0.25290219885E+02  0.18824505569E+02  0.15440659684E+03  0.15759236777E+03  0.00000000000E+00 0.  1.
         21    1    1    2  505  504 -0.33602381072E+02  0.10382532288E+03  0.13415874875E+03  0.17293752499E+03  0.00000000000E+00 0.  1.
         21    1    1    2  506  503  0.30003486919E+02 -0.75449061655E+02 -0.53631152144E+03  0.54242309884E+03  0.00000000000E+00 0. -1.
<scales pt_clust_3="34.02544" pt_clust_4="31.52709" pt_clust_5="134.87524" pt_clust_6="34.02544"></scales>
<clustering>
<clus scale="   31.527">  1  4  2 -1</clus>
<clus scale="   34.025">  3  6 -1 -1</clus>
<clus scale="  134.875">  1  5  2 -1</clus>
<clus scale="   31.527">  1  3  2 -1</clus>
</clustering>
</event>
<event>
 6    0  0.2666600E+002  0.1647475E+03  0.7546771E-02  0.1183439E+00
         21   -1    0    0  506  501  0.00000000000E+00  0.00000000000E+00  0.32930153454E+03  0.32930153454E+03  0.00000000000E+00 0.  1.
         21   -1    0    0  503  502 -0.00000000000E+00 -0.00000000000E+00 -0.60137860359E+03  0.60137860359E+03  0.00000000000E+00 0.  1.
         21    1    1    2  503  504 -0.20665380484E+03 -0.85239108884E+02 -0.42567606814E+03  0.48080309454E+03  0.00000000000E+00 0.  1.
         21    1    1    2  504  501  0.36050915421E+02 -0.65905381927E+01  0.54383256456E+01  0.37049683969E+02  0.00000000000E+00 0. -1.
         21    1    1    2  505  502  0.41328735035E+02  0.13268181348E+03 -0.70283082212E+02  0.15573130582E+03  0.00000000000E+00 0. -1.
         21    1    1    2  506  505  0.12927415438E+03 -0.40852166405E+02  0.21844375565E+03  0.25709605379E+03  0.00000000000E+00 0.  1.
<scales pt_clust_3="164.74749" pt_clust_4="36.64838" pt_clust_5="139.67493" pt_clust_6="14000.00000"></scales>
<clustering>
<clus scale="   36.648">  1  4  2 -1</clus>
<clus scale="  139.675">  2  5  1 -1</clus>
<clus scale="  164.747">  2  3  1 -1</clus>
<clus scale="   36.648">  1  3  2 -1</clus>
</clustering>
</event>
<event>
 6    0  0.2666600E+002  0.1062285E+03  0.7546771E-02  0.1267718E+00
         21   -1    0    0  504  501  0.00000000000E+00  0.00000000000E+00  0.96576676720E+03  0.96576676720E+03  0.00000000000E+00 0.  1.
         21   -1    0    0  506  502 -0.00000000000E+00 -0.00000000000E+00 -0.33210954514E+02  0.33210954514E+02  0.00000000000E+00 0.  1.
         21    1    1    2  503  502 -0.51865278497E+02 -0.61583947621E+02  0.11541418918E+03  0.14072322048E+03  0.00000000000E+00 0.  1.
         21    1    1    2  504  503  0.31721689317E+02  0.11779705643E+03  0.58014119517E+03  0.59282899592E+03  0.00000000000E+00 0.  1.
         21    1    1    2  505  501  0.55757658190E+02 -0.62010715890E+02  0.16265936785E+03  0.18279035883E+03  0.00000000000E+00 0.  1.
         21    1    1    2  506  505 -0.35614069010E+02  0.57976070785E+01  0.74341060489E+02  0.82635146481E+02  0.00000000000E+00 0.  1.
<scales pt_clust_3="106.22853" pt_clust_4="14000.00000" pt_clust_5="74.06728" pt_clust_6="36.08288"></scales>
<clustering>
<clus scale="   36.083">  2  6  1 -1</clus>
<clus scale="   74.067">  2  5  1 -1</clus>
<clus scale="  106.229">  2  3  1 -1</clus>
<clus scale="  106.229">  1  3  2 -1</clus>
</clustering>
</event>
<event>
 6    0  0.2666600E+002  0.1056769E+03  0.7546771E-02  0.1268792E+00
         21   -1    0    0  506  501  0.00000000000E+00  0.00000000000E+00  0.58887755778E+02  0.58887755778E+02  0.00000000000E+00 0. -1.
         21   -1    0    0  503  502 -0.00000000000E+00 -0.00000000000E+00 -0.13165028468E+04  0.13165028468E+04  0.00000000000E+00 0. -1.
         21    1    1    2  503  504  0.41518664186E+02 -0.11154892570E+02 -0.29804534170E+03  0.30112996665E+03  0.00000000000E+00 0. -1.
         21    1    1    2  504  501  0.75719228062E+02  0.85015262138E+01 -0.77017665533E+02  0.10833927381E+03  0.00000000000E+00 0. -1.
         21    1    1    2  505  502  0.28147898472E+02  0.58077265777E+02 -0.77286033248E+03  0.77555036362E+03  0.00000000000E+00 0. -1.
         21    1    1    2  506  505 -0.14538579072E+03 -0.55423899421E+02 -0.10969175135E+03  0.19037099854E+03  0.00000000000E+00 0. -1.
<scales pt_clust_3="42.99106" pt_clust_4="14000.00000" pt_clust_5="77.65030" pt_clust_6="105.67689"></scales>
<clustering>
<clus scale="   42.991">  2  3  1 -1</clus>
<clus scale="   77.650">  2  5  1 -1</clus>
<clus scale="  105.677">  2  6  1 -1</clus>
<clus scale="  105.677">  1  3  2 -1</clus>
</clustering>
</event>
<event>
 6    0  0.2666600E+002  0.1474167E+03  0.7546771E-02  0.1203684E+00
         21   -1    0    0  505  501  0.00000000000E+00  0.00000000000E+00  0.26622483214E+03  0.26622483214E+03  0.00000000000E+00 0.  1.
         21   -1    0    0  506  502 -0.00000000000E+00 -0.00000000000E+00 -0.96007177214E+02  0.96007177214E+02  0.00000000000E+00 0.  1.
         21    1    1    2  503  502  0.12510321689E+02  0.66128356535E+02  0.54037787924E+02  0.86310776908E+02  0.00000000000E+00 0.  1.
         21    1    1    2  504  501 -0.19314673701E+02 -0.67506490570E+02 -0.20538247622E+02  0.73157381751E+02  0.00000000000E+00 0.  1.
         21    1    1    2  505  503  0.52604853730E+02  0.51114666035E+02  0.10499902620E+03  0.12808112750E+03  0.00000000000E+00 0.  1.
         21    1    1    2  506  504 -0.45800501718E+02 -0.49736532000E+02  0.31719088431E+02  0.74682723196E+02  0.00000000000E+00 0.  1.
<scales pt_clust_3="49.63756" pt_clust_4="60.05753" pt_clust_5="143.77476" pt_clust_6="60.05753"></scales>
<clustering>
<clus scale="   49.638">  3  5 -1 -1</clus>
<clus scale="   60.058">  4  6 -1 -1</clus>
<clus scale="  143.775">  1  3  2 -1</clus>
<clus scale="  143.775">  1  3  2 -1</clus>
</clustering>
</event>
<event>
 6    0  0.2666600E+002  0.9165747E+02  0.7546771E-02  0.1298887E+00
         21   -1    0    0  504  501  0.00000000000E+00  0.00000000000E+00  0.18296919011E+04  0.18296919011E+04  0.00000000000E+00 0. -1.
         21   -1    0    0  505  502 -0.00000000000E+00 -0.00000000000E+00 -0.22716750457E+03  0.22716750457E+03  0.00000000000E+00 0.  1.
         21    1    1    2  503  506  0.13776302526E+03  0.57596060887E+02  0.50961348214E+03  0.53103847181E+03  0.00000000000E+00 0. -1.
         21    1    1    2  504  503 -0.77532920648E+02 -0.33055230257E+02  0.12952484332E+04  0.12979878681E+04  0.00000000000E+00 0. -1.
         21    1    1    2  505  501 -0.40161874891E+02  0.16533171136E+02 -0.39524602884E+02  0.58724068113E+02  0.00000000000E+00 0.  1.
         21    1    1    2  506  502 -0.20068229717E+02 -0.41074001767E+02 -0.16281291596E+03  0.16910899760E+03  0.00000000000E+00 0.  1.
<scales pt_clust_3="14000.00000" pt_clust_4="91.65747" pt_clust_5="43.43181" pt_clust_6="62.97115"></scales>
<clustering>
<clus scale="   43.432">  2  5  1 -1</clus>
<clus scale="   62.971">  2  6  1 -1</clus>
<clus scale="   91.657">  1  4  2 -1</clus>
<clus scale="   91.657">  1  3  2 -1</clus>
</clustering>
</event>
<event>
 6    0  0.2666600E+002  0.2082748E+03  0.7546771E-02  0.1142940E+00
         21   -1    0    0  504  501  0.00000000000E+00  0.00000000000E+00  0.17888412771E+04  0.17888412771E+04  0.00000000000E+00 0. -1.
         21   -1    0    0  503  502 -0.00000000000E+00 -0.00000000000E+00 -0.83396332712E+02  0.83396332712E+02  0.00000000000E+00 0. -1.
         21    1    1    2  503  505 -0.23789659436E+02 -0.75329213647E+02  0.16098056654E+03  0.17931865806E+03  0.00000000000E+00 0.  1.
         21    1    1    2  504  502  0.40107617129E+02  0.26509028694E+03  0.20246490656E+03  0.33596654532E+03  0.00000000000E+00 0. -1.
         21    1    1    2  505  506  0.22089469467E+02 -0.77200094033E+02  0.45761033691E+03  0.46460200131E+03  0.00000000000E+00 0.  1.
         21    1    1    2  506  501 -0.38407427160E+02 -0.11256097926E+03  0.88438913438E+03  0.89235040513E+03  0.00000000000E+00 0. -1.
<scales pt_clust_3="78.99645" pt_clust_4="198.23386" pt_clust_5="52.49555" pt_clust_6="52.49555"></scales>
<clustering>
<clus scale="   52.496">  5  6 -1 -1</clus>
<clus scale="   78.996">  2  3  1 -1</clus>
<clus scale="  198.234">  2  4  1 -1</clus>
<clus scale="  208.275">  1  3  2 -1</clus>
</clustering>
</event>
<event>
 6    0  0.2666600E+002  0.1532038E+03  0.7546771E-02  0.1196591E+00
         21   -1    0    0  503  501  0.00000000000E+00  0.00000000000E+00  0.10312234808E+03  0.10312234808E+03  0.00000000000E+00 0.  1.
         21   -1    0    0  506  502 -0.00000000000E+00 -0.00000000000E+00 -0.23698630242E+04  0.23698630242E+04  0.00000000000E+00 0.  1.
         21    1    1    2  503  505  0.25037147122E+02  0.91274012767E+02 -0.88281607728E+02  0.12942737889E+03  0.00000000000E+00 0.  1.
         21    1    1    2  504  501 -0.10357208638E+03  0.58348581727E+02  0.21901074419E+02  0.12087758736E+03  0.00000000000E+00 0.  1.
         21    1    1    2  505  502  0.15624286935E+03 -0.26664919324E+02 -0.14256240522E+04  0.14344081673E+04  0.00000000000E+00 0.  1.
         21    1    1    2  506  504 -0.77707930094E+02 -0.12295767517E+03 -0.77473609062E+03  0.78827223876E+03  0.00000000000E+00 0.  1.
<scales pt_clust_3="94.64568" pt_clust_4="14000.00000" pt_clust_5="153.20382" pt_clust_6="138.05078"></scales>
<clustering>
<clus scale="   94.646">  1  3  2 -1</clus>
<clus scale="  138.051">  2  6  1 -1</clus>
<clus scale="  153.204">  2  5  1 -1</clus>
<clus scale="   94.646">  1  3  2 -1</clus>
</clustering>
</event>
<event>
 6    0  0.2666600E+002  0.1429250E+03  0.7546771E-02  0.1209446E+00
         21   -1    0    0  504  501  0.00000000000E+00  0.00000000000E+00  0.14281031015E+04  0.14281031015E+04  0.00000000000E+00 0.  1.
         21   -1    0    0  505  502 -0.00000000000E+00 -0.00000000000E+00 -0.10746530798E+03  0.10746530798E+03  0.00000000000E+00 0. -1.
         21    1    1    2  503  502 -0.78279197370E+02 -0.11903956891E+03 -0.55271180054E+01  0.14257840209E+03  0.00000000000E+00 0. -1.
         21    1    1    2  504  503  0.37904283004E+02  0.31962527431E+02  0.13878913805E+03  0.14737965487E+03  0.00000000000E+00 0. -1.
         21    1    1    2  505  506 -0.72525431432E+02  0.85546530366E+02  0.93761149186E+02  0.14618242083E+03  0.00000000000E+00 0. -1.
         21    1    1    2  506  501  0.11290034580E+03  0.15305111173E+01  0.10936146243E+04  0.10994279317E+04  0.00000000000E+00 0.  1.
<scales pt_clust_3="142.92504" pt_clust_4="49.58163" pt_clust_5="112.23557" pt_clust_6="14000.00000"></scales>
<clustering>
<clus scale="   49.582">  1  4  2 -1</clus>
<clus scale="  112.236">  2  5  1 -1</clus>
<clus scale="  142.925">  2  3  1 -1</clus>
<clus scale="   49.582">  1  3  2 -1</clus>
</clustering>
</event>
<event>
 6    0  0.2666600E+002  0.8778655E+02  0.7546771E-02  0.1308302E+00
         21   -1    0    0  504  501  0.00000000000E+00  0.00000000000E+00  0.68818295034E+02  0.68818295034E+02  0.00000000000E+00 0. -1.
         21   -1    0    0  503  502 -0.00000000000E+00 -0.00000000000E+00 -0.11459926944E+04  0.11459926944E+04  0.00000000000E+00 0.  1.
         21    1    1    2  503  506 -0.86386195435E+02  0.39536998043E+02 -0.57520333178E+03  0.58299624516E+03  0.00000000000E+00 0.  1.
         21    1    1    2  504  505 -0.12150610397E+02 -0.69475840370E+02 -0.27963798089E+02  0.75871626658E+02  0.00000000000E+00 0. -1.
         21    1    1    2  505  502  0.62011698347E+02  0.61178735731E+02 -0.49563975698E+03  0.50323658168E+03  0.00000000000E+00 0.  1.
         21    1    1    2  506  501  0.36525107484E+02 -0.31239893403E+02  0.21632487482E+02  0.52706535944E+02  0.00000000000E+00 0. -1.
<scales pt_clust_3="14000.00000" pt_clust_4="87.11529" pt_clust_5="87.78655" pt_clust_6="48.06261"></scales>
<clustering>
<clus scale="   48.063">  1  6  2 -1</clus>
<clus scale="   87.787">  2  5  1 -1</clus>
<clus scale="   87.115">  1  4  2 -1</clus>
<clus scale="   48.063">  1  3  2 -1</clus>
</clustering>
</event>
<event>
 6    0  0.2666600E+002  0.9711297E+02  0.7546771E-02  0.1286487E+00
         21   -1    0    0  504  501  0.00000000000E+00  0.00000000000E+00  0.49861269733E+02  0.49861269733E+02  0.00000000000E+00 0.  1.
         21   -1    0    0  506  502 -0.00000000000E+00 -0.00000000000E+00 -0.78631930489E+03  0.78631930489E+03  0.00000000000E+00 0. -1.
         21    1    1    2  503  501 -0.49153761435E+02 -0.41354094977E+02 -0.67677208614E+02  0.93308402625E+02  0.00000000000E+00 0.  1.
         21    1    1    2  504  505 -0.59654405628E+02  0.43262350566E+02 -0.14337598181E+02  0.75072270573E+02  0.00000000000E+00 0.  1.
         21    1    1    2  505  502  0.91919961779E+02 -0.31199656041E+02 -0.42972153008E+03  0.44054885237E+03  0.00000000000E+00 0. -1.
         21    1    1    2  506  503  0.16888205284E+02  0.29291400452E+02 -0.22472169828E+03  0.22725104906E+03  0.00000000000E+00 0. -1.
<scales pt_clust_3="59.69365" pt_clust_4="97.11297" pt_clust_5="14000.00000" pt_clust_6="33.81121"></scales>
<clustering>
<clus scale="   33.811">  2  6  1 -1</clus>
<clus scale="   59.694">  1  3  2 -1</clus>
<clus scale="   97.113">  1  4  2 -1</clus>
<clus scale="   59.694">  1  3  2 -1</clus>
</clustering>
</event>
<event>
 6    0  0.2666600E+002  0.1138683E+03  0.7546771E-02  0.1253570E+00
         21   -1    0    0  503  501  0.00000000000E+00  0.00000000000E+00  0.12232274223E+04  0.12232274223E+04  0.00000000000E+00 0.  1.
         21   -1    0    0  504  502 -0.00000000000E+00 -0.00000000000E+00 -0.72190231568E+02  0.72190231568E+02  0.00000000000E+00 0.  1.
         21    1    1    2  503  506  0.56012544445E+01  0.36878647547E+02  0.18972437932E+03  0.19335653287E+03  0.00000000000E+00 0.  1.
         21    1    1    2  504  505  0.22183011995E+02  0.24467627086E+02  0.79166032627E+01  0.33962087739E+02  0.00000000000E+00 0. -1.
         21    1    1    2  505  501  0.93152542286E+02  0.19196486833E+02  0.91209526212E+03  0.91704071252E+03  0.00000000000E+00 0.  1.
         21    1    1    2  506  502 -0.12093680873E+03 -0.80542761466E+02  0.41300946073E+02  0.15105832078E+03  0.00000000000E+00 0.  1.
<scales pt_clust_3="38.15044" pt_clust_4="33.02652" pt_clust_5="14000.00000" pt_clust_6="113.86828"></scales>
<clustering>
<clus scale="   33.027">  2  4  1 -1</clus>
<clus scale="   38.150">  1  3  2 -1</clus>
<clus scale="  113.868">  2  6  1 -1</clus>
<clus scale="   38.150">  1  3  2 -1</clus>
</clustering>
</event>
<event>
 6    0  0.2666600E+002  0.1114136E+03  0.7546771E-02  0.1257974E+00
         21   -1    0    0  506  501  0.00000000000E+00  0.00000000000E+00  0.12459905195E+03  0.12459905195E+03  0.00000000000E+00 0. -1.
         21   -1    0    0  504  502 -0.00000000000E+00 -0.00000000000E+00 -0.29003390242E+03  0.29003390242E+03  0.00000000000E+00 0. -1.
         21    1    1    2  503  501 -0.58739820474E+01 -0.85250676975E+02 -0.15500088923E+01  0.85466859761E+02  0.00000000000E+00 0. -1.
         21    1    1    2  504  503  0.10327302065E+03  0.80685309511E+02 -0.16079436475E+03  0.20743737296E+03  0.00000000000E+00 0. -1.
         21    1    1    2  505  502 -0.19699406717E+02  0.25341852778E+02 -0.22241435811E+02  0.39050705425E+02  0.00000000000E+00 0. -1.
         21    1    1    2  506  505 -0.77699631885E+02 -0.20776485314E+02  0.19150958975E+02  0.82678016224E+02  0.00000000000E+00 0. -1.
<scales pt_clust_3="81.51830" pt_clust_4="14000.00000" pt_clust_5="32.09791" pt_clust_6="111.41365"></scales>
<clustering>
<clus scale="   32.098">  2  5  1 -1</clus>
<clus scale="   81.518">  1  3  2 -1</clus>
<clus scale="  111.414">  1  6  2 -1</clus>
<clus scale="   81.518">  1  3  2 -1</clus>
</clustering>
</event>
<event>
 6    0  0.2666600E+002  0.1282106E+03  0.7546771E-02  0.1230135E+00
         21   -1    0    0  503  501  0.00000000000E+00  0.00000000000E+00  0.14948810986E+04  0.14948810986E+04  0.00000000000E+00 0. -1.
         21   -1    0    0  506  502 -0.00000000000E+00 -0.00000000000E+00 -0.39923428882E+02  0.39923428882E+02  0.00000000000E+00 0. -1.
         21    1    1    2  503  504 -0.61081531990E+02 -0.85202336549E+02  0.10250585620E+04  0.10304054771E+04  0.00000000000E+00 0. -1.
         21    1    1    2  504  502  0.15339205764E+02  0.14874420866E+03  0.17485256534E+03  0.23007292420E+03  0.00000000000E+00 0. -1.
         21    1    1    2  505  501 -0.11156003015E+02 -0.29038384852E+02  0.11721208912E+03  0.12126977379E+03  0.00000000000E+00 0. -1.
         21    1    1    2  506  505  0.56898329240E+02 -0.34503487261E+02  0.13783445322E+03  0.15305635236E+03  0.00000000000E+00 0. -1.
<scales pt_clust_3="14000.00000" pt_clust_4="128.21060" pt_clust_5="31.10762" pt_clust_6="67.20393"></scales>
<clustering>
<clus scale="   31.108">  1  5  2 -1</clus>
<clus scale="   67.204">  2  6  1 -1</clus>
<clus scale="  128.211">  2  4  1 -1</clus>
<clus scale="   31.108">  1  3  2 -1</clus>
</clustering>
</event>
<event>
 6    0  0.2666600E+002  0.1731283E+03  0.7546771E-02  0.1174624E+00
         21   -1    0    0  505  501  0.00000000000E+00  0.00000000000E+00  0.11027440301E+03  0.11027440301E+03  0.00000000000E+00 0. -1.
         21   -1    0    0  506  502 -0.00000000000E+00 -0.00000000000E+00 -0.18854814184E+04  0.18854814184E+04  0.00000000000E+00 0.  1.
         21    1    1    2  503  504  0.63572784079E+02  0.46355424645E+02 -0.10989401613E+04  0.11017530588E+04  0.00000000000E+00 0.  1.
         21    1    1    2  504  501 -0.11431295050E+03 -0.81950933168E+02  0.51318826904E+02  0.14972317153E+03  0.00000000000E+00 0. -1.
         21    1    1    2  505  502  0.94805536537E+00 -0.36833690542E+02 -0.56435847419E+02  0.67398994368E+02  0.00000000000E+00 0. -1.
         21    1    1    2  506  503  0.49792111052E+02  0.72429199064E+02 -0.67114983351E+03  0.67688059672E+03  0.00000000000E+00 0.  1.
<scales pt_clust_3="54.98144" pt_clust_4="163.14317" pt_clust_5="36.84589" pt_clust_6="54.98144"></scales>
<clustering>
<clus scale="   36.846">  1  5  2 -1</clus>
<clus scale="   54.981">  3  6 -1 -1</clus>
<clus scale="  163.143">  1  4  2 -1</clus>
<clus scale="   36.846">  1  3  2 -1</clus>
</clustering>
</event>
<event>
 6    0  0.2666600E+002  0.1819974E+03  0.7546771E-02  0.1165884E+00
         21   -1    0    0  505  501  0.00000000000E+00  0.00000000000E+00  0.10841971091E+03  0.10841971091E+03  0.00000000000E+00 0. -1.
         21   -1    0    0  501  502 -0.00000000000E+00 -0.00000000000E+00 -0.61880292392E+03  0.61880292392E+03  0.00000000000E+00 0. -1.
         21    1    1    2  503  504 -0.15119877568E+03 -0.31377536467E+02 -0.16140092862E+02  0.15526146385E+03  0.00000000000E+00 0. -1.
         21    1    1    2  504  506  0.10879627308E+03  0.20321837175E+02 -0.33135169458E+03  0.34934732231E+03  0.00000000000E+00 0. -1.
         21    1    1    2  505  503 -0.27009141490E+02  0.37805780548E+02 -0.33507340717E+01  0.46583239321E+02  0.00000000000E+00 0. -1.
         21    1    1    2  506  502  0.69411644083E+02 -0.26750081256E+02 -0.15954069151E+03  0.17603060935E+03  0.00000000000E+00 0. -1.
<scales pt_clust_3="172.84616" pt_clust_4="45.96454" pt_clust_5="46.46257" pt_clust_6="45.96454"></scales>
<clustering>
<clus scale="   46.463">  1  5  2 -1</clus>
<clus scale="   45.965">  4  6 -1 -1</clus>
<clus scale="  172.846">  1  3  2 -1</clus>
<clus scale="   46.463">  1  3  2 -1</clus>
</clustering>
</event>
<event>
 6    0  0.2666600E+002  0.1207371E+03  0.7546771E-02  0.1241886E+00
         21   -1    0    0  506  501  0.00000000000E+00  0.00000000000E+00  0.31747504830E+03  0.31747504830E+03  0.00000000000E+00 0. -1.
         21   -1    0    0  504  502 -0.00000000000E+00 -0.00000000000E+00 -0.19676387734E+03  0.19676387734E+03  0.00000000000E+00 0.  1.
         21    1    1    2  503  501 -0.70990988592E+02 -0.39366415092E+02  0.17639190169E+03  0.19417398920E+03  0.00000000000E+00 0. -1.
         21    1    1    2  504  505 -0.56512018959E+01 -0.34163755198E+02 -0.43648669439E+02  0.55716286631E+02  0.00000000000E+00 0.  1.
         21    1    1    2  505  503  0.78549840452E+02 -0.78328197634E+02 -0.17902132666E+02  0.11236489814E+03  0.00000000000E+00 0.  1.
         21    1    1    2  506  502 -0.19076499635E+01  0.15185836792E+03  0.58700713767E+01  0.15198375168E+03  0.00000000000E+00 0. -1.
<scales pt_clust_3="82.49193" pt_clust_4="34.62800" pt_clust_5="120.73707" pt_clust_6="14000.00000"></scales>
<clustering>
<clus scale="   34.628">  2  4  1 -1</clus>
<clus scale="   82.492">  1  3  2 -1</clus>
<clus scale="  120.737">  2  5  1 -1</clus>
<clus scale="   82.492">  1  3  2 -1</clus>
</clustering>
</event>
<event>
 6    0  0.2666600E+002  0.1092753E+03  0.7546771E-02  0.1261918E+00
         21   -1    0    0  503  501  0.00000000000E+00  0.00000000000E+00  0.88238098488E+02  0.88238098488E+02  0.00000000000E+00 0.  1.
         21   -1    0    0  504  502 -0.00000000000E+00 -0.00000000000E+00 -0.20603237334E+04  0.20603237334E+04  0.00000000000E+00 0. -1.
         21    1    1    2  503  505  0.62519973725E+02  0.46523943041E+02  0.44354900393E+02  0.89669290059E+02  0.00000000000E+00 0.  1.
         21    1    1    2  504  506 -0.85082933202E+02 -0.10332548550E+03 -0.18192735095E+04  0.18241906051E+04  0.00000000000E+00 0. -1.
         21    1    1    2  505  502  0.32762037581E+02  0.60478211674E+01 -0.17541275954E+03  0.17854849049E+03  0.00000000000E+00 0.  1.
         21    1    1    2  506  501 -0.10199078104E+02  0.50753721288E+02 -0.21754266242E+02  0.56153446185E+02  0.00000000000E+00 0. -1.
<scales pt_clust_3="109.27531" pt_clust_4="14000.00000" pt_clust_5="33.31557" pt_clust_6="51.76206"></scales>
<clustering>
<clus scale="   33.316">  2  5  1 -1</clus>
<clus scale="   51.762">  1  6  2 -1</clus>
<clus scale="  109.275">  1  3  2 -1</clus>
<clus scale="   51.762">  1  3  2 -1</clus>
</clustering>
</event>
<event>
 6    0  0.2666600E+002  0.8751350E+02  0.7546771E-02  0.1308987E+00
         21   -1    0    0  506  501  0.00000000000E+00  0.00000000000E+00  0.12145207518E+04  0.12145207518E+04  0.00000000000E+00 0.  1.
         21   -1    0    0  503  502 -0.00000000000E+00 -0.00000000000E+00 -0.41912557290E+03  0.41912557290E+03  0.00000000000E+00 0. -1.
         21    1    1    2  503  504  0.65587143017E+01 -0.39044828260E+02 -0.36697543075E+03  0.36910497440E+03  0.00000000000E+00 0. -1.
         21    1    1    2  504  501  0.99029776347E+02  0.31299378722E+02  0.65551358935E+03  0.66369014874E+03  0.00000000000E+00 0.  1.
         21    1    1    2  505  502 -0.26683860020E+02 -0.14051277458E+02 -0.38769807676E+02  0.49117866108E+02  0.00000000000E+00 0.  1.
         21    1    1    2  506  505 -0.78904630629E+02  0.21796726996E+02  0.54562682801E+03  0.55173333549E+03  0.00000000000E+00 0.  1.
<scales pt_clust_3="56.35336" pt_clust_4="87.51350" pt_clust_5="30.15737" pt_clust_6="14000.00000"></scales>
<clustering>
<clus scale="   30.157">  2  5  1 -1</clus>
<clus scale="   56.353">  2  3  1 -1</clus>
<clus scale="   87.513">  2  4  1 -1</clus>
<clus scale="   87.513">  1  3  2 -1</clus>
</clustering>
</event>
<event>
 6    0  0.2666600E+002  0.1981252E+03  0.7546771E-02  0.1151330E+00
         21   -1    0    0  503  501  0.00000000000E+00  0.00000000000E+00  0.41284660168E+03  0.41284660168E+03  0.00000000000E+00 0.  1.
         21   -1    0    0  501  502 -0.00000000000E+00 -0.00000000000E+00 -0.15274326568E+03  0.15274326568E+03  0.00000000000E+00 0.  1.
         21    1    1    2  503  505  0.12547833293E+03 -0.31732013066E+02  0.21905193150E+03  0.25443168313E+03  0.00000000000E+00 0.  1.
         21    1    1    2  504  506 -0.17376127601E+03  0.80301205299E+02  0.14774478151E+02  0.19198841064E+03  0.00000000000E+00 0.  1.
         21    1    1    2  505  504  0.59882807177E+02 -0.16412147662E+02  0.48160975858E+02  0.78579824267E+02  0.00000000000E+00 0.  1.
         21    1    1    2  506  502 -0.11599864092E+02 -0.32157044570E+02 -0.21884049513E+02  0.40589949317E+02  0.00000000000E+00 0.  1.
<scales pt_clust_3="36.76354" pt_clust_4="190.88294" pt_clust_5="36.76354" pt_clust_6="34.18527"></scales>
<clustering>
<clus scale="   34.185">  2  6  1 -1</clus>
<clus scale="   36.764">  3  5 -1 -1</clus>
<clus scale="  190.883">  2  4  1 -1</clus>
<clus scale="  198.125">  1  3  2 -1</clus>
</clustering>
</event>
<event>
 6    0  0.2666600E+002  0.1319969E+03  0.7546771E-02  0.1224522E+00
         21   -1    0    0  505  501  0.00000000000E+00  0.00000000000E+00  0.79496887653E+02  0.79496887653E+02  0.00000000000E+00 0.  1.
         21   -1    0    0  506  502 -0.00000000000E+00 -0.00000000000E+00 -0.10755158557E+04  0.10755158557E+04  0.00000000000E+00 0.  1.
         21    1    1    2  503  504  0.44788619757E+01 -0.54647746786E+02 -0.10362216255E+02  0.55801540831E+02  0.00000000000E+00 0.  1.
         21    1    1    2  504  501  0.26600697816E+02 -0.69392770638E+02  0.21600264080E+02  0.77392022518E+02  0.00000000000E+00 0.  1.
         21    1    1    2  505  502 -0.54858954647E+02  0.10508992638E+03 -0.94632651467E+03  0.95372284753E+03  0.00000000000E+00 0.  1.
         21    1    1    2  506  503  0.23779394855E+02  0.18950591039E+02 -0.60930501252E+02  0.68096332524E+02  0.00000000000E+00 0.  1.
<scales pt_clust_3="30.41506" pt_clust_4="30.41506" pt_clust_5="127.12572" pt_clust_6="30.40698"></scales>
<clustering>
<clus scale="   30.407">  2  6  1 -1</clus>
<clus scale="   30.415">  3  4 -1 -1</clus>
<clus scale="  127.126">  2  5  1 -1</clus>
<clus scale="  131.997">  1  3  2 -1</clus>
</clustering>
</event>
<event>
 6    0  0.2666600E+002  0.1376528E+03  0.7546771E-02  0.1216523E+00
         21   -1    0    0  505  501  0.00000000000E+00  0.00000000000E+00  0.10632953591E+03  0.10632953591E+03  0.00000000000E+00 0. -1.
         21   -1    0    0  504  502 -0.00000000000E+00 -0.00000000000E+00 -0.74101882324E+03  0.74101882324E+03  0.00000000000E+00 0.  1.
         21    1    1    2  503  501  0.10493756084E+03  0.36939915961E+02 -0.60889374846E+03  0.61897338067E+03  0.00000000000E+00 0.  1.
         21    1    1    2  504  503  0.71190584879E+01  0.32767738029E+02 -0.73782661517E+02  0.81044967702E+02  0.00000000000E+00 0. -1.
         21    1    1    2  505  506 -0.52187173962E+02 -0.71927260493E+01  0.20193945815E+02  0.56418364756E+02  0.00000000000E+00 0. -1.
         21    1    1    2  506  502 -0.59869445366E+02 -0.62514927941E+02  0.27793176827E+02  0.90911646020E+02  0.00000000000E+00 0. -1.
<scales pt_clust_3="130.23355" pt_clust_4="33.53216" pt_clust_5="34.95274" pt_clust_6="34.95274"></scales>
<clustering>
<clus scale="   33.532">  2  4  1 -1</clus>
<clus scale="   34.953">  5  6 -1 -1</clus>
<clus scale="  130.234">  2  3  1 -1</clus>
<clus scale="  137.653">  1  3  2 -1</clus>
</clustering>
</event>
<event>
 6    0  0.2666600E+002  0.6216064E+02  0.7546771E-02  0.1388982E+00
         21   -1    0    0  503  501  0.00000000000E+00  0.00000000000E+00  0.14026692189E+03  0.14026692189E+03  0.00000000000E+00 0.  1.
         21   -1    0    0  505  502 -0.00000000000E+00 -0.00000000000E+00 -0.34945807011E+03  0.34945807011E+03  0.00000000000E+00 0.  1.
         21    1    1    2  503  506  0.21797766017E+02 -0.10998285956E+03  0.62043480270E+02  0.12814353454E+03  0.00000000000E+00 0.  1.
         21    1    1    2  504  501  0.42349456456E+00  0.51562253468E+02  0.20706872793E+02  0.55566355929E+02  0.00000000000E+00 0.  1.
         21    1    1    2  505  504 -0.44587181366E+02  0.24729627414E+02 -0.17519057902E+03  0.18245906443E+03  0.00000000000E+00 0.  1.
         21    1    1    2  506  502  0.22365920784E+02  0.33690978675E+02 -0.11675092226E+03  0.12355603711E+03  0.00000000000E+00 0.  1.
<scales pt_clust_3="62.16064" pt_clust_4="54.16479" pt_clust_5="14000.00000" pt_clust_6="40.43905"></scales>
<clustering>
<clus scale="   40.439">  2  6  1 -1</clus>
<clus scale="   54.165">  1  4  2 -1</clus>
<clus scale="   62.161">  1  3  2 -1</clus>
<clus scale="   54.165">  1  3  2 -1</clus>
</clustering>
</event>
<event>
 6    0  0.2666600E+002  0.2057545E+03  0.7546771E-02  0.1144973E+00
         21   -1    0    0  504  501  0.00000000000E+00  0.00000000000E+00  0.78191762772E+03  0.78191762772E+03  0.00000000000E+00 0. -1.
         21   -1    0    0  506  502 -0.00000000000E+00 -0.00000000000E+00 -0.11271780957E+03  0.11271780957E+03  0.00000000000E+00 0. -1.
         21    1    1    2  503  505  0.50192795855E+02 -0.14556956601E+03  0.38372144148E+03  0.41346337196E+03  0.00000000000E+00 0. -1.
         21    1    1    2  504  503  0.35568888112E+02 -0.43545309394E+02  0.22692118696E+03  0.23378315778E+03  0.00000000000E+00 0.  1.
         21    1    1    2  505  502 -0.11122913362E+03  0.12550083946E+03  0.20331488161E+02  0.16892528017E+03  0.00000000000E+00 0. -1.
         21    1    1    2  506  501  0.25467449650E+02  0.63614035946E+02  0.38225701556E+02  0.78463627373E+02  0.00000000000E+00 0. -1.
<scales pt_clust_3="32.67649" pt_clust_4="32.67649" pt_clust_5="198.52142" pt_clust_6="68.52253"></scales>
<clustering>
<clus scale="   32.676">  3  4 -1 -1</clus>
<clus scale="   68.523">  2  6  1 -1</clus>
<clus scale="  198.521">  2  5  1 -1</clus>
<clus scale="  205.754">  1  3  2 -1</clus>
</clustering>
</event>
<event>
 6    0  0.2666600E+002  0.1208454E+03  0.7546771E-02  0.1241709E+00
         21   -1    0    0  506  501  0.00000000000E+00  0.00000000000E+00  0.22544531060E+04  0.22544531060E+04  0.00000000000E+00 0. -1.
         21   -1    0    0  505  502 -0.00000000000E+00 -0.00000000000E+00 -0.52528387301E+02  0.52528387301E+02  0.00000000000E+00 0. -1.
         21    1    1    2  503  501  0.17150844993E+02  0.36650245708E+02  0.29063609907E+03  0.29343948964E+03  0.00000000000E+00 0.  1.
         21    1    1    2  504  502  0.18968663211E+02 -0.14668380579E+03  0.11073943343E+03  0.18476788460E+03  0.00000000000E+00 0. -1.
         21    1    1    2  505  503 -0.22943499570E+02  0.24902854065E+02  0.88406663400E+01  0.34995909682E+02  0.00000000000E+00 0.  1.
         21    1    1    2  506  504 -0.13176008634E+02  0.85130706014E+02  0.17917085199E+04  0.17937782094E+04  0.00000000000E+00 0. -1.
<scales pt_clust_3="40.93573" pt_clust_4="14000.00000" pt_clust_5="33.86084" pt_clust_6="120.84538"></scales>
<clustering>
<clus scale="   33.861">  2  5  1 -1</clus>
<clus scale="   40.936">  1  3  2 -1</clus>
<clus scale="  120.845">  1  6  2 -1</clus>
<clus scale="   40.936">  1  3  2 -1</clus>
</clustering>
</event>
<event>
 6    0  0.4624109E+002  0.1624911E+03  0.7546771E-02  0.1185913E+00
         21   -1    0    0  506  501  0.00000000000E+00  0.00000000000E+00  0.53698578568E+03  0.53698578568E+03  0.00000000000E+00 0. -1.
         21   -1    0    0  504  502 -0.00000000000E+00 -0.00000000000E+00 -0.30707686510E+03  0.30707686510E+03  0.00000000000E+00 0. -1.
         21    1    1    2  503  502 -0.12790741085E+02 -0.35901638253E+02 -0.58417984282E+00  0.38116557463E+02  0.00000000000E+00 0. -1.
         21    1    1    2  504  501 -0.77402927398E+02 -0.10316831688E+03 -0.25357923936E+03  0.28449489523E+03  0.00000000000E+00 0. -1.
         21    1    1    2  505  503  0.60540532233E+02  0.14580666455E+03  0.44340065860E+03  0.47066854953E+03  0.00000000000E+00 0. -1.
         21    1    1    2  506  505  0.29653136250E+02 -0.67367094186E+01  0.40671681188E+02  0.50782648551E+02  0.00000000000E+00 0.  1.
<scales pt_clust_3="37.99185" pt_clust_4="14000.00000" pt_clust_5="162.49108" pt_clust_6="30.40874"></scales>
<clustering>
<clus scale="   30.409">  1  6  2 -1</clus>
<clus scale="   37.992">  2  3  1 -1</clus>
<clus scale="  162.491">  1  5  2 -1</clus>
<clus scale="   30.409">  1  3  2 -1</clus>
</clustering>
</event>
<event>
 6    0  0.2666600E+002  0.1970091E+03  0.7546771E-02  0.1152287E+00
         21   -1    0    0  503  501  0.00000000000E+00  0.00000000000E+00  0.63610976614E+03  0.63610976614E+03  0.00000000000E+00 0.  1.
         21   -1    0    0  504  502 -0.00000000000E+00 -0.00000000000E+00 -0.29034388839E+03  0.29034388839E+03  0.00000000000E+00 0. -1.
         21    1    1    2  503  506 -0.70645361116E+02  0.75682101268E+02 -0.80249309580E+02  0.13099045457E+03  0.00000000000E+00 0. -1.
         21    1    1    2  504  505  0.13225400713E+02 -0.36738864768E+02  0.64964973396E+02  0.75796458867E+02  0.00000000000E+00 0. -1.
         21    1    1    2  505  501  0.10931392370E+03 -0.10262376952E+03  0.51976169777E+03  0.54095600048E+03  0.00000000000E+00 0.  1.
         21    1    1    2  506  502 -0.51893963294E+02  0.63680533019E+02 -0.15871148384E+03  0.17871074062E+03  0.00000000000E+00 0. -1.
<scales pt_clust_3="58.91678" pt_clust_4="32.43807" pt_clust_5="196.15891" pt_clust_6="58.91678"></scales>
<clustering>
<clus scale="   32.438">  4  5 -1 -1</clus>
<clus scale="   58.917">  3  6 -1 -1</clus>
<clus scale="  196.159">  1  4  2 -1</clus>
<clus scale="  196.159">  1  3  2 -1</clus>
</clustering>
</event>
<event>
 6    0  0.2666600E+002  0.1890489E+03  0.7546771E-02  0.1159322E+00
         21   -1    0    0  504  501  0.00000000000E+00  0.00000000000E+00  0.83775699715E+02  0.83775699715E+02  0.00000000000E+00 0. -1.
         21   -1    0    0  505  502 -0.00000000000E+00 -0.00000000000E+00 -0.17757704821E+04  0.17757704821E+04  0.00000000000E+00 0.  1.
         21    1    1    2  503  501  0.56632649846E+02  0.10211115187E+03 -0.30022971557E+02  0.12056252811E+03  0.00000000000E+00 0. -1.
         21    1    1    2  504  506 -0.23194819782E+02 -0.34527462444E+02 -0.57535863549E+03  0.57686021250E+03  0.00000000000E+00 0.  1.
         21    1    1    2  505  503 -0.11987832468E+02  0.70543251942E+02 -0.52322908352E+01  0.71745629757E+02  0.00000000000E+00 0. -1.
         21    1    1    2  506  502 -0.21449997596E+02 -0.13812694137E+03 -0.10813808845E+04  0.10903778114E+04  0.00000000000E+00 0.  1.
<scales pt_clust_3="49.11731" pt_clust_4="30.34314" pt_clust_5="49.11731" pt_clust_6="186.80683"></scales>
<clustering>
<clus scale="   30.343">  4  6 -1 -1</clus>
<clus scale="   49.117">  3  5 -1 -1</clus>
<clus scale="  186.807">  2  4  1 -1</clus>
<clus scale="  189.049">  1  3  2 -1</clus>
</clustering>
</event>
<event>
 6    0  0.2666600E+002  0.1326660E+03  0.7546771E-02  0.1223553E+00
         21   -1    0    0  506  501  0.00000000000E+00  0.00000000000E+00  0.41298229233E+03  0.41298229233E+03  0.00000000000E+00 0.  1.
         21   -1    0    0  504  502 -0.00000000000E+00 -0.00000000000E+00 -0.70111311261E+03  0.70111311261E+03  0.00000000000E+00 0.  1.
         21    1    1    2  503  501  0.21085721809E+02 -0.25902834613E+02  0.65516344350E+02  0.73538805281E+02  0.00000000000E+00 0.  1.
         21    1    1    2  504  503 -0.11026013904E+03 -0.98736600928E+02 -0.53188566876E+03  0.55209471946E+03  0.00000000000E+00 0.  1.
         21    1    1    2  505  502  0.63068079729E+02  0.85572935718E+02 -0.13493780379E+03  0.17178044388E+03  0.00000000000E+00 0.  1.
         21    1    1    2  506  505  0.26106337499E+02  0.39066499823E+02  0.31317630792E+03  0.31668143632E+03  0.00000000000E+00 0.  1.
<scales pt_clust_3="33.40007" pt_clust_4="14000.00000" pt_clust_5="132.66601" pt_clust_6="47.95221"></scales>
<clustering>
<clus scale="   33.400">  1  3  2 -1</clus>
<clus scale="   47.952">  1  6  2 -1</clus>
<clus scale="  132.666">  1  5  2 -1</clus>
<clus scale="   33.400">  1  3  2 -1</clus>
</clustering>
</event>
<event>
 6    0  0.2666600E+002  0.9090921E+02  0.7546771E-02  0.1300665E+00
         21   -1    0    0  505  501  0.00000000000E+00  0.00000000000E+00  0.20672113227E+03  0.20672113227E+03  0.00000000000E+00 0. -1.
         21   -1    0    0  504  502 -0.00000000000E+00 -0.00000000000E+00 -0.25409713538E+03  0.25409713538E+03  0.00000000000E+00 0.  1.
         21    1    1    2  503  501  0.63621021754E+02  0.25792142668E+02  0.10731508229E+03  0.12739464635E+03  0.00000000000E+00 0. -1.
         21    1    1    2  504  506 -0.46460731572E+02 -0.97991791813E+01 -0.92282453824E+02  0.10378186149E+03  0.00000000000E+00 0.  1.
         21    1    1    2  505  502  0.36049534934E+01 -0.88411457857E+02 -0.10951145405E+03  0.14079183264E+03  0.00000000000E+00 0.  1.
         21    1    1    2  506  503 -0.20765243676E+02  0.72418494370E+02  0.47102822481E+02  0.88849927166E+02  0.00000000000E+00 0. -1.
<scales pt_clust_3="65.64582" pt_clust_4="47.48288" pt_clust_5="14000.00000" pt_clust_6="90.90921"></scales>
<clustering>
<clus scale="   47.483">  2  4  1 -1</clus>
<clus scale="   65.646">  1  3  2 -1</clus>
<clus scale="   90.909">  1  6  2 -1</clus>
<clus scale="   65.646">  1  3  2 -1</clus>
</clustering>
</event>
<event>
 6    0  0.2666600E+002  0.1377121E+03  0.7546771E-02  0.1216441E+00
         21   -1    0    0  504  501  0.00000000000E+00  0.00000000000E+00  0.39728978313E+03  0.39728978313E+03  0.00000000000E+00 0.  1.
         21   -1    0    0  506  502 -0.00000000000E+00 -0.00000000000E+00 -0.17670115210E+03  0.17670115210E+03  0.00000000000E+00 0.  1.
         21    1    1    2  503  505 -0.33979681452E+02 -0.53276608632E+02 -0.63400704733E+02  0.89513491383E+02  0.00000000000E+00 0.  1.
         21    1    1    2  504  502  0.54064301555E+02  0.82844426405E+01  0.66114634105E+02  0.85806325730E+02  0.00000000000E+00 0. -1.
         21    1    1    2  505  501  0.51376766578E+02  0.77739713227E+02  0.28214471226E+03  0.29713410073E+03  0.00000000000E+00 0.  1.
         21    1    1    2  506  503 -0.71461386682E+02 -0.32747547236E+02 -0.64270010605E+02  0.10153701739E+03  0.00000000000E+00 0.  1.
<scales pt_clust_3="36.77667" pt_clust_4="54.69534" pt_clust_5="131.46141" pt_clust_6="36.77667"></scales>
<clustering>
<clus scale="   36.777">  3  6 -1 -1</clus>
<clus scale="   54.695">  1  4  2 -1</clus>
<clus scale="  131.461">  1  5  2 -1</clus>
<clus scale="   54.695">  1  3  2 -1</clus>
</clustering>
</event>
<event>
 6    0  0.2666600E+002  0.1078800E+03  0.7546771E-02  0.1264547E+00
         21   -1    0    0  506  501  0.00000000000E+00  0.00000000000E+00  0.10136384426E+03  0.10136384426E+03  0.00000000000E+00 0. -1.
         21   -1    0    0  505  502 -0.00000000000E+00 -0.00000000000E+00 -0.38705764152E+03  0.38705764152E+03  0.00000000000E+00 0.  1.
         21    1    1    2  503  504  0.88516044554E+02 -0.14128062457E+02 -0.22428805299E+03  0.24153638030E+03  0.00000000000E+00 0.  1.
         21    1    1    2  504  501 -0.11769839445E+03  0.15109072662E+02  0.75862132811E+01  0.11890646225E+03  0.00000000000E+00 0. -1.
         21    1    1    2  505  503  0.13288499193E+02 -0.35379545474E+02 -0.80035062977E+02  0.88509365349E+02  0.00000000000E+00 0.  1.
         21    1    1    2  506  502  0.15893850707E+02  0.34398535268E+02  0.11043105429E+02  0.39469277881E+02  0.00000000000E+00 0. -1.
<scales pt_clust_3="107.88003" pt_clust_4="14000.00000" pt_clust_5="37.79281" pt_clust_6="36.66871"></scales>
<clustering>
<clus scale="   37.793">  2  5  1 -1</clus>
<clus scale="   36.669">  1  6  2 -1</clus>
<clus scale="  107.880">  2  3  1 -1</clus>
<clus scale="   36.669">  1  3  2 -1</clus>
</clustering>
</event>
<event>
 6    0  0.2666600E+002  0.2685127E+03  0.7546771E-02  0.1102134E+00
         21   -1    0    0  503  501  0.00000000000E+00  0.00000000000E+00  0.62304428399E+02  0.62304428399E+02  0.00000000000E+00 0.  1.
         21   -1    0    0  504  502 -0.00000000000E+00 -0.00000000000E+00 -0.33125594217E+04  0.33125594217E+04  0.00000000000E+00 0.  1.
         21    1    1    2  503  506 -0.36999874845E+02  0.25120000345E+03 -0.16027932701E+04  0.16227805456E+04  0.00000000000E+00 0.  1.
         21    1    1    2  504  505  0.93363233220E+01 -0.44967070079E+02 -0.22321473436E+03  0.22789037268E+03  0.00000000000E+00 0.  1.
         21    1    1    2  505  501 -0.73099065483E+02 -0.26682704339E+03 -0.36278156202E+03  0.45623525313E+03  0.00000000000E+00 0.  1.
         21    1    1    2  506  502  0.10076261701E+03  0.60594110017E+02 -0.10614654268E+04  0.10679576787E+04  0.00000000000E+00 0. -1.
<scales pt_clust_3="268.51268" pt_clust_4="45.92607" pt_clust_5="14000.00000" pt_clust_6="113.33604"></scales>
<clustering>
<clus scale="   45.926">  2  4  1 -1</clus>
<clus scale="  113.336">  2  6  1 -1</clus>
<clus scale="  268.513">  2  3  1 -1</clus>
<clus scale="  268.513">  1  3  2 -1</clus>
</clustering>
</event>
<event>
 6    0  0.2666600E+002  0.9496561E+02  0.7546771E-02  0.1291254E+00
         21   -1    0    0  503  501  0.00000000000E+00  0.00000000000E+00  0.39943778679E+03  0.39943778679E+03  0.00000000000E+00 0. -1.
         21   -1    0    0  506  502 -0.00000000000E+00 -0.00000000000E+00 -0.16413740945E+03  0.16413740945E+03  0.00000000000E+00 0. -1.
         21    1    1    2  503  504  0.35900072188E+02  0.36196283722E+02  0.26070012728E+03  0.26563799145E+03  0.00000000000E+00 0. -1.
         21    1    1    2  504  502  0.29638476167E+02  0.17926921202E+02  0.75038997590E+02  0.82647836829E+02  0.00000000000E+00 0. -1.
         21    1    1    2  505  501 -0.11790963959E+03 -0.46803359758E+02 -0.35875260696E+02  0.13183425929E+03  0.00000000000E+00 0. -1.
         21    1    1    2  506  505  0.52371091239E+02 -0.73198451660E+01 -0.64563486836E+02  0.83455108671E+02  0.00000000000E+00 0. -1.
<scales pt_clust_3="30.37170" pt_clust_4="30.37170" pt_clust_5="87.52618" pt_clust_6="52.88016"></scales>
<clustering>
<clus scale="   30.372">  3  4 -1 -1</clus>
<clus scale="   52.880">  2  6  1 -1</clus>
<clus scale="   87.526">  2  5  1 -1</clus>
<clus scale="   94.966">  1  3  2 -1</clus>
</clustering>
</event>
<event>
 6    0  0.2666600E+002  0.1486339E+03  0.7546771E-02  0.1202162E+00
         21   -1    0    0  504  501  0.00000000000E+00  0.00000000000E+00  0.17233401554E+04  0.17233401554E+04  0.00000000000E+00 0.  1.
         21   -1    0    0  503  502 -0.00000000000E+00 -0.00000000000E+00 -0.17598361553E+03  0.17598361553E+03  0.00000000000E+00 0.  1.
         21    1    1    2  503  505  0.27934541079E+02 -0.39667102354E+02 -0.46609704630E+02  0.67277649782E+02  0.00000000000E+00 0.  1.
         21    1    1    2  504  502 -0.35667613804E+02 -0.48836874812E+02  0.55856390713E+03  0.56182813864E+03  0.00000000000E+00 0. -1.
         21    1    1    2  505  506 -0.17294932999E+02 -0.97335392638E+02 -0.87345498873E+02  0.13191864743E+03  0.00000000000E+00 0.  1.
         21    1    1    2  506  501  0.25028005724E+02  0.18583936980E+03  0.11227478363E+04  0.11382993351E+04  0.00000000000E+00 0.  1.
<scales pt_clust_3="37.41358" pt_clust_4="60.47495" pt_clust_5="37.41358" pt_clust_6="138.70747"></scales>
<clustering>
<clus scale="   37.414">  3  5 -1 -1</clus>
<clus scale="   60.475">  1  4  2 -1</clus>
<clus scale="  138.707">  1  6  2 -1</clus>
<clus scale="   60.475">  1  3  2 -1</clus>
</clustering>
</event>
<event>
 6    0  0.2666600E+002  0.1245241E+03  0.7546771E-02  0.1235815E+00
         21   -1    0    0  506  501  0.00000000000E+00  0.00000000000E+00  0.25471913531E+03  0.25471913531E+03  0.00000000000E+00 0. -1.
         21   -1    0    0  503  502 -0.00000000000E+00 -0.00000000000E+00 -0.11099954002E+03  0.11099954002E+03  0.00000000000E+00 0.  1.
         21    1    1    2  503  504  0.13293965451E+02 -0.56415554526E+02  0.93290059357E+01  0.58706683279E+02  0.00000000000E+00 0.  1.
         21    1    1    2  504  501  0.37033329866E+02 -0.62879921842E+02 -0.30295272208E+02  0.79013641923E+02  0.00000000000E+00 0.  1.
         21    1    1    2  505  502 -0.54337684642E+02  0.83958465846E+02  0.58153990017E+02  0.11568705422E+03  0.00000000000E+00 0. -1.
         21    1    1    2  506  505  0.40103893257E+01  0.35337010522E+02  0.10653187154E+03  0.11231129591E+03  0.00000000000E+00 0. -1.
<scales pt_clust_3="35.99695" pt_clust_4="35.99695" pt_clust_5="117.23135" pt_clust_6="35.56385"></scales>
<clustering>
<clus scale="   35.564">  1  6  2 -1</clus>
<clus scale="   35.997">  3  4 -1 -1</clus>
<clus scale="  117.231">  1  5  2 -1</clus>
<clus scale="   35.564">  1  3  2 -1</clus>
</clustering>
</event>
<event>
 6    0  0.2666600E+002  0.8104203E+02  0.7546771E-02  0.1326120E+00
         21   -1    0    0  505  501  0.00000000000E+00  0.00000000000E+00  0.29401153428E+03  0.29401153428E+03  0.00000000000E+00 0.  1.
         21   -1    0    0  504  502 -0.00000000000E+00 -0.00000000000E+00 -0.40959810179E+03  0.40959810179E+03  0.00000000000E+00 0. -1.
         21    1    1    2  503  502 -0.56975804685E+02  0.16595313717E+02 -0.25829375612E+03  0.26502322768E+03  0.00000000000E+00 0. -1.
         21    1    1    2  504  501  0.41238273933E+02 -0.93324262786E+02  0.22791823590E+03  0.24971330664E+03  0.00000000000E+00 0.  1.
         21    1    1    2  505  506 -0.31308571009E+02  0.11503895642E+02  0.32330480477E+02  0.46452407919E+02  0.00000000000E+00 0.  1.
         21    1    1    2  506  503  0.47046101761E+02  0.65225053426E+02 -0.11754152776E+03  0.14242069384E+03  0.00000000000E+00 0.  1.
<scales pt_clust_3="59.78321" pt_clust_4="14000.00000" pt_clust_5="33.35515" pt_clust_6="81.04203"></scales>
<clustering>
<clus scale="   33.355">  1  5  2 -1</clus>
<clus scale="   59.783">  2  3  1 -1</clus>
<clus scale="   81.042">  2  6  1 -1</clus>
<clus scale="   33.355">  1  3  2 -1</clus>
</clustering>
</event>
<event>
 6    0  0.2666600E+002  0.1455080E+03  0.7546771E-02  0.1206104E+00
         21   -1    0    0  504  501  0.00000000000E+00  0.00000000000E+00  0.83925918286E+03  0.83925918286E+03  0.00000000000E+00 0.  1.
         21   -1    0    0  505  502 -0.00000000000E+00 -0.00000000000E+00 -0.77963340402E+02  0.77963340402E+02  0.00000000000E+00 0. -1.
         21    1    1    2  503  506  0.23337360287E+02  0.38217818487E+02  0.13744331613E+03  0.14455413929E+03  0.00000000000E+00 0. -1.
         21    1    1    2  504  502  0.16158051141E+01 -0.13328723415E+03  0.10552936369E+02  0.13371410576E+03  0.00000000000E+00 0. -1.
         21    1    1    2  505  503 -0.31627227010E+02  0.18637767043E+01  0.18148342779E+02  0.36511881595E+02  0.00000000000E+00 0. -1.
         21    1    1    2  506  501  0.66740616095E+01  0.93205638957E+02  0.59515124717E+03  0.60244239662E+03  0.00000000000E+00 0.  1.
<scales pt_clust_3="38.44448" pt_clust_4="134.29950" pt_clust_5="31.68210" pt_clust_6="38.44448"></scales>
<clustering>
<clus scale="   31.682">  2  5  1 -1</clus>
<clus scale="   38.444">  3  6 -1 -1</clus>
<clus scale="  134.299">  2  4  1 -1</clus>
<clus scale="  145.508">  1  3  2 -1</clus>
</clustering>
</event>
<event>
 6    0  0.2666600E+002  0.1150534E+03  0.7546771E-02  0.1251488E+00
         21   -1    0    0  504  501  0.00000000000E+00  0.00000000000E+00  0.21462690122E+03  0.21462690122E+03  0.00000000000E+00 0. -1.
         21   -1    0    0  505  502 -0.00000000000E+00 -0.00000000000E+00 -0.12338966136E+03  0.12338966136E+03  0.00000000000E+00 0. -1.
         21    1    1    2  503  506 -0.68323460316E+02 -0.65440315379E+01 -0.21631335232E+02  0.71964117741E+02  0.00000000000E+00 0. -1.
         21    1    1    2  504  502  0.97487827875E+02 -0.14876503720E+02  0.28953242114E+02  0.10277877785E+03  0.00000000000E+00 0. -1.
         21    1    1    2  505  503 -0.47368665460E+02 -0.34543141384E+02 -0.25496287407E+01  0.58681510639E+02  0.00000000000E+00 0. -1.
         21    1    1    2  506  501  0.18204297901E+02  0.55963676642E+02  0.86464961721E+02  0.10459215635E+03  0.00000000000E+00 0. -1.
<scales pt_clust_3="34.71300" pt_clust_4="108.74993" pt_clust_5="34.71300" pt_clust_6="58.85006"></scales>
<clustering>
<clus scale="   34.713">  3  5 -1 -1</clus>
<clus scale="   58.850">  1  6  2 -1</clus>
<clus scale="  108.750">  1  4  2 -1</clus>
<clus scale="   58.850">  1  3  2 -1</clus>
</clustering>
</event>
<event>
 6    0  0.2666600E+002  0.2457699E+03  0.7546771E-02  0.1116008E+00
         21   -1    0    0  504  501  0.00000000000E+00  0.00000000000E+00  0.66849140292E+02  0.66849140292E+02  0.00000000000E+00 0. -1.
         21   -1    0    0  506  502 -0.00000000000E+00 -0.00000000000E+00 -0.84115467065E+03  0.84115467065E+03  0.00000000000E+00 0. -1.
         21    1    1    2  503  501 -0.91984589924E+02 -0.56396081746E+02 -0.15735900908E+03  0.19079711884E+03  0.00000000000E+00 0. -1.
         21    1    1    2  504  505  0.15180864315E+03  0.10035793488E+03 -0.27345351314E+03  0.32847283461E+03  0.00000000000E+00 0. -1.
         21    1    1    2  505  502  0.56939301074E+02 -0.16694648009E+02 -0.14729317118E+03  0.15879569753E+03  0.00000000000E+00 0. -1.
         21    1    1    2  506  503 -0.11676335430E+03 -0.27267205121E+02 -0.19619983697E+03  0.22993815996E+03  0.00000000000E+00 0. -1.
<scales pt_clust_3="35.98538" pt_clust_4="56.60689" pt_clust_5="56.60689" pt_clust_6="228.06648"></scales>
<clustering>
<clus scale="   35.985">  3  6 -1 -1</clus>
<clus scale="   56.607">  4  5 -1 -1</clus>
<clus scale="  228.066">  1  3  2 -1</clus>
<clus scale="  228.066">  1  3  2 -1</clus>
</clustering>
</event>
<event>
 6    0  0.2666600E+002  0.4206491E+03  0.7546771E-02  0.1036855E+00
         21   -1    0    0  504  501  0.00000000000E+00  0.00000000000E+00  0.85087079341E+03  0.85087079341E+03  0.00000000000E+00 0.  1.
         21   -1    0    0  503  502 -0.00000000000E+00 -0.00000000000E+00 -0.60985708139E+03  0.60985708139E+03  0.00000000000E+00 0.  1.
         21    1    1    2  503  506 -0.18895011329E+03 -0.73215708337E+02 -0.29506789036E+03  0.35794936120E+03  0.00000000000E+00 0.  1.
         21    1    1    2  504  505  0.98487114659E+02  0.43358566496E+02  0.20673962855E+03  0.23306855441E+03  0.00000000000E+00 0.  1.
         21    1    1    2  505  502  0.29984098513E+03  0.46281768257E+02  0.50950985671E+03  0.59299823989E+03  0.00000000000E+00 0.  1.
         21    1    1    2  506  501 -0.20937798649E+03 -0.16424626416E+02 -0.18016788287E+03  0.27671171930E+03  0.00000000000E+00 0.  1.
<scales pt_clust_3="99.42277" pt_clust_4="30.78715" pt_clust_5="411.54954" pt_clust_6="99.42277"></scales>
<clustering>
<clus scale="   30.787">  4  5 -1 -1</clus>
<clus scale="   99.423">  3  6 -1 -1</clus>
<clus scale="  411.550">  1  4  2 -1</clus>
<clus scale="  411.550">  1  3  2 -1</clus>
</clustering>
</event>
<event>
 6    0  0.2666600E+002  0.1313229E+03  0.7546771E-02  0.1225506E+00
         21   -1    0    0  506  501  0.00000000000E+00  0.00000000000E+00  0.15434825575E+02  0.15434825575E+02  0.00000000000E+00 0.  1.
         21   -1    0    0  503  502 -0.00000000000E+00 -0.00000000000E+00 -0.12411826637E+04  0.12411826637E+04  0.00000000000E+00 0.  1.
         21    1    1    2  503  504  0.50512875663E+02 -0.62181832675E+02 -0.52484210472E+03  0.53092124257E+03  0.00000000000E+00 0.  1.
         21    1    1    2  504  501  0.47181995817E+02 -0.45038082415E+01 -0.30287907742E+03  0.30656510003E+03  0.00000000000E+00 0.  1.
         21    1    1    2  505  502 -0.60325296092E+02  0.12325874405E+02 -0.24247319876E+03  0.25016858445E+03  0.00000000000E+00 0.  1.
         21    1    1    2  506  505 -0.37369575388E+02  0.54359766512E+02 -0.15555345723E+03  0.16896256223E+03  0.00000000000E+00 0.  1.
<scales pt_clust_3="127.51870" pt_clust_4="36.64464" pt_clust_5="55.11494" pt_clust_6="55.11494"></scales>
<clustering>
<clus scale="   36.645">  3  4 -1 -1</clus>
<clus scale="   55.115">  5  6 -1 -1</clus>
<clus scale="  127.519">  2  3  1 -1</clus>
<clus scale="  131.323">  1  3  2 -1</clus>
</clustering>
</event>
<event>
 6    0  0.2666600E+002  0.4144657E+03  0.7546771E-02  0.1038883E+00
         21   -1    0    0  504  501  0.00000000000E+00  0.00000000000E+00  0.72160224484E+02  0.72160224484E+02  0.00000000000E+00 0.  1.
         21   -1    0    0  505  502 -0.00000000000E+00 -0.00000000000E+00 -0.24674697351E+04  0.24674697351E+04  0.00000000000E+00 0.  1.
         21    1    1    2  503  501 -0.10069020847E+03 -0.11754474991E+03 -0.29195753364E+03  0.33044589233E+03  0.00000000000E+00 0.  1.
         21    1    1    2  504  506  0.16632565463E+03  0.18369698753E+03 -0.82201504430E+03  0.85855549598E+03  0.00000000000E+00 0.  1.
         21    1    1    2  505  503 -0.13987424803E+03 -0.21394830114E+03 -0.66344665688E+03  0.71098533554E+03  0.00000000000E+00 0.  1.
         21    1    1    2  506  502  0.74238801870E+02  0.14779606352E+03 -0.61789027575E+03  0.63964323569E+03  0.00000000000E+00 0.  1.
<scales pt_clust_3="49.35478" pt_clust_4="413.85035" pt_clust_5="49.35478" pt_clust_6="48.42323"></scales>
<clustering>
<clus scale="   48.423">  4  6 -1 -1</clus>
<clus scale="   49.355">  3  5 -1 -1</clus>
<clus scale="  413.850">  2  4  1 -1</clus>
<clus scale="  414.466">  1  3  2 -1</clus>
</clustering>
</event>
<event>
 6    0  0.2666600E+002  0.1277301E+03  0.7546771E-02  0.1230863E+00
         21   -1    0    0  504  501  0.00000000000E+00  0.00000000000E+00  0.59137968473E+03  0.59137968473E+03  0.00000000000E+00 0. -1.
         21   -1    0    0  506  502 -0.00000000000E+00 -0.00000000000E+00 -0.19866579943E+03  0.19866579943E+03  0.00000000000E+00 0. -1.
         21    1    1    2  503  501  0.24210224609E+02 -0.13368397846E+03  0.40914878765E+03  0.43111514878E+03  0.00000000000E+00 0. -1.
         21    1    1    2  504  505  0.40894647906E+02  0.40060885034E+01  0.95258759557E+02  0.10374320337E+03  0.00000000000E+00 0. -1.
         21    1    1    2  505  502 -0.77436508472E+02  0.31542545208E+02 -0.13003119089E+03  0.15459448763E+03  0.00000000000E+00 0. -1.
         21    1    1    2  506  503  0.12331635957E+02  0.98135344752E+02  0.18337528980E+02  0.10059264438E+03  0.00000000000E+00 0. -1.
<scales pt_clust_3="127.73014" pt_clust_4="41.09040" pt_clust_5="82.70773" pt_clust_6="14000.00000"></scales>
<clustering>
<clus scale="   41.090">  1  4  2 -1</clus>
<clus scale="   82.708">  2  5  1 -1</clus>
<clus scale="  127.730">  1  3  2 -1</clus>
<clus scale="   41.090">  1  3  2 -1</clus>
</clustering>
</event>
<event>
 6    0  0.2666600E+002  0.1083693E+03  0.7546771E-02  0.1263620E+00
         21   -1    0    0  505  501  0.00000000000E+00  0.00000000000E+00  0.10845792153E+03  0.10845792153E+03  0.00000000000E+00 0.  1.
         21   -1    0    0  506  502 -0.00000000000E+00 -0.00000000000E+00 -0.23279798814E+03  0.23279798814E+03  0.00000000000E+00 0.  1.
         21    1    1    2  503  501  0.41589119438E+02  0.58401779713E+02  0.18256176000E+02  0.73984530082E+02  0.00000000000E+00 0.  1.
         21    1    1    2  504  503  0.17879802947E+02 -0.40379322008E+02 -0.35884491094E+02  0.56902317179E+02  0.00000000000E+00 0.  1.
         21    1    1    2  505  502 -0.40822660364E+02  0.62938006730E+02  0.14154321941E+00  0.75018013336E+02  0.00000000000E+00 0.  1.
         21    1    1    2  506  504 -0.18646262021E+02 -0.80960464435E+02 -0.10685329473E+03  0.13535104907E+03  0.00000000000E+00 0.  1.
<scales pt_clust_3="71.69674" pt_clust_4="31.47151" pt_clust_5="99.40099" pt_clust_6="31.47151"></scales>
<clustering>
<clus scale="   31.472">  4  6 -1 -1</clus>
<clus scale="   71.697">  1  3  2 -1</clus>
<clus scale="   99.401">  1  5  2 -1</clus>
<clus scale="   71.697">  1  3  2 -1</clus>
</clustering>
</event>
<event>
 6    0  0.2666600E+002  0.1066952E+03  0.7546771E-02  0.1266815E+00
         21   -1    0    0  506  501  0.00000000000E+00  0.00000000000E+00  0.17910883370E+03  0.17910883370E+03  0.00000000000E+00 0.  1.
         21   -1    0    0  505  502 -0.00000000000E+00 -0.00000000000E+00 -0.25443220793E+03  0.25443220793E+03  0.00000000000E+00 0.  1.
         21    1    1    2  503  502 -0.46803510314E+02 -0.56157150842E+02 -0.14042800455E+03  0.15831682990E+03  0.00000000000E+00 0.  1.
         21    1    1    2  504  503 -0.60442819211E+02 -0.48820095263E+02 -0.12767562667E+02  0.78738470598E+02  0.00000000000E+00 0.  1.
         21    1    1    2  505  501  0.67325231812E+02  0.11486272858E+03  0.79961145230E+02  0.15530588528E+03  0.00000000000E+00 0.  1.
         21    1    1    2  506  504  0.39921097712E+02 -0.98854824762E+01 -0.20889522492E+01  0.41179855850E+02  0.00000000000E+00 0.  1.
<scales pt_clust_3="72.12678" pt_clust_4="106.69524" pt_clust_5="14000.00000" pt_clust_6="41.12684"></scales>
<clustering>
<clus scale="   41.127">  1  6  2 -1</clus>
<clus scale="   72.127">  2  3  1 -1</clus>
<clus scale="  106.695">  2  4  1 -1</clus>
<clus scale="   41.127">  1  3  2 -1</clus>
</clustering>
</event>
<event>
 6    0  0.2666600E+002  0.1159864E+03  0.7546771E-02  0.1249869E+00
         21   -1    0    0  504  501  0.00000000000E+00  0.00000000000E+00  0.32378399356E+04  0.32378399356E+04  0.00000000000E+00 0. -1.
         21   -1    0    0  506  502 -0.00000000000E+00 -0.00000000000E+00 -0.33689759678E+03  0.33689759678E+03  0.00000000000E+00 0. -1.
         21    1    1    2  503  505  0.10640395774E+02 -0.66597774995E+02  0.16118989042E+04  0.16133091952E+04  0.00000000000E+00 0. -1.
         21    1    1    2  504  503  0.39825148525E+02 -0.24999569120E+02  0.15136905096E+04  0.15144206747E+04  0.00000000000E+00 0. -1.
         21    1    1    2  505  502 -0.95326184927E+02  0.17381554152E+03 -0.27629108041E+03  0.34005247407E+03  0.00000000000E+00 0. -1.
         21    1    1    2  506  501  0.44860640628E+02 -0.82218197400E+02  0.51644005387E+02  0.10695518853E+03  0.00000000000E+00 0.  1.
<scales pt_clust_3="41.31398" pt_clust_4="41.31398" pt_clust_5="104.90351" pt_clust_6="93.66061"></scales>
<clustering>
<clus scale="   41.314">  3  4 -1 -1</clus>
<clus scale="   93.661">  2  6  1 -1</clus>
<clus scale="  104.904">  2  5  1 -1</clus>
<clus scale="  115.986">  1  3  2 -1</clus>
</clustering>
</event>
<event>
 6    0  0.2666600E+002  0.1085310E+03  0.7546771E-02  0.1263315E+00
         21   -1    0    0  505  501  0.00000000000E+00  0.00000000000E+00  0.24140247047E+03  0.24140247047E+03  0.00000000000E+00 0.  1.
         21   -1    0    0  503  502 -0.00000000000E+00 -0.00000000000E+00 -0.31844916402E+03  0.31844916402E+03  0.00000000000E+00 0.  1.
         21    1    1    2  503  506 -0.17527844449E+02 -0.31717367197E+02 -0.20293540480E+02  0.41533655006E+02  0.00000000000E+00 0. -1.
         21    1    1    2  504  502 -0.51028693219E+02 -0.62692651109E+02 -0.25324026085E+03  0.26582875268E+03  0.00000000000E+00 0.  1.
         21    1    1    2  505  504  0.56445429599E+02  0.13086680995E+02  0.26609876300E+02  0.63760750143E+02  0.00000000000E+00 0.  1.
         21    1    1    2  506  501  0.12111108069E+02  0.81323337311E+02  0.16987723147E+03  0.18872847666E+03  0.00000000000E+00 0.  1.
<scales pt_clust_3="36.23833" pt_clust_4="108.53103" pt_clust_5="56.40362" pt_clust_6="14000.00000"></scales>
<clustering>
<clus scale="   36.238">  2  3  1 -1</clus>
<clus scale="   56.404">  1  5  2 -1</clus>
<clus scale="  108.531">  2  4  1 -1</clus>
<clus scale="   56.404">  1  3  2 -1</clus>
</clustering>
</event>
<event>
 6    0  0.2666600E+002  0.3356533E+03  0.7546771E-02  0.1068662E+00
         21   -1    0    0  504  501  0.00000000000E+00  0.00000000000E+00  0.11909256232E+04  0.11909256232E+04  0.00000000000E+00 0.  1.
         21   -1    0    0  503  502 -0.00000000000E+00 -0.00000000000E+00 -0.45705676941E+03  0.45705676941E+03  0.00000000000E+00 0. -1.
         21    1    1    2  503  506 -0.18595939496E+03  0.17743900986E+03 -0.21768008754E+03  0.33682357296E+03  0.00000000000E+00 0. -1.
         21    1    1    2  504  502  0.19077594652E+03 -0.38750336778E+03  0.20969448416E+03  0.48013133463E+03  0.00000000000E+00 0.  1.
         21    1    1    2  505  501  0.44677330425E+02  0.19084068097E+03  0.75186808261E+03  0.77699539446E+03  0.00000000000E+00 0.  1.
         21    1    1    2  506  505 -0.49493881981E+02  0.19223676946E+02 -0.10013625486E+02  0.54032090504E+02  0.00000000000E+00 0.  1.
<scales pt_clust_3="37.50487" pt_clust_4="325.35192" pt_clust_5="196.00059" pt_clust_6="37.50487"></scales>
<clustering>
<clus scale="   37.505">  3  6 -1 -1</clus>
<clus scale="  196.001">  1  5  2 -1</clus>
<clus scale="  325.352">  1  4  2 -1</clus>
<clus scale="  196.001">  1  3  2 -1</clus>
</clustering>
</event>
<event>
 6    0  0.2666600E+002  0.1242461E+03  0.7546771E-02  0.1236252E+00
         21   -1    0    0  506  501  0.00000000000E+00  0.00000000000E+00  0.28969829290E+03  0.28969829290E+03  0.00000000000E+00 0. -1.
         21   -1    0    0  503  502 -0.00000000000E+00 -0.00000000000E+00 -0.25075835548E+03  0.25075835548E+03  0.00000000000E+00 0. -1.
         21    1    1    2  503  504 -0.15397376888E+03  0.18104058146E+02  0.63790597276E+02  0.16764521683E+03  0.00000000000E+00 0. -1.
         21    1    1    2  504  505  0.31538598999E+02 -0.98290450831E+01  0.16218325495E+02  0.36801187969E+02  0.00000000000E+00 0. -1.
         21    1    1    2  505  501  0.53244986833E+02 -0.49069047368E+02  0.12899794755E+03  0.14792995134E+03  0.00000000000E+00 0. -1.
         21    1    1    2  506  502  0.69190183046E+02  0.40794034306E+02 -0.17006693290E+03  0.18808029224E+03  0.00000000000E+00 0. -1.
<scales pt_clust_3="114.26508" pt_clust_4="32.95615" pt_clust_5="32.95615" pt_clust_6="80.32082"></scales>
<clustering>
<clus scale="   32.956">  4  5 -1 -1</clus>
<clus scale="   80.321">  2  6  1 -1</clus>
<clus scale="  114.265">  2  3  1 -1</clus>
<clus scale="  124.246">  1  3  2 -1</clus>
</clustering>
</event>
<event>
 6    0  0.2666600E+002  0.1178786E+03  0.7546771E-02  0.1246638E+00
         21   -1    0    0  506  501  0.00000000000E+00  0.00000000000E+00  0.19404490408E+02  0.19404490408E+02  0.00000000000E+00 0. -1.
         21   -1    0    0  503  502 -0.00000000000E+00 -0.00000000000E+00 -0.27710430801E+04  0.27710430801E+04  0.00000000000E+00 0. -1.
         21    1    1    2  503  501 -0.75248357082E+02 -0.83087310601E+02 -0.19397359094E+04  0.19429722630E+04  0.00000000000E+00 0. -1.
         21    1    1    2  504  502 -0.34327657448E+02 -0.21577514375E+02 -0.26204717859E+03  0.26516542195E+03  0.00000000000E+00 0.  1.
         21    1    1    2  505  504  0.32633651431E+01  0.50177855697E+02 -0.31320950150E+03  0.31722020519E+03  0.00000000000E+00 0.  1.
         21    1    1    2  506  505  0.10631264939E+03  0.54486969279E+02 -0.23664600019E+03  0.26508968039E+03  0.00000000000E+00 0. -1.
<scales pt_clust_3="117.87861" pt_clust_4="40.54599" pt_clust_5="47.47696" pt_clust_6="14000.00000"></scales>
<clustering>
<clus scale="   40.546">  2  4  1 -1</clus>
<clus scale="   47.477">  2  5  1 -1</clus>
<clus scale="  117.879">  2  3  1 -1</clus>
<clus scale="  117.879">  1  3  2 -1</clus>
</clustering>
</event>
<event>
 6    0  0.2666600E+002  0.1563766E+03  0.7546771E-02  0.1192849E+00
         21   -1    0    0  503  501  0.00000000000E+00  0.00000000000E+00  0.51467626921E+03  0.51467626921E+03  0.00000000000E+00 0.  1.
         21   -1    0    0  505  502 -0.00000000000E+00 -0.00000000000E+00 -0.87413077441E+02  0.87413077441E+02  0.00000000000E+00 0. -1.
         21    1    1    2  503  506 -0.44165080559E+02 -0.62439109754E+02  0.23249837990E+02  0.79935922677E+02  0.00000000000E+00 0. -1.
         21    1    1    2  504  501  0.40987093395E+02  0.99747972716E+02  0.30576102936E+03  0.32422123151E+03  0.00000000000E+00 0.  1.
         21    1    1    2  505  504  0.42831350636E+02  0.21920759436E+02  0.11504643899E+03  0.12470255577E+03  0.00000000000E+00 0.  1.
         21    1    1    2  506  502 -0.39653363472E+02 -0.59229622398E+02 -0.16794114583E+02  0.73229636683E+02  0.00000000000E+00 0. -1.
<scales pt_clust_3="153.02945" pt_clust_4="34.22151" pt_clust_5="34.22151" pt_clust_6="38.48510"></scales>
<clustering>
<clus scale="   34.222">  4  5 -1 -1</clus>
<clus scale="   38.485">  3  6 -1 -1</clus>
<clus scale="  153.029">  2  3  1 -1</clus>
<clus scale="  156.377">  1  3  2 -1</clus>
</clustering>
</event>
<event>
 6    0  0.2666600E+002  0.1768042E+03  0.7546771E-02  0.1170932E+00
         21   -1    0    0  506  501  0.00000000000E+00  0.00000000000E+00  0.66502160409E+03  0.66502160409E+03  0.00000000000E+00 0. -1.
         21   -1    0    0  505  502 -0.00000000000E+00 -0.00000000000E+00 -0.52367443139E+03  0.52367443139E+03  0.00000000000E+00 0.  1.
         21    1    1    2  503  502 -0.21553982000E+03 -0.21603456367E+02 -0.43335354071E+03  0.48447849754E+03  0.00000000000E+00 0.  1.
         21    1    1    2  504  503  0.96879333962E+02  0.34942033189E+02 -0.51281668544E+01  0.10311570747E+03  0.00000000000E+00 0.  1.
         21    1    1    2  505  501  0.69767627544E+02 -0.26914763039E+02  0.14334004569E+03  0.16167342089E+03  0.00000000000E+00 0.  1.
         21    1    1    2  506  504  0.48892858490E+02  0.13576186217E+02  0.43648883457E+03  0.43942840958E+03  0.00000000000E+00 0. -1.
<scales pt_clust_3="176.80423" pt_clust_4="14000.00000" pt_clust_5="104.13837" pt_clust_6="50.74273"></scales>
<clustering>
<clus scale="   50.743">  1  6  2 -1</clus>
<clus scale="  104.138">  1  5  2 -1</clus>
<clus scale="  176.804">  2  3  1 -1</clus>
<clus scale="   50.743">  1  3  2 -1</clus>
</clustering>
</event>
<event>
 6    0  0.2666600E+002  0.1180825E+03  0.7546771E-02  0.1246294E+00
         21   -1    0    0  505  501  0.00000000000E+00  0.00000000000E+00  0.66809514043E+03  0.66809514043E+03  0.00000000000E+00 0.  1.
         21   -1    0    0  503  502 -0.00000000000E+00 -0.00000000000E+00 -0.19900152034E+04  0.19900152034E+04  0.00000000000E+00 0. -1.
         21    1    1    2  503  504 -0.58804817437E+02  0.99957361157E+02 -0.17699544015E+04  0.17737497185E+04  0.00000000000E+00 0. -1.
         21    1    1    2  504  506  0.85985815334E+02 -0.12110799506E+03 -0.17790997783E+03  0.23175993424E+03  0.00000000000E+00 0. -1.
         21    1    1    2  505  502 -0.59319424025E+02 -0.53337230137E+01  0.60123351292E+03  0.60417628199E+03  0.00000000000E+00 0.  1.
         21    1    1    2  506  501  0.32138426128E+02  0.26484356915E+02  0.24710803381E+02  0.48424409123E+02  0.00000000000E+00 0. -1.
<scales pt_clust_3="14000.00000" pt_clust_4="118.08253" pt_clust_5="34.90523" pt_clust_6="41.64492"></scales>
<clustering>
<clus scale="   41.645">  1  6  2 -1</clus>
<clus scale="   34.905">  1  5  2 -1</clus>
<clus scale="  118.083">  1  4  2 -1</clus>
<clus scale="   41.645">  1  3  2 -1</clus>
</clustering>
</event>
<event>
 6    0  0.2666600E+002  0.2347963E+03  0.7546771E-02  0.1123309E+00
         21   -1    0    0  503  501  0.00000000000E+00  0.00000000000E+00  0.61295359843E+03  0.61295359843E+03  0.00000000000E+00 0. -1.
         21   -1    0    0  504  502 -0.00000000000E+00 -0.00000000000E+00 -0.12630854628E+03  0.12630854628E+03  0.00000000000E+00 0. -1.
         21    1    1    2  503  505 -0.15095237494E+03 -0.53804371286E+02  0.38298456386E+03  0.41516106034E+03  0.00000000000E+00 0. -1.
         21    1    1    2  504  506  0.53823209992E+02  0.50151584599E+02  0.25229061141E+02  0.77772905936E+02  0.00000000000E+00 0. -1.
         21    1    1    2  505  502 -0.49567372239E+02 -0.40086205830E+02  0.67523879065E+02  0.92861738797E+02  0.00000000000E+00 0. -1.
         21    1    1    2  506  501  0.14669653718E+03  0.43738992517E+02  0.10907548086E+02  0.15346643963E+03  0.00000000000E+00 0. -1.
<scales pt_clust_3="49.28290" pt_clust_4="38.85974" pt_clust_5="49.28290" pt_clust_6="228.39829"></scales>
<clustering>
<clus scale="   38.860">  4  6 -1 -1</clus>
<clus scale="   49.283">  3  5 -1 -1</clus>
<clus scale="  228.398">  2  4  1 -1</clus>
<clus scale="  234.796">  1  3  2 -1</clus>
</clustering>
</event>
<event>
 6    0  0.2666600E+002  0.1372374E+03  0.7546771E-02  0.1217095E+00
         21   -1    0    0  503  501  0.00000000000E+00  0.00000000000E+00  0.10485164572E+04  0.10485164572E+04  0.00000000000E+00 0.  1.
         21   -1    0    0  504  502 -0.00000000000E+00 -0.00000000000E+00 -0.14520413154E+03  0.14520413154E+03  0.00000000000E+00 0. -1.
         21    1    1    2  503  505 -0.14454576462E+02 -0.83421094393E+02  0.68164591845E+03  0.68688366695E+03  0.00000000000E+00 0.  1.
         21    1    1    2  504  501 -0.59824403941E+02 -0.26881147382E+02  0.32590972484E+03  0.33244353526E+03  0.00000000000E+00 0.  1.
         21    1    1    2  505  506  0.12593372514E+02  0.56690105088E+02 -0.42333396201E+02  0.71864299065E+02  0.00000000000E+00 0. -1.
         21    1    1    2  506  502  0.61685607889E+02  0.53612136686E+02 -0.61909921380E+02  0.10252908751E+03  0.00000000000E+00 0. -1.
<scales pt_clust_3="130.27539" pt_clust_4="65.58624" pt_clust_5="36.37808" pt_clust_6="36.37808"></scales>
<clustering>
<clus scale="   36.378">  5  6 -1 -1</clus>
<clus scale="   65.586">  1  4  2 -1</clus>
<clus scale="  130.275">  1  3  2 -1</clus>
<clus scale="   65.586">  1  3  2 -1</clus>
</clustering>
</event>
<event>
 6    0  0.2666600E+002  0.1421731E+03  0.7546771E-02  0.1210434E+00
         21   -1    0    0  506  501  0.00000000000E+00  0.00000000000E+00  0.60246520755E+03  0.60246520755E+03  0.00000000000E+00 0. -1.
         21   -1    0    0  504  502 -0.00000000000E+00 -0.00000000000E+00 -0.35607549633E+03  0.35607549633E+03  0.00000000000E+00 0. -1.
         21    1    1    2  503  501 -0.41628952780E+02  0.33262133363E+02  0.18233141427E+03  0.18995811079E+03  0.00000000000E+00 0. -1.
         21    1    1    2  504  503  0.67623529766E+02  0.78138010173E+02 -0.30695143124E+03  0.32387910021E+03  0.00000000000E+00 0. -1.
         21    1    1    2  505  502  0.39763607748E+02  0.19355466668E+02 -0.17306577820E+01  0.44258036191E+02  0.00000000000E+00 0. -1.
         21    1    1    2  506  505 -0.65758184735E+02 -0.13075561020E+03  0.37274038597E+03  0.40044545670E+03  0.00000000000E+00 0. -1.
<scales pt_clust_3="53.07009" pt_clust_4="142.17309" pt_clust_5="44.22419" pt_clust_6="14000.00000"></scales>
<clustering>
<clus scale="   44.224">  2  5  1 -1</clus>
<clus scale="   53.070">  1  3  2 -1</clus>
<clus scale="  142.173">  2  4  1 -1</clus>
<clus scale="   53.070">  1  3  2 -1</clus>
</clustering>
</event>
<event>
 6    0  0.2666600E+002  0.2270444E+03  0.7546771E-02  0.1128738E+00
         21   -1    0    0  504  501  0.00000000000E+00  0.00000000000E+00  0.73596847910E+02  0.73596847910E+02  0.00000000000E+00 0.  1.
         21   -1    0    0  506  502 -0.00000000000E+00 -0.00000000000E+00 -0.74519596678E+03  0.74519596678E+03  0.00000000000E+00 0.  1.
         21    1    1    2  503  501 -0.22163050643E+02  0.39095326854E+02 -0.14419384025E+03  0.15103479388E+03  0.00000000000E+00 0. -1.
         21    1    1    2  504  505  0.51443525086E+02 -0.44846771878E+02 -0.10442114365E+03  0.12474551881E+03  0.00000000000E+00 0.  1.
         21    1    1    2  505  502  0.11163935020E+03 -0.10013166599E+03 -0.11827610988E+03  0.19099458950E+03  0.00000000000E+00 0.  1.
         21    1    1    2  506  503 -0.14091982465E+03  0.10588311101E+03 -0.30470802508E+03  0.35201791251E+03  0.00000000000E+00 0.  1.
<scales pt_clust_3="31.67177" pt_clust_4="33.61497" pt_clust_5="223.82527" pt_clust_6="31.67177"></scales>
<clustering>
<clus scale="   31.672">  3  6 -1 -1</clus>
<clus scale="   33.615">  4  5 -1 -1</clus>
<clus scale="  223.825">  1  4  2 -1</clus>
<clus scale="  223.825">  1  3  2 -1</clus>
</clustering>
</event>
<event>
 6    0  0.2666600E+002  0.3746396E+03  0.7546771E-02  0.1052933E+00
         21   -1    0    0  506  501  0.00000000000E+00  0.00000000000E+00  0.16413168767E+04  0.16413168767E+04  0.00000000000E+00 0. -1.
         21   -1    0    0  503  502 -0.00000000000E+00 -0.00000000000E+00 -0.11263358292E+03  0.11263358292E+03  0.00000000000E+00 0. -1.
         21    1    1    2  503  501 -0.92659258985E+02  0.31758754253E+01  0.20129387788E+03  0.22161915471E+03  0.00000000000E+00 0. -1.
         21    1    1    2  504  502 -0.12169235834E+03 -0.33631280426E+03  0.51636982123E+03  0.62813463897E+03  0.00000000000E+00 0. -1.
         21    1    1    2  505  504  0.12172234910E+03  0.19219072580E+03  0.52468887569E+03  0.57188462265E+03  0.00000000000E+00 0. -1.
         21    1    1    2  506  505  0.92629268231E+02  0.14094620304E+03  0.28633071894E+03  0.33231204326E+03  0.00000000000E+00 0. -1.
<scales pt_clust_3="92.71367" pt_clust_4="370.75978" pt_clust_5="46.30408" pt_clust_6="46.30408"></scales>
<clustering>
<clus scale="   46.304">  5  6 -1 -1</clus>
<clus scale="   92.714">  1  3  2 -1</clus>
<clus scale="  370.760">  2  4  1 -1</clus>
<clus scale="   92.714">  1  3  2 -1</clus>
</clustering>
</event>
<event>
 6    0  0.2666600E+002  0.1095722E+03  0.7546771E-02  0.1261364E+00
         21   -1    0    0  504  501  0.00000000000E+00  0.00000000000E+00  0.12821609523E+04  0.12821609523E+04  0.00000000000E+00 0.  1.
         21   -1    0    0  505  502 -0.00000000000E+00 -0.00000000000E+00 -0.19243072543E+03  0.19243072543E+03  0.00000000000E+00 0. -1.
         21    1    1    2  503  502 -0.38359798172E+02  0.61246494629E+00 -0.40966246309E+02  0.56125596351E+02  0.00000000000E+00 0. -1.
         21    1    1    2  504  503 -0.32663202955E+02  0.10718134953E+03  0.11381144298E+04  0.11436167110E+04  0.00000000000E+00 0.  1.
         21    1    1    2  505  506 -0.26344683752E+02 -0.49492592832E+02 -0.10897713522E+03  0.12255437613E+03  0.00000000000E+00 0. -1.
         21    1    1    2  506  501  0.97367684879E+02 -0.58301221648E+02  0.10155917867E+03  0.15229499426E+03  0.00000000000E+00 0. -1.
<scales pt_clust_3="38.36469" pt_clust_4="14000.00000" pt_clust_5="75.32416" pt_clust_6="109.57220"></scales>
<clustering>
<clus scale="   38.365">  2  3  1 -1</clus>
<clus scale="   75.324">  2  5  1 -1</clus>
<clus scale="  109.572">  2  6  1 -1</clus>
<clus scale="  109.572">  1  3  2 -1</clus>
</clustering>
</event>
<event>
 6    0  0.2666600E+002  0.2747500E+03  0.7546771E-02  0.1098591E+00
         21   -1    0    0  505  501  0.00000000000E+00  0.00000000000E+00  0.10366683850E+04  0.10366683850E+04  0.00000000000E+00 0.  1.
         21   -1    0    0  503  502 -0.00000000000E+00 -0.00000000000E+00 -0.13514633988E+03  0.13514633988E+03  0.00000000000E+00 0.  1.
         21    1    1    2  503  501  0.10813009458E+03 -0.22782944361E+02  0.28315309820E+03  0.30395206354E+03  0.00000000000E+00 0.  1.
         21    1    1    2  504  502  0.23632491990E+03 -0.24439498046E+02  0.14652117201E+03  0.27913296236E+03  0.00000000000E+00 0.  1.
         21    1    1    2  505  506 -0.24678569359E+03  0.17216592983E+02  0.30048553903E+03  0.38921863881E+03  0.00000000000E+00 0.  1.
         21    1    1    2  506  504 -0.97669320896E+02  0.30005849424E+02  0.17136223583E+03  0.19951106013E+03  0.00000000000E+00 0.  1.
<scales pt_clust_3="110.50421" pt_clust_4="269.08075" pt_clust_5="35.68449" pt_clust_6="35.68449"></scales>
<clustering>
<clus scale="   35.684">  5  6 -1 -1</clus>
<clus scale="  110.504">  1  3  2 -1</clus>
<clus scale="  269.081">  2  4  1 -1</clus>
<clus scale="  110.504">  1  3  2 -1</clus>
</clustering>
</event>
<event>
 6    0  0.2666600E+002  0.1137345E+03  0.7546771E-02  0.1253806E+00
         21   -1    0    0  504  501  0.00000000000E+00  0.00000000000E+00  0.13889069731E+03  0.13889069731E+03  0.00000000000E+00 0. -1.
         21   -1    0    0  505  502 -0.00000000000E+00 -0.00000000000E+00 -0.18863389479E+03  0.18863389479E+03  0.00000000000E+00 0. -1.
         21    1    1    2  503  501  0.44461629914E+02 -0.29805025323E+02  0.56947396940E+02  0.78154859653E+02  0.00000000000E+00 0. -1.
         21    1    1    2  504  506 -0.30644424399E+02  0.18085697778E+02 -0.10991663499E+02  0.37242312997E+02  0.00000000000E+00 0. -1.
         21    1    1    2  505  503  0.73380226981E+02  0.27861939495E+02  0.41286349659E+01  0.78600197270E+02  0.00000000000E+00 0. -1.
         21    1    1    2  506  502 -0.87197432496E+02 -0.16142611950E+02 -0.99827565883E+02  0.13352722219E+03  0.00000000000E+00 0. -1.
<scales pt_clust_3="53.52734" pt_clust_4="34.64259" pt_clust_5="99.72301" pt_clust_6="34.64259"></scales>
<clustering>
<clus scale="   34.643">  4  6 -1 -1</clus>
<clus scale="   53.527">  1  3  2 -1</clus>
<clus scale="   99.723">  1  5  2 -1</clus>
<clus scale="   53.527">  1  3  2 -1</clus>
</clustering>
</event>
<event>
 6    0  0.2666600E+002  0.1643122E+03  0.7546771E-02  0.1183913E+00
         21   -1    0    0  503  501  0.00000000000E+00  0.00000000000E+00  0.98820566455E+03  0.98820566455E+03  0.00000000000E+00 0.  1.
         21   -1    0    0  505  502 -0.00000000000E+00 -0.00000000000E+00 -0.67027339891E+02  0.67027339891E+02  0.00000000000E+00 0.  1.
         21    1    1    2  503  504  0.73166879624E+02 -0.16863413009E+03  0.57666408228E+03  0.60525393505E+03  0.00000000000E+00 0.  1.
         21    1    1    2  504  502 -0.94467065198E+02  0.31467258412E+02  0.84611848215E+02  0.13066514309E+03  0.00000000000E+00 0.  1.
         21    1    1    2  505  506 -0.27437844820E+02  0.12913282046E+03  0.15668634704E+03  0.20488712013E+03  0.00000000000E+00 0.  1.
         21    1    1    2  506  501  0.48738030394E+02  0.80340512142E+01  0.10321604713E+03  0.11442680618E+03  0.00000000000E+00 0. -1.
<scales pt_clust_3="164.31221" pt_clust_4="94.26318" pt_clust_5="14000.00000" pt_clust_6="49.39576"></scales>
<clustering>
<clus scale="   49.396">  1  6  2 -1</clus>
<clus scale="   94.263">  2  4  1 -1</clus>
<clus scale="  164.312">  1  3  2 -1</clus>
<clus scale="   49.396">  1  3  2 -1</clus>
</clustering>
</event>
<event>
 6    0  0.2666600E+002  0.1489177E+03  0.7546771E-02  0.1201809E+00
         21   -1    0    0  503  501  0.00000000000E+00  0.00000000000E+00  0.53766870926E+02  0.53766870926E+02  0.00000000000E+00 0. -1.
         21   -1    0    0  505  502 -0.00000000000E+00 -0.00000000000E+00 -0.73960671187E+03  0.73960671187E+03  0.00000000000E+00 0. -1.
         21    1    1    2  503  506 -0.65459048541E+02  0.44961407388E+02 -0.73002239518E+02  0.10786909736E+03  0.00000000000E+00 0.  1.
         21    1    1    2  504  502  0.31386389234E+02 -0.12562339949E+03 -0.35855646722E+03  0.38122051901E+03  0.00000000000E+00 0. -1.
         21    1    1    2  505  501  0.72118246504E+02  0.86866931299E+01 -0.17989149764E+03  0.19400373976E+03  0.00000000000E+00 0. -1.
         21    1    1    2  506  504 -0.38045587197E+02  0.71975298968E+02 -0.74389636563E+02  0.11028022667E+03  0.00000000000E+00 0. -1.
<scales pt_clust_3="37.96161" pt_clust_4="143.87191" pt_clust_5="72.63952" pt_clust_6="37.96161"></scales>
<clustering>
<clus scale="   37.962">  3  6 -1 -1</clus>
<clus scale="   72.640">  2  5  1 -1</clus>
<clus scale="  143.872">  2  4  1 -1</clus>
<clus scale="  148.918">  1  3  2 -1</clus>
</clustering>
</event>
<event>
 6    0  0.2666600E+002  0.9291300E+02  0.7546771E-02  0.1295947E+00
         21   -1    0    0  505  501  0.00000000000E+00  0.00000000000E+00  0.94794028515E+03  0.94794028515E+03  0.00000000000E+00 0.  1.
         21   -1    0    0  503  502 -0.00000000000E+00 -0.00000000000E+00 -0.83038485229E+02  0.83038485229E+02  0.00000000000E+00 0. -1.
         21    1    1    2  503  506  0.13916431529E+02  0.45153041734E+02 -0.90815954000E+01  0.48113819421E+02  0.00000000000E+00 0.  1.
         21    1    1    2  504  501 -0.14012514164E+02 -0.12207274442E+03  0.80091178110E+03  0.81028253504E+03  0.00000000000E+00 0.  1.
         21    1    1    2  505  502  0.14257523596E+02  0.39524154325E+02  0.11024804079E+03  0.11798333040E+03  0.00000000000E+00 0. -1.
         21    1    1    2  506  504 -0.14161440962E+02  0.37395548367E+02 -0.37176426566E+02  0.54599085523E+02  0.00000000000E+00 0. -1.
<scales pt_clust_3="36.74974" pt_clust_4="83.88694" pt_clust_5="42.01709" pt_clust_6="36.74974"></scales>
<clustering>
<clus scale="   36.750">  3  6 -1 -1</clus>
<clus scale="   42.017">  1  5  2 -1</clus>
<clus scale="   83.887">  1  4  2 -1</clus>
<clus scale="   42.017">  1  3  2 -1</clus>
</clustering>
</event>
<event>
 6    0  0.2666600E+002  0.1135586E+03  0.7546771E-02  0.1254118E+00
         21   -1    0    0  504  501  0.00000000000E+00  0.00000000000E+00  0.13928695392E+04  0.13928695392E+04  0.00000000000E+00 0.  1.
         21   -1    0    0  506  502 -0.00000000000E+00 -0.00000000000E+00 -0.40537889978E+02  0.40537889978E+02  0.00000000000E+00 0.  1.
         21    1    1    2  503  501 -0.36523110790E+02 -0.30848827568E+02  0.18083730308E+03  0.18705004135E+03  0.00000000000E+00 0.  1.
         21    1    1    2  504  505  0.96126311695E+02 -0.59024410168E+02  0.90981678602E+03  0.91678281666E+03  0.00000000000E+00 0.  1.
         21    1    1    2  505  502 -0.96128529939E+02  0.11038120083E+03  0.14682536355E+03  0.20732195047E+03  0.00000000000E+00 0.  1.
         21    1    1    2  506  503  0.36525329034E+02 -0.20507963094E+02  0.11485219661E+03  0.12225262074E+03  0.00000000000E+00 0.  1.
<scales pt_clust_3="46.68809" pt_clust_4="113.55857" pt_clust_5="14000.00000" pt_clust_6="41.88886"></scales>
<clustering>
<clus scale="   41.889">  2  6  1 -1</clus>
<clus scale="   46.688">  1  3  2 -1</clus>
<clus scale="  113.559">  1  4  2 -1</clus>
<clus scale="   46.688">  1  3  2 -1</clus>
</clustering>
</event>
<event>
 6    0  0.2666600E+002  0.1737690E+03  0.7546771E-02  0.1173973E+00
         21   -1    0    0  504  501  0.00000000000E+00  0.00000000000E+00  0.82937346141E+02  0.82937346141E+02  0.00000000000E+00 0. -1.
         21   -1    0    0  501  502 -0.00000000000E+00 -0.00000000000E+00 -0.18490696323E+04  0.18490696323E+04  0.00000000000E+00 0. -1.
         21    1    1    2  503  506  0.71338216186E+02  0.70156774092E+02 -0.87194817404E+03  0.87767005888E+03  0.00000000000E+00 0. -1.
         21    1    1    2  504  505 -0.27674053834E+02 -0.17282732591E+02 -0.29702875101E+02  0.44122634675E+02  0.00000000000E+00 0.  1.
         21    1    1    2  505  503 -0.65796031525E+02 -0.12288484491E+03  0.32042070413E+01  0.13942765083E+03  0.00000000000E+00 0. -1.
         21    1    1    2  506  502  0.22131869173E+02  0.70010803405E+02 -0.86768544401E+03  0.87078663401E+03  0.00000000000E+00 0. -1.
<scales pt_clust_3="42.00615" pt_clust_4="32.62738" pt_clust_5="166.74410" pt_clust_6="42.00615"></scales>
<clustering>
<clus scale="   32.627">  1  4  2 -1</clus>
<clus scale="   42.006">  3  6 -1 -1</clus>
<clus scale="  166.744">  1  5  2 -1</clus>
<clus scale="   32.627">  1  3  2 -1</clus>
</clustering>
</event>
<event>
 6    0  0.2666600E+002  0.1734403E+03  0.7546771E-02  0.1174307E+00
         21   -1    0    0  506  501  0.00000000000E+00  0.00000000000E+00  0.60839830191E+03  0.60839830191E+03  0.00000000000E+00 0.  1.
         21   -1    0    0  505  502 -0.00000000000E+00 -0.00000000000E+00 -0.12342721884E+03  0.12342721884E+03  0.00000000000E+00 0.  1.
         21    1    1    2  503  504 -0.15226456658E+02  0.77460197282E+02 -0.11776154387E+02  0.79816069544E+02  0.00000000000E+00 0.  1.
         21    1    1    2  504  502 -0.78728363981E+02  0.60022268168E+02 -0.17014110071E+02  0.10045052470E+03  0.00000000000E+00 0.  1.
         21    1    1    2  505  501 -0.35553600621E+01 -0.45603178705E+02  0.45538587732E+02  0.64544972428E+02  0.00000000000E+00 0.  1.
         21    1    1    2  506  503  0.97510180700E+02 -0.91879286746E+02  0.46822275980E+03  0.48701395408E+03  0.00000000000E+00 0.  1.
<scales pt_clust_3="55.58612" pt_clust_4="55.58612" pt_clust_5="45.74156" pt_clust_6="161.68895"></scales>
<clustering>
<clus scale="   45.742">  1  5  2 -1</clus>
<clus scale="   55.586">  3  4 -1 -1</clus>
<clus scale="  161.689">  1  6  2 -1</clus>
<clus scale="   45.742">  1  3  2 -1</clus>
</clustering>
</event>
<event>
 6    0  0.2666600E+002  0.1777158E+03  0.7546771E-02  0.1170032E+00
         21   -1    0    0  506  501  0.00000000000E+00  0.00000000000E+00  0.25091026939E+03  0.25091026939E+03  0.00000000000E+00 0.  1.
         21   -1    0    0  505  502 -0.00000000000E+00 -0.00000000000E+00 -0.67095503654E+03  0.67095503654E+03  0.00000000000E+00 0. -1.
         21    1    1    2  503  502 -0.98411855750E+02  0.39862732736E+02 -0.51103935851E+03  0.52195321319E+03  0.00000000000E+00 0. -1.
         21    1    1    2  504  501  0.10823965799E+03 -0.41045850306E+02  0.17961166566E+03  0.21368419649E+03  0.00000000000E+00 0.  1.
         21    1    1    2  505  504  0.35929803249E+02 -0.34701232418E+02  0.27021571941E+02  0.56791651174E+02  0.00000000000E+00 0. -1.
         21    1    1    2  506  503 -0.45757605487E+02  0.35884349988E+02 -0.11563864623E+03  0.12943624507E+03  0.00000000000E+00 0. -1.
<scales pt_clust_3="52.64430" pt_clust_4="174.52762" pt_clust_5="41.21914" pt_clust_6="52.64430"></scales>
<clustering>
<clus scale="   41.219">  4  5 -1 -1</clus>
<clus scale="   52.644">  3  6 -1 -1</clus>
<clus scale="  174.528">  1  4  2 -1</clus>
<clus scale="  174.528">  1  3  2 -1</clus>
</clustering>
</event>
<event>
 6    0  0.2666600E+002  0.1122358E+03  0.7546771E-02  0.1256485E+00
         21   -1    0    0  505  501  0.00000000000E+00  0.00000000000E+00  0.10813198231E+03  0.10813198231E+03  0.00000000000E+00 0.  1.
         21   -1    0    0  503  502 -0.00000000000E+00 -0.00000000000E+00 -0.20200798432E+03  0.20200798432E+03  0.00000000000E+00 0.  1.
         21    1    1    2  503  504  0.35893981780E+02 -0.34566241142E+02 -0.55835466290E+02  0.74838507805E+02  0.00000000000E+00 0.  1.
         21    1    1    2  504  501  0.32565521768E+02 -0.54244020609E+02 -0.15690697525E+02  0.65185312523E+02  0.00000000000E+00 0.  1.
         21    1    1    2  505  506 -0.63968924150E+02 -0.13606530255E+02 -0.16418927100E+02  0.67429534253E+02  0.00000000000E+00 0.  1.
         21    1    1    2  506  502 -0.44905793978E+01  0.10241679201E+03 -0.59309110985E+01  0.10268661205E+03  0.00000000000E+00 0.  1.
<scales pt_clust_3="38.85412" pt_clust_4="38.85412" pt_clust_5="65.40001" pt_clust_6="103.34488"></scales>
<clustering>
<clus scale="   38.854">  3  4 -1 -1</clus>
<clus scale="   65.400">  1  5  2 -1</clus>
<clus scale="  103.345">  1  6  2 -1</clus>
<clus scale="   65.400">  1  3  2 -1</clus>
</clustering>
</event>
<event>
 6    0  0.2666600E+002  0.1908823E+03  0.7546771E-02  0.1157668E+00
         21   -1    0    0  503  501  0.00000000000E+00  0.00000000000E+00  0.24923325099E+04  0.24923325099E+04  0.00000000000E+00 0.  1.
         21   -1    0    0  504  502 -0.00000000000E+00 -0.00000000000E+00 -0.25110107948E+02  0.25110107948E+02  0.00000000000E+00 0.  1.
         21    1    1    2  503  506  0.51889422928E+02 -0.10182957660E+03  0.15268562913E+04  0.15311276594E+04  0.00000000000E+00 0.  1.
         21    1    1    2  504  505 -0.65282271891E+02  0.12860707551E+03  0.26078089104E+03  0.29800709392E+03  0.00000000000E+00 0.  1.
         21    1    1    2  505  501 -0.13092852145E+02  0.35025449076E+02  0.15579333797E+03  0.16021787982E+03  0.00000000000E+00 0.  1.
         21    1    1    2  506  502  0.26485701109E+02 -0.61802947990E+02  0.52379188161E+03  0.52808998474E+03  0.00000000000E+00 0.  1.
<scales pt_clust_3="187.66826" pt_clust_4="30.19971" pt_clust_5="30.19971" pt_clust_6="36.79420"></scales>
<clustering>
<clus scale="   30.200">  4  5 -1 -1</clus>
<clus scale="   36.794">  3  6 -1 -1</clus>
<clus scale="  187.668">  1  3  2 -1</clus>
<clus scale="  187.668">  1  3  2 -1</clus>
</clustering>
</event>
<event>
 6    0  0.2666600E+002  0.1823901E+03  0.7546771E-02  0.1165510E+00
         21   -1    0    0  503  501  0.00000000000E+00  0.00000000000E+00  0.41939886838E+03  0.41939886838E+03  0.00000000000E+00 0.  1.
         21   -1    0    0  501  502 -0.00000000000E+00 -0.00000000000E+00 -0.20676543015E+03  0.20676543015E+03  0.00000000000E+00 0.  1.
         21    1    1    2  503  504 -0.79895779781E+02  0.69655739253E+02  0.21986629156E+03  0.24408286257E+03  0.00000000000E+00 0.  1.
         21    1    1    2  504  505 -0.73823818152E+02  0.17702947001E+02  0.13341631791E+03  0.15350330402E+03  0.00000000000E+00 0.  1.
         21    1    1    2  505  506  0.66493690487E+02 -0.53748481136E+02 -0.54049565154E+02  0.10115169594E+03  0.00000000000E+00 0.  1.
         21    1    1    2  506  502  0.87225907445E+02 -0.33610205117E+02 -0.86599606089E+02  0.12742643600E+03  0.00000000000E+00 0.  1.
<scales pt_clust_3="37.89393" pt_clust_4="37.89393" pt_clust_5="33.19232" pt_clust_6="180.18261"></scales>
<clustering>
<clus scale="   33.192">  5  6 -1 -1</clus>
<clus scale="   37.894">  3  4 -1 -1</clus>
<clus scale="  180.183">  2  5  1 -1</clus>
<clus scale="  182.390">  1  3  2 -1</clus>
</clustering>
</event>
<event>
 6    0  0.2666600E+002  0.1773799E+03  0.7546771E-02  0.1170363E+00
         21   -1    0    0  503  501  0.00000000000E+00  0.00000000000E+00  0.62945335166E+03  0.62945335166E+03  0.00000000000E+00 0. -1.
         21   -1    0    0  506  502 -0.00000000000E+00 -0.00000000000E+00 -0.66190361110E+02  0.66190361110E+02  0.00000000000E+00 0. -1.
         21    1    1    2  503  505  0.30697405252E+02  0.10136601480E+03  0.96411447484E+02  0.14322208926E+03  0.00000000000E+00 0. -1.
         21    1    1    2  504  501 -0.31880423408E+02 -0.54665918417E+02  0.21410252619E+03  0.22325907765E+03  0.00000000000E+00 0. -1.
         21    1    1    2  505  502  0.23567371945E+02  0.58052766460E+02  0.94970182214E+01  0.63369851421E+02  0.00000000000E+00 0. -1.
         21    1    1    2  506  504 -0.22384353789E+02 -0.10475286284E+03  0.24325199866E+03  0.26579269444E+03  0.00000000000E+00 0. -1.
<scales pt_clust_3="42.85541" pt_clust_4="31.12166" pt_clust_5="42.85541" pt_clust_6="173.20068"></scales>
<clustering>
<clus scale="   31.122">  4  6 -1 -1</clus>
<clus scale="   42.855">  3  5 -1 -1</clus>
<clus scale="  173.201">  1  4  2 -1</clus>
<clus scale="  173.201">  1  3  2 -1</clus>
</clustering>
</event>
<event>
 6    0  0.4699418E+002  0.1566421E+03  0.7546771E-02  0.1192541E+00
         21   -1    0    0  505  501  0.00000000000E+00  0.00000000000E+00  0.17000303626E+04  0.17000303626E+04  0.00000000000E+00 0. -1.
         21   -1    0    0  503  502 -0.00000000000E+00 -0.00000000000E+00 -0.54604145859E+03  0.54604145859E+03  0.00000000000E+00 0.  1.
         21    1    1    2  503  504  0.20867376027E+02 -0.49778634727E+02 -0.40970795256E+03  0.41324806866E+03  0.00000000000E+00 0.  1.
         21    1    1    2  504  501 -0.38628692205E+02  0.15277999572E+03  0.16438717844E+04  0.16514079892E+04  0.00000000000E+00 0. -1.
         21    1    1    2  505  506  0.33698989569E+01 -0.69928131571E+02  0.21739568364E+02  0.73306948079E+02  0.00000000000E+00 0. -1.
         21    1    1    2  506  502  0.14391417221E+02 -0.33073229426E+02 -0.10191449626E+03  0.10810881528E+03  0.00000000000E+00 0.  1.
<scales pt_clust_3="14000.00000" pt_clust_4="156.64211" pt_clust_5="71.98496" pt_clust_6="36.06870"></scales>
<clustering>
<clus scale="   36.069">  2  6  1 -1</clus>
<clus scale="   71.985">  2  5  1 -1</clus>
<clus scale="  156.642">  1  4  2 -1</clus>
<clus scale="  156.642">  1  3  2 -1</clus>
</clustering>
</event>
<event>
 6    0  0.2666600E+002  0.1139336E+03  0.7546771E-02  0.1253454E+00
         21   -1    0    0  505  501  0.00000000000E+00  0.00000000000E+00  0.11754596502E+03  0.11754596502E+03  0.00000000000E+00 0. -1.
         21   -1    0    0  503  502 -0.00000000000E+00 -0.00000000000E+00 -0.14377919588E+04  0.14377919588E+04  0.00000000000E+00 0.  1.
         21    1    1    2  503  504  0.16022337979E+02  0.69744168775E+02 -0.39893283749E+03  0.40530034940E+03  0.00000000000E+00 0.  1.
         21    1    1    2  504  501 -0.10021054311E+03 -0.29388874395E+01 -0.14576858269E+03  0.17691599619E+03  0.00000000000E+00 0.  1.
         21    1    1    2  505  506 -0.35648179868E+01 -0.97372465489E+02  0.71587265509E+02  0.12090840147E+03  0.00000000000E+00 0. -1.
         21    1    1    2  506  502  0.87753023119E+02  0.30567184153E+02 -0.84713183915E+03  0.85221317680E+03  0.00000000000E+00 0.  1.
<scales pt_clust_3="71.56091" pt_clust_4="113.93359" pt_clust_5="95.76470" pt_clust_6="14000.00000"></scales>
<clustering>
<clus scale="   71.561">  2  3  1 -1</clus>
<clus scale="   95.765">  1  5  2 -1</clus>
<clus scale="  113.934">  1  4  2 -1</clus>
<clus scale="   95.765">  1  3  2 -1</clus>
</clustering>
</event>
<event>
 6    0  0.2666600E+002  0.1670291E+03  0.7546771E-02  0.1180982E+00
         21   -1    0    0  505  501  0.00000000000E+00  0.00000000000E+00  0.48066942287E+03  0.48066942287E+03  0.00000000000E+00 0. -1.
         21   -1    0    0  503  502 -0.00000000000E+00 -0.00000000000E+00 -0.19210003355E+04  0.19210003355E+04  0.00000000000E+00 0. -1.
         21    1    1    2  503  501 -0.35728281213E+02 -0.10127609085E+03  0.39908501527E+03  0.41328223536E+03  0.00000000000E+00 0. -1.
         21    1    1    2  504  502  0.51871218851E+02  0.70324460556E+02 -0.80467613193E+03  0.80940708571E+03  0.00000000000E+00 0. -1.
         21    1    1    2  505  506 -0.66473949187E+02 -0.26428676078E+02  0.52708808411E+02  0.88856509744E+02  0.00000000000E+00 0. -1.
         21    1    1    2  506  504  0.50331011549E+02  0.57380306369E+02 -0.10874486043E+04  0.10901239275E+04  0.00000000000E+00 0. -1.
<scales pt_clust_3="163.00454" pt_clust_4="34.06108" pt_clust_5="71.53503" pt_clust_6="34.06108"></scales>
<clustering>
<clus scale="   34.061">  4  6 -1 -1</clus>
<clus scale="   71.535">  1  5  2 -1</clus>
<clus scale="  163.005">  1  3  2 -1</clus>
<clus scale="   71.535">  1  3  2 -1</clus>
</clustering>
</event>
<event>
 6    0  0.2666600E+002  0.8386623E+02  0.7546771E-02  0.1318424E+00
         21   -1    0    0  504  501  0.00000000000E+00  0.00000000000E+00  0.50458635098E+02  0.50458635098E+02  0.00000000000E+00 0.  1.
         21   -1    0    0  505  502 -0.00000000000E+00 -0.00000000000E+00 -0.11414256534E+04  0.11414256534E+04  0.00000000000E+00 0.  1.
         21    1    1    2  503  501  0.34504004881E+02  0.34794767386E+02  0.48125441414E+01  0.49237818508E+02  0.00000000000E+00 0.  1.
         21    1    1    2  504  502  0.33182312656E+02  0.80071532532E+02 -0.94779165139E+02  0.12843522235E+03  0.00000000000E+00 0.  1.
         21    1    1    2  505  506 -0.17747141097E+02 -0.81757559242E+02 -0.80292161606E+03  0.80726846901E+03  0.00000000000E+00 0.  1.
         21    1    1    2  506  503 -0.49939176439E+02 -0.33108740677E+02 -0.19807878129E+03  0.20694277868E+03  0.00000000000E+00 0.  1.
<scales pt_clust_3="49.00206" pt_clust_4="14000.00000" pt_clust_5="83.86623" pt_clust_6="50.87686"></scales>
<clustering>
<clus scale="   49.002">  1  3  2 -1</clus>
<clus scale="   50.877">  1  6  2 -1</clus>
<clus scale="   83.866">  2  5  1 -1</clus>
<clus scale="   49.002">  1  3  2 -1</clus>
</clustering>
</event>
<event>
 6    0  0.2666600E+002  0.8391939E+02  0.7546771E-02  0.1318283E+00
         21   -1    0    0  505  501  0.00000000000E+00  0.00000000000E+00  0.11090189006E+02  0.11090189006E+02  0.00000000000E+00 0. -1.
         21   -1    0    0  506  502 -0.00000000000E+00 -0.00000000000E+00 -0.18426108209E+04  0.18426108209E+04  0.00000000000E+00 0. -1.
         21    1    1    2  503  502 -0.60485475519E+02 -0.67054575348E+01 -0.46453029909E+03  0.46849957810E+03  0.00000000000E+00 0. -1.
         21    1    1    2  504  503  0.89703982675E+02  0.43079240081E+02 -0.57773666314E+03  0.58624421308E+03  0.00000000000E+00 0. -1.
         21    1    1    2  505  504  0.15427396776E+01  0.37600406738E+02 -0.14761664987E+03  0.15233793340E+03  0.00000000000E+00 0. -1.
         21    1    1    2  506  501 -0.30761246834E+02 -0.73974189284E+02 -0.64163701976E+03  0.64661928529E+03  0.00000000000E+00 0. -1.
<scales pt_clust_3="60.16297" pt_clust_4="14000.00000" pt_clust_5="37.63204" pt_clust_6="83.91939"></scales>
<clustering>
<clus scale="   37.632">  1  5  2 -1</clus>
<clus scale="   60.163">  2  3  1 -1</clus>
<clus scale="   83.919">  1  6  2 -1</clus>
<clus scale="   37.632">  1  3  2 -1</clus>
</clustering>
</event>
<event>
 6    0  0.2666600E+002  0.1930860E+03  0.7546771E-02  0.1155707E+00
         21   -1    0    0  506  501  0.00000000000E+00  0.00000000000E+00  0.53154607906E+03  0.53154607906E+03  0.00000000000E+00 0. -1.
         21   -1    0    0  504  502 -0.00000000000E+00 -0.00000000000E+00 -0.24771438120E+03  0.24771438120E+03  0.00000000000E+00 0. -1.
         21    1    1    2  503  502  0.93403886447E+02 -0.10184707038E+03  0.41178538099E+03  0.43435505263E+03  0.00000000000E+00 0. -1.
         21    1    1    2  504  505 -0.60597811708E+02  0.47974257041E+02 -0.11693382892E+03  0.14016827198E+03  0.00000000000E+00 0. -1.
         21    1    1    2  505  501 -0.71381206118E+02  0.78746953770E+02 -0.72027469321E+02  0.12839126003E+03  0.00000000000E+00 0. -1.
         21    1    1    2  506  503  0.38575131380E+02 -0.24874140429E+02  0.61007615109E+02  0.76345875621E+02  0.00000000000E+00 0. -1.
<scales pt_clust_3="35.55229" pt_clust_4="46.24678" pt_clust_5="190.83461" pt_clust_6="35.55229"></scales>
<clustering>
<clus scale="   35.552">  3  6 -1 -1</clus>
<clus scale="   46.247">  4  5 -1 -1</clus>
<clus scale="  190.835">  2  4  1 -1</clus>
<clus scale="  193.086">  1  3  2 -1</clus>
</clustering>
</event>
<event>
 6    0  0.2666600E+002  0.1025892E+03  0.7546771E-02  0.1274943E+00
         21   -1    0    0  504  501  0.00000000000E+00  0.00000000000E+00  0.65418937786E+02  0.65418937786E+02  0.00000000000E+00 0. -1.
         21   -1    0    0  503  502 -0.00000000000E+00 -0.00000000000E+00 -0.66867641005E+03  0.66867641005E+03  0.00000000000E+00 0. -1.
         21    1    1    2  503  506 -0.78478098070E+02  0.65543054999E+01 -0.11241811041E+03  0.13725743093E+03  0.00000000000E+00 0. -1.
         21    1    1    2  504  505  0.11759289815E+02 -0.32768911829E+02 -0.16795971828E+02  0.38654717035E+02  0.00000000000E+00 0. -1.
         21    1    1    2  505  502  0.11565069394E+03 -0.19026951696E+01 -0.48677616483E+03  0.50032962925E+03  0.00000000000E+00 0. -1.
         21    1    1    2  506  501 -0.48931885683E+02  0.28117301499E+02  0.12732774800E+02  0.57853570626E+02  0.00000000000E+00 0. -1.
<scales pt_clust_3="102.58924" pt_clust_4="34.81497" pt_clust_5="14000.00000" pt_clust_6="41.88635"></scales>
<clustering>
<clus scale="   34.815">  1  4  2 -1</clus>
<clus scale="   41.886">  1  6  2 -1</clus>
<clus scale="  102.589">  1  3  2 -1</clus>
<clus scale="   34.815">  1  3  2 -1</clus>
</clustering>
</event>
<event>
 6    0  0.2666600E+002  0.1934646E+03  0.7546771E-02  0.1155373E+00
         21   -1    0    0  504  501  0.00000000000E+00  0.00000000000E+00  0.39646305522E+03  0.39646305522E+03  0.00000000000E+00 0.  1.
         21   -1    0    0  506  502 -0.00000000000E+00 -0.00000000000E+00 -0.96077969257E+02  0.96077969257E+02  0.00000000000E+00 0.  1.
         21    1    1    2  503  502  0.24985114400E+02 -0.43745266411E+02  0.16574700384E+01  0.50404875577E+02  0.00000000000E+00 0.  1.
         21    1    1    2  504  503  0.11655127691E+03 -0.63832440769E+02  0.11334870559E+03  0.17466170073E+03  0.00000000000E+00 0.  1.
         21    1    1    2  505  501 -0.97596344429E+02  0.10852216827E+03  0.16063118544E+03  0.21703567723E+03  0.00000000000E+00 0.  1.
         21    1    1    2  506  505 -0.43940046881E+02 -0.94446109081E+00  0.24747724891E+02  0.50438770940E+02  0.00000000000E+00 0. -1.
<scales pt_clust_3="46.98434" pt_clust_4="46.98434" pt_clust_5="192.81400" pt_clust_6="40.96092"></scales>
<clustering>
<clus scale="   40.961">  5  6 -1 -1</clus>
<clus scale="   46.984">  3  4 -1 -1</clus>
<clus scale="  192.814">  1  5  2 -1</clus>
<clus scale="  192.814">  1  3  2 -1</clus>
</clustering>
</event>
<event>
 6    0  0.2789436E+002  0.8227171E+02  0.7546771E-02  0.1322726E+00
         21   -1    0    0  504  501  0.00000000000E+00  0.00000000000E+00  0.31918897681E+03  0.31918897681E+03  0.00000000000E+00 0. -1.
         21   -1    0    0  506  502 -0.00000000000E+00 -0.00000000000E+00 -0.26969796293E+04  0.26969796293E+04  0.00000000000E+00 0.  1.
         21    1    1    2  503  501  0.38526472567E+02 -0.96193211464E+01 -0.27800796533E+02  0.48473752853E+02  0.00000000000E+00 0.  1.
         21    1    1    2  504  505  0.42687811416E+02  0.52846342135E+01  0.30380276508E+03  0.30683268515E+03  0.00000000000E+00 0. -1.
         21    1    1    2  505  502 -0.12788978031E+03  0.32791631376E+02 -0.15088579595E+04  0.15146231971E+04  0.00000000000E+00 0.  1.
         21    1    1    2  506  503  0.46675496324E+02 -0.28456944443E+02 -0.11449346615E+04  0.11462389711E+04  0.00000000000E+00 0.  1.
<scales pt_clust_3="39.70920" pt_clust_4="14000.00000" pt_clust_5="82.27171" pt_clust_6="54.74629"></scales>
<clustering>
<clus scale="   39.709">  1  3  2 -1</clus>
<clus scale="   54.746">  2  6  1 -1</clus>
<clus scale="   82.272">  2  5  1 -1</clus>
<clus scale="   39.709">  1  3  2 -1</clus>
</clustering>
</event>
<event>
 6    0  0.2666600E+002  0.9439785E+02  0.7546771E-02  0.1292538E+00
         21   -1    0    0  503  501  0.00000000000E+00  0.00000000000E+00  0.10069032680E+04  0.10069032680E+04  0.00000000000E+00 0. -1.
         21   -1    0    0  504  502 -0.00000000000E+00 -0.00000000000E+00 -0.15714395293E+03  0.15714395293E+03  0.00000000000E+00 0. -1.
         21    1    1    2  503  502 -0.88264711995E+02 -0.10981438949E+02  0.71578628645E+03  0.72129138305E+03  0.00000000000E+00 0. -1.
         21    1    1    2  504  506  0.34117460312E+02 -0.33486044655E+02 -0.10275633145E+03  0.11333216638E+03  0.00000000000E+00 0. -1.
         21    1    1    2  505  501  0.39342493276E+02  0.82013658840E+02  0.26498078367E+03  0.28015868312E+03  0.00000000000E+00 0.  1.
         21    1    1    2  506  505  0.14804758407E+02 -0.37546175236E+02 -0.28251423589E+02  0.49264988391E+02  0.00000000000E+00 0.  1.
<scales pt_clust_3="88.94522" pt_clust_4="39.36902" pt_clust_5="84.11367" pt_clust_6="39.36902"></scales>
<clustering>
<clus scale="   39.369">  4  6 -1 -1</clus>
<clus scale="   88.945">  1  3  2 -1</clus>
<clus scale="   84.114">  1  5  2 -1</clus>
<clus scale="   88.945">  1  3  2 -1</clus>
</clustering>
</event>
<event>
 6    0  0.2666600E+002  0.1408469E+03  0.7546771E-02  0.1212194E+00
         21   -1    0    0  506  501  0.00000000000E+00  0.00000000000E+00  0.12161648902E+03  0.12161648902E+03  0.00000000000E+00 0.  1.
         21   -1    0    0  503  502 -0.00000000000E+00 -0.00000000000E+00 -0.88909637266E+03  0.88909637266E+03  0.00000000000E+00 0.  1.
         21    1    1    2  503  504  0.43962633083E+01  0.33780479727E+02 -0.33837658025E+03  0.34008698594E+03  0.00000000000E+00 0.  1.
         21    1    1    2  504  505 -0.47208394911E+02 -0.96316783405E+01  0.10490963548E+02  0.49309857979E+02  0.00000000000E+00 0.  1.
         21    1    1    2  505  501 -0.51884700500E+02 -0.75973376386E+02  0.60233471592E+02  0.10996384481E+03  0.00000000000E+00 0.  1.
         21    1    1    2  506  502  0.94696832103E+02  0.51824574999E+02 -0.49982773852E+03  0.51135217295E+03  0.00000000000E+00 0.  1.
<scales pt_clust_3="34.06535" pt_clust_4="41.20269" pt_clust_5="41.20269" pt_clust_6="128.91605"></scales>
<clustering>
<clus scale="   34.065">  2  3  1 -1</clus>
<clus scale="   41.203">  4  5 -1 -1</clus>
<clus scale="  128.916">  2  6  1 -1</clus>
<clus scale="  140.847">  1  3  2 -1</clus>
</clustering>
</event>
<event>
 6    0  0.2666600E+002  0.2386545E+03  0.7546771E-02  0.1120692E+00
         21   -1    0    0  503  501  0.00000000000E+00  0.00000000000E+00  0.32111715178E+03  0.32111715178E+03  0.00000000000E+00 0.  1.
         21   -1    0    0  506  502 -0.00000000000E+00 -0.00000000000E+00 -0.15375240649E+04  0.15375240649E+04  0.00000000000E+00 0.  1.
         21    1    1    2  503  502 -0.47669038432E+02 -0.26682480111E+02 -0.36749581600E+02  0.65839378169E+02  0.00000000000E+00 0.  1.
         21    1    1    2  504  501 -0.10448964879E+03  0.16344464605E+02  0.22069196869E+03  0.24472468872E+03  0.00000000000E+00 0.  1.
         21    1    1    2  505  504 -0.72280147256E+02 -0.53883122311E+01  0.45004906229E+02  0.85316441445E+02  0.00000000000E+00 0.  1.
         21    1    1    2  506  505  0.22443883448E+03  0.15726327738E+02 -0.14453542065E+04  0.14627607084E+04  0.00000000000E+00 0.  1.
<scales pt_clust_3="54.62867" pt_clust_4="64.14975" pt_clust_5="64.14975" pt_clust_6="223.58720"></scales>
<clustering>
<clus scale="   54.629">  1  3  2 -1</clus>
<clus scale="   64.150">  4  5 -1 -1</clus>
<clus scale="  223.587">  2  6  1 -1</clus>
<clus scale="   54.629">  1  3  2 -1</clus>
</clustering>
</event>
<event>
 6    0  0.2666600E+002  0.1284426E+03  0.7546771E-02  0.1229785E+00
         21   -1    0    0  505  501  0.00000000000E+00  0.00000000000E+00  0.19289298705E+03  0.19289298705E+03  0.00000000000E+00 0.  1.
         21   -1    0    0  506  502 -0.00000000000E+00 -0.00000000000E+00 -0.33531640240E+03  0.33531640240E+03  0.00000000000E+00 0. -1.
         21    1    1    2  503  502  0.11560523079E+02 -0.12253368862E+03  0.94615805299E+02  0.15524271691E+03  0.00000000000E+00 0.  1.
         21    1    1    2  504  501 -0.30449309394E+02  0.10865852608E+03 -0.17826036049E+03  0.21097533471E+03  0.00000000000E+00 0. -1.
         21    1    1    2  505  503  0.48412833527E+02  0.77540069363E+00  0.36984005688E+02  0.60927993345E+02  0.00000000000E+00 0.  1.
         21    1    1    2  506  504 -0.29524047212E+02  0.13099761841E+02 -0.95762865845E+02  0.10106334449E+03  0.00000000000E+00 0. -1.
<scales pt_clust_3="128.44260" pt_clust_4="14000.00000" pt_clust_5="46.94284" pt_clust_6="32.29974"></scales>
<clustering>
<clus scale="   32.300">  2  6  1 -1</clus>
<clus scale="   46.943">  1  5  2 -1</clus>
<clus scale="  128.443">  1  3  2 -1</clus>
<clus scale="   46.943">  1  3  2 -1</clus>
</clustering>
</event>
<event>
 6    0  0.2666600E+002  0.9024224E+02  0.7546771E-02  0.1302266E+00
         21   -1    0    0  505  501  0.00000000000E+00  0.00000000000E+00  0.10090614795E+03  0.10090614795E+03  0.00000000000E+00 0.  1.
         21   -1    0    0  504  502 -0.00000000000E+00 -0.00000000000E+00 -0.65467226528E+03  0.65467226528E+03  0.00000000000E+00 0. -1.
         21    1    1    2  503  502  0.13966599459E+02  0.36847402605E+02 -0.94093350364E+02  0.10201154622E+03  0.00000000000E+00 0.  1.
         21    1    1    2  504  506  0.45700620785E+02  0.35583523898E+02 -0.42454661199E+03  0.42847935734E+03  0.00000000000E+00 0. -1.
         21    1    1    2  505  503 -0.10227991800E+03 -0.60189669216E+02 -0.93995191673E+02  0.15139046854E+03  0.00000000000E+00 0.  1.
         21    1    1    2  506  501  0.42612697758E+02 -0.12241257287E+02  0.58869036693E+02  0.73697041130E+02  0.00000000000E+00 0.  1.
<scales pt_clust_3="39.40555" pt_clust_4="90.24224" pt_clust_5="14000.00000" pt_clust_6="44.38248"></scales>
<clustering>
<clus scale="   39.406">  2  3  1 -1</clus>
<clus scale="   44.382">  1  6  2 -1</clus>
<clus scale="   90.242">  2  4  1 -1</clus>
<clus scale="   44.382">  1  3  2 -1</clus>
</clustering>
</event>
<event>
 6    0  0.2666600E+002  0.1559426E+03  0.7546771E-02  0.1193355E+00
         21   -1    0    0  506  501  0.00000000000E+00  0.00000000000E+00  0.98838907109E+03  0.98838907109E+03  0.00000000000E+00 0.  1.
         21   -1    0    0  503  502 -0.00000000000E+00 -0.00000000000E+00 -0.24700617306E+03  0.24700617306E+03  0.00000000000E+00 0.  1.
         21    1    1    2  503  505 -0.24354458753E+02 -0.50527603952E+02 -0.54791446724E+02  0.78410975357E+02  0.00000000000E+00 0.  1.
         21    1    1    2  504  501  0.52501398653E+02  0.14961802853E+03  0.47906449335E+03  0.50462336461E+03  0.00000000000E+00 0.  1.
         21    1    1    2  505  504 -0.73362940765E+02 -0.64487572842E+02 -0.15152537984E+03  0.18027952980E+03  0.00000000000E+00 0.  1.
         21    1    1    2  506  502  0.45216000865E+02 -0.34602851733E+02  0.46863523124E+03  0.47208137438E+03  0.00000000000E+00 0.  1.
<scales pt_clust_3="30.09268" pt_clust_4="150.80162" pt_clust_5="30.09268" pt_clust_6="56.93719"></scales>
<clustering>
<clus scale="   30.093">  3  5 -1 -1</clus>
<clus scale="   56.937">  1  6  2 -1</clus>
<clus scale="  150.802">  1  4  2 -1</clus>
<clus scale="   56.937">  1  3  2 -1</clus>
</clustering>
</event>
<event>
 6    0  0.2666600E+002  0.1022796E+03  0.7546771E-02  0.1275574E+00
         21   -1    0    0  506  501  0.00000000000E+00  0.00000000000E+00  0.20928258768E+03  0.20928258768E+03  0.00000000000E+00 0.  1.
         21   -1    0    0  505  502 -0.00000000000E+00 -0.00000000000E+00 -0.46428047339E+03  0.46428047339E+03  0.00000000000E+00 0.  1.
         21    1    1    2  503  501  0.40757567502E+02 -0.89529918351E+02  0.15806422784E+03  0.18617487938E+03  0.00000000000E+00 0.  1.
         21    1    1    2  504  502  0.49358447577E+02  0.63723144981E+02 -0.26862046150E+03  0.28045293347E+03  0.00000000000E+00 0.  1.
         21    1    1    2  505  503 -0.36775991414E+02  0.45880374916E+02 -0.13747093962E+03  0.14951836539E+03  0.00000000000E+00 0.  1.
         21    1    1    2  506  504 -0.53340023664E+02 -0.20073601546E+02 -0.69707124173E+01  0.57416882841E+02  0.00000000000E+00 0.  1.
<scales pt_clust_3="14000.00000" pt_clust_4="102.27963" pt_clust_5="59.40602" pt_clust_6="56.99217"></scales>
<clustering>
<clus scale="   56.992">  1  6  2 -1</clus>
<clus scale="   59.406">  2  5  1 -1</clus>
<clus scale="  102.280">  2  4  1 -1</clus>
<clus scale="   56.992">  1  3  2 -1</clus>
</clustering>
</event>
<event>
 6    0  0.2666600E+002  0.8442071E+02  0.7546771E-02  0.1316954E+00
         21   -1    0    0  506  501  0.00000000000E+00  0.00000000000E+00  0.13680379330E+04  0.13680379330E+04  0.00000000000E+00 0.  1.
         21   -1    0    0  505  502 -0.00000000000E+00 -0.00000000000E+00 -0.19415523361E+03  0.19415523361E+03  0.00000000000E+00 0.  1.
         21    1    1    2  503  501 -0.52635365876E+02 -0.25552089094E+02  0.11316059212E+04  0.11331175367E+04  0.00000000000E+00 0.  1.
         21    1    1    2  504  502 -0.71414298380E+02  0.35738759391E+02  0.92731198232E+01  0.80394351090E+02  0.00000000000E+00 0. -1.
         21    1    1    2  505  503  0.19954746271E+02  0.27809308130E+02 -0.13950793177E+03  0.14364544039E+03  0.00000000000E+00 0.  1.
         21    1    1    2  506  504  0.10409491799E+03 -0.37995978427E+02  0.17251159010E+03  0.20503583844E+03  0.00000000000E+00 0. -1.
<scales pt_clust_3="58.07760" pt_clust_4="84.42071" pt_clust_5="34.22791" pt_clust_6="14000.00000"></scales>
<clustering>
<clus scale="   34.228">  2  5  1 -1</clus>
<clus scale="   58.078">  1  3  2 -1</clus>
<clus scale="   84.421">  2  4  1 -1</clus>
<clus scale="   58.078">  1  3  2 -1</clus>
</clustering>
</event>
<event>
 6    0  0.2666600E+002  0.1154881E+03  0.7546771E-02  0.1250732E+00
         21   -1    0    0  505  501  0.00000000000E+00  0.00000000000E+00  0.89151217321E+02  0.89151217321E+02  0.00000000000E+00 0.  1.
         21   -1    0    0  503  502 -0.00000000000E+00 -0.00000000000E+00 -0.42127899309E+03  0.42127899309E+03  0.00000000000E+00 0. -1.
         21    1    1    2  503  504  0.82094396344E+02 -0.52894952145E+02 -0.26102843850E+03  0.27869914169E+03  0.00000000000E+00 0. -1.
         21    1    1    2  504  506 -0.49672764583E+02 -0.63352633472E+01  0.14142373114E+02  0.52033891074E+02  0.00000000000E+00 0.  1.
         21    1    1    2  505  502  0.25982385231E+02  0.24630053886E+02 -0.10340358421E+03  0.10942588873E+03  0.00000000000E+00 0. -1.
         21    1    1    2  506  501 -0.58404016992E+02  0.34600161606E+02  0.18161873834E+02  0.70271288911E+02  0.00000000000E+00 0.  1.
<scales pt_clust_3="109.09630" pt_clust_4="32.54089" pt_clust_5="35.80117" pt_clust_6="32.54089"></scales>
<clustering>
<clus scale="   32.541">  4  6 -1 -1</clus>
<clus scale="   35.801">  2  5  1 -1</clus>
<clus scale="  109.096">  2  3  1 -1</clus>
<clus scale="  115.488">  1  3  2 -1</clus>
</clustering>
</event>
<event>
 6    0  0.2666600E+002  0.1329367E+03  0.7546771E-02  0.1223162E+00
         21   -1    0    0  506  501  0.00000000000E+00  0.00000000000E+00  0.16138184966E+04  0.16138184966E+04  0.00000000000E+00 0. -1.
         21   -1    0    0  505  502 -0.00000000000E+00 -0.00000000000E+00 -0.23702953055E+03  0.23702953055E+03  0.00000000000E+00 0.  1.
         21    1    1    2  503  504  0.51526898375E+02 -0.27063766665E+02 -0.64074037335E+02  0.86561833291E+02  0.00000000000E+00 0. -1.
         21    1    1    2  504  501 -0.18740921717E+02  0.43492203569E+02  0.29551552436E+03  0.29928618253E+03  0.00000000000E+00 0.  1.
         21    1    1    2  505  503  0.70243905023E+02 -0.82162065162E+00 -0.14991225226E+03  0.16555532197E+03  0.00000000000E+00 0.  1.
         21    1    1    2  506  502 -0.10302988168E+03 -0.15606816253E+02  0.12952597313E+04  0.12994446894E+04  0.00000000000E+00 0. -1.
<scales pt_clust_3="42.37401" pt_clust_4="47.35815" pt_clust_5="42.37401" pt_clust_6="124.51892"></scales>
<clustering>
<clus scale="   42.374">  3  5 -1 -1</clus>
<clus scale="   47.358">  1  4  2 -1</clus>
<clus scale="  124.519">  1  6  2 -1</clus>
<clus scale="   47.358">  1  3  2 -1</clus>
</clustering>
</event>
<event>
 6    0  0.2666600E+002  0.1078062E+03  0.7546771E-02  0.1264687E+00
         21   -1    0    0  505  501  0.00000000000E+00  0.00000000000E+00  0.21045473778E+04  0.21045473778E+04  0.00000000000E+00 0.  1.
         21   -1    0    0  501  502 -0.00000000000E+00 -0.00000000000E+00 -0.13960314582E+03  0.13960314582E+03  0.00000000000E+00 0.  1.
         21    1    1    2  503  502 -0.27635100966E+02  0.17776451168E+02 -0.96507187757E+02  0.10194772342E+03  0.00000000000E+00 0. -1.
         21    1    1    2  504  506  0.14675996151E+03 -0.53189428487E+02  0.12687135882E+04  0.12782807870E+04  0.00000000000E+00 0.  1.
         21    1    1    2  505  504 -0.86185897852E+02  0.51097468936E+01  0.81099941707E+03  0.81558210684E+03  0.00000000000E+00 0.  1.
         21    1    1    2  506  503 -0.32938962697E+02  0.30303230426E+02 -0.18261585534E+02  0.48339906331E+02  0.00000000000E+00 0.  1.
<scales pt_clust_3="32.85880" pt_clust_4="14000.00000" pt_clust_5="107.80617" pt_clust_6="71.60896"></scales>
<clustering>
<clus scale="   32.859">  2  3  1 -1</clus>
<clus scale="   71.609">  2  6  1 -1</clus>
<clus scale="  107.806">  1  5  2 -1</clus>
<clus scale="  107.806">  1  3  2 -1</clus>
</clustering>
</event>
<event>
 6    0  0.2666600E+002  0.1766997E+03  0.7546771E-02  0.1171036E+00
         21   -1    0    0  503  501  0.00000000000E+00  0.00000000000E+00  0.54918458673E+03  0.54918458673E+03  0.00000000000E+00 0.  1.
         21   -1    0    0  505  502 -0.00000000000E+00 -0.00000000000E+00 -0.10090670522E+04  0.10090670522E+04  0.00000000000E+00 0. -1.
         21    1    1    2  503  504 -0.97370801218E+02 -0.10800103598E+03  0.48394365008E+03  0.50531846707E+03  0.00000000000E+00 0.  1.
         21    1    1    2  504  506  0.89409825731E+02  0.11658795338E+03 -0.66092875672E+03  0.67706254458E+03  0.00000000000E+00 0. -1.
         21    1    1    2  505  501  0.29759356300E+02 -0.58626106265E+02  0.19507364649E+02  0.68579712006E+02  0.00000000000E+00 0. -1.
         21    1    1    2  506  502 -0.21798380814E+02  0.50039188867E+02 -0.30240472348E+03  0.30729091528E+03  0.00000000000E+00 0. -1.
<scales pt_clust_3="14000.00000" pt_clust_4="176.69968" pt_clust_5="63.84848" pt_clust_6="54.58104"></scales>
<clustering>
<clus scale="   54.581">  2  6  1 -1</clus>
<clus scale="   63.848">  1  5  2 -1</clus>
<clus scale="  176.700">  2  4  1 -1</clus>
<clus scale="   63.848">  1  3  2 -1</clus>
</clustering>
</event>
<event>
 6    0  0.2666600E+002  0.9920612E+02  0.7546771E-02  0.1281974E+00
         21   -1    0    0  506  501  0.00000000000E+00  0.00000000000E+00  0.21058730726E+03  0.21058730726E+03  0.00000000000E+00 0.  1.
         21   -1    0    0  503  502 -0.00000000000E+00 -0.00000000000E+00 -0.43243664402E+03  0.43243664402E+03  0.00000000000E+00 0. -1.
         21    1    1    2  503  505  0.81066229761E+02 -0.98046524516E+02 -0.35502899662E+03  0.37713451581E+03  0.00000000000E+00 0. -1.
         21    1    1    2  504  502  0.88041530966E+01  0.49940409883E+02 -0.31563256352E+02  0.59731037180E+02  0.00000000000E+00 0. -1.
         21    1    1    2  505  501 -0.39266762866E+02 -0.13103193654E+02  0.35843186248E+02  0.54756792732E+02  0.00000000000E+00 0. -1.
         21    1    1    2  506  504 -0.50603619992E+02  0.61209308287E+02  0.12889972997E+03  0.15140160555E+03  0.00000000000E+00 0.  1.
<scales pt_clust_3="14000.00000" pt_clust_4="49.12806" pt_clust_5="41.39532" pt_clust_6="99.20612"></scales>
<clustering>
<clus scale="   41.395">  1  5  2 -1</clus>
<clus scale="   49.128">  2  4  1 -1</clus>
<clus scale="   99.206">  1  6  2 -1</clus>
<clus scale="   41.395">  1  3  2 -1</clus>
</clustering>
</event>
<event>
 6    0  0.2666600E+002  0.1146455E+03  0.7546771E-02  0.1252201E+00
         21   -1    0    0  506  501  0.00000000000E+00  0.00000000000E+00  0.37132036256E+03  0.37132036256E+03  0.00000000000E+00 0. -1.
         21   -1    0    0  503  502 -0.00000000000E+00 -0.00000000000E+00 -0.68218244485E+03  0.68218244485E+03  0.00000000000E+00 0. -1.
         21    1    1    2  503  504 -0.55744614226E+02 -0.10288498458E+02 -0.30309098496E+03  0.30834633188E+03  0.00000000000E+00 0. -1.
         21    1    1    2  504  501  0.44643511509E+02  0.86841485352E+02  0.31925393605E+03  0.33385260577E+03  0.00000000000E+00 0. -1.
         21    1    1    2  505  502  0.42025961053E+02 -0.10547497634E+03 -0.34655135819E+03  0.36467656341E+03  0.00000000000E+00 0. -1.
         21    1    1    2  506  505 -0.30924858337E+02  0.28921989445E+02  0.19526324813E+02  0.46627306349E+02  0.00000000000E+00 0.  1.
<scales pt_clust_3="56.88220" pt_clust_4="14000.00000" pt_clust_5="114.64548" pt_clust_6="42.34180"></scales>
<clustering>
<clus scale="   42.342">  1  6  2 -1</clus>
<clus scale="   56.882">  2  3  1 -1</clus>
<clus scale="  114.645">  2  5  1 -1</clus>
<clus scale="   42.342">  1  3  2 -1</clus>
</clustering>
</event>
<event>
 6    0  0.2666600E+002  0.9625163E+02  0.7546771E-02  0.1288382E+00
         21   -1    0    0  504  501  0.00000000000E+00  0.00000000000E+00  0.13354925361E+04  0.13354925361E+04  0.00000000000E+00 0.  1.
         21   -1    0    0  503  502 -0.00000000000E+00 -0.00000000000E+00 -0.15031124985E+03  0.15031124985E+03  0.00000000000E+00 0.  1.
         21    1    1    2  503  506  0.39253926491E+02  0.89782481466E+02 -0.12437960652E+03  0.15834156511E+03  0.00000000000E+00 0.  1.
         21    1    1    2  504  502 -0.12077802173E+02 -0.31108523550E+02  0.49581259649E+03  0.49693434615E+03  0.00000000000E+00 0.  1.
         21    1    1    2  505  501 -0.47739982808E+02  0.25116821911E+02  0.55836079286E+03  0.56096054737E+03  0.00000000000E+00 0.  1.
         21    1    1    2  506  505  0.20563858491E+02 -0.83790779827E+02  0.25538750343E+03  0.26956732734E+03  0.00000000000E+00 0.  1.
<scales pt_clust_3="96.25163" pt_clust_4="33.37085" pt_clust_5="55.96618" pt_clust_6="14000.00000"></scales>
<clustering>
<clus scale="   33.371">  1  4  2 -1</clus>
<clus scale="   55.966">  1  5  2 -1</clus>
<clus scale="   96.252">  2  3  1 -1</clus>
<clus scale="   33.371">  1  3  2 -1</clus>
</clustering>
</event>
<event>
 6    0  0.2666600E+002  0.9654111E+02  0.7546771E-02  0.1287742E+00
         21   -1    0    0  506  501  0.00000000000E+00  0.00000000000E+00  0.21979901817E+04  0.21979901817E+04  0.00000000000E+00 0. -1.
         21   -1    0    0  503  502 -0.00000000000E+00 -0.00000000000E+00 -0.19799362684E+02  0.19799362684E+02  0.00000000000E+00 0.  1.
         21    1    1    2  503  504 -0.89857391337E+02 -0.81727038465E+02  0.26720088073E+03  0.29351315176E+03  0.00000000000E+00 0.  1.
         21    1    1    2  504  501 -0.82844015661E+01  0.40272122498E+02  0.26333035604E+03  0.26652082765E+03  0.00000000000E+00 0. -1.
         21    1    1    2  505  502  0.33004877859E+02  0.34873890009E+01  0.62167250824E+02  0.70471632020E+02  0.00000000000E+00 0.  1.
         21    1    1    2  506  505  0.65136915044E+02  0.37967526966E+02  0.15854923314E+04  0.15872839330E+04  0.00000000000E+00 0. -1.
<scales pt_clust_3="14000.00000" pt_clust_4="40.92443" pt_clust_5="33.18861" pt_clust_6="96.54111"></scales>
<clustering>
<clus scale="   33.189">  2  5  1 -1</clus>
<clus scale="   40.924">  1  4  2 -1</clus>
<clus scale="   96.541">  1  6  2 -1</clus>
<clus scale="   40.924">  1  3  2 -1</clus>
</clustering>
</event>
<event>
 6    0  0.2666600E+002  0.8329510E+02  0.7546771E-02  0.1319952E+00
         21   -1    0    0  504  501  0.00000000000E+00  0.00000000000E+00  0.20532067822E+03  0.20532067822E+03  0.00000000000E+00 0. -1.
         21   -1    0    0  506  502 -0.00000000000E+00 -0.00000000000E+00 -0.88833276638E+02  0.88833276638E+02  0.00000000000E+00 0. -1.
         21    1    1    2  503  501  0.36527802058E+02 -0.66767923317E+01  0.54577510704E+02  0.66011851615E+02  0.00000000000E+00 0. -1.
         21    1    1    2  504  502 -0.74838482568E+02  0.49368139664E+02  0.30505980724E+02  0.94702832834E+02  0.00000000000E+00 0. -1.
         21    1    1    2  505  503  0.35407023254E+02 -0.79980941925E+02  0.38163438843E+02  0.95430898724E+02  0.00000000000E+00 0. -1.
         21    1    1    2  506  505  0.29036572557E+01  0.37289594592E+02 -0.67595286857E+01  0.38008371688E+02  0.00000000000E+00 0.  1.
<scales pt_clust_3="37.13300" pt_clust_4="14000.00000" pt_clust_5="83.29510" pt_clust_6="37.20425"></scales>
<clustering>
<clus scale="   37.133">  1  3  2 -1</clus>
<clus scale="   37.204">  2  6  1 -1</clus>
<clus scale="   83.295">  2  5  1 -1</clus>
<clus scale="   37.133">  1  3  2 -1</clus>
</clustering>
</event>
<event>
 6    0  0.2666600E+002  0.1242684E+03  0.7546771E-02  0.1236217E+00
         21   -1    0    0  504  501  0.00000000000E+00  0.00000000000E+00  0.59622770003E+03  0.59622770003E+03  0.00000000000E+00 0.  1.
         21   -1    0    0  503  502 -0.00000000000E+00 -0.00000000000E+00 -0.60104574688E+02  0.60104574688E+02  0.00000000000E+00 0. -1.
         21    1    1    2  503  501 -0.26758347866E+02 -0.28340589342E+02  0.55453950446E+02  0.67781552098E+02  0.00000000000E+00 0.  1.
         21    1    1    2  504  506 -0.93943749688E+02  0.35787896409E+02  0.44435945779E+03  0.45558921120E+03  0.00000000000E+00 0.  1.
         21    1    1    2  505  502  0.48858909931E+02 -0.15994828778E+02 -0.12862765585E+01  0.51426473092E+02  0.00000000000E+00 0. -1.
         21    1    1    2  506  505  0.71843187623E+02  0.85475217117E+01  0.37595993664E+02  0.81535038326E+02  0.00000000000E+00 0. -1.
<scales pt_clust_3="38.97689" pt_clust_4="117.07573" pt_clust_5="35.12126" pt_clust_6="35.12126"></scales>
<clustering>
<clus scale="   35.121">  5  6 -1 -1</clus>
<clus scale="   38.977">  1  3  2 -1</clus>
<clus scale="  117.076">  1  4  2 -1</clus>
<clus scale="   38.977">  1  3  2 -1</clus>
</clustering>
</event>
<event>
 6    0  0.2666600E+002  0.1053773E+03  0.7546771E-02  0.1269378E+00
         21   -1    0    0  503  501  0.00000000000E+00  0.00000000000E+00  0.10606085997E+04  0.10606085997E+04  0.00000000000E+00 0.  1.
         21   -1    0    0  504  502 -0.00000000000E+00 -0.00000000000E+00 -0.62933181416E+02  0.62933181416E+02  0.00000000000E+00 0. -1.
         21    1    1    2  503  505 -0.88695222973E+02  0.20263586229E+02  0.66926625098E+03  0.67542192014E+03  0.00000000000E+00 0.  1.
         21    1    1    2  504  506  0.76700158675E+02 -0.18158802549E+02 -0.65395624651E+01  0.79091227883E+02  0.00000000000E+00 0. -1.
         21    1    1    2  505  502  0.17481614344E+02 -0.43400526111E+02  0.19251677170E+02  0.50594857255E+02  0.00000000000E+00 0. -1.
         21    1    1    2  506  501 -0.54865500464E+01  0.41295742431E+02  0.31569705262E+03  0.31843377586E+03  0.00000000000E+00 0.  1.
<scales pt_clust_3="14000.00000" pt_clust_4="105.37730" pt_clust_5="44.89623" pt_clust_6="41.65862"></scales>
<clustering>
<clus scale="   41.659">  1  6  2 -1</clus>
<clus scale="   44.896">  2  5  1 -1</clus>
<clus scale="  105.377">  2  4  1 -1</clus>
<clus scale="   41.659">  1  3  2 -1</clus>
</clustering>
</event>
<event>
 6    0  0.2666600E+002  0.9302719E+02  0.7546771E-02  0.1295682E+00
         21   -1    0    0  506  501  0.00000000000E+00  0.00000000000E+00  0.22015807899E+03  0.22015807899E+03  0.00000000000E+00 0. -1.
         21   -1    0    0  504  502 -0.00000000000E+00 -0.00000000000E+00 -0.25386827956E+03  0.25386827956E+03  0.00000000000E+00 0. -1.
         21    1    1    2  503  505  0.55909372362E+02 -0.35977626957E+02 -0.16652413703E+03  0.17930570480E+03  0.00000000000E+00 0. -1.
         21    1    1    2  504  501  0.25505502888E+02  0.59889020435E+02  0.44866987241E+02  0.79058661704E+02  0.00000000000E+00 0.  1.
         21    1    1    2  505  502  0.35273036370E+02 -0.23537410259E+01 -0.31458319251E+02  0.47321803026E+02  0.00000000000E+00 0. -1.
         21    1    1    2  506  503 -0.11668791162E+03 -0.21557652452E+02  0.11940526848E+03  0.16834018902E+03  0.00000000000E+00 0. -1.
<scales pt_clust_3="14000.00000" pt_clust_4="66.07658" pt_clust_5="35.35148" pt_clust_6="93.02719"></scales>
<clustering>
<clus scale="   35.351">  2  5  1 -1</clus>
<clus scale="   66.077">  1  4  2 -1</clus>
<clus scale="   93.027">  1  6  2 -1</clus>
<clus scale="   66.077">  1  3  2 -1</clus>
</clustering>
</event>
<event>
 6    0  0.2666600E+002  0.9702818E+02  0.7546771E-02  0.1286672E+00
         21   -1    0    0  504  501  0.00000000000E+00  0.00000000000E+00  0.22621640145E+03  0.22621640145E+03  0.00000000000E+00 0. -1.
         21   -1    0    0  506  502 -0.00000000000E+00 -0.00000000000E+00 -0.71910590417E+03  0.71910590417E+03  0.00000000000E+00 0.  1.
         21    1    1    2  503  501  0.88639652032E+02 -0.67476891468E+02  0.15046460827E+03  0.18721569682E+03  0.00000000000E+00 0. -1.
         21    1    1    2  504  505 -0.50232317229E+02  0.43071297335E+02 -0.14652802700E+02  0.67772612280E+02  0.00000000000E+00 0. -1.
         21    1    1    2  505  502 -0.74170589657E+02 -0.64976770727E+02 -0.56806119546E+03  0.57655596337E+03  0.00000000000E+00 0.  1.
         21    1    1    2  506  503  0.35763254854E+02  0.89382364860E+02 -0.60640112824E+02  0.11377803316E+03  0.00000000000E+00 0.  1.
<scales pt_clust_3="55.63376" pt_clust_4="66.16965" pt_clust_5="97.02818" pt_clust_6="14000.00000"></scales>
<clustering>
<clus scale="   66.170">  1  4  2 -1</clus>
<clus scale="   55.634">  1  3  2 -1</clus>
<clus scale="   97.028">  2  5  1 -1</clus>
<clus scale="   66.170">  1  3  2 -1</clus>
</clustering>
</event>
<event>
 6    0  0.2666600E+002  0.1286476E+03  0.7546771E-02  0.1229476E+00
         21   -1    0    0  503  501  0.00000000000E+00  0.00000000000E+00  0.24042417288E+04  0.24042417288E+04  0.00000000000E+00 0. -1.
         21   -1    0    0  504  502 -0.00000000000E+00 -0.00000000000E+00 -0.48630323146E+02  0.48630323146E+02  0.00000000000E+00 0. -1.
         21    1    1    2  503  506  0.19114396785E+02  0.72068161939E+02  0.15890906855E+04  0.15908388941E+04  0.00000000000E+00 0. -1.
         21    1    1    2  504  505  0.50486983860E+02 -0.32402934931E+02  0.12208268896E+02  0.61220319836E+02  0.00000000000E+00 0. -1.
         21    1    1    2  505  501  0.19732621472E+02 -0.68880229381E+02  0.43518348980E+02  0.83831432337E+02  0.00000000000E+00 0. -1.
         21    1    1    2  506  502 -0.89334002116E+02  0.29215002373E+02  0.71079410229E+03  0.71698140572E+03  0.00000000000E+00 0. -1.
<scales pt_clust_3="74.55991" pt_clust_4="47.94467" pt_clust_5="47.94467" pt_clust_6="117.49347"></scales>
<clustering>
<clus scale="   47.945">  4  5 -1 -1</clus>
<clus scale="   74.560">  1  3  2 -1</clus>
<clus scale="  117.493">  1  6  2 -1</clus>
<clus scale="   74.560">  1  3  2 -1</clus>
</clustering>
</event>
<event>
 6    0  0.2666600E+002  0.1688573E+03  0.7546771E-02  0.1179045E+00
         21   -1    0    0  505  501  0.00000000000E+00  0.00000000000E+00  0.40990603027E+02  0.40990603027E+02  0.00000000000E+00 0. -1.
         21   -1    0    0  506  502 -0.00000000000E+00 -0.00000000000E+00 -0.15493134692E+04  0.15493134692E+04  0.00000000000E+00 0.  1.
         21    1    1    2  503  502 -0.18182562714E+03 -0.32284293914E+02 -0.10969922923E+04  0.11124274914E+04  0.00000000000E+00 0.  1.
         21    1    1    2  504  503  0.41928200549E+02 -0.54129609611E+01 -0.95433186776E+02  0.10437800193E+03  0.00000000000E+00 0.  1.
         21    1    1    2  505  504  0.11123453752E+03  0.70017024422E+01 -0.88672828959E+02  0.14242547795E+03  0.00000000000E+00 0. -1.
         21    1    1    2  506  501  0.28662889077E+02  0.30695552433E+02 -0.22722455818E+03  0.23107310097E+03  0.00000000000E+00 0.  1.
<scales pt_clust_3="157.97846" pt_clust_4="36.72435" pt_clust_5="36.72435" pt_clust_6="41.99736"></scales>
<clustering>
<clus scale="   36.724">  4  5 -1 -1</clus>
<clus scale="   41.997">  2  6  1 -1</clus>
<clus scale="  157.978">  2  3  1 -1</clus>
<clus scale="  168.857">  1  3  2 -1</clus>
</clustering>
</event>
<event>
 6    0  0.2666600E+002  0.1311327E+03  0.7546771E-02  0.1225785E+00
         21   -1    0    0  504  501  0.00000000000E+00  0.00000000000E+00  0.68273162607E+03  0.68273162607E+03  0.00000000000E+00 0.  1.
         21   -1    0    0  505  502 -0.00000000000E+00 -0.00000000000E+00 -0.21762359938E+03  0.21762359938E+03  0.00000000000E+00 0.  1.
         21    1    1    2  503  501 -0.43543690260E+02 -0.24562957783E+02  0.33646175732E+03  0.34015570846E+03  0.00000000000E+00 0.  1.
         21    1    1    2  504  506  0.31905329138E+02  0.30010103686E+02 -0.66662691078E+02  0.79765097207E+02  0.00000000000E+00 0.  1.
         21    1    1    2  505  503 -0.75113525360E+02  0.42158811708E+01  0.31972237871E+03  0.32845428113E+03  0.00000000000E+00 0.  1.
         21    1    1    2  506  502  0.86751886482E+02 -0.96630270745E+01 -0.12441341826E+03  0.15198013865E+03  0.00000000000E+00 0.  1.
<scales pt_clust_3="36.16497" pt_clust_4="36.82367" pt_clust_5="128.30315" pt_clust_6="36.82367"></scales>
<clustering>
<clus scale="   36.165">  3  5 -1 -1</clus>
<clus scale="   36.824">  4  6 -1 -1</clus>
<clus scale="  128.303">  1  3  2 -1</clus>
<clus scale="  128.303">  1  3  2 -1</clus>
</clustering>
</event>
<event>
 6    0  0.2666600E+002  0.1282657E+03  0.7546771E-02  0.1230052E+00
         21   -1    0    0  505  501  0.00000000000E+00  0.00000000000E+00  0.20626955783E+03  0.20626955783E+03  0.00000000000E+00 0. -1.
         21   -1    0    0  503  502 -0.00000000000E+00 -0.00000000000E+00 -0.69566623510E+03  0.69566623510E+03  0.00000000000E+00 0.  1.
         21    1    1    2  503  506 -0.33621602841E+02 -0.36811689228E+02 -0.46589663201E+03  0.46855649004E+03  0.00000000000E+00 0.  1.
         21    1    1    2  504  501 -0.31821093983E+01  0.12869421083E+03  0.14868282025E+03  0.19666953693E+03  0.00000000000E+00 0. -1.
         21    1    1    2  505  502 -0.58316165065E+01  0.31410205975E+02 -0.35696723419E+02  0.47904747712E+02  0.00000000000E+00 0. -1.
         21    1    1    2  506  504  0.42635328745E+02 -0.12329272758E+03 -0.13648614208E+03  0.18880501824E+03  0.00000000000E+00 0.  1.
<scales pt_clust_3="40.42769" pt_clust_4="128.26568" pt_clust_5="31.94697" pt_clust_6="14000.00000"></scales>
<clustering>
<clus scale="   31.947">  2  5  1 -1</clus>
<clus scale="   40.428">  2  3  1 -1</clus>
<clus scale="  128.266">  1  4  2 -1</clus>
<clus scale="  128.266">  1  3  2 -1</clus>
</clustering>
</event>
<event>
 6    0  0.2666600E+002  0.1181131E+03  0.7546771E-02  0.1246243E+00
         21   -1    0    0  504  501  0.00000000000E+00  0.00000000000E+00  0.11560879910E+03  0.11560879910E+03  0.00000000000E+00 0.  1.
         21   -1    0    0  503  502 -0.00000000000E+00 -0.00000000000E+00 -0.88240711776E+03  0.88240711776E+03  0.00000000000E+00 0.  1.
         21    1    1    2  503  505  0.37175994655E+02  0.58819307102E+02 -0.54346039506E+03  0.54789685750E+03  0.00000000000E+00 0.  1.
         21    1    1    2  504  506 -0.12034032638E+03  0.12690728307E+02  0.56136495460E+02  0.13339473326E+03  0.00000000000E+00 0.  1.
         21    1    1    2  505  501  0.10029368215E+03 -0.36821200111E+02 -0.17180811636E+03  0.20231819569E+03  0.00000000000E+00 0.  1.
         21    1    1    2  506  502 -0.17129350425E+02 -0.34688835298E+02 -0.10766630270E+03  0.11440613042E+03  0.00000000000E+00 0.  1.
<scales pt_clust_3="42.46222" pt_clust_4="14000.00000" pt_clust_5="118.11307" pt_clust_6="38.68759"></scales>
<clustering>
<clus scale="   38.688">  2  6  1 -1</clus>
<clus scale="   42.462">  2  3  1 -1</clus>
<clus scale="  118.113">  2  5  1 -1</clus>
<clus scale="  118.113">  1  3  2 -1</clus>
</clustering>
</event>
<event>
 6    0  0.2666600E+002  0.1855337E+03  0.7546771E-02  0.1162552E+00
         21   -1    0    0  502  501  0.00000000000E+00  0.00000000000E+00  0.15079161057E+03  0.15079161057E+03  0.00000000000E+00 0. -1.
         21   -1    0    0  505  502 -0.00000000000E+00 -0.00000000000E+00 -0.24298070228E+03  0.24298070228E+03  0.00000000000E+00 0. -1.
         21    1    1    2  503  501  0.20240308700E+01 -0.86105837885E+02  0.37430473318E+02  0.93911406931E+02  0.00000000000E+00 0. -1.
         21    1    1    2  504  506  0.22861840026E+02  0.43350170222E+02 -0.82808074976E+01  0.49703850560E+02  0.00000000000E+00 0. -1.
         21    1    1    2  505  504  0.41009276509E+02  0.10702641842E+03 -0.10737885794E+03  0.15705614961E+03  0.00000000000E+00 0. -1.
         21    1    1    2  506  503 -0.65895147405E+02 -0.64270750757E+02 -0.13959899594E+02  0.93100905748E+02  0.00000000000E+00 0.  1.
<scales pt_clust_3="85.04735" pt_clust_4="33.85158" pt_clust_5="171.38419" pt_clust_6="85.04735"></scales>
<clustering>
<clus scale="   33.852">  4  5 -1 -1</clus>
<clus scale="   85.047">  3  6 -1 -1</clus>
<clus scale="  171.384">  2  4  1 -1</clus>
<clus scale="  185.534">  1  3  2 -1</clus>
</clustering>
</event>
<event>
 6    0  0.2666600E+002  0.1573859E+03  0.7546771E-02  0.1191680E+00
         21   -1    0    0  505  501  0.00000000000E+00  0.00000000000E+00  0.27189782841E+03  0.27189782841E+03  0.00000000000E+00 0.  1.
         21   -1    0    0  503  502 -0.00000000000E+00 -0.00000000000E+00 -0.17763507456E+03  0.17763507456E+03  0.00000000000E+00 0.  1.
         21    1    1    2  503  506  0.27874194643E+02 -0.60910841563E+02  0.66542566566E+02  0.94419354541E+02  0.00000000000E+00 0.  1.
         21    1    1    2  504  502 -0.69949951437E+02  0.64425494233E+02 -0.10183368109E+03  0.13933319281E+03  0.00000000000E+00 0.  1.
         21    1    1    2  505  504 -0.41607302427E+02  0.22365964961E+02 -0.12524978055E+02  0.48870022295E+02  0.00000000000E+00 0.  1.
         21    1    1    2  506  501  0.83683059221E+02 -0.25880617631E+02  0.14207884643E+03  0.16691033333E+03  0.00000000000E+00 0.  1.
<scales pt_clust_3="60.53932" pt_clust_4="149.47424" pt_clust_5="34.27308" pt_clust_6="60.53932"></scales>
<clustering>
<clus scale="   34.273">  4  5 -1 -1</clus>
<clus scale="   60.539">  3  6 -1 -1</clus>
<clus scale="  149.474">  2  4  1 -1</clus>
<clus scale="  157.386">  1  3  2 -1</clus>
</clustering>
</event>
<event>
 6    0  0.2666600E+002  0.8732111E+02  0.7546771E-02  0.1309472E+00
         21   -1    0    0  505  501  0.00000000000E+00  0.00000000000E+00  0.12876539931E+04  0.12876539931E+04  0.00000000000E+00 0. -1.
         21   -1    0    0  506  502 -0.00000000000E+00 -0.00000000000E+00 -0.33760191809E+03  0.33760191809E+03  0.00000000000E+00 0. -1.
         21    1    1    2  503  502 -0.18538981194E+02  0.10404096097E+03 -0.21978661030E+03  0.24387367519E+03  0.00000000000E+00 0. -1.
         21    1    1    2  504  501  0.79135533172E+02 -0.31155185998E+02  0.10763175836E+04  0.10796724591E+04  0.00000000000E+00 0. -1.
         21    1    1    2  505  503 -0.30532704319E+02 -0.45921184155E+01  0.18278010806E+03  0.18536963475E+03  0.00000000000E+00 0. -1.
         21    1    1    2  506  504 -0.30063847658E+02 -0.68293656556E+02 -0.89259006333E+02  0.11634014214E+03  0.00000000000E+00 0. -1.
<scales pt_clust_3="87.32111" pt_clust_4="60.84251" pt_clust_5="30.87610" pt_clust_6="14000.00000"></scales>
<clustering>
<clus scale="   30.876">  1  5  2 -1</clus>
<clus scale="   60.843">  1  4  2 -1</clus>
<clus scale="   87.321">  2  3  1 -1</clus>
<clus scale="   30.876">  1  3  2 -1</clus>
</clustering>
</event>
<event>
 6    0  0.2666600E+002  0.1856258E+03  0.7546771E-02  0.1162467E+00
         21   -1    0    0  505  501  0.00000000000E+00  0.00000000000E+00  0.83774841266E+02  0.83774841266E+02  0.00000000000E+00 0.  1.
         21   -1    0    0  503  502 -0.00000000000E+00 -0.00000000000E+00 -0.99065090158E+03  0.99065090158E+03  0.00000000000E+00 0. -1.
         21    1    1    2  503  506 -0.72016811166E+02  0.70992899882E+02 -0.59216493654E+02  0.11718790912E+03  0.00000000000E+00 0.  1.
         21    1    1    2  504  502  0.14289433506E+02 -0.51264959613E+02 -0.41058835862E+03  0.41402304794E+03  0.00000000000E+00 0. -1.
         21    1    1    2  505  504  0.11960857439E+03 -0.85438843860E+02 -0.42795380168E+03  0.45249360601E+03  0.00000000000E+00 0. -1.
         21    1    1    2  506  501 -0.61881196730E+02  0.65710903592E+02 -0.91174063589E+01  0.90721179767E+02  0.00000000000E+00 0.  1.
<scales pt_clust_3="41.61300" pt_clust_4="53.21921" pt_clust_5="180.32437" pt_clust_6="41.61300"></scales>
<clustering>
<clus scale="   41.613">  3  6 -1 -1</clus>
<clus scale="   53.219">  2  4  1 -1</clus>
<clus scale="  180.324">  2  5  1 -1</clus>
<clus scale="  185.626">  1  3  2 -1</clus>
</clustering>
</event>
<event>
 6    0  0.2666600E+002  0.1140623E+03  0.7546771E-02  0.1253227E+00
         21   -1    0    0  503  501  0.00000000000E+00  0.00000000000E+00  0.15389997122E+04  0.15389997122E+04  0.00000000000E+00 0.  1.
         21   -1    0    0  506  502 -0.00000000000E+00 -0.00000000000E+00 -0.10782162771E+03  0.10782162771E+03  0.00000000000E+00 0.  1.
         21    1    1    2  503  504 -0.11211488338E+02 -0.42299410594E+02  0.62628046655E+03  0.62780742301E+03  0.00000000000E+00 0. -1.
         21    1    1    2  504  505 -0.90562886512E+02 -0.23235106027E+02  0.85564170965E+03  0.86073471050E+03  0.00000000000E+00 0.  1.
         21    1    1    2  505  502  0.34394783826E+02  0.73139844837E+02 -0.17221589820E+02  0.82637892114E+02  0.00000000000E+00 0.  1.
         21    1    1    2  506  501  0.67379591024E+02 -0.76053282157E+01 -0.33522501844E+02  0.75641314331E+02  0.00000000000E+00 0.  1.
<scales pt_clust_3="43.76000" pt_clust_4="114.06227" pt_clust_5="14000.00000" pt_clust_6="67.66713"></scales>
<clustering>
<clus scale="   43.760">  1  3  2 -1</clus>
<clus scale="   67.667">  2  6  1 -1</clus>
<clus scale="  114.062">  1  4  2 -1</clus>
<clus scale="   43.760">  1  3  2 -1</clus>
</clustering>
</event>
<event>
 6    0  0.2872843E+002  0.1512349E+03  0.7546771E-02  0.1198964E+00
         21   -1    0    0  503  501  0.00000000000E+00  0.00000000000E+00  0.37191655822E+03  0.37191655822E+03  0.00000000000E+00 0. -1.
         21   -1    0    0  506  502 -0.00000000000E+00 -0.00000000000E+00 -0.40649059752E+03  0.40649059752E+03  0.00000000000E+00 0.  1.
         21    1    1    2  503  502  0.10097135100E+03 -0.13207083463E+03  0.31094731324E+03  0.35259913598E+03  0.00000000000E+00 0. -1.
         21    1    1    2  504  501 -0.15208636827E+02  0.29029812348E+02  0.14464969823E+02  0.35822730090E+02  0.00000000000E+00 0. -1.
         21    1    1    2  505  504 -0.11260234977E+02  0.47828156029E+02 -0.69931029964E+02  0.85467387655E+02  0.00000000000E+00 0.  1.
         21    1    1    2  506  505 -0.74502479193E+02  0.55212866256E+02 -0.29005529239E+03  0.30451790202E+03  0.00000000000E+00 0.  1.
<scales pt_clust_3="135.44856" pt_clust_4="32.77244" pt_clust_5="49.16003" pt_clust_6="49.16003"></scales>
<clustering>
<clus scale="   32.772">  1  4  2 -1</clus>
<clus scale="   49.160">  5  6 -1 -1</clus>
<clus scale="  135.449">  1  3  2 -1</clus>
<clus scale="   32.772">  1  3  2 -1</clus>
</clustering>
</event>
<event>
 6    0  0.2666600E+002  0.7629949E+02  0.7546771E-02  0.1339894E+00
         21   -1    0    0  506  501  0.00000000000E+00  0.00000000000E+00  0.54552660169E+03  0.54552660169E+03  0.00000000000E+00 0. -1.
         21   -1    0    0  505  502 -0.00000000000E+00 -0.00000000000E+00 -0.45183461111E+02  0.45183461111E+02  0.00000000000E+00 0. -1.
         21    1    1    2  503  504  0.52825817814E+02  0.45905218308E+02  0.25533749771E+03  0.26475478057E+03  0.00000000000E+00 0. -1.
         21    1    1    2  504  501 -0.34623769077E+02 -0.20723387585E+02  0.10696173498E+03  0.11432006355E+03  0.00000000000E+00 0. -1.
         21    1    1    2  505  503  0.42958348600E+02 -0.67288992216E+02  0.41913186894E+02  0.90166198896E+02  0.00000000000E+00 0. -1.
         21    1    1    2  506  502 -0.61160397337E+02  0.42107161492E+02  0.96130720992E+02  0.12146901979E+03  0.00000000000E+00 0. -1.
<scales pt_clust_3="46.42167" pt_clust_4="40.35176" pt_clust_5="76.29949" pt_clust_6="14000.00000"></scales>
<clustering>
<clus scale="   40.352">  1  4  2 -1</clus>
<clus scale="   46.422">  1  3  2 -1</clus>
<clus scale="   76.299">  2  5  1 -1</clus>
<clus scale="   40.352">  1  3  2 -1</clus>
</clustering>
</event>
<event>
 6    0  0.2666600E+002  0.8299879E+02  0.7546771E-02  0.1320750E+00
         21   -1    0    0  504  501  0.00000000000E+00  0.00000000000E+00  0.10970149780E+03  0.10970149780E+03  0.00000000000E+00 0.  1.
         21   -1    0    0  506  502 -0.00000000000E+00 -0.00000000000E+00 -0.22691987949E+03  0.22691987949E+03  0.00000000000E+00 0.  1.
         21    1    1    2  503  505 -0.83902562768E+02  0.46315803913E+02  0.60027969870E+01  0.96025138911E+02  0.00000000000E+00 0.  1.
         21    1    1    2  504  503 -0.21746881887E+02 -0.39047276466E+02  0.19397653126E+02  0.48722537064E+02  0.00000000000E+00 0.  1.
         21    1    1    2  505  502  0.42162675519E+02 -0.38537962234E+02 -0.55639413403E+02  0.79740893298E+02  0.00000000000E+00 0.  1.
         21    1    1    2  506  501  0.63486769136E+02  0.31269434787E+02 -0.86979418407E+02  0.11213280802E+03  0.00000000000E+00 0.  1.
<scales pt_clust_3="82.99879" pt_clust_4="44.69471" pt_clust_5="59.16830" pt_clust_6="14000.00000"></scales>
<clustering>
<clus scale="   44.695">  1  4  2 -1</clus>
<clus scale="   59.168">  2  5  1 -1</clus>
<clus scale="   82.999">  1  3  2 -1</clus>
<clus scale="   44.695">  1  3  2 -1</clus>
</clustering>
</event>
<event>
 6    0  0.2666600E+002  0.1789665E+03  0.7546771E-02  0.1168807E+00
         21   -1    0    0  504  501  0.00000000000E+00  0.00000000000E+00  0.54422926244E+02  0.54422926244E+02  0.00000000000E+00 0.  1.
         21   -1    0    0  506  502 -0.00000000000E+00 -0.00000000000E+00 -0.21399458712E+04  0.21399458712E+04  0.00000000000E+00 0.  1.
         21    1    1    2  503  501 -0.80113708137E+02 -0.77847895708E+02 -0.40768184511E+02  0.11891402762E+03  0.00000000000E+00 0.  1.
         21    1    1    2  504  505  0.92777800348E+02  0.72606893573E+02 -0.61855019412E+03  0.62966961486E+03  0.00000000000E+00 0.  1.
         21    1    1    2  505  502  0.31064972317E+02  0.51009356422E+02 -0.13254562475E+04  0.13268011347E+04  0.00000000000E+00 0.  1.
         21    1    1    2  506  503 -0.43729064529E+02 -0.45768354287E+02 -0.10074831889E+03  0.11898402035E+03  0.00000000000E+00 0.  1.
<scales pt_clust_3="58.06870" pt_clust_4="161.48826" pt_clust_5="59.72426" pt_clust_6="58.06870"></scales>
<clustering>
<clus scale="   58.069">  3  6 -1 -1</clus>
<clus scale="   59.724">  2  5  1 -1</clus>
<clus scale="  161.488">  2  4  1 -1</clus>
<clus scale="  178.967">  1  3  2 -1</clus>
</clustering>
</event>
<event>
 6    0  0.2666600E+002  0.8641283E+02  0.7546771E-02  0.1311779E+00
         21   -1    0    0  506  501  0.00000000000E+00  0.00000000000E+00  0.49815772964E+03  0.49815772964E+03  0.00000000000E+00 0. -1.
         21   -1    0    0  505  502 -0.00000000000E+00 -0.00000000000E+00 -0.38495038504E+02  0.38495038504E+02  0.00000000000E+00 0. -1.
         21    1    1    2  503  502  0.33792055213E+02  0.66194075980E+01  0.14653372668E+02  0.37422464951E+02  0.00000000000E+00 0. -1.
         21    1    1    2  504  501 -0.80492470670E+02  0.38892289582E+02  0.17211267557E+03  0.19394437634E+03  0.00000000000E+00 0. -1.
         21    1    1    2  505  504 -0.38241994704E+02 -0.33910096017E+02  0.10077329690E+03  0.11299381460E+03  0.00000000000E+00 0. -1.
         21    1    1    2  506  503  0.84942410161E+02 -0.11601601163E+02  0.17212334600E+03  0.19229211225E+03  0.00000000000E+00 0. -1.
<scales pt_clust_3="34.43428" pt_clust_4="14000.00000" pt_clust_5="44.59686" pt_clust_6="86.41283"></scales>
<clustering>
<clus scale="   34.434">  2  3  1 -1</clus>
<clus scale="   44.597">  2  5  1 -1</clus>
<clus scale="   86.413">  1  6  2 -1</clus>
<clus scale="   86.413">  1  3  2 -1</clus>
</clustering>
</event>
<event>
 6    0  0.2666600E+002  0.1344889E+03  0.7546771E-02  0.1220943E+00
         21   -1    0    0  506  501  0.00000000000E+00  0.00000000000E+00  0.40599823558E+03  0.40599823558E+03  0.00000000000E+00 0.  1.
         21   -1    0    0  504  502 -0.00000000000E+00 -0.00000000000E+00 -0.78361806359E+02  0.78361806359E+02  0.00000000000E+00 0.  1.
         21    1    1    2  503  501  0.12678091815E+03 -0.32555684503E+02  0.29748926600E+03  0.32501251851E+03  0.00000000000E+00 0.  1.
         21    1    1    2  504  503 -0.29586347157E+02 -0.20613686130E+02  0.77680084031E+01  0.36886555119E+02  0.00000000000E+00 0.  1.
         21    1    1    2  505  502 -0.73242364355E+02  0.30006460852E+02 -0.50380426564E+01  0.79310866235E+02  0.00000000000E+00 0.  1.
         21    1    1    2  506  505 -0.23952206635E+02  0.23162909782E+02  0.27417197477E+02  0.43150102082E+02  0.00000000000E+00 0.  1.
<scales pt_clust_3="125.95696" pt_clust_4="36.05934" pt_clust_5="30.58490" pt_clust_6="30.58490"></scales>
<clustering>
<clus scale="   30.585">  5  6 -1 -1</clus>
<clus scale="   36.059">  2  4  1 -1</clus>
<clus scale="  125.957">  1  3  2 -1</clus>
<clus scale="  125.957">  1  3  2 -1</clus>
</clustering>
</event>
<event>
 6    0  0.2666600E+002  0.1564689E+03  0.7546771E-02  0.1192742E+00
         21   -1    0    0  503  501  0.00000000000E+00  0.00000000000E+00  0.94694832124E+03  0.94694832124E+03  0.00000000000E+00 0.  1.
         21   -1    0    0  506  502 -0.00000000000E+00 -0.00000000000E+00 -0.43137904353E+02  0.43137904353E+02  0.00000000000E+00 0.  1.
         21    1    1    2  503  505  0.58900884064E+02 -0.11049519854E+02  0.33925949517E+03  0.34451184464E+03  0.00000000000E+00 0.  1.
         21    1    1    2  504  502 -0.18658012996E+02  0.44181417555E+02  0.79930918899E+02  0.93215186006E+02  0.00000000000E+00 0.  1.
         21    1    1    2  505  504  0.93354429364E+02 -0.35232040629E+02  0.34486263597E+03  0.35900777687E+03  0.00000000000E+00 0.  1.
         21    1    1    2  506  501 -0.13359730043E+03  0.21001429273E+01  0.13975736685E+03  0.19335141808E+03  0.00000000000E+00 0.  1.
<scales pt_clust_3="30.93237" pt_clust_4="47.95956" pt_clust_5="30.93237" pt_clust_6="151.29252"></scales>
<clustering>
<clus scale="   30.932">  3  5 -1 -1</clus>
<clus scale="   47.960">  2  4  1 -1</clus>
<clus scale="  151.293">  2  6  1 -1</clus>
<clus scale="  156.469">  1  3  2 -1</clus>
</clustering>
</event>
<event>
 6    0  0.2666600E+002  0.1579857E+03  0.7546771E-02  0.1190990E+00
         21   -1    0    0  506  501  0.00000000000E+00  0.00000000000E+00  0.15914534508E+03  0.15914534508E+03  0.00000000000E+00 0. -1.
         21   -1    0    0  501  502 -0.00000000000E+00 -0.00000000000E+00 -0.55840304587E+03  0.55840304587E+03  0.00000000000E+00 0. -1.
         21    1    1    2  503  505 -0.61583513696E+02 -0.14029777973E+03  0.81578169804E+02  0.17358281581E+03  0.00000000000E+00 0. -1.
         21    1    1    2  504  502  0.50647143248E+02  0.40182713678E+02 -0.21821491910E+03  0.22759071711E+03  0.00000000000E+00 0. -1.
         21    1    1    2  505  504 -0.10079832220E+02  0.12775783516E+03 -0.24706510656E+03  0.27832505158E+03  0.00000000000E+00 0. -1.
         21    1    1    2  506  503  0.21016202668E+02 -0.27642769106E+02 -0.15555844932E+02  0.38049806438E+02  0.00000000000E+00 0. -1.
<scales pt_clust_3="157.98573" pt_clust_4="64.63789" pt_clust_5="14000.00000" pt_clust_6="34.72468"></scales>
<clustering>
<clus scale="   34.725">  1  6  2 -1</clus>
<clus scale="   64.638">  2  4  1 -1</clus>
<clus scale="  157.986">  1  3  2 -1</clus>
<clus scale="   34.725">  1  3  2 -1</clus>
</clustering>
</event>
<event>
 6    0  0.2666600E+002  0.1699225E+03  0.7546771E-02  0.1177929E+00
         21   -1    0    0  506  501  0.00000000000E+00  0.00000000000E+00  0.34864932421E+03  0.34864932421E+03  0.00000000000E+00 0. -1.
         21   -1    0    0  504  502 -0.00000000000E+00 -0.00000000000E+00 -0.48628383519E+03  0.48628383519E+03  0.00000000000E+00 0. -1.
         21    1    1    2  503  501  0.33074610347E+02 -0.13042305726E+03  0.29351720369E+03  0.32288767796E+03  0.00000000000E+00 0. -1.
         21    1    1    2  504  505  0.34593567965E+01  0.67206550942E+02 -0.23062476915E+03  0.24024252701E+03  0.00000000000E+00 0. -1.
         21    1    1    2  505  503 -0.32622637113E+01  0.99315324726E+02 -0.19929533408E+03  0.22269442354E+03  0.00000000000E+00 0. -1.
         21    1    1    2  506  502 -0.33271703432E+02 -0.36098818411E+02 -0.12316114457E+01  0.49108530895E+02  0.00000000000E+00 0.  1.
<scales pt_clust_3="164.69338" pt_clust_4="34.42358" pt_clust_5="34.42358" pt_clust_6="49.09308"></scales>
<clustering>
<clus scale="   34.424">  4  5 -1 -1</clus>
<clus scale="   49.093">  1  6  2 -1</clus>
<clus scale="  164.693">  1  3  2 -1</clus>
<clus scale="   49.093">  1  3  2 -1</clus>
</clustering>
</event>
<event>
 6    0  0.2666600E+002  0.1855325E+03  0.7546771E-02  0.1162554E+00
         21   -1    0    0  504  501  0.00000000000E+00  0.00000000000E+00  0.70455672718E+03  0.70455672718E+03  0.00000000000E+00 0.  1.
         21   -1    0    0  505  502 -0.00000000000E+00 -0.00000000000E+00 -0.98852250446E+02  0.98852250446E+02  0.00000000000E+00 0. -1.
         21    1    1    2  503  501  0.23772262340E+02  0.40045872066E+02  0.21571572409E+02  0.51323728065E+02  0.00000000000E+00 0. -1.
         21    1    1    2  504  506 -0.16688956019E+02 -0.12739150350E+03  0.49922426635E+03  0.51549198299E+03  0.00000000000E+00 0.  1.
         21    1    1    2  505  503  0.12822657483E+02  0.13189862912E+03 -0.68164913429E+01  0.13269564222E+03  0.00000000000E+00 0. -1.
         21    1    1    2  506  502 -0.19905963804E+02 -0.44552997688E+02  0.91725129321E+02  0.10389762436E+03  0.00000000000E+00 0.  1.
<scales pt_clust_3="31.03792" pt_clust_4="36.55460" pt_clust_5="183.42687" pt_clust_6="36.55460"></scales>
<clustering>
<clus scale="   31.038">  3  5 -1 -1</clus>
<clus scale="   36.555">  4  6 -1 -1</clus>
<clus scale="  183.427">  2  3  1 -1</clus>
<clus scale="  185.532">  1  3  2 -1</clus>
</clustering>
</event>
<event>
 6    0  0.3460981E+002  0.1326138E+03  0.7546771E-02  0.1223628E+00
         21   -1    0    0  505  501  0.00000000000E+00  0.00000000000E+00  0.73638692853E+03  0.73638692853E+03  0.00000000000E+00 0.  1.
         21   -1    0    0  504  502 -0.00000000000E+00 -0.00000000000E+00 -0.77431837706E+03  0.77431837706E+03  0.00000000000E+00 0.  1.
         21    1    1    2  503  502 -0.42663064061E+02  0.10698319347E+03 -0.72458154066E+03  0.73367836944E+03  0.00000000000E+00 0.  1.
         21    1    1    2  504  501 -0.30165965849E+02 -0.11885672081E+02 -0.32400798509E+02  0.45837391292E+02  0.00000000000E+00 0.  1.
         21    1    1    2  505  506  0.68981884728E+02 -0.46931653172E+02  0.49562498551E+03  0.50259845479E+03  0.00000000000E+00 0.  1.
         21    1    1    2  506  503  0.38471451821E+01 -0.48165868213E+02  0.22342590511E+03  0.22859109008E+03  0.00000000000E+00 0.  1.
<scales pt_clust_3="119.70826" pt_clust_4="32.42306" pt_clust_5="43.46424" pt_clust_6="43.46424"></scales>
<clustering>
<clus scale="   32.423">  2  4  1 -1</clus>
<clus scale="   43.464">  5  6 -1 -1</clus>
<clus scale="  119.708">  2  3  1 -1</clus>
<clus scale="  132.614">  1  3  2 -1</clus>
</clustering>
</event>
<event>
 6    0  0.2852423E+002  0.1098402E+03  0.7546771E-02  0.1260866E+00
         21   -1    0    0  506  501  0.00000000000E+00  0.00000000000E+00  0.89515865569E+03  0.89515865569E+03  0.00000000000E+00 0.  1.
         21   -1    0    0  505  502 -0.00000000000E+00 -0.00000000000E+00 -0.68509452301E+03  0.68509452301E+03  0.00000000000E+00 0.  1.
         21    1    1    2  503  501  0.45646642914E+02  0.84237368569E+02  0.34660336012E+02  0.10188664861E+03  0.00000000000E+00 0. -1.
         21    1    1    2  504  502 -0.25074817695E+02  0.38142421360E+02 -0.72030635516E+02  0.85276041433E+02  0.00000000000E+00 0.  1.
         21    1    1    2  505  503 -0.79833321355E+02  0.22238202872E+01 -0.56419338427E+03  0.56981793534E+03  0.00000000000E+00 0.  1.
         21    1    1    2  506  504  0.59261496135E+02 -0.12460361022E+03  0.81162781645E+03  0.82327255331E+03  0.00000000000E+00 0.  1.
<scales pt_clust_3="97.03219" pt_clust_4="45.64637" pt_clust_5="109.84025" pt_clust_6="14000.00000"></scales>
<clustering>
<clus scale="   45.646">  2  4  1 -1</clus>
<clus scale="   97.032">  1  3  2 -1</clus>
<clus scale="  109.840">  2  5  1 -1</clus>
<clus scale="   97.032">  1  3  2 -1</clus>
</clustering>
</event>
<event>
 6    0  0.2666600E+002  0.1554045E+03  0.7546771E-02  0.1193985E+00
         21   -1    0    0  504  501  0.00000000000E+00  0.00000000000E+00  0.34303213024E+03  0.34303213024E+03  0.00000000000E+00 0.  1.
         21   -1    0    0  506  502 -0.00000000000E+00 -0.00000000000E+00 -0.16872965483E+03  0.16872965483E+03  0.00000000000E+00 0.  1.
         21    1    1    2  503  502 -0.18815217078E+00  0.11780440777E+03 -0.81845318313E+02  0.14344535553E+03  0.00000000000E+00 0.  1.
         21    1    1    2  504  505 -0.46241861977E+02 -0.28643643502E+02  0.80615399276E+02  0.97250247880E+02  0.00000000000E+00 0.  1.
         21    1    1    2  505  503  0.28249760316E+02  0.31385327005E+02 -0.15049960594E+02  0.44828439890E+02  0.00000000000E+00 0.  1.
         21    1    1    2  506  501  0.18180253831E+02 -0.12054609128E+03  0.19058235504E+03  0.22623774178E+03  0.00000000000E+00 0.  1.
<scales pt_clust_3="32.86495" pt_clust_4="54.39456" pt_clust_5="32.86495" pt_clust_6="145.38665"></scales>
<clustering>
<clus scale="   32.865">  3  5 -1 -1</clus>
<clus scale="   54.395">  1  4  2 -1</clus>
<clus scale="  145.387">  1  6  2 -1</clus>
<clus scale="   54.395">  1  3  2 -1</clus>
</clustering>
</event>
<event>
 6    0  0.2666600E+002  0.1775328E+03  0.7546771E-02  0.1170212E+00
         21   -1    0    0  504  501  0.00000000000E+00  0.00000000000E+00  0.99827653870E+02  0.99827653870E+02  0.00000000000E+00 0. -1.
         21   -1    0    0  505  502 -0.00000000000E+00 -0.00000000000E+00 -0.42636668886E+03  0.42636668886E+03  0.00000000000E+00 0.  1.
         21    1    1    2  503  501  0.14044946014E+03 -0.77254957163E+02 -0.93197914805E+02  0.18541906748E+03  0.00000000000E+00 0.  1.
         21    1    1    2  504  502  0.82608321062E+01 -0.39950795257E+02 -0.91261917370E+02  0.99965218706E+02  0.00000000000E+00 0.  1.
         21    1    1    2  505  506 -0.86836268057E+02  0.56131632132E+02 -0.10141071391E+03  0.14482896973E+03  0.00000000000E+00 0. -1.
         21    1    1    2  506  503 -0.61874024188E+02  0.61074120289E+02 -0.40668488904E+02  0.95981086825E+02  0.00000000000E+00 0.  1.
<scales pt_clust_3="171.95017" pt_clust_4="40.79592" pt_clust_5="40.50270" pt_clust_6="40.50270"></scales>
<clustering>
<clus scale="   40.503">  5  6 -1 -1</clus>
<clus scale="   40.796">  2  4  1 -1</clus>
<clus scale="  171.950">  1  3  2 -1</clus>
<clus scale="  171.950">  1  3  2 -1</clus>
</clustering>
</event>
<event>
 6    0  0.2666600E+002  0.1084892E+03  0.7546771E-02  0.1263393E+00
         21   -1    0    0  504  501  0.00000000000E+00  0.00000000000E+00  0.62910992530E+03  0.62910992530E+03  0.00000000000E+00 0.  1.
         21   -1    0    0  505  502 -0.00000000000E+00 -0.00000000000E+00 -0.11505156418E+04  0.11505156418E+04  0.00000000000E+00 0. -1.
         21    1    1    2  503  502  0.33802279890E+02 -0.33143697691E+02 -0.74417523572E+03  0.74567947557E+03  0.00000000000E+00 0. -1.
         21    1    1    2  504  506  0.62214588289E+02 -0.45257798452E+02  0.30729959514E+03  0.31678378192E+03  0.00000000000E+00 0.  1.
         21    1    1    2  505  501 -0.13944772140E+03  0.10821333806E+03  0.28970304712E+03  0.33923981053E+03  0.00000000000E+00 0. -1.
         21    1    1    2  506  503  0.43430853217E+02 -0.29811841913E+02 -0.37423312305E+03  0.37792249909E+03  0.00000000000E+00 0.  1.
<scales pt_clust_3="39.26733" pt_clust_4="76.93454" pt_clust_5="100.27029" pt_clust_6="39.26733"></scales>
<clustering>
<clus scale="   39.267">  3  6 -1 -1</clus>
<clus scale="   76.935">  1  4  2 -1</clus>
<clus scale="  100.270">  1  5  2 -1</clus>
<clus scale="   76.935">  1  3  2 -1</clus>
</clustering>
</event>
<event>
 6    0  0.2666600E+002  0.1475500E+03  0.7546771E-02  0.1203516E+00
         21   -1    0    0  503  501  0.00000000000E+00  0.00000000000E+00  0.39032958092E+03  0.39032958092E+03  0.00000000000E+00 0. -1.
         21   -1    0    0  504  502 -0.00000000000E+00 -0.00000000000E+00 -0.94082622060E+03  0.94082622060E+03  0.00000000000E+00 0.  1.
         21    1    1    2  503  505  0.73412343554E+01  0.49932697322E+02  0.30889939663E+02  0.59172260022E+02  0.00000000000E+00 0. -1.
         21    1    1    2  504  506  0.56046510103E+02 -0.12588462706E+03 -0.25715072009E+03  0.29174414042E+03  0.00000000000E+00 0. -1.
         21    1    1    2  505  502 -0.17302695197E+03  0.28601037971E+02 -0.62895759744E+03  0.65295023154E+03  0.00000000000E+00 0.  1.
         21    1    1    2  506  501  0.10963920751E+03  0.47350891763E+02  0.30472173819E+03  0.32728916955E+03  0.00000000000E+00 0. -1.
<scales pt_clust_3="50.46948" pt_clust_4="135.66882" pt_clust_5="14000.00000" pt_clust_6="147.55001"></scales>
<clustering>
<clus scale="   50.469">  1  3  2 -1</clus>
<clus scale="  135.669">  2  4  1 -1</clus>
<clus scale="  147.550">  1  6  2 -1</clus>
<clus scale="   50.469">  1  3  2 -1</clus>
</clustering>
</event>
<event>
 6    0  0.2666600E+002  0.1991205E+03  0.7546771E-02  0.1150483E+00
         21   -1    0    0  504  501  0.00000000000E+00  0.00000000000E+00  0.56610487778E+02  0.56610487778E+02  0.00000000000E+00 0. -1.
         21   -1    0    0  505  502 -0.00000000000E+00 -0.00000000000E+00 -0.14396970999E+04  0.14396970999E+04  0.00000000000E+00 0. -1.
         21    1    1    2  503  502  0.39229244925E+02 -0.12169491000E+03 -0.10107956451E+04  0.10188505390E+04  0.00000000000E+00 0. -1.
         21    1    1    2  504  506  0.18971515286E+02  0.47531985778E+02 -0.21707135005E+02  0.55591436160E+02  0.00000000000E+00 0.  1.
         21    1    1    2  505  501  0.45391504966E+01 -0.66115153936E+02 -0.18232014546E+03  0.19399085779E+03  0.00000000000E+00 0. -1.
         21    1    1    2  506  503 -0.62739910708E+02  0.14027807816E+03 -0.16826368660E+03  0.22787475471E+03  0.00000000000E+00 0. -1.
<scales pt_clust_3="180.48013" pt_clust_4="48.54440" pt_clust_5="66.27079" pt_clust_6="48.54440"></scales>
<clustering>
<clus scale="   48.544">  4  6 -1 -1</clus>
<clus scale="   66.271">  2  5  1 -1</clus>
<clus scale="  180.480">  2  3  1 -1</clus>
<clus scale="  199.120">  1  3  2 -1</clus>
</clustering>
</event>
<event>
 6    0  0.2666600E+002  0.8142785E+02  0.7546771E-02  0.1325048E+00
         21   -1    0    0  506  501  0.00000000000E+00  0.00000000000E+00  0.84751076186E+03  0.84751076186E+03  0.00000000000E+00 0.  1.
         21   -1    0    0  503  502 -0.00000000000E+00 -0.00000000000E+00 -0.11808346596E+03  0.11808346596E+03  0.00000000000E+00 0. -1.
         21    1    1    2  503  504 -0.52774563349E+01 -0.34569956602E+02 -0.29466721868E+02  0.45729871446E+02  0.00000000000E+00 0. -1.
         21    1    1    2  504  501  0.10895057538E+03  0.12226543558E+02  0.60507101401E+03  0.61492328646E+03  0.00000000000E+00 0.  1.
         21    1    1    2  505  502 -0.66847143311E+02  0.68197982723E+02 -0.39146658966E+02  0.10320836364E+03  0.00000000000E+00 0. -1.
         21    1    1    2  506  505 -0.36825975739E+02 -0.45854569679E+02  0.19296966272E+03  0.20173270628E+03  0.00000000000E+00 0.  1.
<scales pt_clust_3="34.97047" pt_clust_4="81.42785" pt_clust_5="14000.00000" pt_clust_6="60.46627"></scales>
<clustering>
<clus scale="   34.970">  2  3  1 -1</clus>
<clus scale="   60.466">  1  6  2 -1</clus>
<clus scale="   81.428">  1  4  2 -1</clus>
<clus scale="   60.466">  1  3  2 -1</clus>
</clustering>
</event>
<event>
 6    0  0.2666600E+002  0.1091378E+03  0.7546771E-02  0.1262175E+00
         21   -1    0    0  505  501  0.00000000000E+00  0.00000000000E+00  0.16893625823E+04  0.16893625823E+04  0.00000000000E+00 0. -1.
         21   -1    0    0  503  502 -0.00000000000E+00 -0.00000000000E+00 -0.20887634996E+03  0.20887634996E+03  0.00000000000E+00 0.  1.
         21    1    1    2  503  506 -0.78013200102E+02  0.57008856599E+02  0.81994031412E+01  0.96970610665E+02  0.00000000000E+00 0. -1.
         21    1    1    2  504  501 -0.61749312238E+02  0.97098041615E+02  0.12793075276E+04  0.12844721708E+04  0.00000000000E+00 0. -1.
         21    1    1    2  505  502  0.10330285795E+03  0.42657323015E+01  0.30325718151E+03  0.32039755784E+03  0.00000000000E+00 0.  1.
         21    1    1    2  506  504  0.36459654393E+02 -0.15837263051E+03 -0.11027787998E+03  0.19639859293E+03  0.00000000000E+00 0.  1.
<scales pt_clust_3="96.62334" pt_clust_4="109.13785" pt_clust_5="99.50172" pt_clust_6="14000.00000"></scales>
<clustering>
<clus scale="   96.623">  2  3  1 -1</clus>
<clus scale="   99.502">  1  5  2 -1</clus>
<clus scale="  109.138">  1  4  2 -1</clus>
<clus scale="   99.502">  1  3  2 -1</clus>
</clustering>
</event>
<event>
 6    0  0.2666600E+002  0.9294863E+02  0.7546771E-02  0.1295864E+00
         21   -1    0    0  503  501  0.00000000000E+00  0.00000000000E+00  0.30342460232E+04  0.30342460232E+04  0.00000000000E+00 0.  1.
         21   -1    0    0  505  502 -0.00000000000E+00 -0.00000000000E+00 -0.19793598049E+02  0.19793598049E+02  0.00000000000E+00 0.  1.
         21    1    1    2  503  506  0.72595546183E+01  0.45396727119E+02  0.12266119396E+04  0.12274731827E+04  0.00000000000E+00 0.  1.
         21    1    1    2  504  501 -0.25965157469E+02 -0.50088166816E+02  0.10367750651E+04  0.10383089855E+04  0.00000000000E+00 0.  1.
         21    1    1    2  505  504  0.29056166310E+02 -0.88096639144E+02  0.62246761327E+03  0.62934188499E+03  0.00000000000E+00 0.  1.
         21    1    1    2  506  502 -0.10350563460E+02  0.92788078841E+02  0.12859780727E+03  0.15891556806E+03  0.00000000000E+00 0.  1.
<scales pt_clust_3="45.97351" pt_clust_4="32.43973" pt_clust_5="14000.00000" pt_clust_6="92.94863"></scales>
<clustering>
<clus scale="   45.974">  1  3  2 -1</clus>
<clus scale="   32.440">  1  4  2 -1</clus>
<clus scale="   92.949">  2  6  1 -1</clus>
<clus scale="   45.974">  1  3  2 -1</clus>
</clustering>
</event>
<event>
 6    0  0.2666600E+002  0.2442937E+03  0.7546771E-02  0.1116965E+00
         21   -1    0    0  504  501  0.00000000000E+00  0.00000000000E+00  0.47466494918E+03  0.47466494918E+03  0.00000000000E+00 0. -1.
         21   -1    0    0  506  502 -0.00000000000E+00 -0.00000000000E+00 -0.52253735790E+03  0.52253735790E+03  0.00000000000E+00 0. -1.
         21    1    1    2  503  505 -0.14162367328E+03  0.62572257065E+02 -0.32230792917E+03  0.35756811015E+03  0.00000000000E+00 0. -1.
         21    1    1    2  504  502  0.32622178591E+03  0.42336259349E+01  0.18342260981E+03  0.37427587549E+03  0.00000000000E+00 0. -1.
         21    1    1    2  505  501 -0.17781786022E+03 -0.99439286722E+02  0.10501502594E+03  0.22920628009E+03  0.00000000000E+00 0. -1.
         21    1    1    2  506  503 -0.67802524057E+01  0.32633403722E+02 -0.14002115302E+02  0.36152041354E+02  0.00000000000E+00 0.  1.
<scales pt_clust_3="169.09873" pt_clust_4="14000.00000" pt_clust_5="244.29368" pt_clust_6="33.33033"></scales>
<clustering>
<clus scale="   33.330">  2  6  1 -1</clus>
<clus scale="  169.099">  2  3  1 -1</clus>
<clus scale="  244.294">  1  5  2 -1</clus>
<clus scale="  244.294">  1  3  2 -1</clus>
</clustering>
</event>
<event>
 6    0  0.2666600E+002  0.2169699E+03  0.7546771E-02  0.1136162E+00
         21   -1    0    0  504  501  0.00000000000E+00  0.00000000000E+00  0.10497354936E+03  0.10497354936E+03  0.00000000000E+00 0.  1.
         21   -1    0    0  503  502 -0.00000000000E+00 -0.00000000000E+00 -0.20687710538E+04  0.20687710538E+04  0.00000000000E+00 0.  1.
         21    1    1    2  503  501  0.35810615741E+01 -0.18785220530E+03 -0.11599138785E+03  0.22080597160E+03  0.00000000000E+00 0.  1.
         21    1    1    2  504  506 -0.16551372150E+02 -0.40266545460E+02  0.32335029605E+02  0.54230035431E+02  0.00000000000E+00 0.  1.
         21    1    1    2  505  502  0.43872335063E+02  0.40467003832E+02 -0.22896949981E+03  0.23662077682E+03  0.00000000000E+00 0. -1.
         21    1    1    2  506  505 -0.30902024488E+02  0.18765174693E+03 -0.16511716463E+04  0.16620878193E+04  0.00000000000E+00 0.  1.
<scales pt_clust_3="216.96987" pt_clust_4="43.53553" pt_clust_5="57.24938" pt_clust_6="14000.00000"></scales>
<clustering>
<clus scale="   43.536">  1  4  2 -1</clus>
<clus scale="   57.249">  2  5  1 -1</clus>
<clus scale="  216.970">  1  3  2 -1</clus>
<clus scale="   43.536">  1  3  2 -1</clus>
</clustering>
</event>
<event>
 6    0  0.2666600E+002  0.9399494E+02  0.7546771E-02  0.1293456E+00
         21   -1    0    0  503  501  0.00000000000E+00  0.00000000000E+00  0.83555150379E+02  0.83555150379E+02  0.00000000000E+00 0.  1.
         21   -1    0    0  504  502 -0.00000000000E+00 -0.00000000000E+00 -0.70496803448E+03  0.70496803448E+03  0.00000000000E+00 0.  1.
         21    1    1    2  503  505 -0.43678074351E+01 -0.48994934466E+02  0.37410332181E+02  0.61798982993E+02  0.00000000000E+00 0.  1.
         21    1    1    2  504  501  0.92510303159E+02  0.45134583839E+02 -0.45461345541E+03  0.46612088635E+03  0.00000000000E+00 0.  1.
         21    1    1    2  505  506 -0.23742173071E+02 -0.33298245260E+02  0.24563075980E+01  0.40969468712E+02  0.00000000000E+00 0.  1.
         21    1    1    2  506  502 -0.64400322653E+02  0.37158595888E+02 -0.20666606847E+03  0.21963384681E+03  0.00000000000E+00 0.  1.
<scales pt_clust_3="34.23438" pt_clust_4="86.17065" pt_clust_5="34.23438" pt_clust_6="74.35162"></scales>
<clustering>
<clus scale="   34.234">  3  5 -1 -1</clus>
<clus scale="   74.352">  2  6  1 -1</clus>
<clus scale="   86.171">  2  4  1 -1</clus>
<clus scale="   93.995">  1  3  2 -1</clus>
</clustering>
</event>
<event>
 6    0  0.2666600E+002  0.6979771E+02  0.7546771E-02  0.1360782E+00
         21   -1    0    0  505  501  0.00000000000E+00  0.00000000000E+00  0.20670329332E+04  0.20670329332E+04  0.00000000000E+00 0. -1.
         21   -1    0    0  503  502 -0.00000000000E+00 -0.00000000000E+00 -0.60588909550E+03  0.60588909550E+03  0.00000000000E+00 0. -1.
         21    1    1    2  503  501 -0.82263729989E+02 -0.65103122234E+02  0.30299664715E+03  0.32064420465E+03  0.00000000000E+00 0.  1.
         21    1    1    2  504  506  0.94819409201E+01  0.69833499301E+02 -0.15456311682E+01  0.70491232107E+02  0.00000000000E+00 0.  1.
         21    1    1    2  505  504  0.28162385014E+02  0.50652064685E+02  0.17179952512E+04  0.17189724939E+04  0.00000000000E+00 0. -1.
         21    1    1    2  506  502  0.44619404055E+02 -0.55382441753E+02 -0.55830242954E+03  0.56281409799E+03  0.00000000000E+00 0. -1.
<scales pt_clust_3="60.40245" pt_clust_4="14000.00000" pt_clust_5="57.95474" pt_clust_6="69.79771"></scales>
<clustering>
<clus scale="   57.955">  1  5  2 -1</clus>
<clus scale="   60.402">  1  3  2 -1</clus>
<clus scale="   69.798">  2  6  1 -1</clus>
<clus scale="   57.955">  1  3  2 -1</clus>
</clustering>
</event>
<event>
 6    0  0.2666600E+002  0.1632239E+03  0.7546771E-02  0.1185104E+00
         21   -1    0    0  506  501  0.00000000000E+00  0.00000000000E+00  0.61129578259E+02  0.61129578259E+02  0.00000000000E+00 0. -1.
         21   -1    0    0  505  502 -0.00000000000E+00 -0.00000000000E+00 -0.10341561843E+04  0.10341561843E+04  0.00000000000E+00 0. -1.
         21    1    1    2  503  501  0.56798545186E+02  0.56209047460E+02 -0.11108388510E+03  0.13683991114E+03  0.00000000000E+00 0. -1.
         21    1    1    2  504  502 -0.82845879487E+02 -0.66065314018E+02 -0.61606581038E+03  0.62511210849E+03  0.00000000000E+00 0. -1.
         21    1    1    2  505  503  0.81976645882E+02  0.45804427866E+02 -0.17559499806E+02  0.95532989672E+02  0.00000000000E+00 0. -1.
         21    1    1    2  506  504 -0.55929311581E+02 -0.35948161307E+02 -0.22831741073E+03  0.23780075324E+03  0.00000000000E+00 0. -1.
<scales pt_clust_3="79.90952" pt_clust_4="35.16026" pt_clust_5="157.07250" pt_clust_6="35.16026"></scales>
<clustering>
<clus scale="   35.160">  4  6 -1 -1</clus>
<clus scale="   79.910">  1  3  2 -1</clus>
<clus scale="  157.072">  1  5  2 -1</clus>
<clus scale="   79.910">  1  3  2 -1</clus>
</clustering>
</event>
<event>
 6    0  0.2666600E+002  0.9525735E+02  0.7546771E-02  0.1290598E+00
         21   -1    0    0  503  501  0.00000000000E+00  0.00000000000E+00  0.76654196907E+02  0.76654196907E+02  0.00000000000E+00 0.  1.
         21   -1    0    0  506  502 -0.00000000000E+00 -0.00000000000E+00 -0.30098954494E+03  0.30098954494E+03  0.00000000000E+00 0. -1.
         21    1    1    2  503  504  0.65228717231E+01 -0.53569664521E+02 -0.36049900554E+02  0.64898783828E+02  0.00000000000E+00 0. -1.
         21    1    1    2  504  502 -0.70480935220E+02 -0.39720529251E+02 -0.17203022538E+03  0.19010439531E+03  0.00000000000E+00 0. -1.
         21    1    1    2  505  501  0.54266157650E+02  0.45490799555E+02  0.12497155249E+01  0.70822245793E+02  0.00000000000E+00 0.  1.
         21    1    1    2  506  505  0.96919058461E+01  0.47799394217E+02 -0.17504937625E+02  0.51818316913E+02  0.00000000000E+00 0.  1.
<scales pt_clust_3="53.96533" pt_clust_4="84.20915" pt_clust_5="36.95490" pt_clust_6="36.95490"></scales>
<clustering>
<clus scale="   36.955">  5  6 -1 -1</clus>
<clus scale="   53.965">  1  3  2 -1</clus>
<clus scale="   84.209">  2  4  1 -1</clus>
<clus scale="   53.965">  1  3  2 -1</clus>
</clustering>
</event>
<event>
 6    0  0.2666600E+002  0.9532865E+02  0.7546771E-02  0.1290438E+00
         21   -1    0    0  504  501  0.00000000000E+00  0.00000000000E+00  0.32774949542E+03  0.32774949542E+03  0.00000000000E+00 0. -1.
         21   -1    0    0  506  502 -0.00000000000E+00 -0.00000000000E+00 -0.13417465453E+03  0.13417465453E+03  0.00000000000E+00 0. -1.
         21    1    1    2  503  502  0.41946542749E+02 -0.16492343439E+01  0.70994093170E+01  0.42575040049E+02  0.00000000000E+00 0. -1.
         21    1    1    2  504  505  0.27621968721E+02 -0.15053588623E+02  0.40228067533E+02  0.51067417243E+02  0.00000000000E+00 0. -1.
         21    1    1    2  505  503 -0.66392797944E+02 -0.74706889641E+02  0.22588299131E+03  0.24700657631E+03  0.00000000000E+00 0. -1.
         21    1    1    2  506  501 -0.31757135258E+01  0.91409712607E+02 -0.79635627263E+02  0.12127511635E+03  0.00000000000E+00 0. -1.
<scales pt_clust_3="44.47806" pt_clust_4="31.45765" pt_clust_5="95.32865" pt_clust_6="14000.00000"></scales>
<clustering>
<clus scale="   31.458">  1  4  2 -1</clus>
<clus scale="   44.478">  2  3  1 -1</clus>
<clus scale="   95.329">  1  5  2 -1</clus>
<clus scale="   31.458">  1  3  2 -1</clus>
</clustering>
</event>
<event>
 6    0  0.2666600E+002  0.7472708E+02  0.7546771E-02  0.1344718E+00
         21   -1    0    0  503  501  0.00000000000E+00  0.00000000000E+00  0.27550314235E+03  0.27550314235E+03  0.00000000000E+00 0. -1.
         21   -1    0    0  505  502 -0.00000000000E+00 -0.00000000000E+00 -0.12932981978E+03  0.12932981978E+03  0.00000000000E+00 0.  1.
         21    1    1    2  503  502 -0.82016821555E+02  0.12649394846E+02 -0.66954400679E+02  0.10662859831E+03  0.00000000000E+00 0.  1.
         21    1    1    2  504  501 -0.36461156735E+02  0.53041972110E+01  0.47180612502E+02  0.59862848700E+02  0.00000000000E+00 0. -1.
         21    1    1    2  505  506  0.23007029988E+02  0.22786014563E+02 -0.10145003279E+02  0.33932977766E+02  0.00000000000E+00 0. -1.
         21    1    1    2  506  504  0.95470948302E+02 -0.40739606620E+02  0.17609211403E+03  0.20440853735E+03  0.00000000000E+00 0. -1.
<scales pt_clust_3="14000.00000" pt_clust_4="35.72593" pt_clust_5="32.38095" pt_clust_6="74.72708"></scales>
<clustering>
<clus scale="   32.381">  2  5  1 -1</clus>
<clus scale="   35.726">  1  4  2 -1</clus>
<clus scale="   74.727">  1  6  2 -1</clus>
<clus scale="   35.726">  1  3  2 -1</clus>
</clustering>
</event>
<event>
 6    0  0.2666600E+002  0.8642935E+02  0.7546771E-02  0.1311736E+00
         21   -1    0    0  506  501  0.00000000000E+00  0.00000000000E+00  0.41716865206E+03  0.41716865206E+03  0.00000000000E+00 0. -1.
         21   -1    0    0  505  502 -0.00000000000E+00 -0.00000000000E+00 -0.15372010036E+04  0.15372010036E+04  0.00000000000E+00 0. -1.
         21    1    1    2  503  501 -0.16964827384E+02  0.67156187354E+02 -0.16282080856E+02  0.71153812443E+02  0.00000000000E+00 0. -1.
         21    1    1    2  504  502 -0.58953156550E+02  0.41619707532E+02 -0.11992901691E+04  0.12014593561E+04  0.00000000000E+00 0. -1.
         21    1    1    2  505  503 -0.27591236068E+02 -0.74054009001E+02 -0.27985939824E+03  0.29080329321E+03  0.00000000000E+00 0. -1.
         21    1    1    2  506  504  0.10350922000E+03 -0.34721885885E+02  0.37539929659E+03  0.39095319395E+03  0.00000000000E+00 0. -1.
<scales pt_clust_3="69.26586" pt_clust_4="72.31068" pt_clust_5="14000.00000" pt_clust_6="86.42935"></scales>
<clustering>
<clus scale="   69.266">  1  3  2 -1</clus>
<clus scale="   72.311">  2  4  1 -1</clus>
<clus scale="   86.429">  1  6  2 -1</clus>
<clus scale="   69.266">  1  3  2 -1</clus>
</clustering>
</event>
<event>
 6    0  0.2666600E+002  0.9457091E+02  0.7546771E-02  0.1292145E+00
         21   -1    0    0  503  501  0.00000000000E+00  0.00000000000E+00  0.16497012021E+03  0.16497012021E+03  0.00000000000E+00 0.  1.
         21   -1    0    0  505  502 -0.00000000000E+00 -0.00000000000E+00 -0.21704274701E+03  0.21704274701E+03  0.00000000000E+00 0.  1.
         21    1    1    2  503  504  0.52396096106E+02 -0.88728655206E+02  0.76152701329E+02  0.12813024257E+03  0.00000000000E+00 0.  1.
         21    1    1    2  504  502 -0.12716391272E+02  0.85850562552E+02 -0.83484764497E+02  0.12042313565E+03  0.00000000000E+00 0.  1.
         21    1    1    2  505  506 -0.74064271408E+02 -0.24673051536E+02 -0.43529955501E+02  0.89381948945E+02  0.00000000000E+00 0.  1.
         21    1    1    2  506  501  0.34384566574E+02  0.27551144190E+02 -0.12106081309E+01  0.44077540048E+02  0.00000000000E+00 0.  1.
<scales pt_clust_3="94.57091" pt_clust_4="14000.00000" pt_clust_5="71.50618" pt_clust_6="44.06091"></scales>
<clustering>
<clus scale="   44.061">  1  6  2 -1</clus>
<clus scale="   71.506">  2  5  1 -1</clus>
<clus scale="   94.571">  1  3  2 -1</clus>
<clus scale="   44.061">  1  3  2 -1</clus>
</clustering>
</event>
<event>
 6    0  0.5810730E+002  0.1084821E+03  0.7546771E-02  0.1263407E+00
         21   -1    0    0  503  501  0.00000000000E+00  0.00000000000E+00  0.23817413069E+03  0.23817413069E+03  0.00000000000E+00 0. -1.
         21   -1    0    0  504  502 -0.00000000000E+00 -0.00000000000E+00 -0.88836181515E+03  0.88836181515E+03  0.00000000000E+00 0.  1.
         21    1    1    2  503  505 -0.96065790705E+02  0.51887315541E+02  0.20180654551E+03  0.22944892998E+03  0.00000000000E+00 0. -1.
         21    1    1    2  504  501  0.89275168556E+02  0.22230277699E+02 -0.78985714327E+03  0.79519717539E+03  0.00000000000E+00 0.  1.
         21    1    1    2  505  506  0.18475386344E+01 -0.38389001837E+02 -0.12267888070E+02  0.40343895930E+02  0.00000000000E+00 0. -1.
         21    1    1    2  506  502  0.49430835149E+01 -0.35728591403E+02 -0.49869198630E+02  0.61545944548E+02  0.00000000000E+00 0. -1.
<scales pt_clust_3="108.48206" pt_clust_4="14000.00000" pt_clust_5="80.74975" pt_clust_6="30.34203"></scales>
<clustering>
<clus scale="   30.342">  5  6 -1 -1</clus>
<clus scale="   80.750">  2  5  1 -1</clus>
<clus scale="  108.482">  1  3  2 -1</clus>
<clus scale="  108.482">  1  3  2 -1</clus>
</clustering>
</event>
<event>
 6    0  0.2666600E+002  0.1239242E+03  0.7546771E-02  0.1236760E+00
         21   -1    0    0  504  501  0.00000000000E+00  0.00000000000E+00  0.15235559858E+04  0.15235559858E+04  0.00000000000E+00 0. -1.
         21   -1    0    0  506  502 -0.00000000000E+00 -0.00000000000E+00 -0.41651142504E+02  0.41651142504E+02  0.00000000000E+00 0. -1.
         21    1    1    2  503  501  0.28795217273E+02  0.37835553649E+02  0.40794688748E+03  0.41070835962E+03  0.00000000000E+00 0. -1.
         21    1    1    2  504  502  0.96412235489E+01 -0.34595621929E+02  0.84762196687E+02  0.92056722923E+02  0.00000000000E+00 0. -1.
         21    1    1    2  505  503  0.10154094917E+02  0.75665754147E+02  0.96316853369E+03  0.96618944120E+03  0.00000000000E+00 0. -1.
         21    1    1    2  506  505 -0.48590535739E+02 -0.78905685867E+02  0.26027225475E+02  0.96252604595E+02  0.00000000000E+00 0. -1.
<scales pt_clust_3="30.46723" pt_clust_4="35.91393" pt_clust_5="30.46723" pt_clust_6="117.75716"></scales>
<clustering>
<clus scale="   30.467">  3  5 -1 -1</clus>
<clus scale="   35.914">  2  4  1 -1</clus>
<clus scale="  117.757">  2  6  1 -1</clus>
<clus scale="  123.924">  1  3  2 -1</clus>
</clustering>
</event>
<event>
 6    0  0.2666600E+002  0.1321050E+03  0.7546771E-02  0.1224365E+00
         21   -1    0    0  504  501  0.00000000000E+00  0.00000000000E+00  0.78802086486E+03  0.78802086486E+03  0.00000000000E+00 0. -1.
         21   -1    0    0  505  502 -0.00000000000E+00 -0.00000000000E+00 -0.50898841550E+02  0.50898841550E+02  0.00000000000E+00 0. -1.
         21    1    1    2  503  501 -0.43711161324E+02  0.31356820623E+02  0.18304048047E+03  0.19078189986E+03  0.00000000000E+00 0. -1.
         21    1    1    2  504  502  0.63537041307E+02 -0.72965460125E+01  0.59509974818E+02  0.87359214194E+02  0.00000000000E+00 0. -1.
         21    1    1    2  505  506  0.24781325126E+02 -0.96301421863E+02  0.56119679914E+02  0.11418185671E+03  0.00000000000E+00 0. -1.
         21    1    1    2  506  503 -0.44607205109E+02  0.72241147253E+02  0.43845188811E+03  0.44659673565E+03  0.00000000000E+00 0. -1.
<scales pt_clust_3="30.47818" pt_clust_4="63.95463" pt_clust_5="126.43433" pt_clust_6="30.47818"></scales>
<clustering>
<clus scale="   30.478">  3  6 -1 -1</clus>
<clus scale="   63.955">  2  4  1 -1</clus>
<clus scale="  126.434">  2  5  1 -1</clus>
<clus scale="  132.105">  1  3  2 -1</clus>
</clustering>
</event>
<event>
 6    0  0.2666600E+002  0.9435338E+02  0.7546771E-02  0.1292639E+00
         21   -1    0    0  504  501  0.00000000000E+00  0.00000000000E+00  0.57881657521E+03  0.57881657521E+03  0.00000000000E+00 0. -1.
         21   -1    0    0  503  502 -0.00000000000E+00 -0.00000000000E+00 -0.11849704119E+03  0.11849704119E+03  0.00000000000E+00 0.  1.
         21    1    1    2  503  505  0.48780291966E+01 -0.61119511176E+02  0.18671963040E+03  0.19652890422E+03  0.00000000000E+00 0. -1.
         21    1    1    2  504  506  0.73859735826E+02  0.91004378966E+02 -0.58973047789E+02  0.13120547981E+03  0.00000000000E+00 0.  1.
         21    1    1    2  505  501 -0.36319384537E+02 -0.39269438557E+02  0.31987635250E+03  0.32431784932E+03  0.00000000000E+00 0. -1.
         21    1    1    2  506  502 -0.42418380486E+02  0.93845707672E+01  0.12696598910E+02  0.45261383048E+02  0.00000000000E+00 0. -1.
<scales pt_clust_3="94.35338" pt_clust_4="14000.00000" pt_clust_5="53.97228" pt_clust_6="43.44409"></scales>
<clustering>
<clus scale="   43.444">  2  6  1 -1</clus>
<clus scale="   53.972">  1  5  2 -1</clus>
<clus scale="   94.353">  1  3  2 -1</clus>
<clus scale="   53.972">  1  3  2 -1</clus>
</clustering>
</event>
<event>
 6    0  0.2666600E+002  0.3744059E+03  0.7546771E-02  0.1053021E+00
         21   -1    0    0  504  501  0.00000000000E+00  0.00000000000E+00  0.10207996056E+03  0.10207996056E+03  0.00000000000E+00 0. -1.
         21   -1    0    0  503  502 -0.00000000000E+00 -0.00000000000E+00 -0.13491753985E+04  0.13491753985E+04  0.00000000000E+00 0. -1.
         21    1    1    2  503  505  0.20191860462E+03 -0.23431921626E+03 -0.64508011322E+03  0.71540545879E+03  0.00000000000E+00 0. -1.
         21    1    1    2  504  506 -0.16291065690E+03  0.17959155147E+03 -0.38965964077E+03  0.45894187337E+03  0.00000000000E+00 0. -1.
         21    1    1    2  505  501  0.61982669386E+02 -0.30914739061E+00 -0.86499688199E+02  0.10641495635E+03  0.00000000000E+00 0. -1.
         21    1    1    2  506  502 -0.10099061710E+03  0.55036812183E+02 -0.12585599574E+03  0.17049307054E+03  0.00000000000E+00 0. -1.
<scales pt_clust_3="55.70551" pt_clust_4="361.15368" pt_clust_5="55.70551" pt_clust_6="52.16864"></scales>
<clustering>
<clus scale="   52.169">  4  6 -1 -1</clus>
<clus scale="   55.706">  3  5 -1 -1</clus>
<clus scale="  361.154">  1  4  2 -1</clus>
<clus scale="  361.154">  1  3  2 -1</clus>
</clustering>
</event>
<event>
 6    0  0.2666600E+002  0.8976349E+02  0.7546771E-02  0.1303425E+00
         21   -1    0    0  503  501  0.00000000000E+00  0.00000000000E+00  0.23356317512E+03  0.23356317512E+03  0.00000000000E+00 0.  1.
         21   -1    0    0  504  502 -0.00000000000E+00 -0.00000000000E+00 -0.95908133526E+02  0.95908133526E+02  0.00000000000E+00 0.  1.
         21    1    1    2  503  506  0.84873769654E+02 -0.88621239027E+01  0.11291748437E+03  0.14153604591E+03  0.00000000000E+00 0.  1.
         21    1    1    2  504  505 -0.17689277268E+02  0.32648512988E+02  0.95044623192E+01  0.38329763038E+02  0.00000000000E+00 0.  1.
         21    1    1    2  505  501 -0.10370892129E+03  0.16730698764E+01  0.16705284871E+02  0.10505905987E+03  0.00000000000E+00 0.  1.
         21    1    1    2  506  502  0.36524428908E+02 -0.25459458961E+02 -0.14721899675E+01  0.44546439824E+02  0.00000000000E+00 0.  1.
<scales pt_clust_3="89.76349" pt_clust_4="37.13268" pt_clust_5="14000.00000" pt_clust_6="35.46734"></scales>
<clustering>
<clus scale="   37.133">  2  4  1 -1</clus>
<clus scale="   35.467">  2  6  1 -1</clus>
<clus scale="   89.763">  1  3  2 -1</clus>
<clus scale="   89.763">  1  3  2 -1</clus>
</clustering>
</event>
<event>
 6    0  0.2666600E+002  0.1979166E+03  0.7546771E-02  0.1151509E+00
         21   -1    0    0  506  501  0.00000000000E+00  0.00000000000E+00  0.18517926821E+03  0.18517926821E+03  0.00000000000E+00 0. -1.
         21   -1    0    0  504  502 -0.00000000000E+00 -0.00000000000E+00 -0.39480352201E+03  0.39480352201E+03  0.00000000000E+00 0.  1.
         21    1    1    2  503  502 -0.15402254656E+02 -0.32692744705E+02 -0.17558254213E+02  0.40178816507E+02  0.00000000000E+00 0.  1.
         21    1    1    2  504  501  0.20534622958E+03  0.16746614369E+02 -0.26100010692E+03  0.33251853919E+03  0.00000000000E+00 0.  1.
         21    1    1    2  505  503 -0.11737630633E+03 -0.80995195404E+01  0.29645607132E+02  0.12133285427E+03  0.00000000000E+00 0.  1.
         21    1    1    2  506  505 -0.72567668597E+02  0.24045649877E+02  0.39288500203E+02  0.85952580251E+02  0.00000000000E+00 0. -1.
<scales pt_clust_3="36.13924" pt_clust_4="193.10270" pt_clust_5="34.97247" pt_clust_6="34.97247"></scales>
<clustering>
<clus scale="   34.972">  5  6 -1 -1</clus>
<clus scale="   36.139">  2  3  1 -1</clus>
<clus scale="  193.103">  2  4  1 -1</clus>
<clus scale="  197.917">  1  3  2 -1</clus>
</clustering>
</event>
<event>
 6    0  0.4176152E+002  0.8320765E+02  0.7546771E-02  0.1320187E+00
         21   -1    0    0  506  501  0.00000000000E+00  0.00000000000E+00  0.60336607909E+03  0.60336607909E+03  0.00000000000E+00 0.  1.
         21   -1    0    0  503  502 -0.00000000000E+00 -0.00000000000E+00 -0.39634815022E+03  0.39634815022E+03  0.00000000000E+00 0. -1.
         21    1    1    2  503  505 -0.24356333768E+02  0.32176983036E+02 -0.38729321648E+02  0.55933438900E+02  0.00000000000E+00 0. -1.
         21    1    1    2  504  502 -0.58559714699E+02 -0.26632434403E+02 -0.33379905913E+03  0.33994166944E+03  0.00000000000E+00 0. -1.
         21    1    1    2  505  501 -0.36400900210E+02  0.11088141086E+02  0.64471956913E+02  0.74863914118E+02  0.00000000000E+00 0.  1.
         21    1    1    2  506  504  0.11931694868E+03 -0.16632689720E+02  0.51507435274E+03  0.52897520685E+03  0.00000000000E+00 0.  1.
<scales pt_clust_3="40.85396" pt_clust_4="83.20765" pt_clust_5="38.05223" pt_clust_6="14000.00000"></scales>
<clustering>
<clus scale="   38.052">  1  5  2 -1</clus>
<clus scale="   40.854">  2  3  1 -1</clus>
<clus scale="   83.208">  2  4  1 -1</clus>
<clus scale="   38.052">  1  3  2 -1</clus>
</clustering>
</event>
<event>
 6    0  0.2666600E+002  0.1184972E+03  0.7546771E-02  0.1245597E+00
         21   -1    0    0  506  501  0.00000000000E+00  0.00000000000E+00  0.37059086613E+03  0.37059086613E+03  0.00000000000E+00 0.  1.
         21   -1    0    0  503  502 -0.00000000000E+00 -0.00000000000E+00 -0.25995184865E+03  0.25995184865E+03  0.00000000000E+00 0.  1.
         21    1    1    2  503  501 -0.17841714500E+02 -0.56485629175E+02  0.90150597382E+01  0.59918481136E+02  0.00000000000E+00 0.  1.
         21    1    1    2  504  502 -0.71904610079E+02  0.10605872414E+03 -0.20012509413E+03  0.23763160400E+03  0.00000000000E+00 0.  1.
         21    1    1    2  505  504  0.80547167810E+02  0.50943923606E+01  0.13517270046E+03  0.15743397989E+03  0.00000000000E+00 0.  1.
         21    1    1    2  506  505  0.91991567683E+01 -0.54667487326E+02  0.16657635141E+03  0.17555864976E+03  0.00000000000E+00 0.  1.
<scales pt_clust_3="67.90291" pt_clust_4="118.49718" pt_clust_5="14000.00000" pt_clust_6="55.43608"></scales>
<clustering>
<clus scale="   55.436">  1  6  2 -1</clus>
<clus scale="   67.903">  1  3  2 -1</clus>
<clus scale="  118.497">  2  4  1 -1</clus>
<clus scale="   55.436">  1  3  2 -1</clus>
</clustering>
</event>
<event>
 6    0  0.2666600E+002  0.1794550E+03  0.7546771E-02  0.1168332E+00
         21   -1    0    0  505  501  0.00000000000E+00  0.00000000000E+00  0.15379238195E+03  0.15379238195E+03  0.00000000000E+00 0. -1.
         21   -1    0    0  503  502 -0.00000000000E+00 -0.00000000000E+00 -0.41176689770E+04  0.41176689770E+04  0.00000000000E+00 0.  1.
         21    1    1    2  503  504 -0.81687147518E+02  0.17042088145E+02 -0.60527721199E+03  0.61100223092E+03  0.00000000000E+00 0.  1.
         21    1    1    2  504  506  0.55837959975E+02 -0.27546147378E+02  0.28091255458E+02  0.68306563687E+02  0.00000000000E+00 0. -1.
         21    1    1    2  505  502 -0.92136220909E+02  0.35245644416E+01 -0.34546069156E+04  0.34558371557E+04  0.00000000000E+00 0.  1.
         21    1    1    2  506  501  0.11798540845E+03  0.69794947911E+01  0.67916277014E+02  0.13631540866E+03  0.00000000000E+00 0. -1.
<scales pt_clust_3="83.44593" pt_clust_4="32.58183" pt_clust_5="173.74962" pt_clust_6="32.58183"></scales>
<clustering>
<clus scale="   32.582">  4  6 -1 -1</clus>
<clus scale="   83.446">  2  3  1 -1</clus>
<clus scale="  173.750">  2  5  1 -1</clus>
<clus scale="  179.455">  1  3  2 -1</clus>
</clustering>
</event>
<event>
 6    0  0.2666600E+002  0.8852148E+02  0.7546771E-02  0.1306472E+00
         21   -1    0    0  504  501  0.00000000000E+00  0.00000000000E+00  0.16810918750E+04  0.16810918750E+04  0.00000000000E+00 0.  1.
         21   -1    0    0  503  502 -0.00000000000E+00 -0.00000000000E+00 -0.61052623066E+02  0.61052623066E+02  0.00000000000E+00 0. -1.
         21    1    1    2  503  506  0.47675509067E+02  0.21911649994E+02 -0.30502825360E+02  0.60691819261E+02  0.00000000000E+00 0. -1.
         21    1    1    2  504  505  0.72661951160E+02 -0.47806828311E+02  0.48179606784E+03  0.48958421438E+03  0.00000000000E+00 0.  1.
         21    1    1    2  505  502 -0.29937257776E+02  0.10731027930E+02  0.16214100203E+02  0.35697218505E+02  0.00000000000E+00 0. -1.
         21    1    1    2  506  501 -0.90400202451E+02  0.15164150388E+02  0.11525319092E+04  0.11561712459E+04  0.00000000000E+00 0.  1.
<scales pt_clust_3="37.85479" pt_clust_4="88.52148" pt_clust_5="31.80243" pt_clust_6="14000.00000"></scales>
<clustering>
<clus scale="   31.802">  2  5  1 -1</clus>
<clus scale="   37.855">  2  3  1 -1</clus>
<clus scale="   88.521">  2  4  1 -1</clus>
<clus scale="   88.521">  1  3  2 -1</clus>
</clustering>
</event>
<event>
 6    0  0.2666600E+002  0.9565600E+02  0.7546771E-02  0.1289705E+00
         21   -1    0    0  504  501  0.00000000000E+00  0.00000000000E+00  0.12306567926E+03  0.12306567926E+03  0.00000000000E+00 0. -1.
         21   -1    0    0  506  502 -0.00000000000E+00 -0.00000000000E+00 -0.21586862338E+03  0.21586862338E+03  0.00000000000E+00 0. -1.
         21    1    1    2  503  505  0.15189739041E+02  0.61838463550E+02 -0.17412272450E+02  0.66014475520E+02  0.00000000000E+00 0. -1.
         21    1    1    2  504  502 -0.22563614763E+02 -0.50856996313E+02  0.16361087833E+02  0.57993413248E+02  0.00000000000E+00 0. -1.
         21    1    1    2  505  501  0.37627146725E+02  0.57087569096E+02  0.28011330188E+02  0.73887937682E+02  0.00000000000E+00 0. -1.
         21    1    1    2  506  503 -0.30253271003E+02 -0.68069036333E+02 -0.11976308969E+03  0.14103847619E+03  0.00000000000E+00 0. -1.
<scales pt_clust_3="48.51543" pt_clust_4="55.63767" pt_clust_5="48.51543" pt_clust_6="81.38028"></scales>
<clustering>
<clus scale="   48.515">  3  5 -1 -1</clus>
<clus scale="   55.638">  1  4  2 -1</clus>
<clus scale="   81.380">  2  6  1 -1</clus>
<clus scale="   55.638">  1  3  2 -1</clus>
</clustering>
</event>
