<event>
 4    0  0.2213671E-002  0.2190884E+03  0.7546771E-02  0.1134564E+00
         21   -1    0    0  502  501  0.00000000000E+00  0.00000000000E+00  0.45958587140E+02  0.45958587140E+02  0.00000000000E+00 0.  1.
         21   -1    0    0  501  502 -0.00000000000E+00 -0.00000000000E+00 -0.10444127933E+04  0.10444127933E+04  0.00000000000E+00 0.  1.
         25    1    1    2    0    0 -0.11743511884E+03  0.71582184562E+02 -0.21052959435E+03  0.28082508147E+03  0.12500000000E+03 0.  0.
         25    1    1    2    0    0  0.11743511884E+03 -0.71582184562E+02 -0.78792461176E+03  0.80954629892E+03  0.12500000000E+03 0.  0.
</event>
<event>
 4    0  0.2213671E-002  0.2057738E+03  0.7546771E-02  0.1144957E+00
         21   -1    0    0  502  501  0.00000000000E+00  0.00000000000E+00  0.49624710501E+02  0.49624710501E+02  0.00000000000E+00 0.  1.
         21   -1    0    0  501  502 -0.00000000000E+00 -0.00000000000E+00 -0.85326184507E+03  0.85326184507E+03  0.00000000000E+00 0.  1.
         25    1    1    2    0    0 -0.14865342667E+03 -0.65435211442E+02 -0.36146881707E+03  0.41552895672E+03  0.12500000000E+03 0.  0.
         25    1    1    2    0    0  0.14865342667E+03  0.65435211442E+02 -0.44216831750E+03  0.48735759885E+03  0.12500000000E+03 0.  0.
</event>
<event>
 4    0  0.2213671E-002  0.2055469E+03  0.7546771E-02  0.1145142E+00
         21   -1    0    0  502  501  0.00000000000E+00  0.00000000000E+00  0.96966046462E+02  0.96966046462E+02  0.00000000000E+00 0. -1.
         21   -1    0    0  501  502 -0.00000000000E+00 -0.00000000000E+00 -0.43571464202E+03  0.43571464202E+03  0.00000000000E+00 0. -1.
         25    1    1    2    0    0  0.67309159336E+02 -0.82727382218E+02 -0.93582387424E+01  0.16458104183E+03  0.12500000000E+03 0.  0.
         25    1    1    2    0    0 -0.67309159336E+02  0.82727382218E+02 -0.32939035682E+03  0.36809964665E+03  0.12500000000E+03 0.  0.
</event>
<event>
 4    0  0.2213671E-002  0.1671870E+03  0.7546771E-02  0.1180813E+00
         21   -1    0    0  502  501  0.00000000000E+00  0.00000000000E+00  0.58804392153E+02  0.58804392153E+02  0.00000000000E+00 0.  1.
         21   -1    0    0  501  502 -0.00000000000E+00 -0.00000000000E+00 -0.47533020550E+03  0.47533020550E+03  0.00000000000E+00 0.  1.
         25    1    1    2    0    0 -0.59218014859E+02  0.67625816378E+02 -0.31235857068E+03  0.34824258930E+03  0.12500000000E+03 0.  0.
         25    1    1    2    0    0  0.59218014859E+02 -0.67625816378E+02 -0.10416724266E+03  0.18589200835E+03  0.12500000000E+03 0.  0.
</event>
<event>
 4    0  0.2213671E-002  0.2275771E+03  0.7546771E-02  0.1128357E+00
         21   -1    0    0  502  501  0.00000000000E+00  0.00000000000E+00  0.17734447370E+03  0.17734447370E+03  0.00000000000E+00 0.  1.
         21   -1    0    0  501  502 -0.00000000000E+00 -0.00000000000E+00 -0.29203818600E+03  0.29203818600E+03  0.00000000000E+00 0.  1.
         25    1    1    2    0    0 -0.18609332525E+03  0.18636765784E+02 -0.92896242715E+02  0.24337782696E+03  0.12500000000E+03 0.  0.
         25    1    1    2    0    0  0.18609332525E+03 -0.18636765784E+02 -0.21797469583E+02  0.22600483274E+03  0.12500000000E+03 0.  0.
</event>
<event>
 4    0  0.2213671E-002  0.1565956E+03  0.7546771E-02  0.1192595E+00
         21   -1    0    0  502  501  0.00000000000E+00  0.00000000000E+00  0.57752822515E+02  0.57752822515E+02  0.00000000000E+00 0. -1.
         21   -1    0    0  501  502 -0.00000000000E+00 -0.00000000000E+00 -0.42460559595E+03  0.42460559595E+03  0.00000000000E+00 0. -1.
         25    1    1    2    0    0 -0.39178844314E+02 -0.24057420133E+02 -0.56577959413E+02  0.14470593214E+03  0.12500000000E+03 0.  0.
         25    1    1    2    0    0  0.39178844314E+02  0.24057420133E+02 -0.31027481402E+03  0.33765248632E+03  0.12500000000E+03 0.  0.
</event>
<event>
 4    0  0.2213671E-002  0.3055218E+03  0.7546771E-02  0.1082512E+00
         21   -1    0    0  502  501  0.00000000000E+00  0.00000000000E+00  0.79498248783E+02  0.79498248783E+02  0.00000000000E+00 0. -1.
         21   -1    0    0  501  502 -0.00000000000E+00 -0.00000000000E+00 -0.11741589987E+04  0.11741589987E+04  0.00000000000E+00 0. -1.
         25    1    1    2    0    0 -0.21523195422E+03 -0.17243136027E+03 -0.46370854923E+03  0.55381223059E+03  0.12500000000E+03 0.  0.
         25    1    1    2    0    0  0.21523195422E+03  0.17243136027E+03 -0.63095220072E+03  0.69984501692E+03  0.12500000000E+03 0.  0.
</event>
<event>
 4    0  0.2213671E-002  0.2313928E+03  0.7546771E-02  0.1125663E+00
         21   -1    0    0  502  501  0.00000000000E+00  0.00000000000E+00  0.26304929328E+03  0.26304929328E+03  0.00000000000E+00 0. -1.
         21   -1    0    0  501  502 -0.00000000000E+00 -0.00000000000E+00 -0.20354598765E+03  0.20354598765E+03  0.00000000000E+00 0. -1.
         25    1    1    2    0    0  0.18918167118E+03  0.46115154779E+02  0.30908262221E+02  0.23344513892E+03  0.12500000000E+03 0.  0.
         25    1    1    2    0    0 -0.18918167118E+03 -0.46115154779E+02  0.28595043416E+02  0.23315014201E+03  0.12500000000E+03 0.  0.
</event>
<event>
 4    0  0.2213671E-002  0.2819408E+03  0.7546771E-02  0.1094634E+00
         21   -1    0    0  502  501  0.00000000000E+00  0.00000000000E+00  0.24845861837E+03  0.24845861837E+03  0.00000000000E+00 0.  1.
         21   -1    0    0  501  502 -0.00000000000E+00 -0.00000000000E+00 -0.31993504177E+03  0.31993504177E+03  0.00000000000E+00 0.  1.
         25    1    1    2    0    0 -0.95805310534E+02 -0.55793812535E+02  0.19317810401E+03  0.25541023259E+03  0.12500000000E+03 0.  0.
         25    1    1    2    0    0  0.95805310534E+02  0.55793812535E+02 -0.26465452741E+03  0.31298342755E+03  0.12500000000E+03 0.  0.
</event>
<event>
 4    0  0.2213671E-002  0.2741366E+03  0.7546771E-02  0.1098935E+00
         21   -1    0    0  502  501  0.00000000000E+00  0.00000000000E+00  0.41161787896E+03  0.41161787896E+03  0.00000000000E+00 0. -1.
         21   -1    0    0  501  502 -0.00000000000E+00 -0.00000000000E+00 -0.18257438126E+03  0.18257438126E+03  0.00000000000E+00 0. -1.
         25    1    1    2    0    0  0.21284552650E+03  0.10040139194E+03  0.44771358606E+02  0.27020942287E+03  0.12500000000E+03 0.  0.
         25    1    1    2    0    0 -0.21284552650E+03 -0.10040139194E+03  0.18427213909E+03  0.32398283735E+03  0.12500000000E+03 0.  0.
</event>
<event>
 4    0  0.2213671E-002  0.2616802E+03  0.7546771E-02  0.1106138E+00
         21   -1    0    0  502  501  0.00000000000E+00  0.00000000000E+00  0.22099331649E+04  0.22099331649E+04  0.00000000000E+00 0. -1.
         21   -1    0    0  501  502 -0.00000000000E+00 -0.00000000000E+00 -0.30985788825E+02  0.30985788825E+02  0.00000000000E+00 0. -1.
         25    1    1    2    0    0  0.12542327196E+03 -0.58284426503E+02  0.18757791825E+04  0.18850200564E+04  0.12500000000E+03 0.  0.
         25    1    1    2    0    0 -0.12542327196E+03  0.58284426503E+02  0.30316819356E+03  0.35589889732E+03  0.12500000000E+03 0.  0.
</event>
<event>
 4    0  0.2213671E-002  0.2023892E+03  0.7546771E-02  0.1147739E+00
         21   -1    0    0  502  501  0.00000000000E+00  0.00000000000E+00  0.41711652022E+03  0.41711652022E+03  0.00000000000E+00 0.  1.
         21   -1    0    0  501  502 -0.00000000000E+00 -0.00000000000E+00 -0.98201343771E+02  0.98201343771E+02  0.00000000000E+00 0.  1.
         25    1    1    2    0    0  0.19335955706E+02  0.11996774735E+03  0.29034584767E+03  0.33866185325E+03  0.12500000000E+03 0.  0.
         25    1    1    2    0    0 -0.19335955706E+02 -0.11996774735E+03  0.28569328783E+02  0.17665601075E+03  0.12500000000E+03 0.  0.
</event>
<event>
 4    0  0.2213671E-002  0.2281674E+03  0.7546771E-02  0.1127936E+00
         21   -1    0    0  502  501  0.00000000000E+00  0.00000000000E+00  0.64850115773E+03  0.64850115773E+03  0.00000000000E+00 0. -1.
         21   -1    0    0  501  502 -0.00000000000E+00 -0.00000000000E+00 -0.80278008244E+02  0.80278008244E+02  0.00000000000E+00 0. -1.
         25    1    1    2    0    0 -0.12687904917E+03  0.11935000434E+03  0.40876835848E+03  0.46158345675E+03  0.12500000000E+03 0.  0.
         25    1    1    2    0    0  0.12687904917E+03 -0.11935000434E+03  0.15945479101E+03  0.26719570923E+03  0.12500000000E+03 0.  0.
</event>
<event>
 4    0  0.2213671E-002  0.1797834E+03  0.7546771E-02  0.1168013E+00
         21   -1    0    0  502  501  0.00000000000E+00  0.00000000000E+00  0.27963030388E+03  0.27963030388E+03  0.00000000000E+00 0. -1.
         21   -1    0    0  501  502 -0.00000000000E+00 -0.00000000000E+00 -0.11558861348E+03  0.11558861348E+03  0.00000000000E+00 0. -1.
         25    1    1    2    0    0  0.35068539289E+02 -0.83399037957E+02 -0.19386813785E+02  0.15551865010E+03  0.12500000000E+03 0.  0.
         25    1    1    2    0    0 -0.35068539289E+02  0.83399037957E+02  0.18342850418E+03  0.23970026726E+03  0.12500000000E+03 0.  0.
</event>
<event>
 4    0  0.2213671E-002  0.2123307E+03  0.7546771E-02  0.1139733E+00
         21   -1    0    0  502  501  0.00000000000E+00  0.00000000000E+00  0.10390456967E+03  0.10390456967E+03  0.00000000000E+00 0.  1.
         21   -1    0    0  501  502 -0.00000000000E+00 -0.00000000000E+00 -0.43390144770E+03  0.43390144770E+03  0.00000000000E+00 0.  1.
         25    1    1    2    0    0  0.51553820732E+02 -0.13293805417E+03 -0.28600108845E+03  0.34315003318E+03  0.12500000000E+03 0.  0.
         25    1    1    2    0    0 -0.51553820732E+02  0.13293805417E+03 -0.43995789584E+02  0.19465598419E+03  0.12500000000E+03 0.  0.
</event>
<event>
 4    0  0.2213671E-002  0.2131508E+03  0.7546771E-02  0.1139095E+00
         21   -1    0    0  502  501  0.00000000000E+00  0.00000000000E+00  0.13650594743E+04  0.13650594743E+04  0.00000000000E+00 0. -1.
         21   -1    0    0  501  502 -0.00000000000E+00 -0.00000000000E+00 -0.33282982214E+02  0.33282982214E+02  0.00000000000E+00 0. -1.
         25    1    1    2    0    0 -0.33994449261E+02 -0.16925903852E+03  0.65932339101E+03  0.69291888316E+03  0.12500000000E+03 0.  0.
         25    1    1    2    0    0  0.33994449261E+02  0.16925903852E+03  0.67245310103E+03  0.70542357332E+03  0.12500000000E+03 0.  0.
</event>
<event>
 4    0  0.2213671E-002  0.1808444E+03  0.7546771E-02  0.1166988E+00
         21   -1    0    0  502  501  0.00000000000E+00  0.00000000000E+00  0.17616825925E+03  0.17616825925E+03  0.00000000000E+00 0. -1.
         21   -1    0    0  501  502 -0.00000000000E+00 -0.00000000000E+00 -0.18564456346E+03  0.18564456346E+03  0.00000000000E+00 0. -1.
         25    1    1    2    0    0  0.91154787724E+02 -0.67039415567E+02  0.60676956333E+02  0.17919311258E+03  0.12500000000E+03 0.  0.
         25    1    1    2    0    0 -0.91154787724E+02  0.67039415567E+02 -0.70153260540E+02  0.18261971013E+03  0.12500000000E+03 0.  0.
</event>
<event>
 4    0  0.2213671E-002  0.1980487E+03  0.7546771E-02  0.1151396E+00
         21   -1    0    0  502  501  0.00000000000E+00  0.00000000000E+00  0.12895094368E+03  0.12895094368E+03  0.00000000000E+00 0.  1.
         21   -1    0    0  501  502 -0.00000000000E+00 -0.00000000000E+00 -0.30417209971E+03  0.30417209971E+03  0.00000000000E+00 0.  1.
         25    1    1    2    0    0 -0.12796649451E+03 -0.21796376638E+02 -0.17743399950E+03  0.25289984169E+03  0.12500000000E+03 0.  0.
         25    1    1    2    0    0  0.12796649451E+03  0.21796376638E+02  0.22128434634E+01  0.18022320169E+03  0.12500000000E+03 0.  0.
</event>
<event>
 4    0  0.2213671E-002  0.2870613E+03  0.7546771E-02  0.1091894E+00
         21   -1    0    0  502  501  0.00000000000E+00  0.00000000000E+00  0.43394730783E+03  0.43394730783E+03  0.00000000000E+00 0.  1.
         21   -1    0    0  501  502 -0.00000000000E+00 -0.00000000000E+00 -0.18989447598E+03  0.18989447598E+03  0.00000000000E+00 0.  1.
         25    1    1    2    0    0  0.11474438354E+03 -0.80569839307E+02 -0.11384700327E+03  0.21964496970E+03  0.12500000000E+03 0.  0.
         25    1    1    2    0    0 -0.11474438354E+03  0.80569839307E+02  0.35789983512E+03  0.40419681412E+03  0.12500000000E+03 0.  0.
</event>
<event>
 4    0  0.2213671E-002  0.1675731E+03  0.7546771E-02  0.1180403E+00
         21   -1    0    0  502  501  0.00000000000E+00  0.00000000000E+00  0.10927911426E+04  0.10927911426E+04  0.00000000000E+00 0.  1.
         21   -1    0    0  501  502 -0.00000000000E+00 -0.00000000000E+00 -0.25696355531E+02  0.25696355531E+02  0.00000000000E+00 0.  1.
         25    1    1    2    0    0 -0.47518048926E+02 -0.99466319836E+02  0.59175799234E+03  0.61477966399E+03  0.12500000000E+03 0.  0.
         25    1    1    2    0    0  0.47518048926E+02  0.99466319836E+02  0.47533679478E+03  0.50370783419E+03  0.12500000000E+03 0.  0.
</event>
<event>
 4    0  0.2213671E-002  0.2345973E+03  0.7546771E-02  0.1123445E+00
         21   -1    0    0  502  501  0.00000000000E+00  0.00000000000E+00  0.75384793404E+03  0.75384793404E+03  0.00000000000E+00 0.  1.
         21   -1    0    0  501  502 -0.00000000000E+00 -0.00000000000E+00 -0.73006625674E+02  0.73006625674E+02  0.00000000000E+00 0.  1.
         25    1    1    2    0    0  0.90053324845E+02  0.13446547598E+03  0.13779368940E+03  0.24658196686E+03  0.12500000000E+03 0.  0.
         25    1    1    2    0    0 -0.90053324845E+02 -0.13446547598E+03  0.54304761897E+03  0.58027259285E+03  0.12500000000E+03 0.  0.
</event>
<event>
 4    0  0.2213671E-002  0.1851979E+03  0.7546771E-02  0.1162865E+00
         21   -1    0    0  502  501  0.00000000000E+00  0.00000000000E+00  0.22670602450E+02  0.22670602450E+02  0.00000000000E+00 0. -1.
         21   -1    0    0  501  502 -0.00000000000E+00 -0.00000000000E+00 -0.15128951145E+04  0.15128951145E+04  0.00000000000E+00 0. -1.
         25    1    1    2    0    0 -0.15181620042E+02  0.13489419250E+03 -0.81017784564E+03  0.83092723287E+03  0.12500000000E+03 0.  0.
         25    1    1    2    0    0  0.15181620042E+02 -0.13489419250E+03 -0.68004666644E+03  0.70463848411E+03  0.12500000000E+03 0.  0.
</event>
<event>
 4    0  0.2213671E-002  0.1805205E+03  0.7546771E-02  0.1167300E+00
         21   -1    0    0  502  501  0.00000000000E+00  0.00000000000E+00  0.19837893377E+03  0.19837893377E+03  0.00000000000E+00 0. -1.
         21   -1    0    0  501  502 -0.00000000000E+00 -0.00000000000E+00 -0.16426973702E+03  0.16426973702E+03  0.00000000000E+00 0. -1.
         25    1    1    2    0    0 -0.67435798580E+02  0.11141729892E+03  0.15929856147E+02  0.18121854691E+03  0.12500000000E+03 0.  0.
         25    1    1    2    0    0  0.67435798580E+02 -0.11141729892E+03  0.18179340601E+02  0.18143012388E+03  0.12500000000E+03 0.  0.
</event>
<event>
 4    0  0.2213671E-002  0.1600895E+03  0.7546771E-02  0.1188596E+00
         21   -1    0    0  502  501  0.00000000000E+00  0.00000000000E+00  0.12908692507E+03  0.12908692507E+03  0.00000000000E+00 0.  1.
         21   -1    0    0  501  502 -0.00000000000E+00 -0.00000000000E+00 -0.19853784196E+03  0.19853784196E+03  0.00000000000E+00 0.  1.
         25    1    1    2    0    0  0.44913381006E+02  0.66614046330E+02 -0.95684305267E+02  0.17673462942E+03  0.12500000000E+03 0.  0.
         25    1    1    2    0    0 -0.44913381006E+02 -0.66614046330E+02  0.26233388372E+02  0.15089013761E+03  0.12500000000E+03 0.  0.
</event>
<event>
 4    0  0.2213671E-002  0.2915795E+03  0.7546771E-02  0.1089527E+00
         21   -1    0    0  502  501  0.00000000000E+00  0.00000000000E+00  0.10625034384E+03  0.10625034384E+03  0.00000000000E+00 0.  1.
         21   -1    0    0  501  502 -0.00000000000E+00 -0.00000000000E+00 -0.80017249022E+03  0.80017249022E+03  0.00000000000E+00 0.  1.
         25    1    1    2    0    0 -0.17403879473E+03 -0.15942840555E+03 -0.52880256102E+03  0.59242220343E+03  0.12500000000E+03 0.  0.
         25    1    1    2    0    0  0.17403879473E+03  0.15942840555E+03 -0.16511958536E+03  0.31400063063E+03  0.12500000000E+03 0.  0.
</event>
<event>
 4    0  0.2213671E-002  0.2640949E+03  0.7546771E-02  0.1104708E+00
         21   -1    0    0  502  501  0.00000000000E+00  0.00000000000E+00  0.73127866421E+02  0.73127866421E+02  0.00000000000E+00 0. -1.
         21   -1    0    0  501  502 -0.00000000000E+00 -0.00000000000E+00 -0.95375577748E+03  0.95375577748E+03  0.00000000000E+00 0. -1.
         25    1    1    2    0    0  0.79747846007E+02  0.99154197795E+02 -0.81894983757E+03  0.83814981378E+03  0.12500000000E+03 0.  0.
         25    1    1    2    0    0 -0.79747846007E+02 -0.99154197795E+02 -0.61678073489E+02  0.18873383012E+03  0.12500000000E+03 0.  0.
</event>
<event>
 4    0  0.2213671E-002  0.3752748E+03  0.7546771E-02  0.1052694E+00
         21   -1    0    0  502  501  0.00000000000E+00  0.00000000000E+00  0.76764452387E+03  0.76764452387E+03  0.00000000000E+00 0. -1.
         21   -1    0    0  501  502 -0.00000000000E+00 -0.00000000000E+00 -0.18345883466E+03  0.18345883466E+03  0.00000000000E+00 0. -1.
         25    1    1    2    0    0 -0.11798799620E+03 -0.20385980225E+03  0.62670851358E+03  0.68107895813E+03  0.12500000000E+03 0.  0.
         25    1    1    2    0    0  0.11798799620E+03  0.20385980225E+03 -0.42522824369E+02  0.27002440040E+03  0.12500000000E+03 0.  0.
</event>
<event>
 4    0  0.2213671E-002  0.2279801E+03  0.7546771E-02  0.1128070E+00
         21   -1    0    0  502  501  0.00000000000E+00  0.00000000000E+00  0.42473956056E+03  0.42473956056E+03  0.00000000000E+00 0.  1.
         21   -1    0    0  501  502 -0.00000000000E+00 -0.00000000000E+00 -0.12236893095E+03  0.12236893095E+03  0.00000000000E+00 0.  1.
         25    1    1    2    0    0  0.12793909936E+02 -0.14649886806E+03  0.29678626027E+03  0.35402356808E+03  0.12500000000E+03 0.  0.
         25    1    1    2    0    0 -0.12793909936E+02  0.14649886806E+03  0.55843693461E+01  0.19308492343E+03  0.12500000000E+03 0.  0.
</event>
<event>
 4    0  0.2213671E-002  0.2450000E+03  0.7546771E-02  0.1116506E+00
         21   -1    0    0  502  501  0.00000000000E+00  0.00000000000E+00  0.10474931853E+03  0.10474931853E+03  0.00000000000E+00 0. -1.
         21   -1    0    0  501  502 -0.00000000000E+00 -0.00000000000E+00 -0.57303458294E+03  0.57303458294E+03  0.00000000000E+00 0. -1.
         25    1    1    2    0    0 -0.25218068157E+02  0.20912646730E+03 -0.24173804909E+03  0.34413967319E+03  0.12500000000E+03 0.  0.
         25    1    1    2    0    0  0.25218068157E+02 -0.20912646730E+03 -0.22654721532E+03  0.33364422827E+03  0.12500000000E+03 0.  0.
</event>
<event>
 4    0  0.2213671E-002  0.1777502E+03  0.7546771E-02  0.1169998E+00
         21   -1    0    0  502  501  0.00000000000E+00  0.00000000000E+00  0.53654681675E+03  0.53654681675E+03  0.00000000000E+00 0.  1.
         21   -1    0    0  501  502 -0.00000000000E+00 -0.00000000000E+00 -0.58886103072E+02  0.58886103072E+02  0.00000000000E+00 0.  1.
         25    1    1    2    0    0 -0.58105955962E+01  0.11465117699E+03  0.15033690967E+03  0.22672635889E+03  0.12500000000E+03 0.  0.
         25    1    1    2    0    0  0.58105955962E+01 -0.11465117699E+03  0.32732380400E+03  0.36870656093E+03  0.12500000000E+03 0.  0.
</event>
<event>
 4    0  0.2213671E-002  0.1281492E+03  0.7546771E-02  0.1230228E+00
         21   -1    0    0  502  501  0.00000000000E+00  0.00000000000E+00  0.29686197439E+03  0.29686197439E+03  0.00000000000E+00 0.  1.
         21   -1    0    0  501  502 -0.00000000000E+00 -0.00000000000E+00 -0.55319397630E+02  0.55319397630E+02  0.00000000000E+00 0.  1.
         25    1    1    2    0    0  0.19513063118E+02  0.17577666815E+02  0.10652480615E+03  0.16631977732E+03  0.12500000000E+03 0.  0.
         25    1    1    2    0    0 -0.19513063118E+02 -0.17577666815E+02  0.13501777061E+03  0.18586159470E+03  0.12500000000E+03 0.  0.
</event>
<event>
 4    0  0.2213671E-002  0.2752109E+03  0.7546771E-02  0.1098334E+00
         21   -1    0    0  502  501  0.00000000000E+00  0.00000000000E+00  0.71266684645E+02  0.71266684645E+02  0.00000000000E+00 0. -1.
         21   -1    0    0  501  502 -0.00000000000E+00 -0.00000000000E+00 -0.10627831535E+04  0.10627831535E+04  0.00000000000E+00 0. -1.
         25    1    1    2    0    0  0.45913297901E+02  0.19966660010E+03 -0.21825366577E+03  0.32439858930E+03  0.12500000000E+03 0.  0.
         25    1    1    2    0    0 -0.45913297901E+02 -0.19966660010E+03 -0.77326280309E+03  0.80965124885E+03  0.12500000000E+03 0.  0.
</event>
<event>
 4    0  0.2213671E-002  0.1932894E+03  0.7546771E-02  0.1155528E+00
         21   -1    0    0  502  501  0.00000000000E+00  0.00000000000E+00  0.60163187679E+02  0.60163187679E+02  0.00000000000E+00 0. -1.
         21   -1    0    0  501  502 -0.00000000000E+00 -0.00000000000E+00 -0.62099087776E+03  0.62099087776E+03  0.00000000000E+00 0. -1.
         25    1    1    2    0    0 -0.95230504757E+02 -0.11538591272E+02 -0.47767826190E+03  0.50299454273E+03  0.12500000000E+03 0.  0.
         25    1    1    2    0    0  0.95230504757E+02  0.11538591272E+02 -0.83149428182E+02  0.17815952271E+03  0.12500000000E+03 0.  0.
</event>
<event>
 4    0  0.2213671E-002  0.2377422E+03  0.7546771E-02  0.1121306E+00
         21   -1    0    0  502  501  0.00000000000E+00  0.00000000000E+00  0.22569924484E+04  0.22569924484E+04  0.00000000000E+00 0.  1.
         21   -1    0    0  501  502 -0.00000000000E+00 -0.00000000000E+00 -0.25042778712E+02  0.25042778712E+02  0.00000000000E+00 0.  1.
         25    1    1    2    0    0  0.70920721665E+02 -0.17022597202E+03  0.71760430243E+03  0.75139042127E+03  0.12500000000E+03 0.  0.
         25    1    1    2    0    0 -0.70920721665E+02  0.17022597202E+03  0.15143453673E+04  0.15306448059E+04  0.12500000000E+03 0.  0.
</event>
<event>
 4    0  0.2213671E-002  0.1999000E+03  0.7546771E-02  0.1149823E+00
         21   -1    0    0  502  501  0.00000000000E+00  0.00000000000E+00  0.13342934646E+04  0.13342934646E+04  0.00000000000E+00 0. -1.
         21   -1    0    0  501  502 -0.00000000000E+00 -0.00000000000E+00 -0.29948451028E+02  0.29948451028E+02  0.00000000000E+00 0. -1.
         25    1    1    2    0    0 -0.34162758531E+01 -0.15542982672E+03  0.60835114593E+03  0.64022356933E+03  0.12500000000E+03 0.  0.
         25    1    1    2    0    0  0.34162758531E+01  0.15542982672E+03  0.69599386765E+03  0.72401834630E+03  0.12500000000E+03 0.  0.
</event>
<event>
 4    0  0.2213671E-002  0.2188639E+03  0.7546771E-02  0.1134733E+00
         21   -1    0    0  502  501  0.00000000000E+00  0.00000000000E+00  0.13409079094E+03  0.13409079094E+03  0.00000000000E+00 0. -1.
         21   -1    0    0  501  502 -0.00000000000E+00 -0.00000000000E+00 -0.35723122630E+03  0.35723122630E+03  0.00000000000E+00 0. -1.
         25    1    1    2    0    0  0.14342696147E+03 -0.10799417051E+03 -0.10426285479E+03  0.24234227248E+03  0.12500000000E+03 0.  0.
         25    1    1    2    0    0 -0.14342696147E+03  0.10799417051E+03 -0.11887758056E+03  0.24897974476E+03  0.12500000000E+03 0.  0.
</event>
<event>
 4    0  0.2213671E-002  0.2964890E+03  0.7546771E-02  0.1087009E+00
         21   -1    0    0  502  501  0.00000000000E+00  0.00000000000E+00  0.36372335553E+03  0.36372335553E+03  0.00000000000E+00 0.  1.
         21   -1    0    0  501  502 -0.00000000000E+00 -0.00000000000E+00 -0.24168285534E+03  0.24168285534E+03  0.00000000000E+00 0.  1.
         25    1    1    2    0    0 -0.27795356345E+02  0.19081252423E+03 -0.13025283499E+03  0.26414541878E+03  0.12500000000E+03 0.  0.
         25    1    1    2    0    0  0.27795356345E+02 -0.19081252423E+03  0.25229333519E+03  0.34126079209E+03  0.12500000000E+03 0.  0.
</event>
<event>
 4    0  0.2213671E-002  0.1472813E+03  0.7546771E-02  0.1203854E+00
         21   -1    0    0  502  501  0.00000000000E+00  0.00000000000E+00  0.30036431814E+03  0.30036431814E+03  0.00000000000E+00 0. -1.
         21   -1    0    0  501  502 -0.00000000000E+00 -0.00000000000E+00 -0.72218269211E+02  0.72218269211E+02  0.00000000000E+00 0. -1.
         25    1    1    2    0    0  0.39845721631E+02 -0.88524164638E+00  0.29427752704E+02  0.13445987437E+03  0.12500000000E+03 0.  0.
         25    1    1    2    0    0 -0.39845721631E+02  0.88524164638E+00  0.19871829623E+03  0.23812271299E+03  0.12500000000E+03 0.  0.
</event>
<event>
 4    0  0.2213671E-002  0.2788414E+03  0.7546771E-02  0.1096323E+00
         21   -1    0    0  502  501  0.00000000000E+00  0.00000000000E+00  0.27757584642E+03  0.27757584642E+03  0.00000000000E+00 0.  1.
         21   -1    0    0  501  502 -0.00000000000E+00 -0.00000000000E+00 -0.28011271035E+03  0.28011271035E+03  0.00000000000E+00 0.  1.
         25    1    1    2    0    0  0.24517086437E+03 -0.44927094399E+02 -0.18395070660E+01  0.27884687614E+03  0.12500000000E+03 0.  0.
         25    1    1    2    0    0 -0.24517086437E+03  0.44927094399E+02 -0.69735685771E+00  0.27884168063E+03  0.12500000000E+03 0.  0.
</event>
<event>
 4    0  0.2213671E-002  0.2832517E+03  0.7546771E-02  0.1093926E+00
         21   -1    0    0  502  501  0.00000000000E+00  0.00000000000E+00  0.16581689573E+03  0.16581689573E+03  0.00000000000E+00 0.  1.
         21   -1    0    0  501  502 -0.00000000000E+00 -0.00000000000E+00 -0.48385631076E+03  0.48385631076E+03  0.00000000000E+00 0.  1.
         25    1    1    2    0    0  0.16102971606E+03  0.16650383930E+03 -0.39001240880E+02  0.26608305986E+03  0.12500000000E+03 0.  0.
         25    1    1    2    0    0 -0.16102971606E+03 -0.16650383930E+03 -0.27903817415E+03  0.38359014663E+03  0.12500000000E+03 0.  0.
</event>
<event>
 4    0  0.2213671E-002  0.2000042E+03  0.7546771E-02  0.1149735E+00
         21   -1    0    0  502  501  0.00000000000E+00  0.00000000000E+00  0.11132862068E+03  0.11132862068E+03  0.00000000000E+00 0. -1.
         21   -1    0    0  501  502 -0.00000000000E+00 -0.00000000000E+00 -0.35931169973E+03  0.35931169973E+03  0.00000000000E+00 0. -1.
         25    1    1    2    0    0  0.10738171557E+03  0.52547777810E+02 -0.24214564684E+03  0.29757623573E+03  0.12500000000E+03 0.  0.
         25    1    1    2    0    0 -0.10738171557E+03 -0.52547777810E+02 -0.58374322187E+01  0.17306408468E+03  0.12500000000E+03 0.  0.
</event>
<event>
 4    0  0.2213671E-002  0.1867453E+03  0.7546771E-02  0.1161430E+00
         21   -1    0    0  502  501  0.00000000000E+00  0.00000000000E+00  0.42849526680E+03  0.42849526680E+03  0.00000000000E+00 0. -1.
         21   -1    0    0  501  502 -0.00000000000E+00 -0.00000000000E+00 -0.81386644202E+02  0.81386644202E+02  0.00000000000E+00 0.  1.
         25    1    1    2    0    0 -0.12323222142E+03 -0.63714884661E+02  0.17592866507E+03  0.25655732715E+03  0.12500000000E+03 0.  0.
         25    1    1    2    0    0  0.12323222142E+03  0.63714884661E+02  0.17117995753E+03  0.25332458385E+03  0.12500000000E+03 0.  0.
</event>
<event>
 4    0  0.2213671E-002  0.2222409E+03  0.7546771E-02  0.1132223E+00
         21   -1    0    0  502  501  0.00000000000E+00  0.00000000000E+00  0.27174148551E+04  0.27174148551E+04  0.00000000000E+00 0.  1.
         21   -1    0    0  501  502 -0.00000000000E+00 -0.00000000000E+00 -0.18175732156E+02  0.18175732156E+02  0.00000000000E+00 0.  1.
         25    1    1    2    0    0 -0.17568668472E+03  0.50616250916E+02  0.12364377596E+04  0.12561174903E+04  0.12500000000E+03 0.  0.
         25    1    1    2    0    0  0.17568668472E+03 -0.50616250916E+02  0.14628013633E+04  0.14794730969E+04  0.12500000000E+03 0.  0.
</event>
<event>
 4    0  0.2213671E-002  0.2165753E+03  0.7546771E-02  0.1136462E+00
         21   -1    0    0  502  501  0.00000000000E+00  0.00000000000E+00  0.29154328472E+03  0.29154328472E+03  0.00000000000E+00 0.  1.
         21   -1    0    0  501  502 -0.00000000000E+00 -0.00000000000E+00 -0.16088468223E+03  0.16088468223E+03  0.00000000000E+00 0.  1.
         25    1    1    2    0    0 -0.12888808855E+03  0.14658359070E+01 -0.61161782390E+02  0.18968408386E+03  0.12500000000E+03 0.  0.
         25    1    1    2    0    0  0.12888808855E+03 -0.14658359070E+01  0.19182038488E+03  0.26274388309E+03  0.12500000000E+03 0.  0.
</event>
<event>
 4    0  0.2213671E-002  0.1862904E+03  0.7546771E-02  0.1161850E+00
         21   -1    0    0  502  501  0.00000000000E+00  0.00000000000E+00  0.45805329427E+03  0.45805329427E+03  0.00000000000E+00 0. -1.
         21   -1    0    0  501  502 -0.00000000000E+00 -0.00000000000E+00 -0.75764365184E+02  0.75764365184E+02  0.00000000000E+00 0. -1.
         25    1    1    2    0    0 -0.90970750195E+02 -0.59680828728E+02  0.69219999857E+02  0.17959367219E+03  0.12500000000E+03 0.  0.
         25    1    1    2    0    0  0.90970750195E+02  0.59680828728E+02  0.31306892923E+03  0.35422398727E+03  0.12500000000E+03 0.  0.
</event>
<event>
 4    0  0.2213671E-002  0.2599264E+03  0.7546771E-02  0.1107187E+00
         21   -1    0    0  502  501  0.00000000000E+00  0.00000000000E+00  0.10017512225E+03  0.10017512225E+03  0.00000000000E+00 0.  1.
         21   -1    0    0  501  502 -0.00000000000E+00 -0.00000000000E+00 -0.67443612664E+03  0.67443612664E+03  0.00000000000E+00 0.  1.
         25    1    1    2    0    0 -0.14457959915E+03  0.80233255582E+02 -0.53442482217E+02  0.21406011935E+03  0.12500000000E+03 0.  0.
         25    1    1    2    0    0  0.14457959915E+03 -0.80233255582E+02 -0.52081852217E+03  0.56055112954E+03  0.12500000000E+03 0.  0.
</event>
<event>
 4    0  0.2213671E-002  0.1932007E+03  0.7546771E-02  0.1155606E+00
         21   -1    0    0  502  501  0.00000000000E+00  0.00000000000E+00  0.19887376862E+03  0.19887376862E+03  0.00000000000E+00 0.  1.
         21   -1    0    0  501  502 -0.00000000000E+00 -0.00000000000E+00 -0.18768953888E+03  0.18768953888E+03  0.00000000000E+00 0.  1.
         25    1    1    2    0    0 -0.68310242298E+02 -0.69392374564E+02  0.11618222656E+03  0.19648129839E+03  0.12500000000E+03 0.  0.
         25    1    1    2    0    0  0.68310242298E+02  0.69392374564E+02 -0.10499799682E+03  0.19008200911E+03  0.12500000000E+03 0.  0.
</event>
<event>
 4    0  0.2213671E-002  0.2585215E+03  0.7546771E-02  0.1108035E+00
         21   -1    0    0  502  501  0.00000000000E+00  0.00000000000E+00  0.11654903435E+03  0.11654903435E+03  0.00000000000E+00 0.  1.
         21   -1    0    0  501  502 -0.00000000000E+00 -0.00000000000E+00 -0.57343565626E+03  0.57343565626E+03  0.00000000000E+00 0.  1.
         25    1    1    2    0    0  0.21253452788E+03 -0.22707425672E+02 -0.12927934976E+03  0.27932902283E+03  0.12500000000E+03 0.  0.
         25    1    1    2    0    0 -0.21253452788E+03  0.22707425672E+02 -0.32760727215E+03  0.41065566779E+03  0.12500000000E+03 0.  0.
</event>
<event>
 4    0  0.2213671E-002  0.1937839E+03  0.7546771E-02  0.1155092E+00
         21   -1    0    0  502  501  0.00000000000E+00  0.00000000000E+00  0.21387904417E+03  0.21387904417E+03  0.00000000000E+00 0. -1.
         21   -1    0    0  501  502 -0.00000000000E+00 -0.00000000000E+00 -0.17557672287E+03  0.17557672287E+03  0.00000000000E+00 0. -1.
         25    1    1    2    0    0 -0.14499759813E+03  0.19164939146E+02 -0.41042532611E+01  0.19244075257E+03  0.12500000000E+03 0.  0.
         25    1    1    2    0    0  0.14499759813E+03 -0.19164939146E+02  0.42406574565E+02  0.19701501446E+03  0.12500000000E+03 0.  0.
</event>
<event>
 4    0  0.2213671E-002  0.2365681E+03  0.7546771E-02  0.1122100E+00
         21   -1    0    0  502  501  0.00000000000E+00  0.00000000000E+00  0.12971534336E+03  0.12971534336E+03  0.00000000000E+00 0.  1.
         21   -1    0    0  501  502 -0.00000000000E+00 -0.00000000000E+00 -0.43144062806E+03  0.43144062806E+03  0.00000000000E+00 0.  1.
         25    1    1    2    0    0  0.26772082377E+02  0.16680777769E+03 -0.22037814139E+02  0.21131077669E+03  0.12500000000E+03 0.  0.
         25    1    1    2    0    0 -0.26772082377E+02 -0.16680777769E+03 -0.27968747055E+03  0.34984519473E+03  0.12500000000E+03 0.  0.
</event>
<event>
 4    0  0.2213671E-002  0.1955861E+03  0.7546771E-02  0.1153517E+00
         21   -1    0    0  502  501  0.00000000000E+00  0.00000000000E+00  0.26555585962E+03  0.26555585962E+03  0.00000000000E+00 0. -1.
         21   -1    0    0  501  502 -0.00000000000E+00 -0.00000000000E+00 -0.14405229688E+03  0.14405229688E+03  0.00000000000E+00 0. -1.
         25    1    1    2    0    0  0.49820936445E+02  0.86828877296E+02 -0.56823477726E+02  0.16992729993E+03  0.12500000000E+03 0.  0.
         25    1    1    2    0    0 -0.49820936445E+02 -0.86828877296E+02  0.17832704047E+03  0.23968085656E+03  0.12500000000E+03 0.  0.
</event>
<event>
 4    0  0.2213671E-002  0.1787577E+03  0.7546771E-02  0.1169011E+00
         21   -1    0    0  502  501  0.00000000000E+00  0.00000000000E+00  0.92975909342E+03  0.92975909342E+03  0.00000000000E+00 0. -1.
         21   -1    0    0  501  502 -0.00000000000E+00 -0.00000000000E+00 -0.34368391931E+02  0.34368391931E+02  0.00000000000E+00 0. -1.
         25    1    1    2    0    0  0.10524964305E+03 -0.65686020622E+02  0.36513868648E+03  0.40539289712E+03  0.12500000000E+03 0.  0.
         25    1    1    2    0    0 -0.10524964305E+03  0.65686020622E+02  0.53025201501E+03  0.55873458823E+03  0.12500000000E+03 0.  0.
</event>
<event>
 4    0  0.2213671E-002  0.3925661E+03  0.7546771E-02  0.1046385E+00
         21   -1    0    0  502  501  0.00000000000E+00  0.00000000000E+00  0.83130371835E+02  0.83130371835E+02  0.00000000000E+00 0. -1.
         21   -1    0    0  501  502 -0.00000000000E+00 -0.00000000000E+00 -0.18538130283E+04  0.18538130283E+04  0.00000000000E+00 0.  1.
         25    1    1    2    0    0  0.24696535231E+03  0.24808930686E+03 -0.11968418777E+04  0.12532340841E+04  0.12500000000E+03 0.  0.
         25    1    1    2    0    0 -0.24696535231E+03 -0.24808930686E+03 -0.57384077881E+03  0.68370931604E+03  0.12500000000E+03 0.  0.
</event>
<event>
 4    0  0.2213671E-002  0.2453340E+03  0.7546771E-02  0.1116290E+00
         21   -1    0    0  502  501  0.00000000000E+00  0.00000000000E+00  0.21761289875E+03  0.21761289875E+03  0.00000000000E+00 0.  1.
         21   -1    0    0  501  502 -0.00000000000E+00 -0.00000000000E+00 -0.27658645717E+03  0.27658645717E+03  0.00000000000E+00 0.  1.
         25    1    1    2    0    0 -0.19245418241E+03  0.23591430515E+02  0.54592227629E+02  0.23706640260E+03  0.12500000000E+03 0.  0.
         25    1    1    2    0    0  0.19245418241E+03 -0.23591430515E+02 -0.11356578606E+03  0.25713295332E+03  0.12500000000E+03 0.  0.
</event>
<event>
 4    0  0.2213671E-002  0.2525177E+03  0.7546771E-02  0.1111724E+00
         21   -1    0    0  502  501  0.00000000000E+00  0.00000000000E+00  0.20175399393E+03  0.20175399393E+03  0.00000000000E+00 0. -1.
         21   -1    0    0  501  502 -0.00000000000E+00 -0.00000000000E+00 -0.31605422137E+03  0.31605422137E+03  0.00000000000E+00 0. -1.
         25    1    1    2    0    0 -0.99765767472E+02  0.16605939078E+03  0.48466148304E+02  0.23559052858E+03  0.12500000000E+03 0.  0.
         25    1    1    2    0    0  0.99765767472E+02 -0.16605939078E+03 -0.16276637574E+03  0.28221768672E+03  0.12500000000E+03 0.  0.
</event>
<event>
 4    0  0.2213671E-002  0.2096319E+03  0.7546771E-02  0.1141858E+00
         21   -1    0    0  502  501  0.00000000000E+00  0.00000000000E+00  0.22332203993E+03  0.22332203993E+03  0.00000000000E+00 0.  1.
         21   -1    0    0  501  502 -0.00000000000E+00 -0.00000000000E+00 -0.19678108694E+03  0.19678108694E+03  0.00000000000E+00 0.  1.
         25    1    1    2    0    0  0.74197380653E+02  0.37600940151E+01  0.16457327412E+03  0.21961045548E+03  0.12500000000E+03 0.  0.
         25    1    1    2    0    0 -0.74197380653E+02 -0.37600940151E+01 -0.13803232113E+03  0.20049267139E+03  0.12500000000E+03 0.  0.
</event>
<event>
 4    0  0.2213671E-002  0.2231940E+03  0.7546771E-02  0.1131524E+00
         21   -1    0    0  502  501  0.00000000000E+00  0.00000000000E+00  0.12007058515E+03  0.12007058515E+03  0.00000000000E+00 0.  1.
         21   -1    0    0  501  502 -0.00000000000E+00 -0.00000000000E+00 -0.41488559527E+03  0.41488559527E+03  0.00000000000E+00 0.  1.
         25    1    1    2    0    0 -0.57283108319E+02 -0.65105288006E+01 -0.35795575180E+03  0.38351148840E+03  0.12500000000E+03 0.  0.
         25    1    1    2    0    0  0.57283108319E+02  0.65105288006E+01  0.63140741684E+02  0.15144469203E+03  0.12500000000E+03 0.  0.
</event>
<event>
 4    0  0.2213671E-002  0.2018055E+03  0.7546771E-02  0.1148225E+00
         21   -1    0    0  502  501  0.00000000000E+00  0.00000000000E+00  0.14000633463E+03  0.14000633463E+03  0.00000000000E+00 0.  1.
         21   -1    0    0  501  502 -0.00000000000E+00 -0.00000000000E+00 -0.29088300227E+03  0.29088300227E+03  0.00000000000E+00 0.  1.
         25    1    1    2    0    0 -0.52605744395E+02 -0.13153587488E+03 -0.15116479932E+03  0.24196042502E+03  0.12500000000E+03 0.  0.
         25    1    1    2    0    0  0.52605744395E+02  0.13153587488E+03  0.28813167759E+00  0.18892891188E+03  0.12500000000E+03 0.  0.
</event>
<event>
 4    0  0.2213671E-002  0.4488297E+03  0.7546771E-02  0.1028072E+00
         21   -1    0    0  502  501  0.00000000000E+00  0.00000000000E+00  0.49341387142E+03  0.49341387142E+03  0.00000000000E+00 0.  1.
         21   -1    0    0  501  502 -0.00000000000E+00 -0.00000000000E+00 -0.40827401991E+03  0.40827401991E+03  0.00000000000E+00 0.  1.
         25    1    1    2    0    0 -0.27952307024E+03  0.14622364770E+03  0.33767157361E+03  0.47870825517E+03  0.12500000000E+03 0.  0.
         25    1    1    2    0    0  0.27952307024E+03 -0.14622364770E+03 -0.25253172210E+03  0.42297963616E+03  0.12500000000E+03 0.  0.
</event>
<event>
 4    0  0.2213671E-002  0.1882772E+03  0.7546771E-02  0.1160024E+00
         21   -1    0    0  502  501  0.00000000000E+00  0.00000000000E+00  0.99906476448E+03  0.99906476448E+03  0.00000000000E+00 0. -1.
         21   -1    0    0  501  502 -0.00000000000E+00 -0.00000000000E+00 -0.35481479899E+02  0.35481479899E+02  0.00000000000E+00 0. -1.
         25    1    1    2    0    0 -0.69002562821E+02  0.67970785380E+02  0.20104646405E+03  0.25578518731E+03  0.12500000000E+03 0.  0.
         25    1    1    2    0    0  0.69002562821E+02 -0.67970785380E+02  0.76253682053E+03  0.77876105706E+03  0.12500000000E+03 0.  0.
</event>
<event>
 4    0  0.2213671E-002  0.2081156E+03  0.7546771E-02  0.1143067E+00
         21   -1    0    0  502  501  0.00000000000E+00  0.00000000000E+00  0.14460904122E+03  0.14460904122E+03  0.00000000000E+00 0. -1.
         21   -1    0    0  501  502 -0.00000000000E+00 -0.00000000000E+00 -0.29951181979E+03  0.29951181979E+03  0.00000000000E+00 0. -1.
         25    1    1    2    0    0 -0.15070962390E+02  0.16545800734E+03 -0.67693629982E+02  0.21865706858E+03  0.12500000000E+03 0.  0.
         25    1    1    2    0    0  0.15070962390E+02 -0.16545800734E+03 -0.87209148585E+02  0.22546379243E+03  0.12500000000E+03 0.  0.
</event>
<event>
 4    0  0.2213671E-002  0.3851426E+03  0.7546771E-02  0.1049049E+00
         21   -1    0    0  502  501  0.00000000000E+00  0.00000000000E+00  0.17189196564E+03  0.17189196564E+03  0.00000000000E+00 0.  1.
         21   -1    0    0  501  502 -0.00000000000E+00 -0.00000000000E+00 -0.86295365071E+03  0.86295365071E+03  0.00000000000E+00 0.  1.
         25    1    1    2    0    0 -0.68886900690E+02  0.22320179905E+03  0.30025947039E+02  0.26662896632E+03  0.12500000000E+03 0.  0.
         25    1    1    2    0    0  0.68886900690E+02 -0.22320179905E+03 -0.72108763212E+03  0.76821665003E+03  0.12500000000E+03 0.  0.
</event>
<event>
 4    0  0.2213671E-002  0.3843665E+03  0.7546771E-02  0.1049332E+00
         21   -1    0    0  502  501  0.00000000000E+00  0.00000000000E+00  0.20398330540E+04  0.20398330540E+04  0.00000000000E+00 0. -1.
         21   -1    0    0  501  502 -0.00000000000E+00 -0.00000000000E+00 -0.72426339928E+02  0.72426339928E+02  0.00000000000E+00 0. -1.
         25    1    1    2    0    0  0.34720486250E+03 -0.11399238571E+02  0.68992286093E+03  0.78249582313E+03  0.12500000000E+03 0.  0.
         25    1    1    2    0    0 -0.34720486250E+03  0.11399238571E+02  0.12774838531E+04  0.13297635708E+04  0.12500000000E+03 0.  0.
</event>
<event>
 4    0  0.2213671E-002  0.1828224E+03  0.7546771E-02  0.1165099E+00
         21   -1    0    0  502  501  0.00000000000E+00  0.00000000000E+00  0.14921519235E+04  0.14921519235E+04  0.00000000000E+00 0. -1.
         21   -1    0    0  501  502 -0.00000000000E+00 -0.00000000000E+00 -0.22399873204E+02  0.22399873204E+02  0.00000000000E+00 0. -1.
         25    1    1    2    0    0 -0.25594522705E+02 -0.85319499499E+02  0.11462745714E+04  0.11565054646E+04  0.12500000000E+03 0.  0.
         25    1    1    2    0    0  0.25594522705E+02  0.85319499499E+02  0.32347747888E+03  0.35804633210E+03  0.12500000000E+03 0.  0.
</event>
<event>
 4    0  0.2213671E-002  0.1831977E+03  0.7546771E-02  0.1164744E+00
         21   -1    0    0  502  501  0.00000000000E+00  0.00000000000E+00  0.29038063995E+03  0.29038063995E+03  0.00000000000E+00 0.  1.
         21   -1    0    0  501  502 -0.00000000000E+00 -0.00000000000E+00 -0.11557730762E+03  0.11557730762E+03  0.00000000000E+00 0.  1.
         25    1    1    2    0    0 -0.74173318108E+02 -0.86657149019E+02  0.16515982279E+03  0.23646122231E+03  0.12500000000E+03 0.  0.
         25    1    1    2    0    0  0.74173318108E+02  0.86657149019E+02  0.96435095398E+01  0.16949672525E+03  0.12500000000E+03 0.  0.
</event>
<event>
 4    0  0.2213671E-002  0.2315025E+03  0.7546771E-02  0.1125587E+00
         21   -1    0    0  502  501  0.00000000000E+00  0.00000000000E+00  0.10701468541E+04  0.10701468541E+04  0.00000000000E+00 0.  1.
         21   -1    0    0  501  502 -0.00000000000E+00 -0.00000000000E+00 -0.50080436857E+02  0.50080436857E+02  0.00000000000E+00 0.  1.
         25    1    1    2    0    0  0.64561876946E+01 -0.12060547822E+03  0.14007515081E+03  0.22323398400E+03  0.12500000000E+03 0.  0.
         25    1    1    2    0    0 -0.64561876946E+01  0.12060547822E+03  0.87999126648E+03  0.89699330701E+03  0.12500000000E+03 0.  0.
</event>
<event>
 4    0  0.2213671E-002  0.2572043E+03  0.7546771E-02  0.1108835E+00
         21   -1    0    0  502  501  0.00000000000E+00  0.00000000000E+00  0.11652488869E+03  0.11652488869E+03  0.00000000000E+00 0.  1.
         21   -1    0    0  501  502 -0.00000000000E+00 -0.00000000000E+00 -0.56772475394E+03  0.56772475394E+03  0.00000000000E+00 0.  1.
         25    1    1    2    0    0 -0.57986105135E+02 -0.31245960329E+02  0.60278912146E+02  0.15361395013E+03  0.12500000000E+03 0.  0.
         25    1    1    2    0    0  0.57986105135E+02  0.31245960329E+02 -0.51147877739E+03  0.53063569250E+03  0.12500000000E+03 0.  0.
</event>
<event>
 4    0  0.2213671E-002  0.2068627E+03  0.7546771E-02  0.1144075E+00
         21   -1    0    0  502  501  0.00000000000E+00  0.00000000000E+00  0.93564092582E+03  0.93564092582E+03  0.00000000000E+00 0. -1.
         21   -1    0    0  501  502 -0.00000000000E+00 -0.00000000000E+00 -0.45735689042E+02  0.45735689042E+02  0.00000000000E+00 0. -1.
         25    1    1    2    0    0 -0.36076131445E+01 -0.62520514190E+02  0.80660519431E+03  0.81863225507E+03  0.12500000000E+03 0.  0.
         25    1    1    2    0    0  0.36076131445E+01  0.62520514190E+02  0.83300042473E+02  0.16274435979E+03  0.12500000000E+03 0.  0.
</event>
<event>
 4    0  0.2213671E-002  0.2074909E+03  0.7546771E-02  0.1143568E+00
         21   -1    0    0  502  501  0.00000000000E+00  0.00000000000E+00  0.14221011339E+03  0.14221011339E+03  0.00000000000E+00 0.  1.
         21   -1    0    0  501  502 -0.00000000000E+00 -0.00000000000E+00 -0.30273849443E+03  0.30273849443E+03  0.00000000000E+00 0.  1.
         25    1    1    2    0    0  0.13897567012E+03 -0.77904909444E+02 -0.12874032901E+03  0.23996350579E+03  0.12500000000E+03 0.  0.
         25    1    1    2    0    0 -0.13897567012E+03  0.77904909444E+02 -0.31788052034E+02  0.20498510203E+03  0.12500000000E+03 0.  0.
</event>
<event>
 4    0  0.2213671E-002  0.2547671E+03  0.7546771E-02  0.1110329E+00
         21   -1    0    0  502  501  0.00000000000E+00  0.00000000000E+00  0.63123300688E+03  0.63123300688E+03  0.00000000000E+00 0. -1.
         21   -1    0    0  501  502 -0.00000000000E+00 -0.00000000000E+00 -0.10282461740E+03  0.10282461740E+03  0.00000000000E+00 0. -1.
         25    1    1    2    0    0 -0.52621496668E+02  0.13009078725E+03  0.16393874963E+02  0.18864356331E+03  0.12500000000E+03 0.  0.
         25    1    1    2    0    0  0.52621496668E+02 -0.13009078725E+03  0.51201451451E+03  0.54541406098E+03  0.12500000000E+03 0.  0.
</event>
<event>
 4    0  0.2213671E-002  0.1851922E+03  0.7546771E-02  0.1162871E+00
         21   -1    0    0  502  501  0.00000000000E+00  0.00000000000E+00  0.38078960908E+02  0.38078960908E+02  0.00000000000E+00 0.  1.
         21   -1    0    0  501  502 -0.00000000000E+00 -0.00000000000E+00 -0.90065895186E+03  0.90065895186E+03  0.00000000000E+00 0.  1.
         25    1    1    2    0    0 -0.76745784442E+02  0.10466508289E+03 -0.32297291267E+03  0.36983942100E+03  0.12500000000E+03 0.  0.
         25    1    1    2    0    0  0.76745784442E+02 -0.10466508289E+03 -0.53960707828E+03  0.56889849177E+03  0.12500000000E+03 0.  0.
</event>
<event>
 4    0  0.2213671E-002  0.2489871E+03  0.7546771E-02  0.1113947E+00
         21   -1    0    0  502  501  0.00000000000E+00  0.00000000000E+00  0.47404016364E+03  0.47404016364E+03  0.00000000000E+00 0. -1.
         21   -1    0    0  501  502 -0.00000000000E+00 -0.00000000000E+00 -0.13077920669E+03  0.13077920669E+03  0.00000000000E+00 0. -1.
         25    1    1    2    0    0  0.47883410268E+02  0.49344456921E+02 -0.76216738238E+02  0.16174574985E+03  0.12500000000E+03 0.  0.
         25    1    1    2    0    0 -0.47883410268E+02 -0.49344456921E+02  0.41947769519E+03  0.44307362048E+03  0.12500000000E+03 0.  0.
</event>
<event>
 4    0  0.2213671E-002  0.2205392E+03  0.7546771E-02  0.1133482E+00
         21   -1    0    0  502  501  0.00000000000E+00  0.00000000000E+00  0.38162528076E+02  0.38162528076E+02  0.00000000000E+00 0. -1.
         21   -1    0    0  501  502 -0.00000000000E+00 -0.00000000000E+00 -0.12744839349E+04  0.12744839349E+04  0.00000000000E+00 0. -1.
         25    1    1    2    0    0 -0.61997783732E+02  0.13599934459E+03 -0.31071040780E+03  0.36674992084E+03  0.12500000000E+03 0.  0.
         25    1    1    2    0    0  0.61997783732E+02 -0.13599934459E+03 -0.92561099900E+03  0.94589654212E+03  0.12500000000E+03 0.  0.
</event>
<event>
 4    0  0.2213671E-002  0.2234611E+03  0.7546771E-02  0.1131329E+00
         21   -1    0    0  502  501  0.00000000000E+00  0.00000000000E+00  0.30706133139E+04  0.30706133139E+04  0.00000000000E+00 0. -1.
         21   -1    0    0  501  502 -0.00000000000E+00 -0.00000000000E+00 -0.16262183042E+02  0.16262183042E+02  0.00000000000E+00 0. -1.
         25    1    1    2    0    0  0.23547717099E+00 -0.55546500861E+02  0.30668555980E+03  0.33580723905E+03  0.12500000000E+03 0.  0.
         25    1    1    2    0    0 -0.23547717099E+00  0.55546500861E+02  0.27476655711E+04  0.27510682579E+04  0.12500000000E+03 0.  0.
</event>
<event>
 4    0  0.2213671E-002  0.2495895E+03  0.7546771E-02  0.1113565E+00
         21   -1    0    0  502  501  0.00000000000E+00  0.00000000000E+00  0.68845187947E+03  0.68845187947E+03  0.00000000000E+00 0. -1.
         21   -1    0    0  501  502 -0.00000000000E+00 -0.00000000000E+00 -0.90485516024E+02  0.90485516024E+02  0.00000000000E+00 0. -1.
         25    1    1    2    0    0 -0.52152915947E+01 -0.88231620351E+02 -0.86165295711E+01  0.15333382757E+03  0.12500000000E+03 0.  0.
         25    1    1    2    0    0  0.52152915947E+01  0.88231620351E+02  0.60658289302E+03  0.62560356792E+03  0.12500000000E+03 0.  0.
</event>
<event>
 4    0  0.2213671E-002  0.2196769E+03  0.7546771E-02  0.1134124E+00
         21   -1    0    0  502  501  0.00000000000E+00  0.00000000000E+00  0.73862707953E+03  0.73862707953E+03  0.00000000000E+00 0.  1.
         21   -1    0    0  501  502 -0.00000000000E+00 -0.00000000000E+00 -0.65334662175E+02  0.65334662175E+02  0.00000000000E+00 0.  1.
         25    1    1    2    0    0  0.12158514663E+03  0.62413623267E+02  0.55280790994E+03  0.58300942835E+03  0.12500000000E+03 0.  0.
         25    1    1    2    0    0 -0.12158514663E+03 -0.62413623267E+02  0.12048450741E+03  0.22095231336E+03  0.12500000000E+03 0.  0.
</event>
<event>
 4    0  0.2213671E-002  0.2499193E+03  0.7546771E-02  0.1113356E+00
         21   -1    0    0  502  501  0.00000000000E+00  0.00000000000E+00  0.37929129606E+03  0.37929129606E+03  0.00000000000E+00 0. -1.
         21   -1    0    0  501  502 -0.00000000000E+00 -0.00000000000E+00 -0.16467460350E+03  0.16467460350E+03  0.00000000000E+00 0. -1.
         25    1    1    2    0    0 -0.20190399275E+03  0.57125941627E+02  0.16495704367E+03  0.29472770781E+03  0.12500000000E+03 0.  0.
         25    1    1    2    0    0  0.20190399275E+03 -0.57125941627E+02  0.49659648883E+02  0.24923819174E+03  0.12500000000E+03 0.  0.
</event>
<event>
 4    0  0.2213671E-002  0.3263778E+03  0.7546771E-02  0.1072751E+00
         21   -1    0    0  502  501  0.00000000000E+00  0.00000000000E+00  0.80563534754E+02  0.80563534754E+02  0.00000000000E+00 0. -1.
         21   -1    0    0  501  502 -0.00000000000E+00 -0.00000000000E+00 -0.13222165597E+04  0.13222165597E+04  0.00000000000E+00 0. -1.
         25    1    1    2    0    0 -0.22560921220E+03 -0.19228991390E+03 -0.50267941044E+03  0.59681363699E+03  0.12500000000E+03 0.  0.
         25    1    1    2    0    0  0.22560921220E+03  0.19228991390E+03 -0.73897361445E+03  0.80596645741E+03  0.12500000000E+03 0.  0.
</event>
<event>
 4    0  0.2213671E-002  0.2244844E+03  0.7546771E-02  0.1130583E+00
         21   -1    0    0  502  501  0.00000000000E+00  0.00000000000E+00  0.34676024441E+03  0.34676024441E+03  0.00000000000E+00 0. -1.
         21   -1    0    0  501  502 -0.00000000000E+00 -0.00000000000E+00 -0.14532588228E+03  0.14532588228E+03  0.00000000000E+00 0. -1.
         25    1    1    2    0    0 -0.95348214889E+02 -0.95310692042E+02  0.24190108988E+03  0.30383638259E+03  0.12500000000E+03 0.  0.
         25    1    1    2    0    0  0.95348214889E+02  0.95310692042E+02 -0.40466727744E+02  0.18824974410E+03  0.12500000000E+03 0.  0.
</event>
<event>
 4    0  0.2213671E-002  0.2885697E+03  0.7546771E-02  0.1091098E+00
         21   -1    0    0  502  501  0.00000000000E+00  0.00000000000E+00  0.57837342386E+03  0.57837342386E+03  0.00000000000E+00 0.  1.
         21   -1    0    0  501  502 -0.00000000000E+00 -0.00000000000E+00 -0.14397704407E+03  0.14397704407E+03  0.00000000000E+00 0.  1.
         25    1    1    2    0    0  0.11834428857E+03  0.17818294125E+03  0.32007367334E+02  0.24980793172E+03  0.12500000000E+03 0.  0.
         25    1    1    2    0    0 -0.11834428857E+03 -0.17818294125E+03  0.40238901246E+03  0.47254253622E+03  0.12500000000E+03 0.  0.
</event>
<event>
 4    0  0.2213671E-002  0.1979634E+03  0.7546771E-02  0.1151469E+00
         21   -1    0    0  502  501  0.00000000000E+00  0.00000000000E+00  0.23368811456E+03  0.23368811456E+03  0.00000000000E+00 0. -1.
         21   -1    0    0  501  502 -0.00000000000E+00 -0.00000000000E+00 -0.16769997688E+03  0.16769997688E+03  0.00000000000E+00 0. -1.
         25    1    1    2    0    0  0.65930156516E+02  0.99476451238E+02  0.13087712485E+03  0.21678600439E+03  0.12500000000E+03 0.  0.
         25    1    1    2    0    0 -0.65930156516E+02 -0.99476451238E+02 -0.64888987168E+02  0.18460208705E+03  0.12500000000E+03 0.  0.
</event>
<event>
 4    0  0.2213671E-002  0.3841324E+03  0.7546771E-02  0.1049417E+00
         21   -1    0    0  502  501  0.00000000000E+00  0.00000000000E+00  0.11527102111E+04  0.11527102111E+04  0.00000000000E+00 0.  1.
         21   -1    0    0  501  502 -0.00000000000E+00 -0.00000000000E+00 -0.12800933964E+03  0.12800933964E+03  0.00000000000E+00 0.  1.
         25    1    1    2    0    0 -0.36631330035E+02  0.21961879007E+03  0.33943893373E+02  0.25758776211E+03  0.12500000000E+03 0.  0.
         25    1    1    2    0    0  0.36631330035E+02 -0.21961879007E+03  0.99075697813E+03  0.10231317887E+04  0.12500000000E+03 0.  0.
</event>
<event>
 4    0  0.2213671E-002  0.3005698E+03  0.7546771E-02  0.1084956E+00
         21   -1    0    0  502  501  0.00000000000E+00  0.00000000000E+00  0.23868584923E+03  0.23868584923E+03  0.00000000000E+00 0. -1.
         21   -1    0    0  501  502 -0.00000000000E+00 -0.00000000000E+00 -0.37849849302E+03  0.37849849302E+03  0.00000000000E+00 0. -1.
         25    1    1    2    0    0  0.15468086388E+03  0.14804992409E+03 -0.24435997387E+03  0.34811168682E+03  0.12500000000E+03 0.  0.
         25    1    1    2    0    0 -0.15468086388E+03 -0.14804992409E+03  0.10454733009E+03  0.26907265543E+03  0.12500000000E+03 0.  0.
</event>
<event>
 4    0  0.2213671E-002  0.1786415E+03  0.7546771E-02  0.1169124E+00
         21   -1    0    0  502  501  0.00000000000E+00  0.00000000000E+00  0.12802731186E+03  0.12802731186E+03  0.00000000000E+00 0. -1.
         21   -1    0    0  501  502 -0.00000000000E+00 -0.00000000000E+00 -0.24926540498E+03  0.24926540498E+03  0.00000000000E+00 0. -1.
         25    1    1    2    0    0  0.49470422905E+02  0.11752577552E+03 -0.55016335122E+02  0.18684600018E+03  0.12500000000E+03 0.  0.
         25    1    1    2    0    0 -0.49470422905E+02 -0.11752577552E+03 -0.66221757989E+02  0.19044671666E+03  0.12500000000E+03 0.  0.
</event>
<event>
 4    0  0.2213671E-002  0.2325160E+03  0.7546771E-02  0.1124881E+00
         21   -1    0    0  502  501  0.00000000000E+00  0.00000000000E+00  0.38096661556E+03  0.38096661556E+03  0.00000000000E+00 0. -1.
         21   -1    0    0  501  502 -0.00000000000E+00 -0.00000000000E+00 -0.14191192883E+03  0.14191192883E+03  0.00000000000E+00 0. -1.
         25    1    1    2    0    0 -0.11237721559E+03 -0.46007134522E+01 -0.61037976325E+02  0.17888666720E+03  0.12500000000E+03 0.  0.
         25    1    1    2    0    0  0.11237721559E+03  0.46007134522E+01  0.30009266306E+03  0.34399187719E+03  0.12500000000E+03 0.  0.
</event>
<event>
 4    0  0.2213671E-002  0.1831693E+03  0.7546771E-02  0.1164771E+00
         21   -1    0    0  502  501  0.00000000000E+00  0.00000000000E+00  0.76314291740E+02  0.76314291740E+02  0.00000000000E+00 0. -1.
         21   -1    0    0  501  502 -0.00000000000E+00 -0.00000000000E+00 -0.43964252444E+03  0.43964252444E+03  0.00000000000E+00 0. -1.
         25    1    1    2    0    0 -0.12489516720E+03  0.15875150860E+02 -0.11750491518E+03  0.21279856272E+03  0.12500000000E+03 0.  0.
         25    1    1    2    0    0  0.12489516720E+03 -0.15875150860E+02 -0.24582331752E+03  0.30315825346E+03  0.12500000000E+03 0.  0.
</event>
<event>
 4    0  0.2213671E-002  0.2088339E+03  0.7546771E-02  0.1142493E+00
         21   -1    0    0  502  501  0.00000000000E+00  0.00000000000E+00  0.87128804336E+03  0.87128804336E+03  0.00000000000E+00 0.  1.
         21   -1    0    0  501  502 -0.00000000000E+00 -0.00000000000E+00 -0.50054170746E+02  0.50054170746E+02  0.00000000000E+00 0.  1.
         25    1    1    2    0    0  0.31760788291E+02 -0.16079877754E+03  0.33673978915E+03  0.39482107356E+03  0.12500000000E+03 0.  0.
         25    1    1    2    0    0 -0.31760788291E+02  0.16079877754E+03  0.48449408346E+03  0.52652114054E+03  0.12500000000E+03 0.  0.
</event>
<event>
 4    0  0.2213671E-002  0.2067373E+03  0.7546771E-02  0.1144176E+00
         21   -1    0    0  502  501  0.00000000000E+00  0.00000000000E+00  0.20677808451E+03  0.20677808451E+03  0.00000000000E+00 0. -1.
         21   -1    0    0  501  502 -0.00000000000E+00 -0.00000000000E+00 -0.20669646498E+03  0.20669646498E+03  0.00000000000E+00 0. -1.
         25    1    1    2    0    0  0.33793998068E+02  0.15855399955E+03  0.28918033628E+02  0.20674297508E+03  0.12500000000E+03 0.  0.
         25    1    1    2    0    0 -0.33793998068E+02 -0.15855399955E+03 -0.28836414093E+02  0.20673157440E+03  0.12500000000E+03 0.  0.
</event>
<event>
 4    0  0.2213671E-002  0.2109023E+03  0.7546771E-02  0.1140853E+00
         21   -1    0    0  502  501  0.00000000000E+00  0.00000000000E+00  0.11463944350E+03  0.11463944350E+03  0.00000000000E+00 0. -1.
         21   -1    0    0  501  502 -0.00000000000E+00 -0.00000000000E+00 -0.38799700683E+03  0.38799700683E+03  0.00000000000E+00 0. -1.
         25    1    1    2    0    0 -0.14571030844E+03  0.84396562720E+02 -0.11002006547E+03  0.23681994973E+03  0.12500000000E+03 0.  0.
         25    1    1    2    0    0  0.14571030844E+03 -0.84396562720E+02 -0.16333749786E+03  0.26581650060E+03  0.12500000000E+03 0.  0.
</event>
<event>
 4    0  0.2213671E-002  0.5814582E+03  0.7546771E-02  0.9944639E-01
         21   -1    0    0  502  501  0.00000000000E+00  0.00000000000E+00  0.89483538338E+03  0.89483538338E+03  0.00000000000E+00 0.  1.
         21   -1    0    0  501  502 -0.00000000000E+00 -0.00000000000E+00 -0.37782770810E+03  0.37782770810E+03  0.00000000000E+00 0. -1.
         25    1    1    2    0    0  0.16001347265E+03  0.31854822776E+03 -0.22524240830E+03  0.43981408270E+03  0.12500000000E+03 0.  0.
         25    1    1    2    0    0 -0.16001347265E+03 -0.31854822776E+03  0.74225008358E+03  0.83284900877E+03  0.12500000000E+03 0.  0.
</event>
<event>
 4    0  0.2213671E-002  0.1924257E+03  0.7546771E-02  0.1156292E+00
         21   -1    0    0  502  501  0.00000000000E+00  0.00000000000E+00  0.12069836640E+03  0.12069836640E+03  0.00000000000E+00 0. -1.
         21   -1    0    0  501  502 -0.00000000000E+00 -0.00000000000E+00 -0.30677823988E+03  0.30677823988E+03  0.00000000000E+00 0. -1.
         25    1    1    2    0    0 -0.41083451555E+02  0.13088458407E+03 -0.14950324465E+03  0.23831668951E+03  0.12500000000E+03 0.  0.
         25    1    1    2    0    0  0.41083451555E+02 -0.13088458407E+03 -0.36576628828E+02  0.18915991677E+03  0.12500000000E+03 0.  0.
</event>
<event>
 4    0  0.2213671E-002  0.1991049E+03  0.7546771E-02  0.1150496E+00
         21   -1    0    0  502  501  0.00000000000E+00  0.00000000000E+00  0.90303465793E+03  0.90303465793E+03  0.00000000000E+00 0.  1.
         21   -1    0    0  501  502 -0.00000000000E+00 -0.00000000000E+00 -0.43899504175E+02  0.43899504175E+02  0.00000000000E+00 0.  1.
         25    1    1    2    0    0  0.92381105185E+02  0.12408694010E+03  0.45161188345E+03  0.49346745645E+03  0.12500000000E+03 0.  0.
         25    1    1    2    0    0 -0.92381105185E+02 -0.12408694010E+03  0.40752327030E+03  0.45346670565E+03  0.12500000000E+03 0.  0.
</event>
<event>
 4    0  0.2213671E-002  0.2921668E+03  0.7546771E-02  0.1089223E+00
         21   -1    0    0  502  501  0.00000000000E+00  0.00000000000E+00  0.33568008979E+03  0.33568008979E+03  0.00000000000E+00 0. -1.
         21   -1    0    0  501  502 -0.00000000000E+00 -0.00000000000E+00 -0.25429408769E+03  0.25429408769E+03  0.00000000000E+00 0. -1.
         25    1    1    2    0    0 -0.21296964089E+03  0.78583116011E+02  0.17692165886E+03  0.31377961603E+03  0.12500000000E+03 0.  0.
         25    1    1    2    0    0  0.21296964089E+03 -0.78583116011E+02 -0.95535656762E+02  0.27619456145E+03  0.12500000000E+03 0.  0.
</event>
<event>
 4    0  0.2213671E-002  0.2472850E+03  0.7546771E-02  0.1115033E+00
         21   -1    0    0  502  501  0.00000000000E+00  0.00000000000E+00  0.77094125825E+02  0.77094125825E+02  0.00000000000E+00 0.  1.
         21   -1    0    0  501  502 -0.00000000000E+00 -0.00000000000E+00 -0.79318430751E+03  0.79318430751E+03  0.00000000000E+00 0.  1.
         25    1    1    2    0    0  0.19925622451E+02 -0.86491205222E+02 -0.69947081655E+03  0.71607414575E+03  0.12500000000E+03 0.  0.
         25    1    1    2    0    0 -0.19925622451E+02  0.86491205222E+02 -0.16619365134E+02  0.15420428758E+03  0.12500000000E+03 0.  0.
</event>
<event>
 4    0  0.2213671E-002  0.1922074E+03  0.7546771E-02  0.1156485E+00
         21   -1    0    0  502  501  0.00000000000E+00  0.00000000000E+00  0.44446156996E+03  0.44446156996E+03  0.00000000000E+00 0. -1.
         21   -1    0    0  501  502 -0.00000000000E+00 -0.00000000000E+00 -0.83120082768E+02  0.83120082768E+02  0.00000000000E+00 0. -1.
         25    1    1    2    0    0 -0.11351961252E+03 -0.65252186933E+02  0.92001563135E+02  0.20306116799E+03  0.12500000000E+03 0.  0.
         25    1    1    2    0    0  0.11351961252E+03  0.65252186933E+02  0.26933992406E+03  0.32452048474E+03  0.12500000000E+03 0.  0.
</event>
<event>
 4    0  0.2213671E-002  0.3768609E+03  0.7546771E-02  0.1052100E+00
         21   -1    0    0  502  501  0.00000000000E+00  0.00000000000E+00  0.31823467217E+04  0.31823467217E+04  0.00000000000E+00 0.  1.
         21   -1    0    0  501  502 -0.00000000000E+00 -0.00000000000E+00 -0.44628736131E+02  0.44628736131E+02  0.00000000000E+00 0. -1.
         25    1    1    2    0    0 -0.77793620204E+02  0.28515996846E+03  0.72301594798E+03  0.79104052740E+03  0.12500000000E+03 0.  0.
         25    1    1    2    0    0  0.77793620204E+02 -0.28515996846E+03  0.24147020376E+04  0.24359349304E+04  0.12500000000E+03 0.  0.
</event>
<event>
 4    0  0.2213671E-002  0.1897643E+03  0.7546771E-02  0.1158674E+00
         21   -1    0    0  502  501  0.00000000000E+00  0.00000000000E+00  0.18439434035E+03  0.18439434035E+03  0.00000000000E+00 0.  1.
         21   -1    0    0  501  502 -0.00000000000E+00 -0.00000000000E+00 -0.19529054942E+03  0.19529054942E+03  0.00000000000E+00 0.  1.
         25    1    1    2    0    0  0.71860458049E+02 -0.98318295228E+02 -0.80011086093E+02  0.19198225570E+03  0.12500000000E+03 0.  0.
         25    1    1    2    0    0 -0.71860458049E+02  0.98318295228E+02  0.69114877023E+02  0.18770263406E+03  0.12500000000E+03 0.  0.
</event>
<event>
 4    0  0.2213671E-002  0.1858464E+03  0.7546771E-02  0.1162262E+00
         21   -1    0    0  502  501  0.00000000000E+00  0.00000000000E+00  0.42740567797E+03  0.42740567797E+03  0.00000000000E+00 0. -1.
         21   -1    0    0  501  502 -0.00000000000E+00 -0.00000000000E+00 -0.80810515959E+02  0.80810515959E+02  0.00000000000E+00 0. -1.
         25    1    1    2    0    0 -0.95369832566E+02 -0.42335646054E+02  0.50802579736E+02  0.17056850236E+03  0.12500000000E+03 0.  0.
         25    1    1    2    0    0  0.95369832566E+02  0.42335646054E+02  0.29579258227E+03  0.33764769156E+03  0.12500000000E+03 0.  0.
</event>
<event>
 4    0  0.2213671E-002  0.1491490E+03  0.7546771E-02  0.1201523E+00
         21   -1    0    0  502  501  0.00000000000E+00  0.00000000000E+00  0.14761101943E+03  0.14761101943E+03  0.00000000000E+00 0. -1.
         21   -1    0    0  501  502 -0.00000000000E+00 -0.00000000000E+00 -0.15070296691E+03  0.15070296691E+03  0.00000000000E+00 0. -1.
         25    1    1    2    0    0  0.55344519669E+02  0.34395292833E+02 -0.50276063539E+02  0.14966206798E+03  0.12500000000E+03 0.  0.
         25    1    1    2    0    0 -0.55344519669E+02 -0.34395292833E+02  0.47184116057E+02  0.14865191837E+03  0.12500000000E+03 0.  0.
</event>
<event>
 4    0  0.2213671E-002  0.2255265E+03  0.7546771E-02  0.1129829E+00
         21   -1    0    0  502  501  0.00000000000E+00  0.00000000000E+00  0.39690677090E+02  0.39690677090E+02  0.00000000000E+00 0.  1.
         21   -1    0    0  501  502 -0.00000000000E+00 -0.00000000000E+00 -0.12814646227E+04  0.12814646227E+04  0.00000000000E+00 0.  1.
         25    1    1    2    0    0 -0.78991650205E+02 -0.41627538822E+02 -0.11045316362E+04  0.11151626196E+04  0.12500000000E+03 0.  0.
         25    1    1    2    0    0  0.78991650205E+02  0.41627538822E+02 -0.13724230935E+03  0.20599268013E+03  0.12500000000E+03 0.  0.
</event>
<event>
 4    0  0.2213671E-002  0.2613014E+03  0.7546771E-02  0.1106364E+00
         21   -1    0    0  502  501  0.00000000000E+00  0.00000000000E+00  0.98058371987E+02  0.98058371987E+02  0.00000000000E+00 0. -1.
         21   -1    0    0  501  502 -0.00000000000E+00 -0.00000000000E+00 -0.69630361454E+03  0.69630361454E+03  0.00000000000E+00 0. -1.
         25    1    1    2    0    0 -0.88368615051E+02 -0.20985865631E+03 -0.25603007277E+03  0.36472738575E+03  0.12500000000E+03 0.  0.
         25    1    1    2    0    0  0.88368615051E+02  0.20985865631E+03 -0.34221516978E+03  0.42963460078E+03  0.12500000000E+03 0.  0.
</event>
<event>
 4    0  0.2213671E-002  0.3334423E+03  0.7546771E-02  0.1069624E+00
         21   -1    0    0  502  501  0.00000000000E+00  0.00000000000E+00  0.38383735526E+03  0.38383735526E+03  0.00000000000E+00 0. -1.
         21   -1    0    0  501  502 -0.00000000000E+00 -0.00000000000E+00 -0.28966373900E+03  0.28966373900E+03  0.00000000000E+00 0. -1.
         25    1    1    2    0    0  0.14566547329E+03 -0.80909076552E+02 -0.21586940060E+03  0.29998217763E+03  0.12500000000E+03 0.  0.
         25    1    1    2    0    0 -0.14566547329E+03  0.80909076552E+02  0.31004301687E+03  0.37351891663E+03  0.12500000000E+03 0.  0.
</event>
<event>
 4    0  0.2213671E-002  0.2723878E+03  0.7546771E-02  0.1099921E+00
         21   -1    0    0  502  501  0.00000000000E+00  0.00000000000E+00  0.73281135275E+02  0.73281135275E+02  0.00000000000E+00 0. -1.
         21   -1    0    0  501  502 -0.00000000000E+00 -0.00000000000E+00 -0.10124722670E+04  0.10124722670E+04  0.00000000000E+00 0. -1.
         25    1    1    2    0    0 -0.12395081865E+03 -0.62683466231E+02 -0.86458294509E+03  0.88454603686E+03  0.12500000000E+03 0.  0.
         25    1    1    2    0    0  0.12395081865E+03  0.62683466231E+02 -0.74608186623E+02  0.20120736540E+03  0.12500000000E+03 0.  0.
</event>
<event>
 4    0  0.2213671E-002  0.1776942E+03  0.7546771E-02  0.1170053E+00
         21   -1    0    0  502  501  0.00000000000E+00  0.00000000000E+00  0.19806819019E+03  0.19806819019E+03  0.00000000000E+00 0. -1.
         21   -1    0    0  501  502 -0.00000000000E+00 -0.00000000000E+00 -0.15941599334E+03  0.15941599334E+03  0.00000000000E+00 0. -1.
         25    1    1    2    0    0 -0.43499945846E+02  0.55102100415E+02 -0.86277523346E+02  0.16732393073E+03  0.12500000000E+03 0.  0.
         25    1    1    2    0    0  0.43499945846E+02 -0.55102100415E+02  0.12492972019E+03  0.19016025280E+03  0.12500000000E+03 0.  0.
</event>
<event>
 4    0  0.2213671E-002  0.1563157E+03  0.7546771E-02  0.1192920E+00
         21   -1    0    0  502  501  0.00000000000E+00  0.00000000000E+00  0.35260066349E+02  0.35260066349E+02  0.00000000000E+00 0.  1.
         21   -1    0    0  501  502 -0.00000000000E+00 -0.00000000000E+00 -0.69298236357E+03  0.69298236357E+03  0.00000000000E+00 0.  1.
         25    1    1    2    0    0  0.88860592329E+02  0.25875149034E+02 -0.36523822420E+03  0.39697567762E+03  0.12500000000E+03 0.  0.
         25    1    1    2    0    0 -0.88860592329E+02 -0.25875149034E+02 -0.29248407302E+03  0.33126675230E+03  0.12500000000E+03 0.  0.
</event>
<event>
 4    0  0.2213671E-002  0.1762225E+03  0.7546771E-02  0.1171510E+00
         21   -1    0    0  502  501  0.00000000000E+00  0.00000000000E+00  0.19984116440E+03  0.19984116440E+03  0.00000000000E+00 0. -1.
         21   -1    0    0  501  502 -0.00000000000E+00 -0.00000000000E+00 -0.15539520061E+03  0.15539520061E+03  0.00000000000E+00 0. -1.
         25    1    1    2    0    0  0.10973143950E+02  0.82662206178E+02 -0.70570880620E+02  0.16600813055E+03  0.12500000000E+03 0.  0.
         25    1    1    2    0    0 -0.10973143950E+02 -0.82662206178E+02  0.11501684441E+03  0.18922823446E+03  0.12500000000E+03 0.  0.
</event>
<event>
 4    0  0.2213671E-002  0.4663826E+03  0.7546771E-02  0.1022946E+00
         21   -1    0    0  502  501  0.00000000000E+00  0.00000000000E+00  0.10554295823E+04  0.10554295823E+04  0.00000000000E+00 0.  1.
         21   -1    0    0  501  502 -0.00000000000E+00 -0.00000000000E+00 -0.20608931554E+03  0.20608931554E+03  0.00000000000E+00 0.  1.
         25    1    1    2    0    0  0.44338874405E+03  0.25849558646E+02  0.51665648058E+03  0.69269091011E+03  0.12500000000E+03 0.  0.
         25    1    1    2    0    0 -0.44338874405E+03 -0.25849558646E+02  0.33268378619E+03  0.56882798773E+03  0.12500000000E+03 0.  0.
</event>
<event>
 4    0  0.2213671E-002  0.1721737E+03  0.7546771E-02  0.1175600E+00
         21   -1    0    0  502  501  0.00000000000E+00  0.00000000000E+00  0.14527302740E+04  0.14527302740E+04  0.00000000000E+00 0. -1.
         21   -1    0    0  501  502 -0.00000000000E+00 -0.00000000000E+00 -0.20405575427E+02  0.20405575427E+02  0.00000000000E+00 0. -1.
         25    1    1    2    0    0 -0.36228095959E+02  0.78291442174E+02  0.10631006844E+04  0.10738948226E+04  0.12500000000E+03 0.  0.
         25    1    1    2    0    0  0.36228095959E+02 -0.78291442174E+02  0.36922401421E+03  0.39924102685E+03  0.12500000000E+03 0.  0.
</event>
<event>
 4    0  0.2213671E-002  0.1788571E+03  0.7546771E-02  0.1168914E+00
         21   -1    0    0  502  501  0.00000000000E+00  0.00000000000E+00  0.16497706391E+03  0.16497706391E+03  0.00000000000E+00 0. -1.
         21   -1    0    0  501  502 -0.00000000000E+00 -0.00000000000E+00 -0.19390486632E+03  0.19390486632E+03  0.00000000000E+00 0. -1.
         25    1    1    2    0    0 -0.12096690625E+03  0.20539287082E+02 -0.50775990504E+02  0.18236791366E+03  0.12500000000E+03 0.  0.
         25    1    1    2    0    0  0.12096690625E+03 -0.20539287082E+02  0.21848188094E+02  0.17651401657E+03  0.12500000000E+03 0.  0.
</event>
<event>
 4    0  0.2213671E-002  0.2017138E+03  0.7546771E-02  0.1148301E+00
         21   -1    0    0  502  501  0.00000000000E+00  0.00000000000E+00  0.86368811343E+03  0.86368811343E+03  0.00000000000E+00 0.  1.
         21   -1    0    0  501  502 -0.00000000000E+00 -0.00000000000E+00 -0.47110136536E+02  0.47110136536E+02  0.00000000000E+00 0.  1.
         25    1    1    2    0    0 -0.45190812424E+02  0.13851861507E+03  0.26849965824E+03  0.33007072382E+03  0.12500000000E+03 0.  0.
         25    1    1    2    0    0  0.45190812424E+02 -0.13851861507E+03  0.54807831865E+03  0.58072752614E+03  0.12500000000E+03 0.  0.
</event>
<event>
 4    0  0.2213671E-002  0.2068029E+03  0.7546771E-02  0.1144123E+00
         21   -1    0    0  502  501  0.00000000000E+00  0.00000000000E+00  0.21704132032E+03  0.21704132032E+03  0.00000000000E+00 0. -1.
         21   -1    0    0  501  502 -0.00000000000E+00 -0.00000000000E+00 -0.19704744036E+03  0.19704744036E+03  0.00000000000E+00 0. -1.
         25    1    1    2    0    0  0.11490737609E+00  0.78014394896E+02  0.15527385355E+03  0.21405893723E+03  0.12500000000E+03 0.  0.
         25    1    1    2    0    0 -0.11490737609E+00 -0.78014394896E+02 -0.13527997358E+03  0.20002982344E+03  0.12500000000E+03 0.  0.
</event>
<event>
 4    0  0.2213671E-002  0.4239898E+03  0.7546771E-02  0.1035776E+00
         21   -1    0    0  502  501  0.00000000000E+00  0.00000000000E+00  0.82237230254E+03  0.82237230254E+03  0.00000000000E+00 0. -1.
         21   -1    0    0  501  502 -0.00000000000E+00 -0.00000000000E+00 -0.21859611684E+03  0.21859611684E+03  0.00000000000E+00 0. -1.
         25    1    1    2    0    0 -0.95543895826E+02 -0.18646350381E+03 -0.12379443556E+03  0.27358241273E+03  0.12500000000E+03 0.  0.
         25    1    1    2    0    0  0.95543895826E+02  0.18646350381E+03  0.72757062126E+03  0.76738600665E+03  0.12500000000E+03 0.  0.
</event>
<event>
 4    0  0.2213671E-002  0.2538404E+03  0.7546771E-02  0.1110902E+00
         21   -1    0    0  502  501  0.00000000000E+00  0.00000000000E+00  0.32007303285E+03  0.32007303285E+03  0.00000000000E+00 0. -1.
         21   -1    0    0  501  502 -0.00000000000E+00 -0.00000000000E+00 -0.20131319362E+03  0.20131319362E+03  0.00000000000E+00 0. -1.
         25    1    1    2    0    0 -0.20915672572E+03 -0.46230524221E+01  0.13230400695E+03  0.27730354989E+03  0.12500000000E+03 0.  0.
         25    1    1    2    0    0  0.20915672572E+03  0.46230524221E+01 -0.13544167720E+02  0.24408267658E+03  0.12500000000E+03 0.  0.
</event>
<event>
 4    0  0.2213671E-002  0.2450074E+03  0.7546771E-02  0.1116501E+00
         21   -1    0    0  502  501  0.00000000000E+00  0.00000000000E+00  0.48596349767E+03  0.48596349767E+03  0.00000000000E+00 0.  1.
         21   -1    0    0  501  502 -0.00000000000E+00 -0.00000000000E+00 -0.12352497323E+03  0.12352497323E+03  0.00000000000E+00 0.  1.
         25    1    1    2    0    0 -0.11791270398E+03  0.12210733490E+02  0.39791164903E+03  0.43360256942E+03  0.12500000000E+03 0.  0.
         25    1    1    2    0    0  0.11791270398E+03 -0.12210733490E+02 -0.35473124580E+02  0.17588590148E+03  0.12500000000E+03 0.  0.
</event>
<event>
 4    0  0.2213671E-002  0.2080657E+03  0.7546771E-02  0.1143107E+00
         21   -1    0    0  502  501  0.00000000000E+00  0.00000000000E+00  0.10772002456E+03  0.10772002456E+03  0.00000000000E+00 0. -1.
         21   -1    0    0  501  502 -0.00000000000E+00 -0.00000000000E+00 -0.40188758906E+03  0.40188758906E+03  0.00000000000E+00 0. -1.
         25    1    1    2    0    0  0.13200507026E+02 -0.12938559903E+02  0.55349979316E+02  0.13795028064E+03  0.12500000000E+03 0.  0.
         25    1    1    2    0    0 -0.13200507026E+02  0.12938559903E+02 -0.34951754382E+03  0.37165733298E+03  0.12500000000E+03 0.  0.
</event>
<event>
 4    0  0.2213671E-002  0.3293078E+03  0.7546771E-02  0.1071444E+00
         21   -1    0    0  502  501  0.00000000000E+00  0.00000000000E+00  0.16313176928E+04  0.16313176928E+04  0.00000000000E+00 0. -1.
         21   -1    0    0  501  502 -0.00000000000E+00 -0.00000000000E+00 -0.66476076238E+02  0.66476076238E+02  0.00000000000E+00 0. -1.
         25    1    1    2    0    0  0.30238672671E+03 -0.20870415351E+02  0.70316408674E+03  0.77584665985E+03  0.12500000000E+03 0.  0.
         25    1    1    2    0    0 -0.30238672671E+03  0.20870415351E+02  0.86167752977E+03  0.92194710914E+03  0.12500000000E+03 0.  0.
</event>
<event>
 4    0  0.2213671E-002  0.1986873E+03  0.7546771E-02  0.1150851E+00
         21   -1    0    0  502  501  0.00000000000E+00  0.00000000000E+00  0.36548826527E+03  0.36548826527E+03  0.00000000000E+00 0.  1.
         21   -1    0    0  501  502 -0.00000000000E+00 -0.00000000000E+00 -0.10801065912E+03  0.10801065912E+03  0.00000000000E+00 0.  1.
         25    1    1    2    0    0 -0.11785580428E+02 -0.11799971279E+03  0.24663060884E+03  0.30085626027E+03  0.12500000000E+03 0.  0.
         25    1    1    2    0    0  0.11785580428E+02  0.11799971279E+03  0.10846997305E+02  0.17264266412E+03  0.12500000000E+03 0.  0.
</event>
<event>
 4    0  0.2213671E-002  0.1723214E+03  0.7546771E-02  0.1175448E+00
         21   -1    0    0  502  501  0.00000000000E+00  0.00000000000E+00  0.12334162393E+03  0.12334162393E+03  0.00000000000E+00 0. -1.
         21   -1    0    0  501  502 -0.00000000000E+00 -0.00000000000E+00 -0.24075135100E+03  0.24075135100E+03  0.00000000000E+00 0. -1.
         25    1    1    2    0    0 -0.83139763676E+02 -0.19982427193E+02  0.28142543357E+02  0.15404064544E+03  0.12500000000E+03 0.  0.
         25    1    1    2    0    0  0.83139763676E+02  0.19982427193E+02 -0.14555227043E+03  0.21005232950E+03  0.12500000000E+03 0.  0.
</event>
<event>
 4    0  0.2213671E-002  0.1869157E+03  0.7546771E-02  0.1161273E+00
         21   -1    0    0  502  501  0.00000000000E+00  0.00000000000E+00  0.90164146838E+02  0.90164146838E+02  0.00000000000E+00 0. -1.
         21   -1    0    0  501  502 -0.00000000000E+00 -0.00000000000E+00 -0.38748730323E+03  0.38748730323E+03  0.00000000000E+00 0. -1.
         25    1    1    2    0    0  0.23269712681E+02 -0.13302065596E+03 -0.19058338159E+03  0.26492074245E+03  0.12500000000E+03 0.  0.
         25    1    1    2    0    0 -0.23269712681E+02  0.13302065596E+03 -0.10673977480E+03  0.21273070762E+03  0.12500000000E+03 0.  0.
</event>
<event>
 4    0  0.2213671E-002  0.2040986E+03  0.7546771E-02  0.1146326E+00
         21   -1    0    0  502  501  0.00000000000E+00  0.00000000000E+00  0.18962165026E+04  0.18962165026E+04  0.00000000000E+00 0.  1.
         21   -1    0    0  501  502 -0.00000000000E+00 -0.00000000000E+00 -0.21968080187E+02  0.21968080187E+02  0.00000000000E+00 0.  1.
         25    1    1    2    0    0 -0.56339241458E+02 -0.14575736761E+02  0.16442609851E+04  0.16500320449E+04  0.12500000000E+03 0.  0.
         25    1    1    2    0    0  0.56339241458E+02  0.14575736761E+02  0.22998743734E+03  0.26815253786E+03  0.12500000000E+03 0.  0.
</event>
<event>
 4    0  0.2213671E-002  0.2267896E+03  0.7546771E-02  0.1128920E+00
         21   -1    0    0  502  501  0.00000000000E+00  0.00000000000E+00  0.71905661149E+03  0.71905661149E+03  0.00000000000E+00 0.  1.
         21   -1    0    0  501  502 -0.00000000000E+00 -0.00000000000E+00 -0.71529173600E+02  0.71529173600E+02  0.00000000000E+00 0.  1.
         25    1    1    2    0    0  0.10894802927E+03 -0.14911342210E+03  0.39571452827E+03  0.45422403461E+03  0.12500000000E+03 0.  0.
         25    1    1    2    0    0 -0.10894802927E+03  0.14911342210E+03  0.25181290961E+03  0.33636175047E+03  0.12500000000E+03 0.  0.
</event>
<event>
 4    0  0.2213671E-002  0.2973372E+03  0.7546771E-02  0.1086579E+00
         21   -1    0    0  502  501  0.00000000000E+00  0.00000000000E+00  0.37735081017E+02  0.37735081017E+02  0.00000000000E+00 0.  1.
         21   -1    0    0  501  502 -0.00000000000E+00 -0.00000000000E+00 -0.23428978482E+04  0.23428978482E+04  0.00000000000E+00 0. -1.
         25    1    1    2    0    0 -0.13949584669E+03 -0.13471968528E+03 -0.40176097168E+03  0.46329835227E+03  0.12500000000E+03 0.  0.
         25    1    1    2    0    0  0.13949584669E+03  0.13471968528E+03 -0.19034017955E+04  0.19173345770E+04  0.12500000000E+03 0.  0.
</event>
<event>
 4    0  0.2213671E-002  0.1844272E+03  0.7546771E-02  0.1163586E+00
         21   -1    0    0  502  501  0.00000000000E+00  0.00000000000E+00  0.43852182927E+03  0.43852182927E+03  0.00000000000E+00 0.  1.
         21   -1    0    0  501  502 -0.00000000000E+00 -0.00000000000E+00 -0.77563719405E+02  0.77563719405E+02  0.00000000000E+00 0.  1.
         25    1    1    2    0    0 -0.21695712750E+02  0.72302082456E+02  0.33809462437E+03  0.36828150932E+03  0.12500000000E+03 0.  0.
         25    1    1    2    0    0  0.21695712750E+02 -0.72302082456E+02  0.22863485489E+02  0.14780403935E+03  0.12500000000E+03 0.  0.
</event>
<event>
 4    0  0.2213671E-002  0.2168761E+03  0.7546771E-02  0.1136234E+00
         21   -1    0    0  502  501  0.00000000000E+00  0.00000000000E+00  0.54203253663E+03  0.54203253663E+03  0.00000000000E+00 0.  1.
         21   -1    0    0  501  502 -0.00000000000E+00 -0.00000000000E+00 -0.86775669221E+02  0.86775669221E+02  0.00000000000E+00 0.  1.
         25    1    1    2    0    0 -0.19437163331E+01 -0.88930442405E+02  0.44985217802E+03  0.47529399711E+03  0.12500000000E+03 0.  0.
         25    1    1    2    0    0  0.19437163331E+01  0.88930442405E+02  0.54046893940E+01  0.15351420875E+03  0.12500000000E+03 0.  0.
</event>
<event>
 4    0  0.2213671E-002  0.1449656E+03  0.7546771E-02  0.1206799E+00
         21   -1    0    0  502  501  0.00000000000E+00  0.00000000000E+00  0.12373857125E+03  0.12373857125E+03  0.00000000000E+00 0.  1.
         21   -1    0    0  501  502 -0.00000000000E+00 -0.00000000000E+00 -0.16983413449E+03  0.16983413449E+03  0.00000000000E+00 0.  1.
         25    1    1    2    0    0 -0.40993963855E+02 -0.58862974981E+02 -0.38886437666E+02  0.14927327266E+03  0.12500000000E+03 0.  0.
         25    1    1    2    0    0  0.40993963855E+02  0.58862974981E+02 -0.72091255725E+01  0.14429943308E+03  0.12500000000E+03 0.  0.
</event>
<event>
 4    0  0.2213671E-002  0.2194149E+03  0.7546771E-02  0.1134320E+00
         21   -1    0    0  502  501  0.00000000000E+00  0.00000000000E+00  0.42135122815E+03  0.42135122815E+03  0.00000000000E+00 0. -1.
         21   -1    0    0  501  502 -0.00000000000E+00 -0.00000000000E+00 -0.11425839662E+03  0.11425839662E+03  0.00000000000E+00 0. -1.
         25    1    1    2    0    0 -0.10559838412E+03 -0.66109325172E+02  0.31266882494E+03  0.35903795857E+03  0.12500000000E+03 0.  0.
         25    1    1    2    0    0  0.10559838412E+03  0.66109325172E+02 -0.55759933995E+01  0.17657166621E+03  0.12500000000E+03 0.  0.
</event>
<event>
 4    0  0.2213671E-002  0.2533650E+03  0.7546771E-02  0.1111196E+00
         21   -1    0    0  502  501  0.00000000000E+00  0.00000000000E+00  0.56163365026E+03  0.56163365026E+03  0.00000000000E+00 0. -1.
         21   -1    0    0  501  502 -0.00000000000E+00 -0.00000000000E+00 -0.11429840037E+03  0.11429840037E+03  0.00000000000E+00 0. -1.
         25    1    1    2    0    0  0.70546797299E+02 -0.90334189808E+02 -0.27418360178E+02  0.17179605040E+03  0.12500000000E+03 0.  0.
         25    1    1    2    0    0 -0.70546797299E+02  0.90334189808E+02  0.47475361007E+03  0.50413600023E+03  0.12500000000E+03 0.  0.
</event>
<event>
 4    0  0.2213671E-002  0.2580471E+03  0.7546771E-02  0.1108322E+00
         21   -1    0    0  502  501  0.00000000000E+00  0.00000000000E+00  0.90546304720E+02  0.90546304720E+02  0.00000000000E+00 0. -1.
         21   -1    0    0  501  502 -0.00000000000E+00 -0.00000000000E+00 -0.73540612991E+03  0.73540612991E+03  0.00000000000E+00 0. -1.
         25    1    1    2    0    0  0.92719639484E+02  0.99775706039E+02 -0.34309846966E+02  0.18802736147E+03  0.12500000000E+03 0.  0.
         25    1    1    2    0    0 -0.92719639484E+02 -0.99775706039E+02 -0.61054997823E+03  0.63792507317E+03  0.12500000000E+03 0.  0.
</event>
<event>
 4    0  0.2213671E-002  0.2968984E+03  0.7546771E-02  0.1086801E+00
         21   -1    0    0  502  501  0.00000000000E+00  0.00000000000E+00  0.22859051647E+03  0.22859051647E+03  0.00000000000E+00 0.  1.
         21   -1    0    0  501  502 -0.00000000000E+00 -0.00000000000E+00 -0.38561829294E+03  0.38561829294E+03  0.00000000000E+00 0.  1.
         25    1    1    2    0    0  0.24448393487E+03 -0.10481506721E+03 -0.35056681980E+02  0.29599419534E+03  0.12500000000E+03 0.  0.
         25    1    1    2    0    0 -0.24448393487E+03  0.10481506721E+03 -0.12197109448E+03  0.31821461408E+03  0.12500000000E+03 0.  0.
</event>
<event>
 4    0  0.2213671E-002  0.2012045E+03  0.7546771E-02  0.1148727E+00
         21   -1    0    0  502  501  0.00000000000E+00  0.00000000000E+00  0.72917008698E+03  0.72917008698E+03  0.00000000000E+00 0.  1.
         21   -1    0    0  501  502 -0.00000000000E+00 -0.00000000000E+00 -0.55519652532E+02  0.55519652532E+02  0.00000000000E+00 0.  1.
         25    1    1    2    0    0  0.71325249378E+02 -0.34170058271E+02  0.70859179982E+02  0.16401496111E+03  0.12500000000E+03 0.  0.
         25    1    1    2    0    0 -0.71325249378E+02  0.34170058271E+02  0.60279125446E+03  0.62067477840E+03  0.12500000000E+03 0.  0.
</event>
<event>
 4    0  0.2213671E-002  0.1955497E+03  0.7546771E-02  0.1153549E+00
         21   -1    0    0  502  501  0.00000000000E+00  0.00000000000E+00  0.89881906653E+03  0.89881906653E+03  0.00000000000E+00 0.  1.
         21   -1    0    0  501  502 -0.00000000000E+00 -0.00000000000E+00 -0.42544342407E+02  0.42544342407E+02  0.00000000000E+00 0. -1.
         25    1    1    2    0    0 -0.15002083797E+03 -0.69911834860E+01  0.40956504271E+03  0.45378811430E+03  0.12500000000E+03 0.  0.
         25    1    1    2    0    0  0.15002083797E+03  0.69911834860E+01  0.44670968141E+03  0.48757529463E+03  0.12500000000E+03 0.  0.
</event>
<event>
 4    0  0.2213671E-002  0.1638199E+03  0.7546771E-02  0.1184450E+00
         21   -1    0    0  502  501  0.00000000000E+00  0.00000000000E+00  0.68825794345E+02  0.68825794345E+02  0.00000000000E+00 0. -1.
         21   -1    0    0  501  502 -0.00000000000E+00 -0.00000000000E+00 -0.38992579375E+03  0.38992579375E+03  0.00000000000E+00 0. -1.
         25    1    1    2    0    0  0.18564706846E+02  0.22232866918E+02 -0.30315450763E+03  0.32919083251E+03  0.12500000000E+03 0.  0.
         25    1    1    2    0    0 -0.18564706846E+02 -0.22232866918E+02 -0.17945491769E+02  0.12956075558E+03  0.12500000000E+03 0.  0.
</event>
<event>
 4    0  0.2213671E-002  0.1686148E+03  0.7546771E-02  0.1179300E+00
         21   -1    0    0  502  501  0.00000000000E+00  0.00000000000E+00  0.12765871725E+03  0.12765871725E+03  0.00000000000E+00 0.  1.
         21   -1    0    0  501  502 -0.00000000000E+00 -0.00000000000E+00 -0.22271058387E+03  0.22271058387E+03  0.00000000000E+00 0.  1.
         25    1    1    2    0    0 -0.24280539507E+02 -0.98119190770E+02  0.53391226649E+01  0.16084286253E+03  0.12500000000E+03 0.  0.
         25    1    1    2    0    0  0.24280539507E+02  0.98119190770E+02 -0.10039098928E+03  0.18952643859E+03  0.12500000000E+03 0.  0.
</event>
<event>
 4    0  0.2213671E-002  0.3084636E+03  0.7546771E-02  0.1081085E+00
         21   -1    0    0  502  501  0.00000000000E+00  0.00000000000E+00  0.15851839363E+03  0.15851839363E+03  0.00000000000E+00 0.  1.
         21   -1    0    0  501  502 -0.00000000000E+00 -0.00000000000E+00 -0.60024466657E+03  0.60024466657E+03  0.00000000000E+00 0.  1.
         25    1    1    2    0    0  0.11207910966E+03 -0.15161404558E+03  0.37054723021E+02  0.22923044767E+03  0.12500000000E+03 0.  0.
         25    1    1    2    0    0 -0.11207910966E+03  0.15161404558E+03 -0.47878099597E+03  0.52953261254E+03  0.12500000000E+03 0.  0.
</event>
<event>
 4    0  0.2213671E-002  0.2412092E+03  0.7546771E-02  0.1118990E+00
         21   -1    0    0  502  501  0.00000000000E+00  0.00000000000E+00  0.43407174159E+03  0.43407174159E+03  0.00000000000E+00 0. -1.
         21   -1    0    0  501  502 -0.00000000000E+00 -0.00000000000E+00 -0.13403749314E+03  0.13403749314E+03  0.00000000000E+00 0. -1.
         25    1    1    2    0    0  0.60705249076E+02  0.18149974068E+03  0.59335178911E+02  0.23616296617E+03  0.12500000000E+03 0.  0.
         25    1    1    2    0    0 -0.60705249076E+02 -0.18149974068E+03  0.24069906954E+03  0.33194626856E+03  0.12500000000E+03 0.  0.
</event>
<event>
 4    0  0.2213671E-002  0.2104791E+03  0.7546771E-02  0.1141187E+00
         21   -1    0    0  502  501  0.00000000000E+00  0.00000000000E+00  0.59458226803E+03  0.59458226803E+03  0.00000000000E+00 0.  1.
         21   -1    0    0  501  502 -0.00000000000E+00 -0.00000000000E+00 -0.74508517016E+02  0.74508517016E+02  0.00000000000E+00 0.  1.
         25    1    1    2    0    0 -0.25969247790E+02 -0.16502303124E+03  0.21594753532E+03  0.30027544135E+03  0.12500000000E+03 0.  0.
         25    1    1    2    0    0  0.25969247790E+02  0.16502303124E+03  0.30412621569E+03  0.36881534369E+03  0.12500000000E+03 0.  0.
</event>
<event>
 4    0  0.2213671E-002  0.5053827E+03  0.7546771E-02  0.1012383E+00
         21   -1    0    0  502  501  0.00000000000E+00  0.00000000000E+00  0.79640408108E+03  0.79640408108E+03  0.00000000000E+00 0. -1.
         21   -1    0    0  501  502 -0.00000000000E+00 -0.00000000000E+00 -0.32070616014E+03  0.32070616014E+03  0.00000000000E+00 0. -1.
         25    1    1    2    0    0 -0.30672275506E+03 -0.19272115079E+03  0.60200991222E+03  0.71362540933E+03  0.12500000000E+03 0.  0.
         25    1    1    2    0    0  0.30672275506E+03  0.19272115079E+03 -0.12631199128E+03  0.40348483190E+03  0.12500000000E+03 0.  0.
</event>
<event>
 4    0  0.2213671E-002  0.1954273E+03  0.7546771E-02  0.1153655E+00
         21   -1    0    0  502  501  0.00000000000E+00  0.00000000000E+00  0.87775449002E+02  0.87775449002E+02  0.00000000000E+00 0.  1.
         21   -1    0    0  501  502 -0.00000000000E+00 -0.00000000000E+00 -0.43510843986E+03  0.43510843986E+03  0.00000000000E+00 0.  1.
         25    1    1    2    0    0 -0.26166359558E+01  0.14918945642E+03 -0.19693407583E+03  0.27689776256E+03  0.12500000000E+03 0.  0.
         25    1    1    2    0    0  0.26166359558E+01 -0.14918945642E+03 -0.15039891502E+03  0.24598612630E+03  0.12500000000E+03 0.  0.
</event>
<event>
 4    0  0.2213671E-002  0.1784288E+03  0.7546771E-02  0.1169332E+00
         21   -1    0    0  502  501  0.00000000000E+00  0.00000000000E+00  0.95934583746E+02  0.95934583746E+02  0.00000000000E+00 0.  1.
         21   -1    0    0  501  502 -0.00000000000E+00 -0.00000000000E+00 -0.33185969635E+03  0.33185969635E+03  0.00000000000E+00 0.  1.
         25    1    1    2    0    0  0.60817413366E+02  0.11129201557E+03 -0.10444492545E+03  0.20644227511E+03  0.12500000000E+03 0.  0.
         25    1    1    2    0    0 -0.60817413366E+02 -0.11129201557E+03 -0.13148018716E+03  0.22135200500E+03  0.12500000000E+03 0.  0.
</event>
<event>
 4    0  0.2213671E-002  0.1604767E+03  0.7546771E-02  0.1188160E+00
         21   -1    0    0  502  501  0.00000000000E+00  0.00000000000E+00  0.39832294168E+02  0.39832294168E+02  0.00000000000E+00 0.  1.
         21   -1    0    0  501  502 -0.00000000000E+00 -0.00000000000E+00 -0.64653023561E+03  0.64653023561E+03  0.00000000000E+00 0.  1.
         25    1    1    2    0    0  0.43085933118E+02 -0.72829758865E+02 -0.18685975679E+03  0.24021269766E+03  0.12500000000E+03 0.  0.
         25    1    1    2    0    0 -0.43085933118E+02  0.72829758865E+02 -0.41983818465E+03  0.44614983212E+03  0.12500000000E+03 0.  0.
</event>
<event>
 4    0  0.2213671E-002  0.2962983E+03  0.7546771E-02  0.1087106E+00
         21   -1    0    0  502  501  0.00000000000E+00  0.00000000000E+00  0.19953323551E+03  0.19953323551E+03  0.00000000000E+00 0. -1.
         21   -1    0    0  501  502 -0.00000000000E+00 -0.00000000000E+00 -0.43999030510E+03  0.43999030510E+03  0.00000000000E+00 0. -1.
         25    1    1    2    0    0 -0.62913230285E+02  0.23359578135E+03 -0.24627954872E+03  0.36715620617E+03  0.12500000000E+03 0.  0.
         25    1    1    2    0    0  0.62913230285E+02 -0.23359578135E+03  0.58224791267E+01  0.27236733444E+03  0.12500000000E+03 0.  0.
</event>
<event>
 4    0  0.2213671E-002  0.1721610E+03  0.7546771E-02  0.1175613E+00
         21   -1    0    0  502  501  0.00000000000E+00  0.00000000000E+00  0.32666227315E+02  0.32666227315E+02  0.00000000000E+00 0.  1.
         21   -1    0    0  501  502 -0.00000000000E+00 -0.00000000000E+00 -0.90734130276E+03  0.90734130276E+03  0.00000000000E+00 0.  1.
         25    1    1    2    0    0 -0.36633795276E+02 -0.10271748416E+03 -0.31159329769E+03  0.35299900803E+03  0.12500000000E+03 0.  0.
         25    1    1    2    0    0  0.36633795276E+02  0.10271748416E+03 -0.56308177776E+03  0.58700852204E+03  0.12500000000E+03 0.  0.
</event>
<event>
 4    0  0.2213671E-002  0.1919021E+03  0.7546771E-02  0.1156757E+00
         21   -1    0    0  502  501  0.00000000000E+00  0.00000000000E+00  0.27280609095E+03  0.27280609095E+03  0.00000000000E+00 0. -1.
         21   -1    0    0  501  502 -0.00000000000E+00 -0.00000000000E+00 -0.13499116089E+03  0.13499116089E+03  0.00000000000E+00 0. -1.
         25    1    1    2    0    0  0.76265597899E+02  0.78010784477E+02  0.17136866253E+03  0.23852534963E+03  0.12500000000E+03 0.  0.
         25    1    1    2    0    0 -0.76265597899E+02 -0.78010784477E+02 -0.33553732470E+02  0.16927190222E+03  0.12500000000E+03 0.  0.
</event>
<event>
 4    0  0.2213671E-002  0.2204826E+03  0.7546771E-02  0.1133524E+00
         21   -1    0    0  502  501  0.00000000000E+00  0.00000000000E+00  0.26892547858E+03  0.26892547858E+03  0.00000000000E+00 0.  1.
         21   -1    0    0  501  502 -0.00000000000E+00 -0.00000000000E+00 -0.18076590147E+03  0.18076590147E+03  0.00000000000E+00 0.  1.
         25    1    1    2    0    0  0.11401065617E+02 -0.12501851679E+03  0.17793246086E+03  0.25108678672E+03  0.12500000000E+03 0.  0.
         25    1    1    2    0    0 -0.11401065617E+02  0.12501851679E+03 -0.89772883755E+02  0.19860459334E+03  0.12500000000E+03 0.  0.
</event>
<event>
 4    0  0.2213671E-002  0.1915774E+03  0.7546771E-02  0.1157046E+00
         21   -1    0    0  502  501  0.00000000000E+00  0.00000000000E+00  0.12652302365E+04  0.12652302365E+04  0.00000000000E+00 0. -1.
         21   -1    0    0  501  502 -0.00000000000E+00 -0.00000000000E+00 -0.29008066587E+02  0.29008066587E+02  0.00000000000E+00 0. -1.
         25    1    1    2    0    0 -0.10558700314E+03  0.92055590888E+02  0.48930759061E+03  0.52408946305E+03  0.12500000000E+03 0.  0.
         25    1    1    2    0    0  0.10558700314E+03 -0.92055590888E+02  0.74691457927E+03  0.77014884001E+03  0.12500000000E+03 0.  0.
</event>
<event>
 4    0  0.2213671E-002  0.1849871E+03  0.7546771E-02  0.1163062E+00
         21   -1    0    0  502  501  0.00000000000E+00  0.00000000000E+00  0.94815353611E+02  0.94815353611E+02  0.00000000000E+00 0.  1.
         21   -1    0    0  501  502 -0.00000000000E+00 -0.00000000000E+00 -0.36091451329E+03  0.36091451329E+03  0.00000000000E+00 0.  1.
         25    1    1    2    0    0 -0.11405888145E+03 -0.73857136781E+02 -0.11895477490E+03  0.21963502353E+03  0.12500000000E+03 0.  0.
         25    1    1    2    0    0  0.11405888145E+03  0.73857136781E+02 -0.14714438478E+03  0.23609484336E+03  0.12500000000E+03 0.  0.
</event>
<event>
 4    0  0.2213671E-002  0.1959092E+03  0.7546771E-02  0.1153237E+00
         21   -1    0    0  502  501  0.00000000000E+00  0.00000000000E+00  0.32797465308E+02  0.32797465308E+02  0.00000000000E+00 0.  1.
         21   -1    0    0  501  502 -0.00000000000E+00 -0.00000000000E+00 -0.11702249993E+04  0.11702249993E+04  0.00000000000E+00 0.  1.
         25    1    1    2    0    0  0.40544280701E+02 -0.14486176795E+03 -0.53416122257E+03  0.56884266912E+03  0.12500000000E+03 0.  0.
         25    1    1    2    0    0 -0.40544280701E+02  0.14486176795E+03 -0.60326631141E+03  0.63417979548E+03  0.12500000000E+03 0.  0.
</event>
<event>
 4    0  0.2213671E-002  0.3024803E+03  0.7546771E-02  0.1084007E+00
         21   -1    0    0  502  501  0.00000000000E+00  0.00000000000E+00  0.78566777698E+03  0.78566777698E+03  0.00000000000E+00 0. -1.
         21   -1    0    0  501  502 -0.00000000000E+00 -0.00000000000E+00 -0.11645425534E+03  0.11645425534E+03  0.00000000000E+00 0. -1.
         25    1    1    2    0    0  0.21421202636E+03  0.16489097025E+03  0.41342286000E+03  0.50952849329E+03  0.12500000000E+03 0.  0.
         25    1    1    2    0    0 -0.21421202636E+03 -0.16489097025E+03  0.25579066164E+03  0.39259353903E+03  0.12500000000E+03 0.  0.
</event>
<event>
 4    0  0.2213671E-002  0.2035152E+03  0.7546771E-02  0.1146807E+00
         21   -1    0    0  502  501  0.00000000000E+00  0.00000000000E+00  0.10680758779E+03  0.10680758779E+03  0.00000000000E+00 0.  1.
         21   -1    0    0  501  502 -0.00000000000E+00 -0.00000000000E+00 -0.38778561025E+03  0.38778561025E+03  0.00000000000E+00 0.  1.
         25    1    1    2    0    0  0.41190203834E+01  0.10180644098E+03 -0.29134054469E+03  0.33299524131E+03  0.12500000000E+03 0.  0.
         25    1    1    2    0    0 -0.41190203834E+01 -0.10180644098E+03  0.10362522222E+02  0.16159795674E+03  0.12500000000E+03 0.  0.
</event>
<event>
 4    0  0.2213671E-002  0.2393522E+03  0.7546771E-02  0.1120225E+00
         21   -1    0    0  502  501  0.00000000000E+00  0.00000000000E+00  0.19329664939E+03  0.19329664939E+03  0.00000000000E+00 0. -1.
         21   -1    0    0  501  502 -0.00000000000E+00 -0.00000000000E+00 -0.29638107041E+03  0.29638107041E+03  0.00000000000E+00 0. -1.
         25    1    1    2    0    0  0.15172240393E+03  0.12493998814E+03 -0.10789384476E+03  0.25670171450E+03  0.12500000000E+03 0.  0.
         25    1    1    2    0    0 -0.15172240393E+03 -0.12493998814E+03  0.48094237482E+01  0.23297600530E+03  0.12500000000E+03 0.  0.
</event>
<event>
 4    0  0.2213671E-002  0.1496962E+03  0.7546771E-02  0.1200847E+00
         21   -1    0    0  502  501  0.00000000000E+00  0.00000000000E+00  0.31881986064E+02  0.31881986064E+02  0.00000000000E+00 0. -1.
         21   -1    0    0  501  502 -0.00000000000E+00 -0.00000000000E+00 -0.70287230818E+03  0.70287230818E+03  0.00000000000E+00 0. -1.
         25    1    1    2    0    0  0.44262813509E+02  0.64055699874E+02 -0.26956862333E+03  0.30717189330E+03  0.12500000000E+03 0.  0.
         25    1    1    2    0    0 -0.44262813509E+02 -0.64055699874E+02 -0.40142169879E+03  0.42758240095E+03  0.12500000000E+03 0.  0.
</event>
<event>
 4    0  0.2213671E-002  0.1718636E+03  0.7546771E-02  0.1175918E+00
         21   -1    0    0  502  501  0.00000000000E+00  0.00000000000E+00  0.10604622760E+03  0.10604622760E+03  0.00000000000E+00 0.  1.
         21   -1    0    0  501  502 -0.00000000000E+00 -0.00000000000E+00 -0.27853049760E+03  0.27853049760E+03  0.00000000000E+00 0.  1.
         25    1    1    2    0    0  0.11625585871E+03  0.19884780824E+02 -0.87507639181E+02  0.19285594652E+03  0.12500000000E+03 0.  0.
         25    1    1    2    0    0 -0.11625585871E+03 -0.19884780824E+02 -0.84976630824E+02  0.19172077868E+03  0.12500000000E+03 0.  0.
</event>
<event>
 4    0  0.2213671E-002  0.2463969E+03  0.7546771E-02  0.1115603E+00
         21   -1    0    0  502  501  0.00000000000E+00  0.00000000000E+00  0.23394265588E+03  0.23394265588E+03  0.00000000000E+00 0. -1.
         21   -1    0    0  501  502 -0.00000000000E+00 -0.00000000000E+00 -0.25951419290E+03  0.25951419290E+03  0.00000000000E+00 0. -1.
         25    1    1    2    0    0 -0.12965993912E+03 -0.10412523114E+03 -0.14499626884E+03  0.25357973411E+03  0.12500000000E+03 0.  0.
         25    1    1    2    0    0  0.12965993912E+03  0.10412523114E+03  0.11942473183E+03  0.23987711467E+03  0.12500000000E+03 0.  0.
</event>
<event>
 4    0  0.2213671E-002  0.1866554E+03  0.7546771E-02  0.1161513E+00
         21   -1    0    0  502  501  0.00000000000E+00  0.00000000000E+00  0.38199752664E+04  0.38199752664E+04  0.00000000000E+00 0. -1.
         21   -1    0    0  501  502 -0.00000000000E+00 -0.00000000000E+00 -0.91205407783E+01  0.91205407783E+01  0.00000000000E+00 0. -1.
         25    1    1    2    0    0  0.75301721185E+02 -0.11632752374E+03  0.18687329383E+04  0.18780282843E+04  0.12500000000E+03 0.  0.
         25    1    1    2    0    0 -0.75301721185E+02  0.11632752374E+03  0.19421217874E+04  0.19510675229E+04  0.12500000000E+03 0.  0.
</event>
<event>
 4    0  0.2213671E-002  0.2199948E+03  0.7546771E-02  0.1133887E+00
         21   -1    0    0  502  501  0.00000000000E+00  0.00000000000E+00  0.34231202961E+03  0.34231202961E+03  0.00000000000E+00 0. -1.
         21   -1    0    0  501  502 -0.00000000000E+00 -0.00000000000E+00 -0.14138472942E+03  0.14138472942E+03  0.00000000000E+00 0. -1.
         25    1    1    2    0    0 -0.85023210850E+02 -0.15896280076E+03  0.82247291699E+02  0.23428131680E+03  0.12500000000E+03 0.  0.
         25    1    1    2    0    0  0.85023210850E+02  0.15896280076E+03  0.11868000849E+03  0.24941544223E+03  0.12500000000E+03 0.  0.
</event>
<event>
 4    0  0.2213671E-002  0.2739582E+03  0.7546771E-02  0.1099035E+00
         21   -1    0    0  502  501  0.00000000000E+00  0.00000000000E+00  0.19541757118E+03  0.19541757118E+03  0.00000000000E+00 0. -1.
         21   -1    0    0  501  502 -0.00000000000E+00 -0.00000000000E+00 -0.38406529193E+03  0.38406529193E+03  0.00000000000E+00 0. -1.
         25    1    1    2    0    0 -0.12966531396E+02 -0.12710779977E+03 -0.31389889025E+03  0.36122297407E+03  0.12500000000E+03 0.  0.
         25    1    1    2    0    0  0.12966531396E+02  0.12710779977E+03  0.12525116950E+03  0.21825988903E+03  0.12500000000E+03 0.  0.
</event>
<event>
 4    0  0.2213671E-002  0.1834574E+03  0.7546771E-02  0.1164498E+00
         21   -1    0    0  502  501  0.00000000000E+00  0.00000000000E+00  0.66373879452E+03  0.66373879452E+03  0.00000000000E+00 0. -1.
         21   -1    0    0  501  502 -0.00000000000E+00 -0.00000000000E+00 -0.50707650107E+02  0.50707650107E+02  0.00000000000E+00 0. -1.
         25    1    1    2    0    0 -0.91419273041E+02 -0.71850267909E+02  0.43730540042E+03  0.46944750262E+03  0.12500000000E+03 0.  0.
         25    1    1    2    0    0  0.91419273041E+02  0.71850267909E+02  0.17572574399E+03  0.24499894201E+03  0.12500000000E+03 0.  0.
</event>
<event>
 4    0  0.2213671E-002  0.1466109E+03  0.7546771E-02  0.1204700E+00
         21   -1    0    0  502  501  0.00000000000E+00  0.00000000000E+00  0.52005702345E+03  0.52005702345E+03  0.00000000000E+00 0. -1.
         21   -1    0    0  501  502 -0.00000000000E+00 -0.00000000000E+00 -0.41331512115E+02  0.41331512115E+02  0.00000000000E+00 0. -1.
         25    1    1    2    0    0  0.11692275663E+02  0.70445940446E+02  0.18622215132E+03  0.23537848134E+03  0.12500000000E+03 0.  0.
         25    1    1    2    0    0 -0.11692275663E+02 -0.70445940446E+02  0.29250336001E+03  0.32601005422E+03  0.12500000000E+03 0.  0.
</event>
<event>
 4    0  0.2213671E-002  0.1983800E+03  0.7546771E-02  0.1151113E+00
         21   -1    0    0  502  501  0.00000000000E+00  0.00000000000E+00  0.26308829793E+03  0.26308829793E+03  0.00000000000E+00 0. -1.
         21   -1    0    0  501  502 -0.00000000000E+00 -0.00000000000E+00 -0.14958710242E+03  0.14958710242E+03  0.00000000000E+00 0. -1.
         25    1    1    2    0    0 -0.47943900874E+02  0.13500416495E+03 -0.21318999631E+01  0.19014280734E+03  0.12500000000E+03 0.  0.
         25    1    1    2    0    0  0.47943900874E+02 -0.13500416495E+03  0.11563309548E+03  0.22253259302E+03  0.12500000000E+03 0.  0.
</event>
<event>
 4    0  0.2213671E-002  0.1888536E+03  0.7546771E-02  0.1159499E+00
         21   -1    0    0  502  501  0.00000000000E+00  0.00000000000E+00  0.15030110552E+03  0.15030110552E+03  0.00000000000E+00 0. -1.
         21   -1    0    0  501  502 -0.00000000000E+00 -0.00000000000E+00 -0.23729487317E+03  0.23729487317E+03  0.00000000000E+00 0. -1.
         25    1    1    2    0    0  0.11281041933E+03  0.76177917412E+02 -0.83391657341E+02  0.20275214999E+03  0.12500000000E+03 0.  0.
         25    1    1    2    0    0 -0.11281041933E+03 -0.76177917412E+02 -0.36021103044E+01  0.18484382870E+03  0.12500000000E+03 0.  0.
</event>
<event>
 4    0  0.2213671E-002  0.3098200E+03  0.7546771E-02  0.1080432E+00
         21   -1    0    0  502  501  0.00000000000E+00  0.00000000000E+00  0.11541285424E+03  0.11541285424E+03  0.00000000000E+00 0. -1.
         21   -1    0    0  501  502 -0.00000000000E+00 -0.00000000000E+00 -0.83169639666E+03  0.83169639666E+03  0.00000000000E+00 0. -1.
         25    1    1    2    0    0  0.16502651241E+03 -0.20153657448E+03 -0.18716530082E+03  0.34424786199E+03  0.12500000000E+03 0.  0.
         25    1    1    2    0    0 -0.16502651241E+03  0.20153657448E+03 -0.52911824159E+03  0.60286138891E+03  0.12500000000E+03 0.  0.
</event>
<event>
 4    0  0.2213671E-002  0.2129474E+03  0.7546771E-02  0.1139253E+00
         21   -1    0    0  502  501  0.00000000000E+00  0.00000000000E+00  0.20561739511E+04  0.20561739511E+04  0.00000000000E+00 0. -1.
         21   -1    0    0  501  502 -0.00000000000E+00 -0.00000000000E+00 -0.22053880799E+02  0.22053880799E+02  0.00000000000E+00 0. -1.
         25    1    1    2    0    0 -0.22229114040E+02  0.12601551512E+03  0.45330315693E+03  0.48732206563E+03  0.12500000000E+03 0.  0.
         25    1    1    2    0    0  0.22229114040E+02 -0.12601551512E+03  0.15808169134E+04  0.15909057663E+04  0.12500000000E+03 0.  0.
</event>
<event>
 4    0  0.2213671E-002  0.3080528E+03  0.7546771E-02  0.1081283E+00
         21   -1    0    0  502  501  0.00000000000E+00  0.00000000000E+00  0.35506009440E+03  0.35506009440E+03  0.00000000000E+00 0. -1.
         21   -1    0    0  501  502 -0.00000000000E+00 -0.00000000000E+00 -0.26726892789E+03  0.26726892789E+03  0.00000000000E+00 0. -1.
         25    1    1    2    0    0 -0.26540209929E+01  0.10083028422E+03  0.30941532378E+03  0.34862104445E+03  0.12500000000E+03 0.  0.
         25    1    1    2    0    0  0.26540209929E+01 -0.10083028422E+03 -0.22162415728E+03  0.27370797784E+03  0.12500000000E+03 0.  0.
</event>
<event>
 4    0  0.2213671E-002  0.2193975E+03  0.7546771E-02  0.1134333E+00
         21   -1    0    0  502  501  0.00000000000E+00  0.00000000000E+00  0.27906871294E+03  0.27906871294E+03  0.00000000000E+00 0. -1.
         21   -1    0    0  501  502 -0.00000000000E+00 -0.00000000000E+00 -0.17248527876E+03  0.17248527876E+03  0.00000000000E+00 0. -1.
         25    1    1    2    0    0  0.11088339878E+03 -0.74901598054E+01 -0.92819225501E+02  0.19128941226E+03  0.12500000000E+03 0.  0.
         25    1    1    2    0    0 -0.11088339878E+03  0.74901598054E+01  0.19940265968E+03  0.26026457943E+03  0.12500000000E+03 0.  0.
</event>
<event>
 4    0  0.2213671E-002  0.1708771E+03  0.7546771E-02  0.1176936E+00
         21   -1    0    0  502  501  0.00000000000E+00  0.00000000000E+00  0.10694737573E+03  0.10694737573E+03  0.00000000000E+00 0. -1.
         21   -1    0    0  501  502 -0.00000000000E+00 -0.00000000000E+00 -0.27302201634E+03  0.27302201634E+03  0.00000000000E+00 0. -1.
         25    1    1    2    0    0  0.22676671573E+02 -0.57456379839E+02 -0.19286877129E+03  0.23798913832E+03  0.12500000000E+03 0.  0.
         25    1    1    2    0    0 -0.22676671573E+02  0.57456379839E+02  0.26794130686E+02  0.14198025376E+03  0.12500000000E+03 0.  0.
</event>
<event>
 4    0  0.2243452E-002  0.1984162E+03  0.7546771E-02  0.1151082E+00
         21   -1    0    0  502  501  0.00000000000E+00  0.00000000000E+00  0.16310969030E+03  0.16310969030E+03  0.00000000000E+00 0. -1.
         21   -1    0    0  501  502 -0.00000000000E+00 -0.00000000000E+00 -0.24136501952E+03  0.24136501952E+03  0.00000000000E+00 0. -1.
         25    1    1    2    0    0  0.57524130713E+01  0.26694958601E+02  0.11544469755E+03  0.17233162583E+03  0.12500000000E+03 0.  0.
         25    1    1    2    0    0 -0.57524130713E+01 -0.26694958601E+02 -0.19370002677E+03  0.23214308398E+03  0.12500000000E+03 0.  0.
</event>
<event>
 4    0  0.2213671E-002  0.1928633E+03  0.7546771E-02  0.1155904E+00
         21   -1    0    0  502  501  0.00000000000E+00  0.00000000000E+00  0.11519416274E+03  0.11519416274E+03  0.00000000000E+00 0. -1.
         21   -1    0    0  501  502 -0.00000000000E+00 -0.00000000000E+00 -0.32290065126E+03  0.32290065126E+03  0.00000000000E+00 0. -1.
         25    1    1    2    0    0  0.35047672571E+02  0.13588531166E+03 -0.15307411213E+03  0.24238366505E+03  0.12500000000E+03 0.  0.
         25    1    1    2    0    0 -0.35047672571E+02 -0.13588531166E+03 -0.54632376385E+02  0.19571114896E+03  0.12500000000E+03 0.  0.
</event>
<event>
 4    0  0.2213671E-002  0.2078092E+03  0.7546771E-02  0.1143313E+00
         21   -1    0    0  502  501  0.00000000000E+00  0.00000000000E+00  0.34366696380E+02  0.34366696380E+02  0.00000000000E+00 0.  1.
         21   -1    0    0  501  502 -0.00000000000E+00 -0.00000000000E+00 -0.12565849985E+04  0.12565849985E+04  0.00000000000E+00 0.  1.
         25    1    1    2    0    0 -0.72444065869E+02  0.14413257542E+03 -0.73289565486E+03  0.76077814302E+03  0.12500000000E+03 0.  0.
         25    1    1    2    0    0  0.72444065869E+02 -0.14413257542E+03 -0.48932264725E+03  0.53017355186E+03  0.12500000000E+03 0.  0.
</event>
<event>
 4    0  0.2213671E-002  0.2550325E+03  0.7546771E-02  0.1110165E+00
         21   -1    0    0  502  501  0.00000000000E+00  0.00000000000E+00  0.45269649023E+02  0.45269649023E+02  0.00000000000E+00 0.  1.
         21   -1    0    0  501  502 -0.00000000000E+00 -0.00000000000E+00 -0.14367587886E+04  0.14367587886E+04  0.00000000000E+00 0.  1.
         25    1    1    2    0    0  0.14281824953E+03  0.98974870796E+02 -0.29289106228E+03  0.36277162487E+03  0.12500000000E+03 0.  0.
         25    1    1    2    0    0 -0.14281824953E+03 -0.98974870796E+02 -0.10985980773E+04  0.11192568127E+04  0.12500000000E+03 0.  0.
</event>
<event>
 4    0  0.2213671E-002  0.1517380E+03  0.7546771E-02  0.1198353E+00
         21   -1    0    0  502  501  0.00000000000E+00  0.00000000000E+00  0.24946514446E+03  0.24946514446E+03  0.00000000000E+00 0. -1.
         21   -1    0    0  501  502 -0.00000000000E+00 -0.00000000000E+00 -0.92295140675E+02  0.92295140675E+02  0.00000000000E+00 0. -1.
         25    1    1    2    0    0 -0.20222388267E+02  0.39190882379E+02  0.16175692055E+03  0.20912955696E+03  0.12500000000E+03 0.  0.
         25    1    1    2    0    0  0.20222388267E+02 -0.39190882379E+02 -0.45869167709E+01  0.13263072817E+03  0.12500000000E+03 0.  0.
</event>
<event>
 4    0  0.2213671E-002  0.2936782E+03  0.7546771E-02  0.1088444E+00
         21   -1    0    0  502  501  0.00000000000E+00  0.00000000000E+00  0.50869356062E+03  0.50869356062E+03  0.00000000000E+00 0.  1.
         21   -1    0    0  501  502 -0.00000000000E+00 -0.00000000000E+00 -0.16954579892E+03  0.16954579892E+03  0.00000000000E+00 0.  1.
         25    1    1    2    0    0  0.14323411258E+03  0.15481510450E+03 -0.17115064238E+02  0.24576747753E+03  0.12500000000E+03 0.  0.
         25    1    1    2    0    0 -0.14323411258E+03 -0.15481510450E+03  0.35626282594E+03  0.43247188202E+03  0.12500000000E+03 0.  0.
</event>
<event>
 4    0  0.2213671E-002  0.1997030E+03  0.7546771E-02  0.1149990E+00
         21   -1    0    0  502  501  0.00000000000E+00  0.00000000000E+00  0.14626264503E+03  0.14626264503E+03  0.00000000000E+00 0. -1.
         21   -1    0    0  501  502 -0.00000000000E+00 -0.00000000000E+00 -0.27266906770E+03  0.27266906770E+03  0.00000000000E+00 0. -1.
         25    1    1    2    0    0 -0.47616904900E+02  0.10946238669E+03  0.41721722988E+02  0.17780631570E+03  0.12500000000E+03 0.  0.
         25    1    1    2    0    0  0.47616904900E+02 -0.10946238669E+03 -0.16812814566E+03  0.24112539703E+03  0.12500000000E+03 0.  0.
</event>
<event>
 4    0  0.2213671E-002  0.1411835E+03  0.7546771E-02  0.1211745E+00
         21   -1    0    0  502  501  0.00000000000E+00  0.00000000000E+00  0.16218772254E+04  0.16218772254E+04  0.00000000000E+00 0.  1.
         21   -1    0    0  501  502 -0.00000000000E+00 -0.00000000000E+00 -0.12289944180E+02  0.12289944180E+02  0.00000000000E+00 0.  1.
         25    1    1    2    0    0  0.33364692270E+02 -0.36189269736E+02  0.10560565509E+04  0.10645671912E+04  0.12500000000E+03 0.  0.
         25    1    1    2    0    0 -0.33364692270E+02  0.36189269736E+02  0.55353073037E+03  0.56959997840E+03  0.12500000000E+03 0.  0.
</event>
<event>
 4    0  0.2213671E-002  0.1323562E+03  0.7546771E-02  0.1224001E+00
         21   -1    0    0  502  501  0.00000000000E+00  0.00000000000E+00  0.59122137829E+02  0.59122137829E+02  0.00000000000E+00 0.  1.
         21   -1    0    0  501  502 -0.00000000000E+00 -0.00000000000E+00 -0.29630473440E+03  0.29630473440E+03  0.00000000000E+00 0.  1.
         25    1    1    2    0    0 -0.27981776444E+02  0.15392182275E+02 -0.78913255760E+02  0.15123558121E+03  0.12500000000E+03 0.  0.
         25    1    1    2    0    0  0.27981776444E+02 -0.15392182275E+02 -0.15826934081E+03  0.20419129102E+03  0.12500000000E+03 0.  0.
</event>
<event>
 4    0  0.2213671E-002  0.2692480E+03  0.7546771E-02  0.1101711E+00
         21   -1    0    0  502  501  0.00000000000E+00  0.00000000000E+00  0.62681924245E+02  0.62681924245E+02  0.00000000000E+00 0. -1.
         21   -1    0    0  501  502 -0.00000000000E+00 -0.00000000000E+00 -0.11565450353E+04  0.11565450353E+04  0.00000000000E+00 0. -1.
         25    1    1    2    0    0 -0.35124672478E+02 -0.47503147488E+02 -0.10700355814E+04  0.10789306916E+04  0.12500000000E+03 0.  0.
         25    1    1    2    0    0  0.35124672478E+02  0.47503147488E+02 -0.23827529591E+02  0.14029626796E+03  0.12500000000E+03 0.  0.
</event>
<event>
 4    0  0.2213671E-002  0.2495248E+03  0.7546771E-02  0.1113605E+00
         21   -1    0    0  502  501  0.00000000000E+00  0.00000000000E+00  0.17486100974E+04  0.17486100974E+04  0.00000000000E+00 0. -1.
         21   -1    0    0  501  502 -0.00000000000E+00 -0.00000000000E+00 -0.35606935524E+02  0.35606935524E+02  0.00000000000E+00 0. -1.
         25    1    1    2    0    0  0.20858267383E+03  0.18876691748E+02  0.10448244082E+04  0.10729147707E+04  0.12500000000E+03 0.  0.
         25    1    1    2    0    0 -0.20858267383E+03 -0.18876691748E+02  0.66817875365E+03  0.71130226216E+03  0.12500000000E+03 0.  0.
</event>
<event>
 4    0  0.2213671E-002  0.1963196E+03  0.7546771E-02  0.1152882E+00
         21   -1    0    0  502  501  0.00000000000E+00  0.00000000000E+00  0.46289264843E+03  0.46289264843E+03  0.00000000000E+00 0.  1.
         21   -1    0    0  501  502 -0.00000000000E+00 -0.00000000000E+00 -0.83262056978E+02  0.83262056978E+02  0.00000000000E+00 0.  1.
         25    1    1    2    0    0  0.41549815334E+02  0.10745500369E+03  0.32641121341E+03  0.36802478885E+03  0.12500000000E+03 0.  0.
         25    1    1    2    0    0 -0.41549815334E+02 -0.10745500369E+03  0.53219378044E+02  0.17812991655E+03  0.12500000000E+03 0.  0.
</event>
<event>
 4    0  0.2213671E-002  0.3312900E+03  0.7546771E-02  0.1070567E+00
         21   -1    0    0  502  501  0.00000000000E+00  0.00000000000E+00  0.23800522190E+03  0.23800522190E+03  0.00000000000E+00 0. -1.
         21   -1    0    0  501  502 -0.00000000000E+00 -0.00000000000E+00 -0.46113730213E+03  0.46113730213E+03  0.00000000000E+00 0. -1.
         25    1    1    2    0    0  0.21596769253E+03 -0.28864387361E+02  0.11634566119E+03  0.27683300011E+03  0.12500000000E+03 0.  0.
         25    1    1    2    0    0 -0.21596769253E+03  0.28864387361E+02 -0.33947774142E+03  0.42230952392E+03  0.12500000000E+03 0.  0.
</event>
<event>
 4    0  0.2213671E-002  0.2020242E+03  0.7546771E-02  0.1148042E+00
         21   -1    0    0  502  501  0.00000000000E+00  0.00000000000E+00  0.53891806020E+03  0.53891806020E+03  0.00000000000E+00 0.  1.
         21   -1    0    0  501  502 -0.00000000000E+00 -0.00000000000E+00 -0.75732772184E+02  0.75732772184E+02  0.00000000000E+00 0.  1.
         25    1    1    2    0    0  0.24279155568E+02  0.94140337660E+02  0.42242608126E+03  0.45113265754E+03  0.12500000000E+03 0.  0.
         25    1    1    2    0    0 -0.24279155568E+02 -0.94140337660E+02  0.40759206759E+02  0.16351817485E+03  0.12500000000E+03 0.  0.
</event>
<event>
 4    0  0.2213671E-002  0.1886565E+03  0.7546771E-02  0.1159679E+00
         21   -1    0    0  502  501  0.00000000000E+00  0.00000000000E+00  0.96534726123E+02  0.96534726123E+02  0.00000000000E+00 0. -1.
         21   -1    0    0  501  502 -0.00000000000E+00 -0.00000000000E+00 -0.36868887083E+03  0.36868887083E+03  0.00000000000E+00 0. -1.
         25    1    1    2    0    0 -0.12247544683E+02 -0.97792946726E+02 -0.26092505540E+03  0.30564742321E+03  0.12500000000E+03 0.  0.
         25    1    1    2    0    0  0.12247544683E+02  0.97792946726E+02 -0.11229089310E+02  0.15957617374E+03  0.12500000000E+03 0.  0.
</event>
<event>
 4    0  0.2213671E-002  0.1625584E+03  0.7546771E-02  0.1185838E+00
         21   -1    0    0  502  501  0.00000000000E+00  0.00000000000E+00  0.71411744946E+02  0.71411744946E+02  0.00000000000E+00 0. -1.
         21   -1    0    0  501  502 -0.00000000000E+00 -0.00000000000E+00 -0.37004066408E+03  0.37004066408E+03  0.00000000000E+00 0. -1.
         25    1    1    2    0    0  0.82808793000E+02 -0.62371847023E+02 -0.13945678504E+03  0.21405779218E+03  0.12500000000E+03 0.  0.
         25    1    1    2    0    0 -0.82808793000E+02  0.62371847023E+02 -0.15917213410E+03  0.22739461685E+03  0.12500000000E+03 0.  0.
</event>
<event>
 4    0  0.2213671E-002  0.2393120E+03  0.7546771E-02  0.1120252E+00
         21   -1    0    0  502  501  0.00000000000E+00  0.00000000000E+00  0.16518587975E+04  0.16518587975E+04  0.00000000000E+00 0.  1.
         21   -1    0    0  501  502 -0.00000000000E+00 -0.00000000000E+00 -0.34670180005E+02  0.34670180005E+02  0.00000000000E+00 0.  1.
         25    1    1    2    0    0 -0.27586062668E+02 -0.19825120630E+03  0.66849840694E+03  0.70892852371E+03  0.12500000000E+03 0.  0.
         25    1    1    2    0    0  0.27586062668E+02  0.19825120630E+03  0.94869021051E+03  0.97760045375E+03  0.12500000000E+03 0.  0.
</event>
<event>
 4    0  0.2213671E-002  0.1808099E+03  0.7546771E-02  0.1167021E+00
         21   -1    0    0  502  501  0.00000000000E+00  0.00000000000E+00  0.51570040565E+02  0.51570040565E+02  0.00000000000E+00 0.  1.
         21   -1    0    0  501  502 -0.00000000000E+00 -0.00000000000E+00 -0.63393848777E+03  0.63393848777E+03  0.00000000000E+00 0.  1.
         25    1    1    2    0    0 -0.63973193917E+02  0.11241810663E+03 -0.32597531681E+03  0.37231076724E+03  0.12500000000E+03 0.  0.
         25    1    1    2    0    0  0.63973193917E+02 -0.11241810663E+03 -0.25639313039E+03  0.31319776109E+03  0.12500000000E+03 0.  0.
</event>
<event>
 4    0  0.2213671E-002  0.2951307E+03  0.7546771E-02  0.1087700E+00
         21   -1    0    0  502  501  0.00000000000E+00  0.00000000000E+00  0.74799410535E+03  0.74799410535E+03  0.00000000000E+00 0.  1.
         21   -1    0    0  501  502 -0.00000000000E+00 -0.00000000000E+00 -0.11644763266E+03  0.11644763266E+03  0.00000000000E+00 0.  1.
         25    1    1    2    0    0  0.24588629295E+03  0.10108952486E+03  0.35714345182E+03  0.46244524679E+03  0.12500000000E+03 0.  0.
         25    1    1    2    0    0 -0.24588629295E+03 -0.10108952486E+03  0.27440302087E+03  0.40199649123E+03  0.12500000000E+03 0.  0.
</event>
<event>
 4    0  0.2213671E-002  0.1938345E+03  0.7546771E-02  0.1155048E+00
         21   -1    0    0  502  501  0.00000000000E+00  0.00000000000E+00  0.31543144576E+03  0.31543144576E+03  0.00000000000E+00 0.  1.
         21   -1    0    0  501  502 -0.00000000000E+00 -0.00000000000E+00 -0.11911247349E+03  0.11911247349E+03  0.00000000000E+00 0.  1.
         25    1    1    2    0    0 -0.72773661022E+02 -0.51758782188E+02  0.23065446076E+03  0.27713075893E+03  0.12500000000E+03 0.  0.
         25    1    1    2    0    0  0.72773661022E+02  0.51758782188E+02 -0.34335488491E+02  0.15741316032E+03  0.12500000000E+03 0.  0.
</event>
<event>
 4    0  0.2213671E-002  0.3330272E+03  0.7546771E-02  0.1069805E+00
         21   -1    0    0  502  501  0.00000000000E+00  0.00000000000E+00  0.29883595317E+03  0.29883595317E+03  0.00000000000E+00 0. -1.
         21   -1    0    0  501  502 -0.00000000000E+00 -0.00000000000E+00 -0.37113053144E+03  0.37113053144E+03  0.00000000000E+00 0. -1.
         25    1    1    2    0    0  0.30189123092E+02  0.17177770526E+03  0.22003107314E+03  0.30733961073E+03  0.12500000000E+03 0.  0.
         25    1    1    2    0    0 -0.30189123092E+02 -0.17177770526E+03 -0.29232565142E+03  0.36262687387E+03  0.12500000000E+03 0.  0.
</event>
<event>
 4    0  0.2213671E-002  0.2803163E+03  0.7546771E-02  0.1095516E+00
         21   -1    0    0  502  501  0.00000000000E+00  0.00000000000E+00  0.52235974934E+03  0.52235974934E+03  0.00000000000E+00 0. -1.
         21   -1    0    0  501  502 -0.00000000000E+00 -0.00000000000E+00 -0.15042746464E+03  0.15042746464E+03  0.00000000000E+00 0. -1.
         25    1    1    2    0    0  0.24739290668E+03  0.31422595940E+02  0.21908453980E+03  0.35470222073E+03  0.12500000000E+03 0.  0.
         25    1    1    2    0    0 -0.24739290668E+03 -0.31422595940E+02  0.15284774490E+03  0.31808499325E+03  0.12500000000E+03 0.  0.
</event>
<event>
 4    0  0.2213671E-002  0.2660142E+03  0.7546771E-02  0.1103583E+00
         21   -1    0    0  502  501  0.00000000000E+00  0.00000000000E+00  0.13732215169E+03  0.13732215169E+03  0.00000000000E+00 0.  1.
         21   -1    0    0  501  502 -0.00000000000E+00 -0.00000000000E+00 -0.51531051706E+03  0.51531051706E+03  0.00000000000E+00 0. -1.
         25    1    1    2    0    0 -0.14606733755E+02  0.20929952192E+03 -0.31834374714E+03  0.40123233654E+03  0.12500000000E+03 0.  0.
         25    1    1    2    0    0  0.14606733755E+02 -0.20929952192E+03 -0.59644618234E+02  0.25140033220E+03  0.12500000000E+03 0.  0.
</event>
<event>
 4    0  0.2213671E-002  0.2240798E+03  0.7546771E-02  0.1130877E+00
         21   -1    0    0  502  501  0.00000000000E+00  0.00000000000E+00  0.82375805515E+02  0.82375805515E+02  0.00000000000E+00 0.  1.
         21   -1    0    0  501  502 -0.00000000000E+00 -0.00000000000E+00 -0.60954480161E+03  0.60954480161E+03  0.00000000000E+00 0.  1.
         25    1    1    2    0    0  0.94983889911E+02 -0.14259684125E+03 -0.37524863568E+03  0.43103635236E+03  0.12500000000E+03 0.  0.
         25    1    1    2    0    0 -0.94983889911E+02  0.14259684125E+03 -0.15192036042E+03  0.26088425477E+03  0.12500000000E+03 0.  0.
</event>
<event>
 4    0  0.2213671E-002  0.2379928E+03  0.7546771E-02  0.1121137E+00
         21   -1    0    0  502  501  0.00000000000E+00  0.00000000000E+00  0.44918391026E+03  0.44918391026E+03  0.00000000000E+00 0.  1.
         21   -1    0    0  501  502 -0.00000000000E+00 -0.00000000000E+00 -0.12609664958E+03  0.12609664958E+03  0.00000000000E+00 0.  1.
         25    1    1    2    0    0  0.44004042983E+02 -0.29181908336E+02 -0.74762296419E+02  0.15492688772E+03  0.12500000000E+03 0.  0.
         25    1    1    2    0    0 -0.44004042983E+02  0.29181908336E+02  0.39784955710E+03  0.42035367211E+03  0.12500000000E+03 0.  0.
</event>
<event>
 4    0  0.2213671E-002  0.2217509E+03  0.7546771E-02  0.1132584E+00
         21   -1    0    0  502  501  0.00000000000E+00  0.00000000000E+00  0.25474204255E+02  0.25474204255E+02  0.00000000000E+00 0.  1.
         21   -1    0    0  501  502 -0.00000000000E+00 -0.00000000000E+00 -0.19303234819E+04  0.19303234819E+04  0.00000000000E+00 0.  1.
         25    1    1    2    0    0  0.41283412639E+02 -0.59658589218E+02 -0.21076172070E+03  0.25555619801E+03  0.12500000000E+03 0.  0.
         25    1    1    2    0    0 -0.41283412639E+02  0.59658589218E+02 -0.16940875569E+04  0.17002414881E+04  0.12500000000E+03 0.  0.
</event>
<event>
 4    0  0.2213671E-002  0.1910719E+03  0.7546771E-02  0.1157498E+00
         21   -1    0    0  502  501  0.00000000000E+00  0.00000000000E+00  0.58842071543E+02  0.58842071543E+02  0.00000000000E+00 0. -1.
         21   -1    0    0  501  502 -0.00000000000E+00 -0.00000000000E+00 -0.62044871561E+03  0.62044871561E+03  0.00000000000E+00 0. -1.
         25    1    1    2    0    0  0.61970862624E+02 -0.62189560035E+02 -0.76764257267E+02  0.17095519994E+03  0.12500000000E+03 0.  0.
         25    1    1    2    0    0 -0.61970862624E+02  0.62189560035E+02 -0.48484238680E+03  0.50833558722E+03  0.12500000000E+03 0.  0.
</event>
<event>
 4    0  0.2213671E-002  0.2297378E+03  0.7546771E-02  0.1126824E+00
         21   -1    0    0  502  501  0.00000000000E+00  0.00000000000E+00  0.13705359087E+03  0.13705359087E+03  0.00000000000E+00 0.  1.
         21   -1    0    0  501  502 -0.00000000000E+00 -0.00000000000E+00 -0.38510103224E+03  0.38510103224E+03  0.00000000000E+00 0.  1.
         25    1    1    2    0    0  0.71165600742E+02  0.98769172858E+02  0.45810633841E+02  0.18039818849E+03  0.12500000000E+03 0.  0.
         25    1    1    2    0    0 -0.71165600742E+02 -0.98769172858E+02 -0.29385807522E+03  0.34175643462E+03  0.12500000000E+03 0.  0.
</event>
<event>
 4    0  0.2213671E-002  0.2004895E+03  0.7546771E-02  0.1149327E+00
         21   -1    0    0  502  501  0.00000000000E+00  0.00000000000E+00  0.67226128231E+02  0.67226128231E+02  0.00000000000E+00 0. -1.
         21   -1    0    0  501  502 -0.00000000000E+00 -0.00000000000E+00 -0.59792292862E+03  0.59792292862E+03  0.00000000000E+00 0. -1.
         25    1    1    2    0    0 -0.61167874187E+02 -0.17759298634E+02 -0.50293613039E+03  0.52213662271E+03  0.12500000000E+03 0.  0.
         25    1    1    2    0    0  0.61167874187E+02  0.17759298634E+02 -0.27760669999E+02  0.14301243414E+03  0.12500000000E+03 0.  0.
</event>
<event>
 4    0  0.2213671E-002  0.4126271E+03  0.7546771E-02  0.1039493E+00
         21   -1    0    0  502  501  0.00000000000E+00  0.00000000000E+00  0.68024802991E+03  0.68024802991E+03  0.00000000000E+00 0.  1.
         21   -1    0    0  501  502 -0.00000000000E+00 -0.00000000000E+00 -0.25029275312E+03  0.25029275312E+03  0.00000000000E+00 0.  1.
         25    1    1    2    0    0 -0.11918184247E+03  0.28606260351E+02  0.63629695826E+03  0.65994048883E+03  0.12500000000E+03 0.  0.
         25    1    1    2    0    0  0.11918184247E+03 -0.28606260351E+02 -0.20634168147E+03  0.27060029419E+03  0.12500000000E+03 0.  0.
</event>
<event>
 4    0  0.2213671E-002  0.2113642E+03  0.7546771E-02  0.1140490E+00
         21   -1    0    0  502  501  0.00000000000E+00  0.00000000000E+00  0.71578141326E+02  0.71578141326E+02  0.00000000000E+00 0. -1.
         21   -1    0    0  501  502 -0.00000000000E+00 -0.00000000000E+00 -0.62414063415E+03  0.62414063415E+03  0.00000000000E+00 0. -1.
         25    1    1    2    0    0 -0.89083736463E+02  0.14392428361E+03 -0.30918515699E+03  0.37399274434E+03  0.12500000000E+03 0.  0.
         25    1    1    2    0    0  0.89083736463E+02 -0.14392428361E+03 -0.24337733584E+03  0.32172603114E+03  0.12500000000E+03 0.  0.
</event>
<event>
 4    0  0.2213671E-002  0.2435997E+03  0.7546771E-02  0.1117418E+00
         21   -1    0    0  502  501  0.00000000000E+00  0.00000000000E+00  0.24348107792E+03  0.24348107792E+03  0.00000000000E+00 0. -1.
         21   -1    0    0  501  502 -0.00000000000E+00 -0.00000000000E+00 -0.24371828146E+03  0.24371828146E+03  0.00000000000E+00 0. -1.
         25    1    1    2    0    0 -0.81905838999E+02  0.18105582221E+03 -0.65126398706E+02  0.24363133014E+03  0.12500000000E+03 0.  0.
         25    1    1    2    0    0  0.81905838999E+02 -0.18105582221E+03  0.64889195163E+02  0.24356802924E+03  0.12500000000E+03 0.  0.
</event>
<event>
 4    0  0.2213671E-002  0.1969490E+03  0.7546771E-02  0.1152339E+00
         21   -1    0    0  502  501  0.00000000000E+00  0.00000000000E+00  0.19001847226E+03  0.19001847226E+03  0.00000000000E+00 0.  1.
         21   -1    0    0  501  502 -0.00000000000E+00 -0.00000000000E+00 -0.20413228577E+03  0.20413228577E+03  0.00000000000E+00 0.  1.
         25    1    1    2    0    0 -0.88653024124E+02 -0.17086380733E+02 -0.12966145898E+03  0.20146562247E+03  0.12500000000E+03 0.  0.
         25    1    1    2    0    0  0.88653024124E+02  0.17086380733E+02  0.11554764547E+03  0.19268513556E+03  0.12500000000E+03 0.  0.
</event>
<event>
 4    0  0.2213671E-002  0.2762863E+03  0.7546771E-02  0.1097735E+00
         21   -1    0    0  502  501  0.00000000000E+00  0.00000000000E+00  0.53427503024E+02  0.53427503024E+02  0.00000000000E+00 0. -1.
         21   -1    0    0  501  502 -0.00000000000E+00 -0.00000000000E+00 -0.14287422394E+04  0.14287422394E+04  0.00000000000E+00 0. -1.
         25    1    1    2    0    0  0.10875059592E+03  0.12004103428E+03 -0.18963882586E+03  0.27897029644E+03  0.12500000000E+03 0.  0.
         25    1    1    2    0    0 -0.10875059592E+03 -0.12004103428E+03 -0.11856759106E+04  0.12031994460E+04  0.12500000000E+03 0.  0.
</event>
<event>
 4    0  0.2213671E-002  0.1929201E+03  0.7546771E-02  0.1155854E+00
         21   -1    0    0  502  501  0.00000000000E+00  0.00000000000E+00  0.32805055842E+03  0.32805055842E+03  0.00000000000E+00 0.  1.
         21   -1    0    0  501  502 -0.00000000000E+00 -0.00000000000E+00 -0.11345257198E+03  0.11345257198E+03  0.00000000000E+00 0.  1.
         25    1    1    2    0    0  0.30194071401E+02  0.12991497120E+03  0.36728439111E+02  0.18644988584E+03  0.12500000000E+03 0.  0.
         25    1    1    2    0    0 -0.30194071401E+02 -0.12991497120E+03  0.17786954734E+03  0.25505324456E+03  0.12500000000E+03 0.  0.
</event>
<event>
 4    0  0.2213671E-002  0.2130874E+03  0.7546771E-02  0.1139144E+00
         21   -1    0    0  502  501  0.00000000000E+00  0.00000000000E+00  0.52554636375E+02  0.52554636375E+02  0.00000000000E+00 0.  1.
         21   -1    0    0  501  502 -0.00000000000E+00 -0.00000000000E+00 -0.86398179671E+03  0.86398179671E+03  0.00000000000E+00 0.  1.
         25    1    1    2    0    0  0.14306123109E+03  0.42917398994E+02 -0.21980283991E+03  0.29367789738E+03  0.12500000000E+03 0.  0.
         25    1    1    2    0    0 -0.14306123109E+03 -0.42917398994E+02 -0.59162432042E+03  0.62285853570E+03  0.12500000000E+03 0.  0.
</event>
<event>
 4    0  0.2213671E-002  0.1773314E+03  0.7546771E-02  0.1170411E+00
         21   -1    0    0  502  501  0.00000000000E+00  0.00000000000E+00  0.16374635677E+02  0.16374635677E+02  0.00000000000E+00 0.  1.
         21   -1    0    0  501  502 -0.00000000000E+00 -0.00000000000E+00 -0.19204353468E+04  0.19204353468E+04  0.00000000000E+00 0.  1.
         25    1    1    2    0    0 -0.77205459896E+02 -0.30305124069E+02 -0.14684432467E+04  0.14760859231E+04  0.12500000000E+03 0.  0.
         25    1    1    2    0    0  0.77205459896E+02  0.30305124069E+02 -0.43561746443E+03  0.46072405939E+03  0.12500000000E+03 0.  0.
</event>
<event>
 4    0  0.2213671E-002  0.3022095E+03  0.7546771E-02  0.1084141E+00
         21   -1    0    0  502  501  0.00000000000E+00  0.00000000000E+00  0.20943095238E+03  0.20943095238E+03  0.00000000000E+00 0.  1.
         21   -1    0    0  501  502 -0.00000000000E+00 -0.00000000000E+00 -0.43608920807E+03  0.43608920807E+03  0.00000000000E+00 0.  1.
         25    1    1    2    0    0 -0.10768574813E+03  0.25310802866E+03 -0.10611054273E+03  0.32022545464E+03  0.12500000000E+03 0.  0.
         25    1    1    2    0    0  0.10768574813E+03 -0.25310802866E+03 -0.12054771296E+03  0.32529470580E+03  0.12500000000E+03 0.  0.
</event>
<event>
 4    0  0.2213671E-002  0.3024245E+03  0.7546771E-02  0.1084035E+00
         21   -1    0    0  502  501  0.00000000000E+00  0.00000000000E+00  0.17222153792E+04  0.17222153792E+04  0.00000000000E+00 0.  1.
         21   -1    0    0  501  502 -0.00000000000E+00 -0.00000000000E+00 -0.53106348393E+02  0.53106348393E+02  0.00000000000E+00 0.  1.
         25    1    1    2    0    0  0.20832312583E+03 -0.17574881611E+03  0.95008902654E+03  0.99628325765E+03  0.12500000000E+03 0.  0.
         25    1    1    2    0    0 -0.20832312583E+03  0.17574881611E+03  0.71902000430E+03  0.77903846998E+03  0.12500000000E+03 0.  0.
</event>
<event>
 4    0  0.2213671E-002  0.3718947E+03  0.7546771E-02  0.1053971E+00
         21   -1    0    0  502  501  0.00000000000E+00  0.00000000000E+00  0.45759185940E+03  0.45759185940E+03  0.00000000000E+00 0.  1.
         21   -1    0    0  501  502 -0.00000000000E+00 -0.00000000000E+00 -0.30224681742E+03  0.30224681742E+03  0.00000000000E+00 0.  1.
         25    1    1    2    0    0  0.12007966633E+03 -0.10696273989E+03  0.39554659875E+03  0.44490703048E+03  0.12500000000E+03 0.  0.
         25    1    1    2    0    0 -0.12007966633E+03  0.10696273989E+03 -0.24020155677E+03  0.31493164633E+03  0.12500000000E+03 0.  0.
</event>
<event>
 4    0  0.2213671E-002  0.2286627E+03  0.7546771E-02  0.1127585E+00
         21   -1    0    0  502  501  0.00000000000E+00  0.00000000000E+00  0.57216700032E+02  0.57216700032E+02  0.00000000000E+00 0.  1.
         21   -1    0    0  501  502 -0.00000000000E+00 -0.00000000000E+00 -0.91383505867E+03  0.91383505867E+03  0.00000000000E+00 0.  1.
         25    1    1    2    0    0 -0.18187227382E+03  0.21670659457E+02 -0.30981140539E+03  0.38099245186E+03  0.12500000000E+03 0.  0.
         25    1    1    2    0    0  0.18187227382E+03 -0.21670659457E+02 -0.54680695325E+03  0.59005930684E+03  0.12500000000E+03 0.  0.
</event>
<event>
 4    0  0.2213671E-002  0.2175806E+03  0.7546771E-02  0.1135700E+00
         21   -1    0    0  502  501  0.00000000000E+00  0.00000000000E+00  0.15831514238E+04  0.15831514238E+04  0.00000000000E+00 0. -1.
         21   -1    0    0  501  502 -0.00000000000E+00 -0.00000000000E+00 -0.29903221171E+02  0.29903221171E+02  0.00000000000E+00 0. -1.
         25    1    1    2    0    0  0.64555586766E+02  0.13950528850E+03  0.44327647451E+03  0.48553906347E+03  0.12500000000E+03 0.  0.
         25    1    1    2    0    0 -0.64555586766E+02 -0.13950528850E+03  0.11099717281E+04  0.11275155815E+04  0.12500000000E+03 0.  0.
</event>
<event>
 4    0  0.2213671E-002  0.1912292E+03  0.7546771E-02  0.1157357E+00
         21   -1    0    0  502  501  0.00000000000E+00  0.00000000000E+00  0.17122460698E+04  0.17122460698E+04  0.00000000000E+00 0. -1.
         21   -1    0    0  501  502 -0.00000000000E+00 -0.00000000000E+00 -0.21357096988E+02  0.21357096988E+02  0.00000000000E+00 0. -1.
         25    1    1    2    0    0  0.13912346737E+03 -0.31983280178E+02  0.73766929152E+03  0.76168185815E+03  0.12500000000E+03 0.  0.
         25    1    1    2    0    0 -0.13912346737E+03  0.31983280178E+02  0.95321968133E+03  0.97192130867E+03  0.12500000000E+03 0.  0.
</event>
<event>
 4    0  0.2213671E-002  0.1713030E+03  0.7546771E-02  0.1176496E+00
         21   -1    0    0  502  501  0.00000000000E+00  0.00000000000E+00  0.80567892141E+02  0.80567892141E+02  0.00000000000E+00 0. -1.
         21   -1    0    0  501  502 -0.00000000000E+00 -0.00000000000E+00 -0.36422358537E+03  0.36422358537E+03  0.00000000000E+00 0. -1.
         25    1    1    2    0    0 -0.86102851295E+02  0.78489267308E+02 -0.15748576062E+03  0.23238121886E+03  0.12500000000E+03 0.  0.
         25    1    1    2    0    0  0.86102851295E+02 -0.78489267308E+02 -0.12616993261E+03  0.21241025865E+03  0.12500000000E+03 0.  0.
</event>
<event>
 4    0  0.2213671E-002  0.3796879E+03  0.7546771E-02  0.1051049E+00
         21   -1    0    0  502  501  0.00000000000E+00  0.00000000000E+00  0.52264013400E+03  0.52264013400E+03  0.00000000000E+00 0. -1.
         21   -1    0    0  501  502 -0.00000000000E+00 -0.00000000000E+00 -0.27583584140E+03  0.27583584140E+03  0.00000000000E+00 0. -1.
         25    1    1    2    0    0 -0.13248510575E+03  0.27067968315E+03  0.32761353576E+03  0.46235854369E+03  0.12500000000E+03 0.  0.
         25    1    1    2    0    0  0.13248510575E+03 -0.27067968315E+03 -0.80809243153E+02  0.33611743170E+03  0.12500000000E+03 0.  0.
</event>
<event>
 4    0  0.2213671E-002  0.2488630E+03  0.7546771E-02  0.1114025E+00
         21   -1    0    0  502  501  0.00000000000E+00  0.00000000000E+00  0.15063578672E+04  0.15063578672E+04  0.00000000000E+00 0. -1.
         21   -1    0    0  501  502 -0.00000000000E+00 -0.00000000000E+00 -0.41114278557E+02  0.41114278557E+02  0.00000000000E+00 0. -1.
         25    1    1    2    0    0 -0.17004225585E+03  0.10637515072E+03  0.97500624444E+03  0.10032408575E+04  0.12500000000E+03 0.  0.
         25    1    1    2    0    0  0.17004225585E+03 -0.10637515072E+03  0.49023734422E+03  0.54423128827E+03  0.12500000000E+03 0.  0.
</event>
<event>
 4    0  0.2213671E-002  0.1727706E+03  0.7546771E-02  0.1174989E+00
         21   -1    0    0  502  501  0.00000000000E+00  0.00000000000E+00  0.21409028423E+03  0.21409028423E+03  0.00000000000E+00 0.  1.
         21   -1    0    0  501  502 -0.00000000000E+00 -0.00000000000E+00 -0.13942572412E+03  0.13942572412E+03  0.00000000000E+00 0.  1.
         25    1    1    2    0    0  0.61693391309E+01 -0.97199549644E+02 -0.33095986281E+02  0.16188316004E+03  0.12500000000E+03 0.  0.
         25    1    1    2    0    0 -0.61693391309E+01  0.97199549644E+02  0.10776054639E+03  0.19163284832E+03  0.12500000000E+03 0.  0.
</event>
<event>
 4    0  0.2213671E-002  0.2776340E+03  0.7546771E-02  0.1096988E+00
         21   -1    0    0  502  501  0.00000000000E+00  0.00000000000E+00  0.20900528205E+03  0.20900528205E+03  0.00000000000E+00 0.  1.
         21   -1    0    0  501  502 -0.00000000000E+00 -0.00000000000E+00 -0.36879752723E+03  0.36879752723E+03  0.00000000000E+00 0.  1.
         25    1    1    2    0    0  0.22426913498E+03  0.85376824434E+02 -0.14462832637E+03  0.30680319399E+03  0.12500000000E+03 0.  0.
         25    1    1    2    0    0 -0.22426913498E+03 -0.85376824434E+02 -0.15163918817E+02  0.27099961529E+03  0.12500000000E+03 0.  0.
</event>
<event>
 4    0  0.2213671E-002  0.2493928E+03  0.7546771E-02  0.1113689E+00
         21   -1    0    0  502  501  0.00000000000E+00  0.00000000000E+00  0.49806547727E+03  0.49806547727E+03  0.00000000000E+00 0. -1.
         21   -1    0    0  501  502 -0.00000000000E+00 -0.00000000000E+00 -0.12487669095E+03  0.12487669095E+03  0.00000000000E+00 0. -1.
         25    1    1    2    0    0  0.58355490562E+02 -0.18129180972E+03  0.59845026659E+02  0.23553876701E+03  0.12500000000E+03 0.  0.
         25    1    1    2    0    0 -0.58355490562E+02  0.18129180972E+03  0.31334375967E+03  0.38740340121E+03  0.12500000000E+03 0.  0.
</event>
<event>
 4    0  0.2213671E-002  0.2180850E+03  0.7546771E-02  0.1135319E+00
         21   -1    0    0  502  501  0.00000000000E+00  0.00000000000E+00  0.21517148820E+03  0.21517148820E+03  0.00000000000E+00 0.  1.
         21   -1    0    0  501  502 -0.00000000000E+00 -0.00000000000E+00 -0.22103789099E+03  0.22103789099E+03  0.00000000000E+00 0.  1.
         25    1    1    2    0    0 -0.49825024716E+02  0.16507873875E+03 -0.49868553842E+02  0.21873590409E+03  0.12500000000E+03 0.  0.
         25    1    1    2    0    0  0.49825024716E+02 -0.16507873875E+03  0.44002151050E+02  0.21747347510E+03  0.12500000000E+03 0.  0.
</event>
<event>
 4    0  0.2213671E-002  0.2761202E+03  0.7546771E-02  0.1097827E+00
         21   -1    0    0  502  501  0.00000000000E+00  0.00000000000E+00  0.85547963044E+03  0.85547963044E+03  0.00000000000E+00 0. -1.
         21   -1    0    0  501  502 -0.00000000000E+00 -0.00000000000E+00 -0.89122363803E+02  0.89122363803E+02  0.00000000000E+00 0. -1.
         25    1    1    2    0    0  0.88869290935E+02 -0.11740811576E+03  0.45665645160E+02  0.19847611359E+03  0.12500000000E+03 0.  0.
         25    1    1    2    0    0 -0.88869290935E+02  0.11740811576E+03  0.72069162147E+03  0.74612588065E+03  0.12500000000E+03 0.  0.
</event>
<event>
 4    0  0.2213671E-002  0.1809018E+03  0.7546771E-02  0.1166933E+00
         21   -1    0    0  502  501  0.00000000000E+00  0.00000000000E+00  0.60495490715E+03  0.60495490715E+03  0.00000000000E+00 0.  1.
         21   -1    0    0  501  502 -0.00000000000E+00 -0.00000000000E+00 -0.54095724278E+02  0.54095724278E+02  0.00000000000E+00 0.  1.
         25    1    1    2    0    0 -0.44291383674E+02 -0.40232853975E+02  0.48723409836E+03  0.50655944944E+03  0.12500000000E+03 0.  0.
         25    1    1    2    0    0  0.44291383674E+02  0.40232853975E+02  0.63625084512E+02  0.15249118199E+03  0.12500000000E+03 0.  0.
</event>
<event>
 4    0  0.2213671E-002  0.1477177E+03  0.7546771E-02  0.1203306E+00
         21   -1    0    0  502  501  0.00000000000E+00  0.00000000000E+00  0.16593777096E+03  0.16593777096E+03  0.00000000000E+00 0. -1.
         21   -1    0    0  501  502 -0.00000000000E+00 -0.00000000000E+00 -0.13149825991E+03  0.13149825991E+03  0.00000000000E+00 0. -1.
         25    1    1    2    0    0 -0.16309638037E+02 -0.34638433770E+02 -0.52018780404E+02  0.14070102665E+03  0.12500000000E+03 0.  0.
         25    1    1    2    0    0  0.16309638037E+02  0.34638433770E+02  0.86458291449E+02  0.15673500422E+03  0.12500000000E+03 0.  0.
</event>
<event>
 4    0  0.2213671E-002  0.2003318E+03  0.7546771E-02  0.1149459E+00
         21   -1    0    0  502  501  0.00000000000E+00  0.00000000000E+00  0.38415113521E+03  0.38415113521E+03  0.00000000000E+00 0.  1.
         21   -1    0    0  501  502 -0.00000000000E+00 -0.00000000000E+00 -0.10447148707E+03  0.10447148707E+03  0.00000000000E+00 0.  1.
         25    1    1    2    0    0  0.92768856493E+02 -0.11350701093E+03  0.72843837186E+02  0.20596389704E+03  0.12500000000E+03 0.  0.
         25    1    1    2    0    0 -0.92768856493E+02  0.11350701093E+03  0.20683581095E+03  0.28265872525E+03  0.12500000000E+03 0.  0.
</event>
<event>
 4    0  0.2213671E-002  0.1808872E+03  0.7546771E-02  0.1166947E+00
         21   -1    0    0  502  501  0.00000000000E+00  0.00000000000E+00  0.17263877872E+03  0.17263877872E+03  0.00000000000E+00 0. -1.
         21   -1    0    0  501  502 -0.00000000000E+00 -0.00000000000E+00 -0.18952978300E+03  0.18952978300E+03  0.00000000000E+00 0. -1.
         25    1    1    2    0    0  0.95377780921E+02 -0.71082907819E+02 -0.62776986946E+02  0.18361822068E+03  0.12500000000E+03 0.  0.
         25    1    1    2    0    0 -0.95377780921E+02  0.71082907819E+02  0.45885982668E+02  0.17855034103E+03  0.12500000000E+03 0.  0.
</event>
<event>
 4    0  0.2213671E-002  0.2160131E+03  0.7546771E-02  0.1136891E+00
         21   -1    0    0  502  501  0.00000000000E+00  0.00000000000E+00  0.76882249975E+02  0.76882249975E+02  0.00000000000E+00 0. -1.
         21   -1    0    0  501  502 -0.00000000000E+00 -0.00000000000E+00 -0.60692391553E+03  0.60692391553E+03  0.00000000000E+00 0. -1.
         25    1    1    2    0    0  0.10096732739E+03  0.42559371207E+02 -0.48337091872E+03  0.51115374042E+03  0.12500000000E+03 0.  0.
         25    1    1    2    0    0 -0.10096732739E+03 -0.42559371207E+02 -0.46670746828E+02  0.17265242508E+03  0.12500000000E+03 0.  0.
</event>
<event>
 4    0  0.2213671E-002  0.2181776E+03  0.7546771E-02  0.1135249E+00
         21   -1    0    0  502  501  0.00000000000E+00  0.00000000000E+00  0.12127697003E+03  0.12127697003E+03  0.00000000000E+00 0.  1.
         21   -1    0    0  501  502 -0.00000000000E+00 -0.00000000000E+00 -0.39250195223E+03  0.39250195223E+03  0.00000000000E+00 0.  1.
         25    1    1    2    0    0 -0.59598011173E+02  0.96345880463E+02 -0.29851576681E+03  0.34288644571E+03  0.12500000000E+03 0.  0.
         25    1    1    2    0    0  0.59598011173E+02 -0.96345880463E+02  0.27290784612E+02  0.17089247655E+03  0.12500000000E+03 0.  0.
</event>
<event>
 4    0  0.2213671E-002  0.2138168E+03  0.7546771E-02  0.1138579E+00
         21   -1    0    0  502  501  0.00000000000E+00  0.00000000000E+00  0.14610217474E+03  0.14610217474E+03  0.00000000000E+00 0.  1.
         21   -1    0    0  501  502 -0.00000000000E+00 -0.00000000000E+00 -0.31291529264E+03  0.31291529264E+03  0.00000000000E+00 0.  1.
         25    1    1    2    0    0 -0.64940906803E+02 -0.11399956902E+03 -0.20522274239E+03  0.27377837225E+03  0.12500000000E+03 0.  0.
         25    1    1    2    0    0  0.64940906803E+02  0.11399956902E+03  0.38409624490E+02  0.18523909514E+03  0.12500000000E+03 0.  0.
</event>
<event>
 4    0  0.2213671E-002  0.2941197E+03  0.7546771E-02  0.1088218E+00
         21   -1    0    0  502  501  0.00000000000E+00  0.00000000000E+00  0.32889438378E+03  0.32889438378E+03  0.00000000000E+00 0. -1.
         21   -1    0    0  501  502 -0.00000000000E+00 -0.00000000000E+00 -0.26302185798E+03  0.26302185798E+03  0.00000000000E+00 0. -1.
         25    1    1    2    0    0 -0.19436854161E+03 -0.10700332973E+03 -0.11513160780E+03  0.27948010601E+03  0.12500000000E+03 0.  0.
         25    1    1    2    0    0  0.19436854161E+03  0.10700332973E+03  0.18100413360E+03  0.31243613575E+03  0.12500000000E+03 0.  0.
</event>
<event>
 4    0  0.2213671E-002  0.1954728E+03  0.7546771E-02  0.1153616E+00
         21   -1    0    0  502  501  0.00000000000E+00  0.00000000000E+00  0.12065154221E+03  0.12065154221E+03  0.00000000000E+00 0.  1.
         21   -1    0    0  501  502 -0.00000000000E+00 -0.00000000000E+00 -0.31669406003E+03  0.31669406003E+03  0.00000000000E+00 0.  1.
         25    1    1    2    0    0 -0.20610902444E+02 -0.13058901369E+03 -0.17796098944E+03  0.25450621516E+03  0.12500000000E+03 0.  0.
         25    1    1    2    0    0  0.20610902444E+02  0.13058901369E+03 -0.18081528380E+02  0.18283938707E+03  0.12500000000E+03 0.  0.
</event>
<event>
 4    0  0.2213671E-002  0.2332301E+03  0.7546771E-02  0.1124387E+00
         21   -1    0    0  502  501  0.00000000000E+00  0.00000000000E+00  0.62474266266E+02  0.62474266266E+02  0.00000000000E+00 0.  1.
         21   -1    0    0  501  502 -0.00000000000E+00 -0.00000000000E+00 -0.87069896910E+03  0.87069896910E+03  0.00000000000E+00 0.  1.
         25    1    1    2    0    0  0.16173597407E+03  0.75038633835E+02 -0.57127385822E+03  0.61136580127E+03  0.12500000000E+03 0.  0.
         25    1    1    2    0    0 -0.16173597407E+03 -0.75038633835E+02 -0.23695084462E+03  0.32180743410E+03  0.12500000000E+03 0.  0.
</event>
<event>
 4    0  0.2213671E-002  0.2611547E+03  0.7546771E-02  0.1106451E+00
         21   -1    0    0  502  501  0.00000000000E+00  0.00000000000E+00  0.42908040893E+03  0.42908040893E+03  0.00000000000E+00 0.  1.
         21   -1    0    0  501  502 -0.00000000000E+00 -0.00000000000E+00 -0.15894872459E+03  0.15894872459E+03  0.00000000000E+00 0.  1.
         25    1    1    2    0    0 -0.85191780563E+02 -0.21287154235E+03  0.13258628304E+03  0.29287549482E+03  0.12500000000E+03 0.  0.
         25    1    1    2    0    0  0.85191780563E+02  0.21287154235E+03  0.13754540130E+03  0.29515363870E+03  0.12500000000E+03 0.  0.
</event>
<event>
 4    0  0.2213671E-002  0.2647182E+03  0.7546771E-02  0.1104341E+00
         21   -1    0    0  502  501  0.00000000000E+00  0.00000000000E+00  0.77841789330E+02  0.77841789330E+02  0.00000000000E+00 0. -1.
         21   -1    0    0  501  502 -0.00000000000E+00 -0.00000000000E+00 -0.90023285930E+03  0.90023285930E+03  0.00000000000E+00 0. -1.
         25    1    1    2    0    0 -0.17750095508E+03 -0.92936072865E+01 -0.13189281772E+03  0.25419220200E+03  0.12500000000E+03 0.  0.
         25    1    1    2    0    0  0.17750095508E+03  0.92936072865E+01 -0.69049825224E+03  0.72388244663E+03  0.12500000000E+03 0.  0.
</event>
<event>
 4    0  0.2213671E-002  0.1359816E+03  0.7546771E-02  0.1218841E+00
         21   -1    0    0  502  501  0.00000000000E+00  0.00000000000E+00  0.33917118255E+02  0.33917118255E+02  0.00000000000E+00 0.  1.
         21   -1    0    0  501  502 -0.00000000000E+00 -0.00000000000E+00 -0.54518159525E+03  0.54518159525E+03  0.00000000000E+00 0.  1.
         25    1    1    2    0    0 -0.13245647287E+01  0.53493148399E+02 -0.25212224371E+03  0.28645051435E+03  0.12500000000E+03 0.  0.
         25    1    1    2    0    0  0.13245647287E+01 -0.53493148399E+02 -0.25914223329E+03  0.29264819916E+03  0.12500000000E+03 0.  0.
</event>
<event>
 4    0  0.2213671E-002  0.1809204E+03  0.7546771E-02  0.1166915E+00
         21   -1    0    0  502  501  0.00000000000E+00  0.00000000000E+00  0.27760382185E+02  0.27760382185E+02  0.00000000000E+00 0.  1.
         21   -1    0    0  501  502 -0.00000000000E+00 -0.00000000000E+00 -0.11790975965E+04  0.11790975965E+04  0.00000000000E+00 0.  1.
         25    1    1    2    0    0  0.17049856537E+02  0.12414163753E+03 -0.70070365646E+03  0.72271187755E+03  0.12500000000E+03 0.  0.
         25    1    1    2    0    0 -0.17049856537E+02 -0.12414163753E+03 -0.45063355781E+03  0.48414610109E+03  0.12500000000E+03 0.  0.
</event>
<event>
 4    0  0.2213671E-002  0.3270078E+03  0.7546771E-02  0.1072469E+00
         21   -1    0    0  502  501  0.00000000000E+00  0.00000000000E+00  0.27366487824E+03  0.27366487824E+03  0.00000000000E+00 0. -1.
         21   -1    0    0  501  502 -0.00000000000E+00 -0.00000000000E+00 -0.39074823814E+03  0.39074823814E+03  0.00000000000E+00 0. -1.
         25    1    1    2    0    0  0.19617384552E+03 -0.22809180430E+03 -0.29825344058E+02  0.32714614471E+03  0.12500000000E+03 0.  0.
         25    1    1    2    0    0 -0.19617384552E+03  0.22809180430E+03 -0.87258015845E+02  0.33726697167E+03  0.12500000000E+03 0.  0.
</event>
<event>
 4    0  0.2213671E-002  0.4259153E+03  0.7546771E-02  0.1035158E+00
         21   -1    0    0  502  501  0.00000000000E+00  0.00000000000E+00  0.35627817354E+03  0.35627817354E+03  0.00000000000E+00 0.  1.
         21   -1    0    0  501  502 -0.00000000000E+00 -0.00000000000E+00 -0.50916346055E+03  0.50916346055E+03  0.00000000000E+00 0.  1.
         25    1    1    2    0    0 -0.10096257572E+03  0.33798042515E+03  0.13016508990E+03  0.39622236195E+03  0.12500000000E+03 0.  0.
         25    1    1    2    0    0  0.10096257572E+03 -0.33798042515E+03 -0.28305037691E+03  0.46921927214E+03  0.12500000000E+03 0.  0.
</event>
<event>
 4    0  0.2213671E-002  0.2032837E+03  0.7546771E-02  0.1146998E+00
         21   -1    0    0  502  501  0.00000000000E+00  0.00000000000E+00  0.68674671740E+03  0.68674671740E+03  0.00000000000E+00 0.  1.
         21   -1    0    0  501  502 -0.00000000000E+00 -0.00000000000E+00 -0.60173931601E+02  0.60173931601E+02  0.00000000000E+00 0.  1.
         25    1    1    2    0    0  0.73218133325E+02  0.14242072726E+03  0.32687270209E+03  0.38485753465E+03  0.12500000000E+03 0.  0.
         25    1    1    2    0    0 -0.73218133325E+02 -0.14242072726E+03  0.29970008370E+03  0.36206311435E+03  0.12500000000E+03 0.  0.
</event>
<event>
 4    0  0.2213671E-002  0.1884647E+03  0.7546771E-02  0.1159853E+00
         21   -1    0    0  502  501  0.00000000000E+00  0.00000000000E+00  0.55661425239E+03  0.55661425239E+03  0.00000000000E+00 0. -1.
         21   -1    0    0  501  502 -0.00000000000E+00 -0.00000000000E+00 -0.63812497740E+02  0.63812497740E+02  0.00000000000E+00 0.  1.
         25    1    1    2    0    0  0.11155973024E+03 -0.83004693739E+02  0.28530344623E+03  0.34111348408E+03  0.12500000000E+03 0.  0.
         25    1    1    2    0    0 -0.11155973024E+03  0.83004693739E+02  0.20749830843E+03  0.27931326605E+03  0.12500000000E+03 0.  0.
</event>
<event>
 4    0  0.2213671E-002  0.1742892E+03  0.7546771E-02  0.1173447E+00
         21   -1    0    0  502  501  0.00000000000E+00  0.00000000000E+00  0.63800162787E+02  0.63800162787E+02  0.00000000000E+00 0.  1.
         21   -1    0    0  501  502 -0.00000000000E+00 -0.00000000000E+00 -0.47612319944E+03  0.47612319944E+03  0.00000000000E+00 0.  1.
         25    1    1    2    0    0  0.39293489087E+01 -0.11113622206E+03 -0.28180634111E+03  0.32772932967E+03  0.12500000000E+03 0.  0.
         25    1    1    2    0    0 -0.39293489087E+01  0.11113622206E+03 -0.13051669554E+03  0.21219403255E+03  0.12500000000E+03 0.  0.
</event>
<event>
 4    0  0.2213671E-002  0.2091310E+03  0.7546771E-02  0.1142256E+00
         21   -1    0    0  502  501  0.00000000000E+00  0.00000000000E+00  0.75965023403E+02  0.75965023403E+02  0.00000000000E+00 0. -1.
         21   -1    0    0  501  502 -0.00000000000E+00 -0.00000000000E+00 -0.57573569417E+03  0.57573569417E+03  0.00000000000E+00 0. -1.
         25    1    1    2    0    0  0.32174488808E+02 -0.11757816277E+03 -0.70526262233E+02  0.18830500725E+03  0.12500000000E+03 0.  0.
         25    1    1    2    0    0 -0.32174488808E+02  0.11757816277E+03 -0.42924440853E+03  0.46339571032E+03  0.12500000000E+03 0.  0.
</event>
<event>
 4    0  0.2213671E-002  0.2468891E+03  0.7546771E-02  0.1115287E+00
         21   -1    0    0  502  501  0.00000000000E+00  0.00000000000E+00  0.38602502170E+03  0.38602502170E+03  0.00000000000E+00 0.  1.
         21   -1    0    0  501  502 -0.00000000000E+00 -0.00000000000E+00 -0.15790220848E+03  0.15790220848E+03  0.00000000000E+00 0.  1.
         25    1    1    2    0    0 -0.16632795817E+03 -0.10678825072E+03  0.26902272774E+02  0.23540911716E+03  0.12500000000E+03 0.  0.
         25    1    1    2    0    0  0.16632795817E+03  0.10678825072E+03  0.20122054044E+03  0.30851811302E+03  0.12500000000E+03 0.  0.
</event>
<event>
 4    0  0.2213671E-002  0.2081486E+03  0.7546771E-02  0.1143041E+00
         21   -1    0    0  502  501  0.00000000000E+00  0.00000000000E+00  0.10476919645E+03  0.10476919645E+03  0.00000000000E+00 0.  1.
         21   -1    0    0  501  502 -0.00000000000E+00 -0.00000000000E+00 -0.41353622396E+03  0.41353622396E+03  0.00000000000E+00 0.  1.
         25    1    1    2    0    0 -0.72410768139E+02 -0.81583923904E+01 -0.34068602658E+03  0.37013760606E+03  0.12500000000E+03 0.  0.
         25    1    1    2    0    0  0.72410768139E+02  0.81583923904E+01  0.31918999076E+02  0.14816781436E+03  0.12500000000E+03 0.  0.
</event>
<event>
 4    0  0.2213671E-002  0.2100376E+03  0.7546771E-02  0.1141536E+00
         21   -1    0    0  502  501  0.00000000000E+00  0.00000000000E+00  0.23257752720E+03  0.23257752720E+03  0.00000000000E+00 0.  1.
         21   -1    0    0  501  502 -0.00000000000E+00 -0.00000000000E+00 -0.18968216992E+03  0.18968216992E+03  0.00000000000E+00 0.  1.
         25    1    1    2    0    0 -0.59600375471E+02 -0.63857477701E+02 -0.12373616052E+03  0.19638131183E+03  0.12500000000E+03 0.  0.
         25    1    1    2    0    0  0.59600375471E+02  0.63857477701E+02  0.16663151780E+03  0.22587838529E+03  0.12500000000E+03 0.  0.
</event>
<event>
 4    0  0.2213671E-002  0.2481083E+03  0.7546771E-02  0.1114506E+00
         21   -1    0    0  502  501  0.00000000000E+00  0.00000000000E+00  0.60416915211E+03  0.60416915211E+03  0.00000000000E+00 0. -1.
         21   -1    0    0  501  502 -0.00000000000E+00 -0.00000000000E+00 -0.10188822435E+03  0.10188822435E+03  0.00000000000E+00 0. -1.
         25    1    1    2    0    0 -0.17386945581E+02  0.11340475008E+03 -0.64355892454E+01  0.16979210825E+03  0.12500000000E+03 0.  0.
         25    1    1    2    0    0  0.17386945581E+02 -0.11340475008E+03  0.50871651700E+03  0.53626526821E+03  0.12500000000E+03 0.  0.
</event>
<event>
 4    0  0.2213671E-002  0.1845468E+03  0.7546771E-02  0.1163474E+00
         21   -1    0    0  502  501  0.00000000000E+00  0.00000000000E+00  0.14428109324E+04  0.14428109324E+04  0.00000000000E+00 0.  1.
         21   -1    0    0  501  502 -0.00000000000E+00 -0.00000000000E+00 -0.23604984680E+02  0.23604984680E+02  0.00000000000E+00 0.  1.
         25    1    1    2    0    0  0.23393622773E+01  0.12220052355E+03  0.94445137183E+03  0.96049561910E+03  0.12500000000E+03 0.  0.
         25    1    1    2    0    0 -0.23393622773E+01 -0.12220052355E+03  0.47475457586E+03  0.50592029794E+03  0.12500000000E+03 0.  0.
</event>
<event>
 4    0  0.2213671E-002  0.4246840E+03  0.7546771E-02  0.1035553E+00
         21   -1    0    0  502  501  0.00000000000E+00  0.00000000000E+00  0.36371238427E+03  0.36371238427E+03  0.00000000000E+00 0.  1.
         21   -1    0    0  501  502 -0.00000000000E+00 -0.00000000000E+00 -0.49587670580E+03  0.49587670580E+03  0.00000000000E+00 0.  1.
         25    1    1    2    0    0  0.32500604879E+03  0.22890936848E+03  0.16775338435E+02  0.41705496365E+03  0.12500000000E+03 0.  0.
         25    1    1    2    0    0 -0.32500604879E+03 -0.22890936848E+03 -0.14893965997E+03  0.44253412641E+03  0.12500000000E+03 0.  0.
</event>
<event>
 4    0  0.2213671E-002  0.2322525E+03  0.7546771E-02  0.1125064E+00
         21   -1    0    0  502  501  0.00000000000E+00  0.00000000000E+00  0.26351977115E+03  0.26351977115E+03  0.00000000000E+00 0.  1.
         21   -1    0    0  501  502 -0.00000000000E+00 -0.00000000000E+00 -0.20469522504E+03  0.20469522504E+03  0.00000000000E+00 0.  1.
         25    1    1    2    0    0 -0.83602220446E+02 -0.99525086141E+02 -0.11811811179E+03  0.21557240632E+03  0.12500000000E+03 0.  0.
         25    1    1    2    0    0  0.83602220446E+02  0.99525086141E+02  0.17694265789E+03  0.25264258987E+03  0.12500000000E+03 0.  0.
</event>
<event>
 4    0  0.2213671E-002  0.2044150E+03  0.7546771E-02  0.1146067E+00
         21   -1    0    0  502  501  0.00000000000E+00  0.00000000000E+00  0.61166227414E+03  0.61166227414E+03  0.00000000000E+00 0. -1.
         21   -1    0    0  501  502 -0.00000000000E+00 -0.00000000000E+00 -0.68314642336E+02  0.68314642336E+02  0.00000000000E+00 0. -1.
         25    1    1    2    0    0  0.10453431544E+03 -0.10097105431E+03  0.15362089405E+03  0.24565617436E+03  0.12500000000E+03 0.  0.
         25    1    1    2    0    0 -0.10453431544E+03  0.10097105431E+03  0.38972673775E+03  0.43432074211E+03  0.12500000000E+03 0.  0.
</event>
<event>
 4    0  0.2213671E-002  0.2870135E+03  0.7546771E-02  0.1091919E+00
         21   -1    0    0  502  501  0.00000000000E+00  0.00000000000E+00  0.87619060215E+03  0.87619060215E+03  0.00000000000E+00 0. -1.
         21   -1    0    0  501  502 -0.00000000000E+00 -0.00000000000E+00 -0.94016928388E+02  0.94016928388E+02  0.00000000000E+00 0. -1.
         25    1    1    2    0    0  0.25480572118E+02  0.95330419022E+02 -0.12489193981E+02  0.15974394609E+03  0.12500000000E+03 0.  0.
         25    1    1    2    0    0 -0.25480572118E+02 -0.95330419022E+02  0.79466286774E+03  0.81046358445E+03  0.12500000000E+03 0.  0.
</event>
<event>
 4    0  0.2213671E-002  0.2414747E+03  0.7546771E-02  0.1118814E+00
         21   -1    0    0  502  501  0.00000000000E+00  0.00000000000E+00  0.33810050345E+03  0.33810050345E+03  0.00000000000E+00 0. -1.
         21   -1    0    0  501  502 -0.00000000000E+00 -0.00000000000E+00 -0.17246357296E+03  0.17246357296E+03  0.00000000000E+00 0. -1.
         25    1    1    2    0    0  0.14166891092E+03 -0.41690600214E+02 -0.69931451864E+02  0.20572699003E+03  0.12500000000E+03 0.  0.
         25    1    1    2    0    0 -0.14166891092E+03  0.41690600214E+02  0.23556838235E+03  0.30483708638E+03  0.12500000000E+03 0.  0.
</event>
<event>
 4    0  0.2213671E-002  0.2236045E+03  0.7546771E-02  0.1131224E+00
         21   -1    0    0  502  501  0.00000000000E+00  0.00000000000E+00  0.19536846196E+03  0.19536846196E+03  0.00000000000E+00 0.  1.
         21   -1    0    0  501  502 -0.00000000000E+00 -0.00000000000E+00 -0.25592144846E+03  0.25592144846E+03  0.00000000000E+00 0.  1.
         25    1    1    2    0    0 -0.16391543093E+03  0.62300210099E+02  0.30475820665E+02  0.21749335696E+03  0.12500000000E+03 0.  0.
         25    1    1    2    0    0  0.16391543093E+03 -0.62300210099E+02 -0.91028807169E+02  0.23379655346E+03  0.12500000000E+03 0.  0.
</event>
<event>
 4    0  0.2213671E-002  0.3435121E+03  0.7546771E-02  0.1065310E+00
         21   -1    0    0  502  501  0.00000000000E+00  0.00000000000E+00  0.10373878317E+04  0.10373878317E+04  0.00000000000E+00 0. -1.
         21   -1    0    0  501  502 -0.00000000000E+00 -0.00000000000E+00 -0.11374777900E+03  0.11374777900E+03  0.00000000000E+00 0. -1.
         25    1    1    2    0    0  0.11881610633E+03 -0.15801497756E+03  0.88334227226E+03  0.91378584483E+03  0.12500000000E+03 0.  0.
         25    1    1    2    0    0 -0.11881610633E+03  0.15801497756E+03  0.40297780454E+02  0.23734976588E+03  0.12500000000E+03 0.  0.
</event>
<event>
 4    0  0.2213671E-002  0.1926167E+03  0.7546771E-02  0.1156122E+00
         21   -1    0    0  502  501  0.00000000000E+00  0.00000000000E+00  0.39090549140E+02  0.39090549140E+02  0.00000000000E+00 0. -1.
         21   -1    0    0  501  502 -0.00000000000E+00 -0.00000000000E+00 -0.94910877528E+03  0.94910877528E+03  0.00000000000E+00 0. -1.
         25    1    1    2    0    0  0.63348162650E+02 -0.11095622291E+03 -0.63913074482E+03  0.66365456534E+03  0.12500000000E+03 0.  0.
         25    1    1    2    0    0 -0.63348162650E+02  0.11095622291E+03 -0.27088748132E+03  0.32454475909E+03  0.12500000000E+03 0.  0.
</event>
<event>
 4    0  0.2213671E-002  0.1831197E+03  0.7546771E-02  0.1164817E+00
         21   -1    0    0  502  501  0.00000000000E+00  0.00000000000E+00  0.27638465766E+02  0.27638465766E+02  0.00000000000E+00 0.  1.
         21   -1    0    0  501  502 -0.00000000000E+00 -0.00000000000E+00 -0.12132671103E+04  0.12132671103E+04  0.00000000000E+00 0.  1.
         25    1    1    2    0    0 -0.19696819668E+02 -0.13227697151E+03 -0.57667849500E+03  0.60503574150E+03  0.12500000000E+03 0.  0.
         25    1    1    2    0    0  0.19696819668E+02  0.13227697151E+03 -0.60895014957E+03  0.63586983461E+03  0.12500000000E+03 0.  0.
</event>
<event>
 4    0  0.2213671E-002  0.1782759E+03  0.7546771E-02  0.1169482E+00
         21   -1    0    0  502  501  0.00000000000E+00  0.00000000000E+00  0.24391937200E+03  0.24391937200E+03  0.00000000000E+00 0.  1.
         21   -1    0    0  501  502 -0.00000000000E+00 -0.00000000000E+00 -0.13029832976E+03  0.13029832976E+03  0.00000000000E+00 0.  1.
         25    1    1    2    0    0 -0.27574671929E+02 -0.11604249469E+03  0.10293166354E+03  0.20111228323E+03  0.12500000000E+03 0.  0.
         25    1    1    2    0    0  0.27574671929E+02  0.11604249469E+03  0.10689378707E+02  0.17310541853E+03  0.12500000000E+03 0.  0.
</event>
<event>
 4    0  0.2213671E-002  0.2233018E+03  0.7546771E-02  0.1131445E+00
         21   -1    0    0  502  501  0.00000000000E+00  0.00000000000E+00  0.44208374589E+03  0.44208374589E+03  0.00000000000E+00 0.  1.
         21   -1    0    0  501  502 -0.00000000000E+00 -0.00000000000E+00 -0.11279240893E+03  0.11279240893E+03  0.00000000000E+00 0.  1.
         25    1    1    2    0    0  0.17176830949E+03 -0.61808357857E+02  0.12708247631E+03  0.25514619541E+03  0.12500000000E+03 0.  0.
         25    1    1    2    0    0 -0.17176830949E+03  0.61808357857E+02  0.20220886065E+03  0.29972995941E+03  0.12500000000E+03 0.  0.
</event>
<event>
 4    0  0.2213671E-002  0.4142810E+03  0.7546771E-02  0.1038944E+00
         21   -1    0    0  502  501  0.00000000000E+00  0.00000000000E+00  0.28305210439E+03  0.28305210439E+03  0.00000000000E+00 0.  1.
         21   -1    0    0  501  502 -0.00000000000E+00 -0.00000000000E+00 -0.60635023578E+03  0.60635023578E+03  0.00000000000E+00 0.  1.
         25    1    1    2    0    0 -0.21259823889E+03  0.47776641636E+02  0.19196894884E+03  0.31616087042E+03  0.12500000000E+03 0.  0.
         25    1    1    2    0    0  0.21259823889E+03 -0.47776641636E+02 -0.51526708023E+03  0.57324146974E+03  0.12500000000E+03 0.  0.
</event>
<event>
 4    0  0.2213671E-002  0.2182199E+03  0.7546771E-02  0.1135217E+00
         21   -1    0    0  502  501  0.00000000000E+00  0.00000000000E+00  0.24059515452E+03  0.24059515452E+03  0.00000000000E+00 0.  1.
         21   -1    0    0  501  502 -0.00000000000E+00 -0.00000000000E+00 -0.19792546032E+03  0.19792546032E+03  0.00000000000E+00 0.  1.
         25    1    1    2    0    0  0.74192190054E+02 -0.13073539006E+03  0.11874388624E+03  0.22873857086E+03  0.12500000000E+03 0.  0.
         25    1    1    2    0    0 -0.74192190054E+02  0.13073539006E+03 -0.76074192036E+02  0.20978204397E+03  0.12500000000E+03 0.  0.
</event>
<event>
 4    0  0.2213671E-002  0.2348123E+03  0.7546771E-02  0.1123298E+00
         21   -1    0    0  502  501  0.00000000000E+00  0.00000000000E+00  0.15169796643E+04  0.15169796643E+04  0.00000000000E+00 0. -1.
         21   -1    0    0  501  502 -0.00000000000E+00 -0.00000000000E+00 -0.36346455597E+02  0.36346455597E+02  0.00000000000E+00 0. -1.
         25    1    1    2    0    0  0.16649545875E+03 -0.73078093965E+02  0.10059696315E+04  0.10298839960E+04  0.12500000000E+03 0.  0.
         25    1    1    2    0    0 -0.16649545875E+03  0.73078093965E+02  0.47466357717E+03  0.52344212392E+03  0.12500000000E+03 0.  0.
</event>
<event>
 4    0  0.2213671E-002  0.2314110E+03  0.7546771E-02  0.1125651E+00
         21   -1    0    0  502  501  0.00000000000E+00  0.00000000000E+00  0.12488673497E+04  0.12488673497E+04  0.00000000000E+00 0. -1.
         21   -1    0    0  501  502 -0.00000000000E+00 -0.00000000000E+00 -0.42879690407E+02  0.42879690407E+02  0.00000000000E+00 0. -1.
         25    1    1    2    0    0  0.13632323479E+03 -0.69585610226E+02  0.93907599359E+03  0.95964311243E+03  0.12500000000E+03 0.  0.
         25    1    1    2    0    0 -0.13632323479E+03  0.69585610226E+02  0.26691166574E+03  0.33210392772E+03  0.12500000000E+03 0.  0.
</event>
<event>
 4    0  0.2213671E-002  0.2046577E+03  0.7546771E-02  0.1145868E+00
         21   -1    0    0  502  501  0.00000000000E+00  0.00000000000E+00  0.95210410725E+03  0.95210410725E+03  0.00000000000E+00 0.  1.
         21   -1    0    0  501  502 -0.00000000000E+00 -0.00000000000E+00 -0.43991811331E+02  0.43991811331E+02  0.00000000000E+00 0.  1.
         25    1    1    2    0    0 -0.52653494528E+02  0.15325594901E+03  0.45384039529E+03  0.49785126373E+03  0.12500000000E+03 0.  0.
         25    1    1    2    0    0  0.52653494528E+02 -0.15325594901E+03  0.45427190062E+03  0.49824465485E+03  0.12500000000E+03 0.  0.
</event>
<event>
 4    0  0.2213671E-002  0.2555400E+03  0.7546771E-02  0.1109853E+00
         21   -1    0    0  502  501  0.00000000000E+00  0.00000000000E+00  0.30166509786E+03  0.30166509786E+03  0.00000000000E+00 0.  1.
         21   -1    0    0  501  502 -0.00000000000E+00 -0.00000000000E+00 -0.21646744834E+03  0.21646744834E+03  0.00000000000E+00 0.  1.
         25    1    1    2    0    0  0.14989090738E+03 -0.82943786638E+02 -0.10194749629E+03  0.23529821049E+03  0.12500000000E+03 0.  0.
         25    1    1    2    0    0 -0.14989090738E+03  0.82943786638E+02  0.18714514581E+03  0.28283433571E+03  0.12500000000E+03 0.  0.
</event>
<event>
 4    0  0.2213671E-002  0.1979917E+03  0.7546771E-02  0.1151445E+00
         21   -1    0    0  502  501  0.00000000000E+00  0.00000000000E+00  0.79578234201E+02  0.79578234201E+02  0.00000000000E+00 0. -1.
         21   -1    0    0  501  502 -0.00000000000E+00 -0.00000000000E+00 -0.49260584276E+03  0.49260584276E+03  0.00000000000E+00 0. -1.
         25    1    1    2    0    0 -0.96124968487E+02 -0.11934306452E+03 -0.19258452481E+03  0.27603727250E+03  0.12500000000E+03 0.  0.
         25    1    1    2    0    0  0.96124968487E+02  0.11934306452E+03 -0.22044308376E+03  0.29614680446E+03  0.12500000000E+03 0.  0.
</event>
<event>
 4    0  0.2213671E-002  0.2564889E+03  0.7546771E-02  0.1109271E+00
         21   -1    0    0  502  501  0.00000000000E+00  0.00000000000E+00  0.70572183294E+03  0.70572183294E+03  0.00000000000E+00 0. -1.
         21   -1    0    0  501  502 -0.00000000000E+00 -0.00000000000E+00 -0.93218783849E+02  0.93218783849E+02  0.00000000000E+00 0. -1.
         25    1    1    2    0    0  0.56270709498E+01 -0.13225683021E+03  0.58762150933E+03  0.61518092565E+03  0.12500000000E+03 0.  0.
         25    1    1    2    0    0 -0.56270709498E+01  0.13225683021E+03  0.24881539768E+02  0.18375969114E+03  0.12500000000E+03 0.  0.
</event>
<event>
 4    0  0.2213671E-002  0.1826981E+03  0.7546771E-02  0.1165217E+00
         21   -1    0    0  502  501  0.00000000000E+00  0.00000000000E+00  0.16569336695E+03  0.16569336695E+03  0.00000000000E+00 0. -1.
         21   -1    0    0  501  502 -0.00000000000E+00 -0.00000000000E+00 -0.20144794281E+03  0.20144794281E+03  0.00000000000E+00 0. -1.
         25    1    1    2    0    0  0.11110320213E+03 -0.44377211166E+02 -0.76811746490E+02  0.18931007050E+03  0.12500000000E+03 0.  0.
         25    1    1    2    0    0 -0.11110320213E+03  0.44377211166E+02  0.41057170632E+02  0.17783123926E+03  0.12500000000E+03 0.  0.
</event>
<event>
 4    0  0.2213671E-002  0.1900962E+03  0.7546771E-02  0.1158375E+00
         21   -1    0    0  502  501  0.00000000000E+00  0.00000000000E+00  0.69779533507E+03  0.69779533507E+03  0.00000000000E+00 0. -1.
         21   -1    0    0  501  502 -0.00000000000E+00 -0.00000000000E+00 -0.51786764803E+02  0.51786764803E+02  0.00000000000E+00 0. -1.
         25    1    1    2    0    0 -0.12636080118E+03  0.66181830789E+02  0.29771903893E+03  0.35299959340E+03  0.12500000000E+03 0.  0.
         25    1    1    2    0    0  0.12636080118E+03 -0.66181830789E+02  0.34828953134E+03  0.39658250647E+03  0.12500000000E+03 0.  0.
</event>
<event>
 4    0  0.2213671E-002  0.1762166E+03  0.7546771E-02  0.1171516E+00
         21   -1    0    0  502  501  0.00000000000E+00  0.00000000000E+00  0.70847909708E+02  0.70847909708E+02  0.00000000000E+00 0. -1.
         21   -1    0    0  501  502 -0.00000000000E+00 -0.00000000000E+00 -0.43829524211E+03  0.43829524211E+03  0.00000000000E+00 0. -1.
         25    1    1    2    0    0 -0.86034190239E+02  0.13217127255E+02 -0.31172602151E+03  0.34695055387E+03  0.12500000000E+03 0.  0.
         25    1    1    2    0    0  0.86034190239E+02 -0.13217127255E+02 -0.55721310897E+02  0.16219259795E+03  0.12500000000E+03 0.  0.
</event>
<event>
 4    0  0.2213671E-002  0.1402680E+03  0.7546771E-02  0.1212969E+00
         21   -1    0    0  502  501  0.00000000000E+00  0.00000000000E+00  0.10641930754E+04  0.10641930754E+04  0.00000000000E+00 0.  1.
         21   -1    0    0  501  502 -0.00000000000E+00 -0.00000000000E+00 -0.18488298070E+02  0.18488298070E+02  0.00000000000E+00 0.  1.
         25    1    1    2    0    0  0.49716877928E+02  0.39719263992E+02  0.51955294361E+03  0.53815392696E+03  0.12500000000E+03 0.  0.
         25    1    1    2    0    0 -0.49716877928E+02 -0.39719263992E+02  0.52615183375E+03  0.54452744655E+03  0.12500000000E+03 0.  0.
</event>
<event>
 4    0  0.2213671E-002  0.3513838E+03  0.7546771E-02  0.1062049E+00
         21   -1    0    0  502  501  0.00000000000E+00  0.00000000000E+00  0.18361738870E+03  0.18361738870E+03  0.00000000000E+00 0. -1.
         21   -1    0    0  501  502 -0.00000000000E+00 -0.00000000000E+00 -0.67243393533E+03  0.67243393533E+03  0.00000000000E+00 0. -1.
         25    1    1    2    0    0 -0.20158610998E+03 -0.36534056095E+02  0.68231818734E+02  0.24950406425E+03  0.12500000000E+03 0.  0.
         25    1    1    2    0    0  0.20158610998E+03  0.36534056095E+02 -0.55704836537E+03  0.60654725978E+03  0.12500000000E+03 0.  0.
</event>
<event>
 4    0  0.2213671E-002  0.2072500E+03  0.7546771E-02  0.1143762E+00
         21   -1    0    0  502  501  0.00000000000E+00  0.00000000000E+00  0.10292503596E+03  0.10292503596E+03  0.00000000000E+00 0.  1.
         21   -1    0    0  501  502 -0.00000000000E+00 -0.00000000000E+00 -0.41731893387E+03  0.41731893387E+03  0.00000000000E+00 0.  1.
         25    1    1    2    0    0 -0.61881647958E+02 -0.48286009418E+02  0.25406496440E+02  0.14977104901E+03  0.12500000000E+03 0.  0.
         25    1    1    2    0    0  0.61881647958E+02  0.48286009418E+02 -0.33980039435E+03  0.37047292082E+03  0.12500000000E+03 0.  0.
</event>
<event>
 4    0  0.2213671E-002  0.1874003E+03  0.7546771E-02  0.1160827E+00
         21   -1    0    0  502  501  0.00000000000E+00  0.00000000000E+00  0.82863038784E+02  0.82863038784E+02  0.00000000000E+00 0.  1.
         21   -1    0    0  501  502 -0.00000000000E+00 -0.00000000000E+00 -0.42381812538E+03  0.42381812538E+03  0.00000000000E+00 0.  1.
         25    1    1    2    0    0 -0.48438924581E+02  0.10262624683E+03 -0.60523290825E+02  0.17935034063E+03  0.12500000000E+03 0.  0.
         25    1    1    2    0    0  0.48438924581E+02 -0.10262624683E+03 -0.28043179577E+03  0.32733082353E+03  0.12500000000E+03 0.  0.
</event>
<event>
 4    0  0.2213671E-002  0.3535791E+03  0.7546771E-02  0.1061156E+00
         21   -1    0    0  502  501  0.00000000000E+00  0.00000000000E+00  0.15954105600E+03  0.15954105600E+03  0.00000000000E+00 0. -1.
         21   -1    0    0  501  502 -0.00000000000E+00 -0.00000000000E+00 -0.78361112097E+03  0.78361112097E+03  0.00000000000E+00 0. -1.
         25    1    1    2    0    0  0.26155865458E+03 -0.15799154377E+03 -0.14323153822E+03  0.35988127380E+03  0.12500000000E+03 0.  0.
         25    1    1    2    0    0 -0.26155865458E+03  0.15799154377E+03 -0.48083852675E+03  0.58327090318E+03  0.12500000000E+03 0.  0.
</event>
<event>
 4    0  0.2213671E-002  0.2315367E+03  0.7546771E-02  0.1125563E+00
         21   -1    0    0  502  501  0.00000000000E+00  0.00000000000E+00  0.53375481915E+03  0.53375481915E+03  0.00000000000E+00 0. -1.
         21   -1    0    0  501  502 -0.00000000000E+00 -0.00000000000E+00 -0.10043798983E+03  0.10043798983E+03  0.00000000000E+00 0. -1.
         25    1    1    2    0    0 -0.23735680422E+02 -0.13003986104E+03  0.20521350841E+02  0.18308433528E+03  0.12500000000E+03 0.  0.
         25    1    1    2    0    0  0.23735680422E+02  0.13003986104E+03  0.41279547849E+03  0.45110847370E+03  0.12500000000E+03 0.  0.
</event>
<event>
 4    0  0.2213671E-002  0.2306266E+03  0.7546771E-02  0.1126199E+00
         21   -1    0    0  502  501  0.00000000000E+00  0.00000000000E+00  0.14967873255E+03  0.14967873255E+03  0.00000000000E+00 0.  1.
         21   -1    0    0  501  502 -0.00000000000E+00 -0.00000000000E+00 -0.35535204010E+03  0.35535204010E+03  0.00000000000E+00 0.  1.
         25    1    1    2    0    0 -0.18038700143E+03 -0.97287473884E+01 -0.17971090357E+03  0.28382235231E+03  0.12500000000E+03 0.  0.
         25    1    1    2    0    0  0.18038700143E+03  0.97287473884E+01 -0.25962403982E+02  0.22120842034E+03  0.12500000000E+03 0.  0.
</event>
<event>
 4    0  0.2213671E-002  0.2104649E+03  0.7546771E-02  0.1141198E+00
         21   -1    0    0  502  501  0.00000000000E+00  0.00000000000E+00  0.36564041098E+03  0.36564041098E+03  0.00000000000E+00 0.  1.
         21   -1    0    0  501  502 -0.00000000000E+00 -0.00000000000E+00 -0.12114487925E+03  0.12114487925E+03  0.00000000000E+00 0.  1.
         25    1    1    2    0    0  0.15209454718E+03  0.33127703865E+02  0.19930836614E+03  0.28209753785E+03  0.12500000000E+03 0.  0.
         25    1    1    2    0    0 -0.15209454718E+03 -0.33127703865E+02  0.45187165578E+02  0.20468775239E+03  0.12500000000E+03 0.  0.
</event>
<event>
 4    0  0.2213671E-002  0.1855082E+03  0.7546771E-02  0.1162576E+00
         21   -1    0    0  502  501  0.00000000000E+00  0.00000000000E+00  0.93223731031E+03  0.93223731031E+03  0.00000000000E+00 0.  1.
         21   -1    0    0  501  502 -0.00000000000E+00 -0.00000000000E+00 -0.36914749054E+02  0.36914749054E+02  0.00000000000E+00 0.  1.
         25    1    1    2    0    0 -0.38607890836E+02 -0.16001692832E+02  0.10666081846E+03  0.16955280476E+03  0.12500000000E+03 0.  0.
         25    1    1    2    0    0  0.38607890836E+02  0.16001692832E+02  0.78866174279E+03  0.79959925460E+03  0.12500000000E+03 0.  0.
</event>
<event>
 4    0  0.2213671E-002  0.2343788E+03  0.7546771E-02  0.1123595E+00
         21   -1    0    0  502  501  0.00000000000E+00  0.00000000000E+00  0.80290807058E+02  0.80290807058E+02  0.00000000000E+00 0.  1.
         21   -1    0    0  501  502 -0.00000000000E+00 -0.00000000000E+00 -0.68418092434E+03  0.68418092434E+03  0.00000000000E+00 0. -1.
         25    1    1    2    0    0  0.34902660983E+02 -0.17514861430E+03 -0.44236088811E+03  0.49315655543E+03  0.12500000000E+03 0.  0.
         25    1    1    2    0    0 -0.34902660983E+02  0.17514861430E+03 -0.16152922918E+03  0.27131517597E+03  0.12500000000E+03 0.  0.
</event>
<event>
 4    0  0.2213671E-002  0.1909877E+03  0.7546771E-02  0.1157573E+00
         21   -1    0    0  502  501  0.00000000000E+00  0.00000000000E+00  0.23353790126E+03  0.23353790126E+03  0.00000000000E+00 0. -1.
         21   -1    0    0  501  502 -0.00000000000E+00 -0.00000000000E+00 -0.15619009356E+03  0.15619009356E+03  0.00000000000E+00 0. -1.
         25    1    1    2    0    0  0.12081029618E+03 -0.79095962153E+02  0.38584054853E+02  0.19484616543E+03  0.12500000000E+03 0.  0.
         25    1    1    2    0    0 -0.12081029618E+03  0.79095962153E+02  0.38763752849E+02  0.19488182939E+03  0.12500000000E+03 0.  0.
</event>
<event>
 4    0  0.2213671E-002  0.2017428E+03  0.7546771E-02  0.1148277E+00
         21   -1    0    0  502  501  0.00000000000E+00  0.00000000000E+00  0.25961965510E+03  0.25961965510E+03  0.00000000000E+00 0. -1.
         21   -1    0    0  501  502 -0.00000000000E+00 -0.00000000000E+00 -0.15676838422E+03  0.15676838422E+03  0.00000000000E+00 0. -1.
         25    1    1    2    0    0  0.41942312992E+02 -0.15267486666E+03  0.54032541032E+02  0.20883794679E+03  0.12500000000E+03 0.  0.
         25    1    1    2    0    0 -0.41942312992E+02  0.15267486666E+03  0.48818729848E+02  0.20755009254E+03  0.12500000000E+03 0.  0.
</event>
<event>
 4    0  0.2213671E-002  0.1689583E+03  0.7546771E-02  0.1178939E+00
         21   -1    0    0  502  501  0.00000000000E+00  0.00000000000E+00  0.83450094170E+03  0.83450094170E+03  0.00000000000E+00 0.  1.
         21   -1    0    0  501  502 -0.00000000000E+00 -0.00000000000E+00 -0.34208375409E+02  0.34208375409E+02  0.00000000000E+00 0.  1.
         25    1    1    2    0    0 -0.47681970649E+02  0.36089396877E+02  0.64867441867E+03  0.66330951774E+03  0.12500000000E+03 0.  0.
         25    1    1    2    0    0  0.47681970649E+02 -0.36089396877E+02  0.15161814762E+03  0.20539979937E+03  0.12500000000E+03 0.  0.
</event>
<event>
 4    0  0.2213671E-002  0.3174348E+03  0.7546771E-02  0.1076836E+00
         21   -1    0    0  502  501  0.00000000000E+00  0.00000000000E+00  0.28957844027E+03  0.28957844027E+03  0.00000000000E+00 0. -1.
         21   -1    0    0  501  502 -0.00000000000E+00 -0.00000000000E+00 -0.34797073691E+03  0.34797073691E+03  0.00000000000E+00 0. -1.
         25    1    1    2    0    0  0.49475072407E+02  0.14014035864E+03 -0.28135901580E+03  0.34186985635E+03  0.12500000000E+03 0.  0.
         25    1    1    2    0    0 -0.49475072407E+02 -0.14014035864E+03  0.22296671917E+03  0.29567932083E+03  0.12500000000E+03 0.  0.
</event>
<event>
 4    0  0.2213671E-002  0.2304312E+03  0.7546771E-02  0.1126337E+00
         21   -1    0    0  502  501  0.00000000000E+00  0.00000000000E+00  0.69935964778E+02  0.69935964778E+02  0.00000000000E+00 0. -1.
         21   -1    0    0  501  502 -0.00000000000E+00 -0.00000000000E+00 -0.75924505155E+03  0.75924505155E+03  0.00000000000E+00 0. -1.
         25    1    1    2    0    0  0.10185876702E+03 -0.16401872682E+03 -0.36985508617E+03  0.43554005089E+03  0.12500000000E+03 0.  0.
         25    1    1    2    0    0 -0.10185876702E+03  0.16401872682E+03 -0.31945400060E+03  0.39364096543E+03  0.12500000000E+03 0.  0.
</event>
<event>
 4    0  0.2213671E-002  0.1844137E+03  0.7546771E-02  0.1163598E+00
         21   -1    0    0  502  501  0.00000000000E+00  0.00000000000E+00  0.22646881005E+02  0.22646881005E+02  0.00000000000E+00 0.  1.
         21   -1    0    0  501  502 -0.00000000000E+00 -0.00000000000E+00 -0.15016826696E+04  0.15016826696E+04  0.00000000000E+00 0.  1.
         25    1    1    2    0    0 -0.64212975438E+02 -0.10911903174E+03 -0.94000260825E+03  0.95669230833E+03  0.12500000000E+03 0.  0.
         25    1    1    2    0    0  0.64212975438E+02  0.10911903174E+03 -0.53903318031E+03  0.56763724224E+03  0.12500000000E+03 0.  0.
</event>
<event>
 4    0  0.2213671E-002  0.2204002E+03  0.7546771E-02  0.1133585E+00
         21   -1    0    0  502  501  0.00000000000E+00  0.00000000000E+00  0.16574208298E+04  0.16574208298E+04  0.00000000000E+00 0. -1.
         21   -1    0    0  501  502 -0.00000000000E+00 -0.00000000000E+00 -0.29308339781E+02  0.29308339781E+02  0.00000000000E+00 0. -1.
         25    1    1    2    0    0  0.82694693337E+02 -0.66862005729E+02  0.25112521485E+03  0.29999635606E+03  0.12500000000E+03 0.  0.
         25    1    1    2    0    0 -0.82694693337E+02  0.66862005729E+02  0.13769872752E+04  0.13867328136E+04  0.12500000000E+03 0.  0.
</event>
<event>
 4    0  0.2213671E-002  0.3381848E+03  0.7546771E-02  0.1067572E+00
         21   -1    0    0  502  501  0.00000000000E+00  0.00000000000E+00  0.25606360196E+03  0.25606360196E+03  0.00000000000E+00 0.  1.
         21   -1    0    0  501  502 -0.00000000000E+00 -0.00000000000E+00 -0.44664286811E+03  0.44664286811E+03  0.00000000000E+00 0.  1.
         25    1    1    2    0    0 -0.25739902835E+03 -0.15247681712E+03  0.45811725693E+01  0.32426752335E+03  0.12500000000E+03 0.  0.
         25    1    1    2    0    0  0.25739902835E+03  0.15247681712E+03 -0.19516043872E+03  0.37843894672E+03  0.12500000000E+03 0.  0.
</event>
<event>
 4    0  0.2213671E-002  0.1664833E+03  0.7546771E-02  0.1181566E+00
         21   -1    0    0  502  501  0.00000000000E+00  0.00000000000E+00  0.11105790622E+04  0.11105790622E+04  0.00000000000E+00 0. -1.
         21   -1    0    0  501  502 -0.00000000000E+00 -0.00000000000E+00 -0.24956966303E+02  0.24956966303E+02  0.00000000000E+00 0. -1.
         25    1    1    2    0    0  0.61878413427E+02 -0.90450488654E+02  0.57359043189E+03  0.59719445116E+03  0.12500000000E+03 0.  0.
         25    1    1    2    0    0 -0.61878413427E+02  0.90450488654E+02  0.51203166400E+03  0.53834157734E+03  0.12500000000E+03 0.  0.
</event>
<event>
 4    0  0.2213671E-002  0.2010889E+03  0.7546771E-02  0.1148824E+00
         21   -1    0    0  502  501  0.00000000000E+00  0.00000000000E+00  0.16881065725E+03  0.16881065725E+03  0.00000000000E+00 0.  1.
         21   -1    0    0  501  502 -0.00000000000E+00 -0.00000000000E+00 -0.23953912733E+03  0.23953912733E+03  0.00000000000E+00 0.  1.
         25    1    1    2    0    0 -0.91129978176E+02  0.83584728445E+01  0.94810998119E+02  0.18162781272E+03  0.12500000000E+03 0.  0.
         25    1    1    2    0    0  0.91129978176E+02 -0.83584728445E+01 -0.16553946820E+03  0.22672197185E+03  0.12500000000E+03 0.  0.
</event>
<event>
 4    0  0.2213671E-002  0.2467652E+03  0.7546771E-02  0.1115366E+00
         21   -1    0    0  502  501  0.00000000000E+00  0.00000000000E+00  0.87597476276E+03  0.87597476276E+03  0.00000000000E+00 0.  1.
         21   -1    0    0  501  502 -0.00000000000E+00 -0.00000000000E+00 -0.69514656998E+02  0.69514656998E+02  0.00000000000E+00 0.  1.
         25    1    1    2    0    0  0.12237833502E+03  0.73943711092E+01  0.73635847724E+03  0.75688832770E+03  0.12500000000E+03 0.  0.
         25    1    1    2    0    0 -0.12237833502E+03 -0.73943711092E+01  0.70101628528E+02  0.18860109206E+03  0.12500000000E+03 0.  0.
</event>
<event>
 4    0  0.2213671E-002  0.1962311E+03  0.7546771E-02  0.1152958E+00
         21   -1    0    0  502  501  0.00000000000E+00  0.00000000000E+00  0.13843662514E+03  0.13843662514E+03  0.00000000000E+00 0. -1.
         21   -1    0    0  501  502 -0.00000000000E+00 -0.00000000000E+00 -0.27815363572E+03  0.27815363572E+03  0.00000000000E+00 0. -1.
         25    1    1    2    0    0  0.68047321190E+02  0.10682451856E+03  0.17928630553E+02  0.17885287663E+03  0.12500000000E+03 0.  0.
         25    1    1    2    0    0 -0.68047321190E+02 -0.10682451856E+03 -0.15764564114E+03  0.23773738422E+03  0.12500000000E+03 0.  0.
</event>
<event>
 4    0  0.2213671E-002  0.3154602E+03  0.7546771E-02  0.1077758E+00
         21   -1    0    0  502  501  0.00000000000E+00  0.00000000000E+00  0.21658786462E+03  0.21658786462E+03  0.00000000000E+00 0. -1.
         21   -1    0    0  501  502 -0.00000000000E+00 -0.00000000000E+00 -0.45946781421E+03  0.45946781421E+03  0.00000000000E+00 0. -1.
         25    1    1    2    0    0  0.16950809252E+03 -0.15621995739E+03  0.66469191105E+02  0.27051954066E+03  0.12500000000E+03 0.  0.
         25    1    1    2    0    0 -0.16950809252E+03  0.15621995739E+03 -0.30934914069E+03  0.40553613817E+03  0.12500000000E+03 0.  0.
</event>
<event>
 4    0  0.2213671E-002  0.2587423E+03  0.7546771E-02  0.1107901E+00
         21   -1    0    0  502  501  0.00000000000E+00  0.00000000000E+00  0.27418952242E+03  0.27418952242E+03  0.00000000000E+00 0.  1.
         21   -1    0    0  501  502 -0.00000000000E+00 -0.00000000000E+00 -0.24416536784E+03  0.24416536784E+03  0.00000000000E+00 0.  1.
         25    1    1    2    0    0  0.18214035895E+03  0.76594760643E+02 -0.95992687827E+02  0.25274782657E+03  0.12500000000E+03 0.  0.
         25    1    1    2    0    0 -0.18214035895E+03 -0.76594760643E+02  0.12601684240E+03  0.26560706370E+03  0.12500000000E+03 0.  0.
</event>
<event>
 4    0  0.2213671E-002  0.1861709E+03  0.7546771E-02  0.1161961E+00
         21   -1    0    0  502  501  0.00000000000E+00  0.00000000000E+00  0.26921614197E+03  0.26921614197E+03  0.00000000000E+00 0.  1.
         21   -1    0    0  501  502 -0.00000000000E+00 -0.00000000000E+00 -0.12874263429E+03  0.12874263429E+03  0.00000000000E+00 0.  1.
         25    1    1    2    0    0 -0.11799517634E+03 -0.69259630014E+02  0.51272338816E+02  0.19228523271E+03  0.12500000000E+03 0.  0.
         25    1    1    2    0    0  0.11799517634E+03  0.69259630014E+02  0.89201168871E+02  0.20567354355E+03  0.12500000000E+03 0.  0.
</event>
<event>
 4    0  0.2213671E-002  0.2606016E+03  0.7546771E-02  0.1106782E+00
         21   -1    0    0  502  501  0.00000000000E+00  0.00000000000E+00  0.96650969141E+02  0.96650969141E+02  0.00000000000E+00 0. -1.
         21   -1    0    0  501  502 -0.00000000000E+00 -0.00000000000E+00 -0.70266444887E+03  0.70266444887E+03  0.00000000000E+00 0. -1.
         25    1    1    2    0    0  0.18758224650E+03 -0.92780619003E+01 -0.50305155888E+03  0.55132481581E+03  0.12500000000E+03 0.  0.
         25    1    1    2    0    0 -0.18758224650E+03  0.92780619003E+01 -0.10296192086E+03  0.24799060221E+03  0.12500000000E+03 0.  0.
</event>
<event>
 4    0  0.2213671E-002  0.2184815E+03  0.7546771E-02  0.1135020E+00
         21   -1    0    0  502  501  0.00000000000E+00  0.00000000000E+00  0.12322463848E+04  0.12322463848E+04  0.00000000000E+00 0.  1.
         21   -1    0    0  501  502 -0.00000000000E+00 -0.00000000000E+00 -0.38737500061E+02  0.38737500061E+02  0.00000000000E+00 0.  1.
         25    1    1    2    0    0 -0.10618427386E+03  0.14352537384E+03  0.64129724192E+03  0.67731955933E+03  0.12500000000E+03 0.  0.
         25    1    1    2    0    0  0.10618427386E+03 -0.14352537384E+03  0.55221164286E+03  0.59366432557E+03  0.12500000000E+03 0.  0.
</event>
<event>
 4    0  0.2213671E-002  0.1803126E+03  0.7546771E-02  0.1167501E+00
         21   -1    0    0  502  501  0.00000000000E+00  0.00000000000E+00  0.24028471868E+02  0.24028471868E+02  0.00000000000E+00 0.  1.
         21   -1    0    0  501  502 -0.00000000000E+00 -0.00000000000E+00 -0.13530874813E+04  0.13530874813E+04  0.00000000000E+00 0. -1.
         25    1    1    2    0    0  0.57326866574E+02 -0.10816403233E+03 -0.83106107379E+03  0.84927812634E+03  0.12500000000E+03 0.  0.
         25    1    1    2    0    0 -0.57326866574E+02  0.10816403233E+03 -0.49799793562E+03  0.52783782680E+03  0.12500000000E+03 0.  0.
</event>
<event>
 4    0  0.2213671E-002  0.4067948E+03  0.7546771E-02  0.1041452E+00
         21   -1    0    0  502  501  0.00000000000E+00  0.00000000000E+00  0.54941316220E+03  0.54941316220E+03  0.00000000000E+00 0.  1.
         21   -1    0    0  501  502 -0.00000000000E+00 -0.00000000000E+00 -0.30119782488E+03  0.30119782488E+03  0.00000000000E+00 0.  1.
         25    1    1    2    0    0 -0.21712715676E+03 -0.14570773946E+03 -0.17433207525E+03  0.33821830229E+03  0.12500000000E+03 0.  0.
         25    1    1    2    0    0  0.21712715676E+03  0.14570773946E+03  0.42254741258E+03  0.51239268478E+03  0.12500000000E+03 0.  0.
</event>
<event>
 4    0  0.2213671E-002  0.2046465E+03  0.7546771E-02  0.1145877E+00
         21   -1    0    0  502  501  0.00000000000E+00  0.00000000000E+00  0.96105109409E+03  0.96105109409E+03  0.00000000000E+00 0. -1.
         21   -1    0    0  501  502 -0.00000000000E+00 -0.00000000000E+00 -0.43577484893E+02  0.43577484893E+02  0.00000000000E+00 0. -1.
         25    1    1    2    0    0 -0.86689232612E+02  0.12228958831E+03  0.30771890483E+03  0.36439770972E+03  0.12500000000E+03 0.  0.
         25    1    1    2    0    0  0.86689232612E+02 -0.12228958831E+03  0.60975470437E+03  0.64023086926E+03  0.12500000000E+03 0.  0.
</event>
<event>
 4    0  0.2213671E-002  0.3201451E+03  0.7546771E-02  0.1075583E+00
         21   -1    0    0  502  501  0.00000000000E+00  0.00000000000E+00  0.81347568131E+03  0.81347568131E+03  0.00000000000E+00 0.  1.
         21   -1    0    0  501  502 -0.00000000000E+00 -0.00000000000E+00 -0.12599381253E+03  0.12599381253E+03  0.00000000000E+00 0.  1.
         25    1    1    2    0    0 -0.23689282071E+03 -0.17423679164E+03  0.31471913608E+03  0.44849727166E+03  0.12500000000E+03 0.  0.
         25    1    1    2    0    0  0.23689282071E+03  0.17423679164E+03  0.37276273270E+03  0.49097222219E+03  0.12500000000E+03 0.  0.
</event>
<event>
 4    0  0.2213671E-002  0.3618102E+03  0.7546771E-02  0.1057869E+00
         21   -1    0    0  502  501  0.00000000000E+00  0.00000000000E+00  0.99860110728E+03  0.99860110728E+03  0.00000000000E+00 0.  1.
         21   -1    0    0  501  502 -0.00000000000E+00 -0.00000000000E+00 -0.13108999441E+03  0.13108999441E+03  0.00000000000E+00 0.  1.
         25    1    1    2    0    0 -0.31465436450E+03 -0.25886004475E+02  0.23874006805E+03  0.41508947761E+03  0.12500000000E+03 0.  0.
         25    1    1    2    0    0  0.31465436450E+03  0.25886004475E+02  0.62877104482E+03  0.71460162407E+03  0.12500000000E+03 0.  0.
</event>
<event>
 4    0  0.2213671E-002  0.2351922E+03  0.7546771E-02  0.1123038E+00
         21   -1    0    0  502  501  0.00000000000E+00  0.00000000000E+00  0.38773923182E+03  0.38773923182E+03  0.00000000000E+00 0.  1.
         21   -1    0    0  501  502 -0.00000000000E+00 -0.00000000000E+00 -0.14266125926E+03  0.14266125926E+03  0.00000000000E+00 0.  1.
         25    1    1    2    0    0 -0.82794430527E+02 -0.18065706710E+03  0.13842453571E+03  0.27254035611E+03  0.12500000000E+03 0.  0.
         25    1    1    2    0    0  0.82794430527E+02  0.18065706710E+03  0.10665343684E+03  0.25786013497E+03  0.12500000000E+03 0.  0.
</event>
<event>
 4    0  0.2213671E-002  0.1415150E+03  0.7546771E-02  0.1211305E+00
         21   -1    0    0  502  501  0.00000000000E+00  0.00000000000E+00  0.11500053485E+03  0.11500053485E+03  0.00000000000E+00 0. -1.
         21   -1    0    0  501  502 -0.00000000000E+00 -0.00000000000E+00 -0.17414266564E+03  0.17414266564E+03  0.00000000000E+00 0. -1.
         25    1    1    2    0    0  0.23964574366E+02 -0.34080430042E+02 -0.82316877817E+02  0.15536037111E+03  0.12500000000E+03 0.  0.
         25    1    1    2    0    0 -0.23964574366E+02  0.34080430042E+02  0.23174747028E+02  0.13378282938E+03  0.12500000000E+03 0.  0.
</event>
<event>
 4    0  0.2213671E-002  0.3147501E+03  0.7546771E-02  0.1078091E+00
         21   -1    0    0  502  501  0.00000000000E+00  0.00000000000E+00  0.13109026166E+03  0.13109026166E+03  0.00000000000E+00 0. -1.
         21   -1    0    0  501  502 -0.00000000000E+00 -0.00000000000E+00 -0.75572091492E+03  0.75572091492E+03  0.00000000000E+00 0. -1.
         25    1    1    2    0    0 -0.11022282923E+03 -0.22568137244E+03 -0.11129494420E+03  0.30181570296E+03  0.12500000000E+03 0.  0.
         25    1    1    2    0    0  0.11022282923E+03  0.22568137244E+03 -0.51333570906E+03  0.58499547361E+03  0.12500000000E+03 0.  0.
</event>
<event>
 4    0  0.2213671E-002  0.2361190E+03  0.7546771E-02  0.1122406E+00
         21   -1    0    0  502  501  0.00000000000E+00  0.00000000000E+00  0.44271299505E+02  0.44271299505E+02  0.00000000000E+00 0. -1.
         21   -1    0    0  501  502 -0.00000000000E+00 -0.00000000000E+00 -0.12593297299E+04  0.12593297299E+04  0.00000000000E+00 0. -1.
         25    1    1    2    0    0 -0.18079866505E+03 -0.41446373996E+02 -0.81632780913E+03  0.84641718506E+03  0.12500000000E+03 0.  0.
         25    1    1    2    0    0  0.18079866505E+03  0.41446373996E+02 -0.39873062129E+03  0.45718384437E+03  0.12500000000E+03 0.  0.
</event>
<event>
 4    0  0.2213671E-002  0.1776612E+03  0.7546771E-02  0.1170086E+00
         21   -1    0    0  502  501  0.00000000000E+00  0.00000000000E+00  0.13920121427E+04  0.13920121427E+04  0.00000000000E+00 0.  1.
         21   -1    0    0  501  502 -0.00000000000E+00 -0.00000000000E+00 -0.22674737924E+02  0.22674737924E+02  0.00000000000E+00 0.  1.
         25    1    1    2    0    0 -0.10432053416E+03 -0.49005354196E+02  0.47954989656E+03  0.50879996254E+03  0.12500000000E+03 0.  0.
         25    1    1    2    0    0  0.10432053416E+03  0.49005354196E+02  0.88978750821E+03  0.90588691808E+03  0.12500000000E+03 0.  0.
</event>
<event>
 4    0  0.2213671E-002  0.2549076E+03  0.7546771E-02  0.1110242E+00
         21   -1    0    0  502  501  0.00000000000E+00  0.00000000000E+00  0.48720572143E+03  0.48720572143E+03  0.00000000000E+00 0.  1.
         21   -1    0    0  501  502 -0.00000000000E+00 -0.00000000000E+00 -0.13336848803E+03  0.13336848803E+03  0.00000000000E+00 0.  1.
         25    1    1    2    0    0 -0.80205632926E+02  0.45714603761E+02  0.42288245490E+03  0.45053006472E+03  0.12500000000E+03 0.  0.
         25    1    1    2    0    0  0.80205632926E+02 -0.45714603761E+02 -0.69045221502E+02  0.17004414475E+03  0.12500000000E+03 0.  0.
</event>
<event>
 4    0  0.2213671E-002  0.1660613E+03  0.7546771E-02  0.1182019E+00
         21   -1    0    0  502  501  0.00000000000E+00  0.00000000000E+00  0.20354711956E+03  0.20354711956E+03  0.00000000000E+00 0.  1.
         21   -1    0    0  501  502 -0.00000000000E+00 -0.00000000000E+00 -0.13547899175E+03  0.13547899175E+03  0.00000000000E+00 0.  1.
         25    1    1    2    0    0  0.13607756417E+02 -0.94208122191E+01  0.14434242654E+03  0.19166026932E+03  0.12500000000E+03 0.  0.
         25    1    1    2    0    0 -0.13607756417E+02  0.94208122191E+01 -0.76274298734E+02  0.14736584199E+03  0.12500000000E+03 0.  0.
</event>
<event>
 4    0  0.2213671E-002  0.1550740E+03  0.7546771E-02  0.1194373E+00
         21   -1    0    0  502  501  0.00000000000E+00  0.00000000000E+00  0.55672227696E+02  0.55672227696E+02  0.00000000000E+00 0. -1.
         21   -1    0    0  501  502 -0.00000000000E+00 -0.00000000000E+00 -0.43195608284E+03  0.43195608284E+03  0.00000000000E+00 0. -1.
         25    1    1    2    0    0 -0.14612121917E+02 -0.89632065109E+02 -0.16731126134E+03  0.22773993803E+03  0.12500000000E+03 0.  0.
         25    1    1    2    0    0  0.14612121917E+02  0.89632065109E+02 -0.20897259380E+03  0.25988837250E+03  0.12500000000E+03 0.  0.
</event>
<event>
 4    0  0.2213671E-002  0.2057013E+03  0.7546771E-02  0.1145016E+00
         21   -1    0    0  502  501  0.00000000000E+00  0.00000000000E+00  0.14831612611E+03  0.14831612611E+03  0.00000000000E+00 0. -1.
         21   -1    0    0  501  502 -0.00000000000E+00 -0.00000000000E+00 -0.28528933610E+03  0.28528933610E+03  0.00000000000E+00 0. -1.
         25    1    1    2    0    0  0.12494980696E+03 -0.10508392835E+03 -0.62439092254E+02  0.21489236026E+03  0.12500000000E+03 0.  0.
         25    1    1    2    0    0 -0.12494980696E+03  0.10508392835E+03 -0.74534117737E+02  0.21871310195E+03  0.12500000000E+03 0.  0.
</event>
<event>
 4    0  0.2213671E-002  0.2253777E+03  0.7546771E-02  0.1129936E+00
         21   -1    0    0  502  501  0.00000000000E+00  0.00000000000E+00  0.21537796363E+03  0.21537796363E+03  0.00000000000E+00 0.  1.
         21   -1    0    0  501  502 -0.00000000000E+00 -0.00000000000E+00 -0.23584170474E+03  0.23584170474E+03  0.00000000000E+00 0.  1.
         25    1    1    2    0    0 -0.13174313664E+03  0.12359816012E+03 -0.60655837732E+02  0.22789666493E+03  0.12500000000E+03 0.  0.
         25    1    1    2    0    0  0.13174313664E+03 -0.12359816012E+03  0.40192096624E+02  0.22332300344E+03  0.12500000000E+03 0.  0.
</event>
<event>
 4    0  0.2213671E-002  0.2232133E+03  0.7546771E-02  0.1131510E+00
         21   -1    0    0  502  501  0.00000000000E+00  0.00000000000E+00  0.85451561665E+03  0.85451561665E+03  0.00000000000E+00 0. -1.
         21   -1    0    0  501  502 -0.00000000000E+00 -0.00000000000E+00 -0.58306904860E+02  0.58306904860E+02  0.00000000000E+00 0. -1.
         25    1    1    2    0    0 -0.44150779159E+02 -0.17912179548E+03  0.37181926325E+03  0.43348410979E+03  0.12500000000E+03 0.  0.
         25    1    1    2    0    0  0.44150779159E+02  0.17912179548E+03  0.42438944854E+03  0.47933841172E+03  0.12500000000E+03 0.  0.
</event>
<event>
 4    0  0.2213671E-002  0.2583308E+03  0.7546771E-02  0.1108150E+00
         21   -1    0    0  502  501  0.00000000000E+00  0.00000000000E+00  0.10428947512E+04  0.10428947512E+04  0.00000000000E+00 0. -1.
         21   -1    0    0  501  502 -0.00000000000E+00 -0.00000000000E+00 -0.63989946185E+02  0.63989946185E+02  0.00000000000E+00 0. -1.
         25    1    1    2    0    0  0.17091385232E+02  0.56185254605E+02  0.21741701907E+02  0.13980915523E+03  0.12500000000E+03 0.  0.
         25    1    1    2    0    0 -0.17091385232E+02 -0.56185254605E+02  0.95716310314E+03  0.96707554218E+03  0.12500000000E+03 0.  0.
</event>
<event>
 4    0  0.2213671E-002  0.2151885E+03  0.7546771E-02  0.1137522E+00
         21   -1    0    0  502  501  0.00000000000E+00  0.00000000000E+00  0.23147300757E+02  0.23147300757E+02  0.00000000000E+00 0. -1.
         21   -1    0    0  501  502 -0.00000000000E+00 -0.00000000000E+00 -0.20004955051E+04  0.20004955051E+04  0.00000000000E+00 0. -1.
         25    1    1    2    0    0 -0.72391011696E+02 -0.29616043152E+01 -0.23882513404E+03  0.27912662776E+03  0.12500000000E+03 0.  0.
         25    1    1    2    0    0  0.72391011696E+02  0.29616043152E+01 -0.17385230703E+04  0.17445161781E+04  0.12500000000E+03 0.  0.
</event>
<event>
 4    0  0.2213671E-002  0.2220383E+03  0.7546771E-02  0.1132372E+00
         21   -1    0    0  502  501  0.00000000000E+00  0.00000000000E+00  0.47586296906E+03  0.47586296906E+03  0.00000000000E+00 0. -1.
         21   -1    0    0  501  502 -0.00000000000E+00 -0.00000000000E+00 -0.10360339424E+03  0.10360339424E+03  0.00000000000E+00 0. -1.
         25    1    1    2    0    0  0.31950220198E+02  0.18850032654E+02 -0.48385270191E+02  0.13907650655E+03  0.12500000000E+03 0.  0.
         25    1    1    2    0    0 -0.31950220198E+02 -0.18850032654E+02  0.42064484501E+03  0.44038985676E+03  0.12500000000E+03 0.  0.
</event>
<event>
 4    0  0.2213671E-002  0.2307160E+03  0.7546771E-02  0.1126137E+00
         21   -1    0    0  502  501  0.00000000000E+00  0.00000000000E+00  0.28023876489E+03  0.28023876489E+03  0.00000000000E+00 0.  1.
         21   -1    0    0  501  502 -0.00000000000E+00 -0.00000000000E+00 -0.18994471508E+03  0.18994471508E+03  0.00000000000E+00 0. -1.
         25    1    1    2    0    0 -0.40886568748E+02  0.16429442662E+03 -0.51200511855E+02  0.21658915609E+03  0.12500000000E+03 0.  0.
         25    1    1    2    0    0  0.40886568748E+02 -0.16429442662E+03  0.14149456167E+03  0.25359432388E+03  0.12500000000E+03 0.  0.
</event>
<event>
 4    0  0.2213671E-002  0.2161315E+03  0.7546771E-02  0.1136800E+00
         21   -1    0    0  502  501  0.00000000000E+00  0.00000000000E+00  0.10932037698E+03  0.10932037698E+03  0.00000000000E+00 0. -1.
         21   -1    0    0  501  502 -0.00000000000E+00 -0.00000000000E+00 -0.42730193893E+03  0.42730193893E+03  0.00000000000E+00 0. -1.
         25    1    1    2    0    0  0.18483714323E+02  0.75830525730E+02  0.37279736514E+02  0.15200886514E+03  0.12500000000E+03 0.  0.
         25    1    1    2    0    0 -0.18483714323E+02 -0.75830525730E+02 -0.35526129847E+03  0.38461345077E+03  0.12500000000E+03 0.  0.
</event>
<event>
 4    0  0.2213671E-002  0.1653940E+03  0.7546771E-02  0.1182738E+00
         21   -1    0    0  502  501  0.00000000000E+00  0.00000000000E+00  0.14144158702E+03  0.14144158702E+03  0.00000000000E+00 0. -1.
         21   -1    0    0  501  502 -0.00000000000E+00 -0.00000000000E+00 -0.19340260779E+03  0.19340260779E+03  0.00000000000E+00 0. -1.
         25    1    1    2    0    0  0.62534891928E+02  0.67803000186E+02  0.31480977250E+02  0.15850524115E+03  0.12500000000E+03 0.  0.
         25    1    1    2    0    0 -0.62534891928E+02 -0.67803000186E+02 -0.83441998026E+02  0.17633895366E+03  0.12500000000E+03 0.  0.
</event>
<event>
 4    0  0.2213671E-002  0.1769236E+03  0.7546771E-02  0.1170814E+00
         21   -1    0    0  502  501  0.00000000000E+00  0.00000000000E+00  0.25315073769E+03  0.25315073769E+03  0.00000000000E+00 0.  1.
         21   -1    0    0  501  502 -0.00000000000E+00 -0.00000000000E+00 -0.12364946491E+03  0.12364946491E+03  0.00000000000E+00 0.  1.
         25    1    1    2    0    0 -0.31806395802E+01  0.12500665417E+03  0.71500012677E+02  0.19071977314E+03  0.12500000000E+03 0.  0.
         25    1    1    2    0    0  0.31806395802E+01 -0.12500665417E+03  0.58001260100E+02  0.18608042946E+03  0.12500000000E+03 0.  0.
</event>
<event>
 4    0  0.2213671E-002  0.2858661E+03  0.7546771E-02  0.1092527E+00
         21   -1    0    0  502  501  0.00000000000E+00  0.00000000000E+00  0.32050779291E+03  0.32050779291E+03  0.00000000000E+00 0.  1.
         21   -1    0    0  501  502 -0.00000000000E+00 -0.00000000000E+00 -0.25496869081E+03  0.25496869081E+03  0.00000000000E+00 0.  1.
         25    1    1    2    0    0 -0.25245009909E+03 -0.48483945766E+02  0.29181543006E+02  0.28732961556E+03  0.12500000000E+03 0.  0.
         25    1    1    2    0    0  0.25245009909E+03  0.48483945766E+02  0.36357559091E+02  0.28814686816E+03  0.12500000000E+03 0.  0.
</event>
<event>
 4    0  0.2213671E-002  0.3698414E+03  0.7546771E-02  0.1054754E+00
         21   -1    0    0  502  501  0.00000000000E+00  0.00000000000E+00  0.48185702474E+03  0.48185702474E+03  0.00000000000E+00 0.  1.
         21   -1    0    0  501  502 -0.00000000000E+00 -0.00000000000E+00 -0.28386562480E+03  0.28386562480E+03  0.00000000000E+00 0.  1.
         25    1    1    2    0    0  0.44648711839E+02  0.13775434441E+03  0.42666336670E+03  0.46758570910E+03  0.12500000000E+03 0.  0.
         25    1    1    2    0    0 -0.44648711839E+02 -0.13775434441E+03 -0.22867196677E+03  0.29813694044E+03  0.12500000000E+03 0.  0.
</event>
<event>
 4    0  0.2213671E-002  0.2299785E+03  0.7546771E-02  0.1126655E+00
         21   -1    0    0  502  501  0.00000000000E+00  0.00000000000E+00  0.34289916049E+03  0.34289916049E+03  0.00000000000E+00 0.  1.
         21   -1    0    0  501  502 -0.00000000000E+00 -0.00000000000E+00 -0.15424390310E+03  0.15424390310E+03  0.00000000000E+00 0.  1.
         25    1    1    2    0    0  0.49173491549E+02  0.15611405274E+02  0.29538652254E+03  0.32486912126E+03  0.12500000000E+03 0.  0.
         25    1    1    2    0    0 -0.49173491549E+02 -0.15611405274E+02 -0.10673126515E+03  0.17227394233E+03  0.12500000000E+03 0.  0.
</event>
<event>
 4    0  0.2213671E-002  0.1796607E+03  0.7546771E-02  0.1168132E+00
         21   -1    0    0  502  501  0.00000000000E+00  0.00000000000E+00  0.66056208393E+03  0.66056208393E+03  0.00000000000E+00 0. -1.
         21   -1    0    0  501  502 -0.00000000000E+00 -0.00000000000E+00 -0.48864421403E+02  0.48864421403E+02  0.00000000000E+00 0. -1.
         25    1    1    2    0    0 -0.23605503161E+02  0.80664440469E+02  0.49918412888E+03  0.52141515730E+03  0.12500000000E+03 0.  0.
         25    1    1    2    0    0  0.23605503161E+02 -0.80664440469E+02  0.11251353364E+03  0.18801134803E+03  0.12500000000E+03 0.  0.
</event>
<event>
 4    0  0.2213671E-002  0.1984072E+03  0.7546771E-02  0.1151090E+00
         21   -1    0    0  502  501  0.00000000000E+00  0.00000000000E+00  0.99248294004E+03  0.99248294004E+03  0.00000000000E+00 0. -1.
         21   -1    0    0  501  502 -0.00000000000E+00 -0.00000000000E+00 -0.39663574061E+02  0.39663574061E+02  0.00000000000E+00 0. -1.
         25    1    1    2    0    0  0.86065244907E+02  0.15848587926E+02  0.80626550804E+03  0.82057752441E+03  0.12500000000E+03 0.  0.
         25    1    1    2    0    0 -0.86065244907E+02 -0.15848587926E+02  0.14655385794E+03  0.21156898969E+03  0.12500000000E+03 0.  0.
</event>
<event>
 4    0  0.2213671E-002  0.1591065E+03  0.7546771E-02  0.1189709E+00
         21   -1    0    0  502  501  0.00000000000E+00  0.00000000000E+00  0.23962071665E+02  0.23962071665E+02  0.00000000000E+00 0. -1.
         21   -1    0    0  501  502 -0.00000000000E+00 -0.00000000000E+00 -0.10564557010E+04  0.10564557010E+04  0.00000000000E+00 0. -1.
         25    1    1    2    0    0  0.77951876724E+02 -0.56408254045E+02 -0.58677370573E+03  0.60760741268E+03  0.12500000000E+03 0.  0.
         25    1    1    2    0    0 -0.77951876724E+02  0.56408254045E+02 -0.44571992359E+03  0.47281035997E+03  0.12500000000E+03 0.  0.
</event>
<event>
 4    0  0.2213671E-002  0.1573971E+03  0.7546771E-02  0.1191667E+00
         21   -1    0    0  502  501  0.00000000000E+00  0.00000000000E+00  0.44175731667E+03  0.44175731667E+03  0.00000000000E+00 0.  1.
         21   -1    0    0  501  502 -0.00000000000E+00 -0.00000000000E+00 -0.56080198571E+02  0.56080198571E+02  0.00000000000E+00 0.  1.
         25    1    1    2    0    0 -0.70759175232E+01 -0.12905072099E+01  0.41999936413E+02  0.13206335100E+03  0.12500000000E+03 0.  0.
         25    1    1    2    0    0  0.70759175232E+01  0.12905072099E+01  0.34367718169E+03  0.36577416425E+03  0.12500000000E+03 0.  0.
</event>
<event>
 4    0  0.2213671E-002  0.1686177E+03  0.7546771E-02  0.1179297E+00
         21   -1    0    0  502  501  0.00000000000E+00  0.00000000000E+00  0.96975357154E+02  0.96975357154E+02  0.00000000000E+00 0. -1.
         21   -1    0    0  501  502 -0.00000000000E+00 -0.00000000000E+00 -0.29318721825E+03  0.29318721825E+03  0.00000000000E+00 0. -1.
         25    1    1    2    0    0 -0.52005674965E+02  0.95753419286E+02 -0.13345673167E+03  0.21285912421E+03  0.12500000000E+03 0.  0.
         25    1    1    2    0    0  0.52005674965E+02 -0.95753419286E+02 -0.62755129424E+02  0.17730345119E+03  0.12500000000E+03 0.  0.
</event>
<event>
 4    0  0.2213671E-002  0.2816526E+03  0.7546771E-02  0.1094790E+00
         21   -1    0    0  502  501  0.00000000000E+00  0.00000000000E+00  0.88831466564E+03  0.88831466564E+03  0.00000000000E+00 0. -1.
         21   -1    0    0  501  502 -0.00000000000E+00 -0.00000000000E+00 -0.89301930222E+02  0.89301930222E+02  0.00000000000E+00 0. -1.
         25    1    1    2    0    0 -0.18696998561E+03 -0.21706452253E+02  0.69132997473E+03  0.72731772943E+03  0.12500000000E+03 0.  0.
         25    1    1    2    0    0  0.18696998561E+03  0.21706452253E+02  0.10768276069E+03  0.25029886643E+03  0.12500000000E+03 0.  0.
</event>
<event>
 4    0  0.2213671E-002  0.2186500E+03  0.7546771E-02  0.1134894E+00
         21   -1    0    0  502  501  0.00000000000E+00  0.00000000000E+00  0.43788418036E+03  0.43788418036E+03  0.00000000000E+00 0. -1.
         21   -1    0    0  501  502 -0.00000000000E+00 -0.00000000000E+00 -0.10917918994E+03  0.10917918994E+03  0.00000000000E+00 0. -1.
         25    1    1    2    0    0 -0.11316200755E+03  0.12308882159E+03  0.83024436536E+02  0.22466542906E+03  0.12500000000E+03 0.  0.
         25    1    1    2    0    0  0.11316200755E+03 -0.12308882159E+03  0.24568055389E+03  0.32239794124E+03  0.12500000000E+03 0.  0.
</event>
<event>
 4    0  0.2213671E-002  0.2306194E+03  0.7546771E-02  0.1126205E+00
         21   -1    0    0  502  501  0.00000000000E+00  0.00000000000E+00  0.32469633247E+03  0.32469633247E+03  0.00000000000E+00 0. -1.
         21   -1    0    0  501  502 -0.00000000000E+00 -0.00000000000E+00 -0.16380012181E+03  0.16380012181E+03  0.00000000000E+00 0. -1.
         25    1    1    2    0    0 -0.27190421932E+02 -0.17082810974E+03 -0.12116805754E+02  0.21376009708E+03  0.12500000000E+03 0.  0.
         25    1    1    2    0    0  0.27190421932E+02  0.17082810974E+03  0.17301301641E+03  0.27473635720E+03  0.12500000000E+03 0.  0.
</event>
<event>
 4    0  0.2213671E-002  0.3556452E+03  0.7546771E-02  0.1060322E+00
         21   -1    0    0  502  501  0.00000000000E+00  0.00000000000E+00  0.35465927268E+03  0.35465927268E+03  0.00000000000E+00 0.  1.
         21   -1    0    0  501  502 -0.00000000000E+00 -0.00000000000E+00 -0.35663391327E+03  0.35663391327E+03  0.00000000000E+00 0.  1.
         25    1    1    2    0    0 -0.27560164410E+03 -0.18678272620E+03 -0.47914447950E+01  0.35565715371E+03  0.12500000000E+03 0.  0.
         25    1    1    2    0    0  0.27560164410E+03  0.18678272620E+03  0.28168042053E+01  0.35563603224E+03  0.12500000000E+03 0.  0.
</event>
<event>
 4    0  0.2213671E-002  0.2622501E+03  0.7546771E-02  0.1105799E+00
         21   -1    0    0  502  501  0.00000000000E+00  0.00000000000E+00  0.85935183572E+03  0.85935183572E+03  0.00000000000E+00 0.  1.
         21   -1    0    0  501  502 -0.00000000000E+00 -0.00000000000E+00 -0.80031384511E+02  0.80031384511E+02  0.00000000000E+00 0.  1.
         25    1    1    2    0    0 -0.17200994471E+03  0.13075571177E+03  0.53367362156E+03  0.58916637004E+03  0.12500000000E+03 0.  0.
         25    1    1    2    0    0  0.17200994471E+03 -0.13075571177E+03  0.24564682964E+03  0.35021685018E+03  0.12500000000E+03 0.  0.
</event>
<event>
 4    0  0.2213671E-002  0.2483408E+03  0.7546771E-02  0.1114358E+00
         21   -1    0    0  502  501  0.00000000000E+00  0.00000000000E+00  0.33931315379E+02  0.33931315379E+02  0.00000000000E+00 0. -1.
         21   -1    0    0  501  502 -0.00000000000E+00 -0.00000000000E+00 -0.18175886454E+04  0.18175886454E+04  0.00000000000E+00 0. -1.
         25    1    1    2    0    0 -0.20668734028E+03 -0.48117324683E+02 -0.10104892309E+04  0.10400713530E+04  0.12500000000E+03 0.  0.
         25    1    1    2    0    0  0.20668734028E+03  0.48117324683E+02 -0.77316809914E+03  0.81144860780E+03  0.12500000000E+03 0.  0.
</event>
<event>
 4    0  0.2213671E-002  0.2104231E+03  0.7546771E-02  0.1141231E+00
         21   -1    0    0  502  501  0.00000000000E+00  0.00000000000E+00  0.25763569072E+03  0.25763569072E+03  0.00000000000E+00 0.  1.
         21   -1    0    0  501  502 -0.00000000000E+00 -0.00000000000E+00 -0.17186244801E+03  0.17186244801E+03  0.00000000000E+00 0.  1.
         25    1    1    2    0    0 -0.49547341824E+02  0.96573929917E+02 -0.89673784146E+02  0.18827599577E+03  0.12500000000E+03 0.  0.
         25    1    1    2    0    0  0.49547341824E+02 -0.96573929917E+02  0.17544702685E+03  0.24122214296E+03  0.12500000000E+03 0.  0.
</event>
<event>
 4    0  0.2213671E-002  0.1538067E+03  0.7546771E-02  0.1195872E+00
         21   -1    0    0  502  501  0.00000000000E+00  0.00000000000E+00  0.13930126398E+03  0.13930126398E+03  0.00000000000E+00 0. -1.
         21   -1    0    0  501  502 -0.00000000000E+00 -0.00000000000E+00 -0.16982269463E+03  0.16982269463E+03  0.00000000000E+00 0. -1.
         25    1    1    2    0    0  0.86246392462E+02 -0.37560512065E+01 -0.39440616104E+02  0.15694938780E+03  0.12500000000E+03 0.  0.
         25    1    1    2    0    0 -0.86246392462E+02  0.37560512065E+01  0.89191854518E+01  0.15217457081E+03  0.12500000000E+03 0.  0.
</event>
<event>
 4    0  0.2213671E-002  0.1988756E+03  0.7546771E-02  0.1150691E+00
         21   -1    0    0  502  501  0.00000000000E+00  0.00000000000E+00  0.54379113097E+03  0.54379113097E+03  0.00000000000E+00 0.  1.
         21   -1    0    0  501  502 -0.00000000000E+00 -0.00000000000E+00 -0.72732929801E+02  0.72732929801E+02  0.00000000000E+00 0.  1.
         25    1    1    2    0    0  0.10655744764E+03 -0.11207955892E+03  0.24048068853E+03  0.31204531519E+03  0.12500000000E+03 0.  0.
         25    1    1    2    0    0 -0.10655744764E+03  0.11207955892E+03  0.23057751264E+03  0.30447874558E+03  0.12500000000E+03 0.  0.
</event>
<event>
 4    0  0.2213671E-002  0.1889018E+03  0.7546771E-02  0.1159456E+00
         21   -1    0    0  502  501  0.00000000000E+00  0.00000000000E+00  0.13144516443E+04  0.13144516443E+04  0.00000000000E+00 0. -1.
         21   -1    0    0  501  502 -0.00000000000E+00 -0.00000000000E+00 -0.27147345942E+02  0.27147345942E+02  0.00000000000E+00 0. -1.
         25    1    1    2    0    0  0.11533933648E+02  0.16815287693E+02  0.14595905758E+03  0.19324810999E+03  0.12500000000E+03 0.  0.
         25    1    1    2    0    0 -0.11533933648E+02 -0.16815287693E+02  0.11413452407E+04  0.11483508802E+04  0.12500000000E+03 0.  0.
</event>
<event>
 4    0  0.2213671E-002  0.2239297E+03  0.7546771E-02  0.1130987E+00
         21   -1    0    0  502  501  0.00000000000E+00  0.00000000000E+00  0.94767856428E+02  0.94767856428E+02  0.00000000000E+00 0.  1.
         21   -1    0    0  501  502 -0.00000000000E+00 -0.00000000000E+00 -0.52913016722E+03  0.52913016722E+03  0.00000000000E+00 0.  1.
         25    1    1    2    0    0 -0.11159552790E+03 -0.14605474508E+03 -0.25492223552E+03  0.33822462443E+03  0.12500000000E+03 0.  0.
         25    1    1    2    0    0  0.11159552790E+03  0.14605474508E+03 -0.17944007526E+03  0.28567339921E+03  0.12500000000E+03 0.  0.
</event>
<event>
 4    0  0.2213671E-002  0.1689245E+03  0.7546771E-02  0.1178974E+00
         21   -1    0    0  502  501  0.00000000000E+00  0.00000000000E+00  0.10639091676E+03  0.10639091676E+03  0.00000000000E+00 0. -1.
         21   -1    0    0  501  502 -0.00000000000E+00 -0.00000000000E+00 -0.26821364612E+03  0.26821364612E+03  0.00000000000E+00 0. -1.
         25    1    1    2    0    0  0.51553753942E+02 -0.10084273756E+03 -0.70782530745E+02  0.18292679936E+03  0.12500000000E+03 0.  0.
         25    1    1    2    0    0 -0.51553753942E+02  0.10084273756E+03 -0.91040198612E+02  0.19167776352E+03  0.12500000000E+03 0.  0.
</event>
<event>
 4    0  0.2213671E-002  0.3911186E+03  0.7546771E-02  0.1046899E+00
         21   -1    0    0  502  501  0.00000000000E+00  0.00000000000E+00  0.12027531714E+03  0.12027531714E+03  0.00000000000E+00 0.  1.
         21   -1    0    0  501  502 -0.00000000000E+00 -0.00000000000E+00 -0.12718629842E+04  0.12718629842E+04  0.00000000000E+00 0.  1.
         25    1    1    2    0    0 -0.11366123987E+03 -0.22846655815E+03 -0.97481667876E+02  0.30040559451E+03  0.12500000000E+03 0.  0.
         25    1    1    2    0    0  0.11366123987E+03  0.22846655815E+03 -0.10541059991E+04  0.10917327068E+04  0.12500000000E+03 0.  0.
</event>
<event>
 4    0  0.2213671E-002  0.1788992E+03  0.7546771E-02  0.1168873E+00
         21   -1    0    0  502  501  0.00000000000E+00  0.00000000000E+00  0.41844603743E+03  0.41844603743E+03  0.00000000000E+00 0. -1.
         21   -1    0    0  501  502 -0.00000000000E+00 -0.00000000000E+00 -0.76485213048E+02  0.76485213048E+02  0.00000000000E+00 0. -1.
         25    1    1    2    0    0  0.10923129920E+02 -0.97415607098E+02  0.28480262235E+03  0.32610833932E+03  0.12500000000E+03 0.  0.
         25    1    1    2    0    0 -0.10923129920E+02  0.97415607098E+02  0.57158202028E+02  0.16882291116E+03  0.12500000000E+03 0.  0.
</event>
<event>
 4    0  0.2213671E-002  0.3346951E+03  0.7546771E-02  0.1069078E+00
         21   -1    0    0  502  501  0.00000000000E+00  0.00000000000E+00  0.11014228920E+04  0.11014228920E+04  0.00000000000E+00 0. -1.
         21   -1    0    0  501  502 -0.00000000000E+00 -0.00000000000E+00 -0.10170555965E+03  0.10170555965E+03  0.00000000000E+00 0. -1.
         25    1    1    2    0    0  0.10993489914E+03 -0.86401979830E+02  0.16170706227E+01  0.18755958809E+03  0.12500000000E+03 0.  0.
         25    1    1    2    0    0 -0.10993489914E+03  0.86401979830E+02  0.99810026175E+03  0.10155688636E+04  0.12500000000E+03 0.  0.
</event>
<event>
 4    0  0.2213671E-002  0.3289697E+03  0.7546771E-02  0.1071594E+00
         21   -1    0    0  502  501  0.00000000000E+00  0.00000000000E+00  0.26097877053E+03  0.26097877053E+03  0.00000000000E+00 0.  1.
         21   -1    0    0  501  502 -0.00000000000E+00 -0.00000000000E+00 -0.41467381679E+03  0.41467381679E+03  0.00000000000E+00 0.  1.
         25    1    1    2    0    0 -0.30553554543E+02  0.70991143366E+02  0.22539367472E+03  0.26907354150E+03  0.12500000000E+03 0.  0.
         25    1    1    2    0    0  0.30553554543E+02 -0.70991143366E+02 -0.37908872097E+03  0.40657904582E+03  0.12500000000E+03 0.  0.
</event>
<event>
 4    0  0.2213671E-002  0.1953175E+03  0.7546771E-02  0.1153751E+00
         21   -1    0    0  502  501  0.00000000000E+00  0.00000000000E+00  0.25087231939E+04  0.25087231939E+04  0.00000000000E+00 0.  1.
         21   -1    0    0  501  502 -0.00000000000E+00 -0.00000000000E+00 -0.15206511851E+02  0.15206511851E+02  0.00000000000E+00 0.  1.
         25    1    1    2    0    0 -0.13692347312E+03 -0.60664620248E+02  0.11835533350E+04  0.11995214589E+04  0.12500000000E+03 0.  0.
         25    1    1    2    0    0  0.13692347312E+03  0.60664620248E+02  0.13099633471E+04  0.13244082469E+04  0.12500000000E+03 0.  0.
</event>
<event>
 4    0  0.2213671E-002  0.2569634E+03  0.7546771E-02  0.1108981E+00
         21   -1    0    0  502  501  0.00000000000E+00  0.00000000000E+00  0.26896229622E+03  0.26896229622E+03  0.00000000000E+00 0. -1.
         21   -1    0    0  501  502 -0.00000000000E+00 -0.00000000000E+00 -0.24549987904E+03  0.24549987904E+03  0.00000000000E+00 0. -1.
         25    1    1    2    0    0  0.47117449071E+02 -0.54079887676E+02 -0.20123558614E+03  0.24751858392E+03  0.12500000000E+03 0.  0.
         25    1    1    2    0    0 -0.47117449071E+02  0.54079887676E+02  0.22469800332E+03  0.26694359133E+03  0.12500000000E+03 0.  0.
</event>
<event>
 4    0  0.2213671E-002  0.3225412E+03  0.7546771E-02  0.1074486E+00
         21   -1    0    0  502  501  0.00000000000E+00  0.00000000000E+00  0.28465043113E+03  0.28465043113E+03  0.00000000000E+00 0. -1.
         21   -1    0    0  501  502 -0.00000000000E+00 -0.00000000000E+00 -0.36547568293E+03  0.36547568293E+03  0.00000000000E+00 0. -1.
         25    1    1    2    0    0  0.86938112082E+02 -0.17651877609E+03 -0.26506964588E+03  0.35299296142E+03  0.12500000000E+03 0.  0.
         25    1    1    2    0    0 -0.86938112082E+02  0.17651877609E+03  0.18424439409E+03  0.29713315264E+03  0.12500000000E+03 0.  0.
</event>
<event>
 4    0  0.2213671E-002  0.2029586E+03  0.7546771E-02  0.1147267E+00
         21   -1    0    0  502  501  0.00000000000E+00  0.00000000000E+00  0.14426748707E+03  0.14426748707E+03  0.00000000000E+00 0.  1.
         21   -1    0    0  501  502 -0.00000000000E+00 -0.00000000000E+00 -0.28552653912E+03  0.28552653912E+03  0.00000000000E+00 0.  1.
         25    1    1    2    0    0  0.45325086789E+02  0.13279832424E+03  0.10544470531E+02  0.18821781072E+03  0.12500000000E+03 0.  0.
         25    1    1    2    0    0 -0.45325086789E+02 -0.13279832424E+03 -0.15180352258E+03  0.24157621547E+03  0.12500000000E+03 0.  0.
</event>
<event>
 4    0  0.2213671E-002  0.1947979E+03  0.7546771E-02  0.1154204E+00
         21   -1    0    0  502  501  0.00000000000E+00  0.00000000000E+00  0.15523246266E+03  0.15523246266E+03  0.00000000000E+00 0. -1.
         21   -1    0    0  501  502 -0.00000000000E+00 -0.00000000000E+00 -0.24444778128E+03  0.24444778128E+03  0.00000000000E+00 0. -1.
         25    1    1    2    0    0  0.31973979197E+02  0.14477772081E+03 -0.63476883332E+02  0.20405204852E+03  0.12500000000E+03 0.  0.
         25    1    1    2    0    0 -0.31973979197E+02 -0.14477772081E+03 -0.25738435288E+02  0.19562819541E+03  0.12500000000E+03 0.  0.
</event>
<event>
 4    0  0.2213671E-002  0.2513838E+03  0.7546771E-02  0.1112433E+00
         21   -1    0    0  502  501  0.00000000000E+00  0.00000000000E+00  0.13042243765E+03  0.13042243765E+03  0.00000000000E+00 0.  1.
         21   -1    0    0  501  502 -0.00000000000E+00 -0.00000000000E+00 -0.48453167338E+03  0.48453167338E+03  0.00000000000E+00 0.  1.
         25    1    1    2    0    0 -0.15331414231E+03  0.51837373954E+02 -0.35588585814E+03  0.41045350966E+03  0.12500000000E+03 0.  0.
         25    1    1    2    0    0  0.15331414231E+03 -0.51837373954E+02  0.17766224040E+01  0.20450060136E+03  0.12500000000E+03 0.  0.
</event>
<event>
 4    0  0.2213671E-002  0.1870367E+03  0.7546771E-02  0.1161162E+00
         21   -1    0    0  502  501  0.00000000000E+00  0.00000000000E+00  0.40063088095E+03  0.40063088095E+03  0.00000000000E+00 0. -1.
         21   -1    0    0  501  502 -0.00000000000E+00 -0.00000000000E+00 -0.87319094255E+02  0.87319094255E+02  0.00000000000E+00 0. -1.
         25    1    1    2    0    0 -0.83153345860E+02 -0.55367711334E+02  0.30337730840E+02  0.16286632647E+03  0.12500000000E+03 0.  0.
         25    1    1    2    0    0  0.83153345860E+02  0.55367711334E+02  0.28297405586E+03  0.32508364874E+03  0.12500000000E+03 0.  0.
</event>
<event>
 4    0  0.2213671E-002  0.1594459E+03  0.7546771E-02  0.1189324E+00
         21   -1    0    0  502  501  0.00000000000E+00  0.00000000000E+00  0.51508013435E+02  0.51508013435E+02  0.00000000000E+00 0.  1.
         21   -1    0    0  501  502 -0.00000000000E+00 -0.00000000000E+00 -0.49357349686E+03  0.49357349686E+03  0.00000000000E+00 0.  1.
         25    1    1    2    0    0  0.32953558338E+02 -0.70991983399E+02 -0.32461390997E+03  0.35654591466E+03  0.12500000000E+03 0.  0.
         25    1    1    2    0    0 -0.32953558338E+02  0.70991983399E+02 -0.11745157345E+03  0.18853559563E+03  0.12500000000E+03 0.  0.
</event>
<event>
 4    0  0.2213671E-002  0.1952637E+03  0.7546771E-02  0.1153798E+00
         21   -1    0    0  502  501  0.00000000000E+00  0.00000000000E+00  0.76299463529E+02  0.76299463529E+02  0.00000000000E+00 0. -1.
         21   -1    0    0  501  502 -0.00000000000E+00 -0.00000000000E+00 -0.49971412406E+03  0.49971412406E+03  0.00000000000E+00 0. -1.
         25    1    1    2    0    0 -0.23098402709E+01  0.13656435516E+03 -0.30319977429E+03  0.35526083600E+03  0.12500000000E+03 0.  0.
         25    1    1    2    0    0  0.23098402709E+01 -0.13656435516E+03 -0.12021488624E+03  0.22075275159E+03  0.12500000000E+03 0.  0.
</event>
<event>
 4    0  0.2213671E-002  0.1488157E+03  0.7546771E-02  0.1201936E+00
         21   -1    0    0  502  501  0.00000000000E+00  0.00000000000E+00  0.28156880539E+04  0.28156880539E+04  0.00000000000E+00 0. -1.
         21   -1    0    0  501  502 -0.00000000000E+00 -0.00000000000E+00 -0.78652555765E+01  0.78652555765E+01  0.00000000000E+00 0. -1.
         25    1    1    2    0    0 -0.28866069854E+02  0.62875088202E+02  0.17990181111E+04  0.18046821578E+04  0.12500000000E+03 0.  0.
         25    1    1    2    0    0  0.28866069854E+02 -0.62875088202E+02  0.10088046873E+04  0.10188711517E+04  0.12500000000E+03 0.  0.
</event>
<event>
 4    0  0.2213671E-002  0.2487241E+03  0.7546771E-02  0.1114114E+00
         21   -1    0    0  502  501  0.00000000000E+00  0.00000000000E+00  0.23211393140E+03  0.23211393140E+03  0.00000000000E+00 0. -1.
         21   -1    0    0  501  502 -0.00000000000E+00 -0.00000000000E+00 -0.26652292146E+03  0.26652292146E+03  0.00000000000E+00 0. -1.
         25    1    1    2    0    0  0.19831006103E+03 -0.78353282005E+02  0.10656991712E+02  0.24739581358E+03  0.12500000000E+03 0.  0.
         25    1    1    2    0    0 -0.19831006103E+03  0.78353282005E+02 -0.45065981766E+02  0.25124103928E+03  0.12500000000E+03 0.  0.
</event>
<event>
 4    0  0.2213671E-002  0.2260087E+03  0.7546771E-02  0.1129481E+00
         21   -1    0    0  502  501  0.00000000000E+00  0.00000000000E+00  0.17306749126E+03  0.17306749126E+03  0.00000000000E+00 0. -1.
         21   -1    0    0  501  502 -0.00000000000E+00 -0.00000000000E+00 -0.29514468231E+03  0.29514468231E+03  0.00000000000E+00 0. -1.
         25    1    1    2    0    0  0.71462652101E+02  0.17345363858E+03 -0.44276282280E+02  0.22973564058E+03  0.12500000000E+03 0.  0.
         25    1    1    2    0    0 -0.71462652101E+02 -0.17345363858E+03 -0.77800908767E+02  0.23847653299E+03  0.12500000000E+03 0.  0.
</event>
<event>
 4    0  0.2213671E-002  0.2243019E+03  0.7546771E-02  0.1130716E+00
         21   -1    0    0  502  501  0.00000000000E+00  0.00000000000E+00  0.52589122448E+02  0.52589122448E+02  0.00000000000E+00 0.  1.
         21   -1    0    0  501  502 -0.00000000000E+00 -0.00000000000E+00 -0.95668725950E+03  0.95668725950E+03  0.00000000000E+00 0. -1.
         25    1    1    2    0    0  0.60583118347E+02  0.17463231409E+03 -0.40076587332E+03  0.45869929646E+03  0.12500000000E+03 0.  0.
         25    1    1    2    0    0 -0.60583118347E+02 -0.17463231409E+03 -0.50333226373E+03  0.55057708548E+03  0.12500000000E+03 0.  0.
</event>
<event>
 4    0  0.2213671E-002  0.2086059E+03  0.7546771E-02  0.1142675E+00
         21   -1    0    0  502  501  0.00000000000E+00  0.00000000000E+00  0.19222026054E+04  0.19222026054E+04  0.00000000000E+00 0.  1.
         21   -1    0    0  501  502 -0.00000000000E+00 -0.00000000000E+00 -0.22638824218E+02  0.22638824218E+02  0.00000000000E+00 0.  1.
         25    1    1    2    0    0 -0.10193136585E+03 -0.12201138120E+03  0.71142236683E+03  0.73961041401E+03  0.12500000000E+03 0.  0.
         25    1    1    2    0    0  0.10193136585E+03  0.12201138120E+03  0.11881414143E+04  0.12052310156E+04  0.12500000000E+03 0.  0.
</event>
<event>
 4    0  0.2213671E-002  0.1840230E+03  0.7546771E-02  0.1163965E+00
         21   -1    0    0  502  501  0.00000000000E+00  0.00000000000E+00  0.12360446015E+04  0.12360446015E+04  0.00000000000E+00 0. -1.
         21   -1    0    0  501  502 -0.00000000000E+00 -0.00000000000E+00 -0.27397436408E+02  0.27397436408E+02  0.00000000000E+00 0. -1.
         25    1    1    2    0    0  0.11188415450E+03  0.67962979597E+02  0.49034391800E+03  0.52268459758E+03  0.12500000000E+03 0.  0.
         25    1    1    2    0    0 -0.11188415450E+03 -0.67962979597E+02  0.71830324712E+03  0.74075744036E+03  0.12500000000E+03 0.  0.
</event>
<event>
 4    0  0.2213671E-002  0.2403337E+03  0.7546771E-02  0.1119571E+00
         21   -1    0    0  502  501  0.00000000000E+00  0.00000000000E+00  0.62133346484E+02  0.62133346484E+02  0.00000000000E+00 0. -1.
         21   -1    0    0  501  502 -0.00000000000E+00 -0.00000000000E+00 -0.92961853558E+03  0.92961853558E+03  0.00000000000E+00 0. -1.
         25    1    1    2    0    0 -0.14363276770E+03  0.14663633764E+03 -0.43714737907E+03  0.49885410543E+03  0.12500000000E+03 0.  0.
         25    1    1    2    0    0  0.14363276770E+03 -0.14663633764E+03 -0.43033781002E+03  0.49289777663E+03  0.12500000000E+03 0.  0.
</event>
<event>
 4    0  0.2213671E-002  0.2124767E+03  0.7546771E-02  0.1139620E+00
         21   -1    0    0  502  501  0.00000000000E+00  0.00000000000E+00  0.97715904699E+02  0.97715904699E+02  0.00000000000E+00 0. -1.
         21   -1    0    0  501  502 -0.00000000000E+00 -0.00000000000E+00 -0.46201643147E+03  0.46201643147E+03  0.00000000000E+00 0. -1.
         25    1    1    2    0    0  0.16358662571E+03  0.40521354893E+02 -0.22620708971E+03  0.30854045399E+03  0.12500000000E+03 0.  0.
         25    1    1    2    0    0 -0.16358662571E+03 -0.40521354893E+02 -0.13809343706E+03  0.25119188218E+03  0.12500000000E+03 0.  0.
</event>
<event>
 4    0  0.2213671E-002  0.2267237E+03  0.7546771E-02  0.1128967E+00
         21   -1    0    0  502  501  0.00000000000E+00  0.00000000000E+00  0.75840197942E+03  0.75840197942E+03  0.00000000000E+00 0. -1.
         21   -1    0    0  501  502 -0.00000000000E+00 -0.00000000000E+00 -0.67778880208E+02  0.67778880208E+02  0.00000000000E+00 0. -1.
         25    1    1    2    0    0  0.10383024340E+03 -0.69812024117E+02  0.86843117122E+02  0.19703087359E+03  0.12500000000E+03 0.  0.
         25    1    1    2    0    0 -0.10383024340E+03  0.69812024117E+02  0.60377998209E+03  0.62914998604E+03  0.12500000000E+03 0.  0.
</event>
<event>
 4    0  0.2213671E-002  0.2385237E+03  0.7546771E-02  0.1120780E+00
         21   -1    0    0  502  501  0.00000000000E+00  0.00000000000E+00  0.99854567364E+03  0.99854567364E+03  0.00000000000E+00 0.  1.
         21   -1    0    0  501  502 -0.00000000000E+00 -0.00000000000E+00 -0.56976434745E+02  0.56976434745E+02  0.00000000000E+00 0.  1.
         25    1    1    2    0    0  0.11110381640E+03 -0.74970944014E+01  0.94846468338E+02  0.19240872382E+03  0.12500000000E+03 0.  0.
         25    1    1    2    0    0 -0.11110381640E+03  0.74970944014E+01  0.84672277056E+03  0.86311338457E+03  0.12500000000E+03 0.  0.
</event>
<event>
 4    0  0.2213671E-002  0.1950531E+03  0.7546771E-02  0.1153981E+00
         21   -1    0    0  502  501  0.00000000000E+00  0.00000000000E+00  0.59438676955E+02  0.59438676955E+02  0.00000000000E+00 0.  1.
         21   -1    0    0  501  502 -0.00000000000E+00 -0.00000000000E+00 -0.64008325550E+03  0.64008325550E+03  0.00000000000E+00 0.  1.
         25    1    1    2    0    0 -0.13743691416E+03  0.59417274287E+02 -0.29243181677E+03  0.35151199882E+03  0.12500000000E+03 0.  0.
         25    1    1    2    0    0  0.13743691416E+03 -0.59417274287E+02 -0.28821276178E+03  0.34800993364E+03  0.12500000000E+03 0.  0.
</event>
<event>
 4    0  0.2213671E-002  0.2553358E+03  0.7546771E-02  0.1109978E+00
         21   -1    0    0  502  501  0.00000000000E+00  0.00000000000E+00  0.29514601931E+03  0.29514601931E+03  0.00000000000E+00 0.  1.
         21   -1    0    0  501  502 -0.00000000000E+00 -0.00000000000E+00 -0.22089525692E+03  0.22089525692E+03  0.00000000000E+00 0.  1.
         25    1    1    2    0    0  0.46323396548E+02  0.15551446588E+03 -0.11692679946E+03  0.23585479134E+03  0.12500000000E+03 0.  0.
         25    1    1    2    0    0 -0.46323396548E+02 -0.15551446588E+03  0.19117756185E+03  0.28018648490E+03  0.12500000000E+03 0.  0.
</event>
<event>
 4    0  0.2213671E-002  0.2089016E+03  0.7546771E-02  0.1142439E+00
         21   -1    0    0  502  501  0.00000000000E+00  0.00000000000E+00  0.31249637440E+02  0.31249637440E+02  0.00000000000E+00 0. -1.
         21   -1    0    0  501  502 -0.00000000000E+00 -0.00000000000E+00 -0.13964924747E+04  0.13964924747E+04  0.00000000000E+00 0. -1.
         25    1    1    2    0    0  0.61104703264E+02  0.13147165942E+03 -0.39678850139E+03  0.44055044754E+03  0.12500000000E+03 0.  0.
         25    1    1    2    0    0 -0.61104703264E+02 -0.13147165942E+03 -0.96845433584E+03  0.98719166457E+03  0.12500000000E+03 0.  0.
</event>
<event>
 4    0  0.2213671E-002  0.2639911E+03  0.7546771E-02  0.1104769E+00
         21   -1    0    0  502  501  0.00000000000E+00  0.00000000000E+00  0.21267006170E+03  0.21267006170E+03  0.00000000000E+00 0. -1.
         21   -1    0    0  501  502 -0.00000000000E+00 -0.00000000000E+00 -0.32769689774E+03  0.32769689774E+03  0.00000000000E+00 0. -1.
         25    1    1    2    0    0  0.15452618989E+03  0.17111215217E+03 -0.26663245238E+02  0.26361646502E+03  0.12500000000E+03 0.  0.
         25    1    1    2    0    0 -0.15452618989E+03 -0.17111215217E+03 -0.88363590797E+02  0.27675049442E+03  0.12500000000E+03 0.  0.
</event>
<event>
 4    0  0.2213671E-002  0.1785151E+03  0.7546771E-02  0.1169248E+00
         21   -1    0    0  502  501  0.00000000000E+00  0.00000000000E+00  0.20343424542E+03  0.20343424542E+03  0.00000000000E+00 0. -1.
         21   -1    0    0  501  502 -0.00000000000E+00 -0.00000000000E+00 -0.15664842532E+03  0.15664842532E+03  0.00000000000E+00 0. -1.
         25    1    1    2    0    0 -0.25916344885E+02  0.65434798942E+01 -0.10228456817E+03  0.16371196336E+03  0.12500000000E+03 0.  0.
         25    1    1    2    0    0  0.25916344885E+02 -0.65434798942E+01  0.14907038827E+03  0.19637070739E+03  0.12500000000E+03 0.  0.
</event>
<event>
 4    0  0.2213671E-002  0.1856860E+03  0.7546771E-02  0.1162411E+00
         21   -1    0    0  502  501  0.00000000000E+00  0.00000000000E+00  0.16805068289E+03  0.16805068289E+03  0.00000000000E+00 0. -1.
         21   -1    0    0  501  502 -0.00000000000E+00 -0.00000000000E+00 -0.20517202383E+03  0.20517202383E+03  0.00000000000E+00 0. -1.
         25    1    1    2    0    0 -0.58268076976E+01  0.11000413375E+03 -0.10094133913E+03  0.19480506943E+03  0.12500000000E+03 0.  0.
         25    1    1    2    0    0  0.58268076976E+01 -0.11000413375E+03  0.63819998186E+02  0.17841763730E+03  0.12500000000E+03 0.  0.
</event>
<event>
 4    0  0.2213671E-002  0.2156522E+03  0.7546771E-02  0.1137167E+00
         21   -1    0    0  502  501  0.00000000000E+00  0.00000000000E+00  0.17283881854E+03  0.17283881854E+03  0.00000000000E+00 0. -1.
         21   -1    0    0  501  502 -0.00000000000E+00 -0.00000000000E+00 -0.26907082762E+03  0.26907082762E+03  0.00000000000E+00 0. -1.
         25    1    1    2    0    0  0.19220777090E+02 -0.17275711975E+03 -0.74565939266E+02  0.22671466648E+03  0.12500000000E+03 0.  0.
         25    1    1    2    0    0 -0.19220777090E+02  0.17275711975E+03 -0.21666069811E+02  0.21519497968E+03  0.12500000000E+03 0.  0.
</event>
<event>
 4    0  0.2213671E-002  0.2409220E+03  0.7546771E-02  0.1119180E+00
         21   -1    0    0  502  501  0.00000000000E+00  0.00000000000E+00  0.12960282271E+03  0.12960282271E+03  0.00000000000E+00 0.  1.
         21   -1    0    0  501  502 -0.00000000000E+00 -0.00000000000E+00 -0.44785589004E+03  0.44785589004E+03  0.00000000000E+00 0.  1.
         25    1    1    2    0    0  0.12670366075E+03  0.27110692502E+02 -0.35098691968E+03  0.39446878848E+03  0.12500000000E+03 0.  0.
         25    1    1    2    0    0 -0.12670366075E+03 -0.27110692502E+02  0.32733852341E+02  0.18298992427E+03  0.12500000000E+03 0.  0.
</event>
<event>
 4    0  0.2213671E-002  0.3588018E+03  0.7546771E-02  0.1059059E+00
         21   -1    0    0  502  501  0.00000000000E+00  0.00000000000E+00  0.33759735659E+03  0.33759735659E+03  0.00000000000E+00 0. -1.
         21   -1    0    0  501  502 -0.00000000000E+00 -0.00000000000E+00 -0.38133818865E+03  0.38133818865E+03  0.00000000000E+00 0. -1.
         25    1    1    2    0    0  0.23129356360E+03 -0.14290258333E+03 -0.22021741438E+03  0.37153542292E+03  0.12500000000E+03 0.  0.
         25    1    1    2    0    0 -0.23129356360E+03  0.14290258333E+03  0.17647658232E+03  0.34740012233E+03  0.12500000000E+03 0.  0.
</event>
<event>
 4    0  0.2213671E-002  0.2211734E+03  0.7546771E-02  0.1133011E+00
         21   -1    0    0  502  501  0.00000000000E+00  0.00000000000E+00  0.39264209650E+03  0.39264209650E+03  0.00000000000E+00 0.  1.
         21   -1    0    0  501  502 -0.00000000000E+00 -0.00000000000E+00 -0.12458588400E+03  0.12458588400E+03  0.00000000000E+00 0.  1.
         25    1    1    2    0    0 -0.12678116586E+03 -0.39589632017E+02 -0.12257683104E+02  0.18280058473E+03  0.12500000000E+03 0.  0.
         25    1    1    2    0    0  0.12678116586E+03  0.39589632017E+02  0.28031389560E+03  0.33442739578E+03  0.12500000000E+03 0.  0.
</event>
<event>
 4    0  0.2213671E-002  0.1972784E+03  0.7546771E-02  0.1152056E+00
         21   -1    0    0  502  501  0.00000000000E+00  0.00000000000E+00  0.12112745452E+03  0.12112745452E+03  0.00000000000E+00 0. -1.
         21   -1    0    0  501  502 -0.00000000000E+00 -0.00000000000E+00 -0.32130416072E+03  0.32130416072E+03  0.00000000000E+00 0. -1.
         25    1    1    2    0    0  0.10970455996E+03 -0.10315282671E+03 -0.72208737628E+02  0.20860176875E+03  0.12500000000E+03 0.  0.
         25    1    1    2    0    0 -0.10970455996E+03  0.10315282671E+03 -0.12796796857E+03  0.23382984650E+03  0.12500000000E+03 0.  0.
</event>
<event>
 4    0  0.2213671E-002  0.1822326E+03  0.7546771E-02  0.1165660E+00
         21   -1    0    0  502  501  0.00000000000E+00  0.00000000000E+00  0.13416728473E+03  0.13416728473E+03  0.00000000000E+00 0. -1.
         21   -1    0    0  501  502 -0.00000000000E+00 -0.00000000000E+00 -0.24751729673E+03  0.24751729673E+03  0.00000000000E+00 0. -1.
         25    1    1    2    0    0 -0.11303846981E+03  0.67472715001E+02 -0.73347625700E+02  0.19579360848E+03  0.12500000000E+03 0.  0.
         25    1    1    2    0    0  0.11303846981E+03 -0.67472715001E+02 -0.40002386290E+02  0.18589097298E+03  0.12500000000E+03 0.  0.
</event>
<event>
 4    0  0.2213671E-002  0.2592112E+03  0.7546771E-02  0.1107618E+00
         21   -1    0    0  502  501  0.00000000000E+00  0.00000000000E+00  0.75863046373E+02  0.75863046373E+02  0.00000000000E+00 0.  1.
         21   -1    0    0  501  502 -0.00000000000E+00 -0.00000000000E+00 -0.88568058205E+03  0.88568058205E+03  0.00000000000E+00 0.  1.
         25    1    1    2    0    0 -0.25716515460E+02 -0.88623130176E+02 -0.20076021022E+02  0.15666347689E+03  0.12500000000E+03 0.  0.
         25    1    1    2    0    0  0.25716515460E+02  0.88623130176E+02 -0.78974151466E+03  0.80488015154E+03  0.12500000000E+03 0.  0.
</event>
<event>
 4    0  0.2213671E-002  0.1597153E+03  0.7546771E-02  0.1189019E+00
         21   -1    0    0  502  501  0.00000000000E+00  0.00000000000E+00  0.12997649526E+04  0.12997649526E+04  0.00000000000E+00 0.  1.
         21   -1    0    0  501  502 -0.00000000000E+00 -0.00000000000E+00 -0.19625843045E+02  0.19625843045E+02  0.00000000000E+00 0.  1.
         25    1    1    2    0    0  0.77986505167E+02  0.61391343832E+02  0.61627343183E+03  0.63660720611E+03  0.12500000000E+03 0.  0.
         25    1    1    2    0    0 -0.77986505167E+02 -0.61391343832E+02  0.66386567776E+03  0.68278358957E+03  0.12500000000E+03 0.  0.
</event>
<event>
 4    0  0.2213671E-002  0.2253608E+03  0.7546771E-02  0.1129948E+00
         21   -1    0    0  502  501  0.00000000000E+00  0.00000000000E+00  0.96828354801E+02  0.96828354801E+02  0.00000000000E+00 0.  1.
         21   -1    0    0  501  502 -0.00000000000E+00 -0.00000000000E+00 -0.52451042024E+03  0.52451042024E+03  0.00000000000E+00 0.  1.
         25    1    1    2    0    0  0.83161500967E+00  0.14224170565E+03 -0.45404325032E+02  0.19473044739E+03  0.12500000000E+03 0.  0.
         25    1    1    2    0    0 -0.83161500967E+00 -0.14224170565E+03 -0.38227774041E+03  0.42660832765E+03  0.12500000000E+03 0.  0.
</event>
<event>
 4    0  0.2213671E-002  0.2575281E+03  0.7546771E-02  0.1108638E+00
         21   -1    0    0  502  501  0.00000000000E+00  0.00000000000E+00  0.45130663867E+03  0.45130663867E+03  0.00000000000E+00 0.  1.
         21   -1    0    0  501  502 -0.00000000000E+00 -0.00000000000E+00 -0.14695263529E+03  0.14695263529E+03  0.00000000000E+00 0.  1.
         25    1    1    2    0    0  0.26171061957E+02  0.18535861296E+03  0.29749959229E+03  0.37305997815E+03  0.12500000000E+03 0.  0.
         25    1    1    2    0    0 -0.26171061957E+02 -0.18535861296E+03  0.68544110881E+01  0.22519929581E+03  0.12500000000E+03 0.  0.
</event>
<event>
 4    0  0.2213671E-002  0.3502594E+03  0.7546771E-02  0.1062509E+00
         21   -1    0    0  502  501  0.00000000000E+00  0.00000000000E+00  0.84821647588E+03  0.84821647588E+03  0.00000000000E+00 0. -1.
         21   -1    0    0  501  502 -0.00000000000E+00 -0.00000000000E+00 -0.14463485485E+03  0.14463485485E+03  0.00000000000E+00 0. -1.
         25    1    1    2    0    0 -0.17649119793E+03  0.24127550753E+03  0.16326398698E+03  0.36282660173E+03  0.12500000000E+03 0.  0.
         25    1    1    2    0    0  0.17649119793E+03 -0.24127550753E+03  0.54031763405E+03  0.63002472899E+03  0.12500000000E+03 0.  0.
</event>
<event>
 4    0  0.2213671E-002  0.2272268E+03  0.7546771E-02  0.1128607E+00
         21   -1    0    0  502  501  0.00000000000E+00  0.00000000000E+00  0.19008838460E+02  0.19008838460E+02  0.00000000000E+00 0. -1.
         21   -1    0    0  501  502 -0.00000000000E+00 -0.00000000000E+00 -0.27162111018E+04  0.27162111018E+04  0.00000000000E+00 0. -1.
         25    1    1    2    0    0 -0.12364500086E+03  0.80388382857E+02 -0.20672409810E+04  0.20762612195E+04  0.12500000000E+03 0.  0.
         25    1    1    2    0    0  0.12364500086E+03 -0.80388382857E+02 -0.62996128239E+03  0.65895872075E+03  0.12500000000E+03 0.  0.
</event>
<event>
 4    0  0.2213671E-002  0.2030145E+03  0.7546771E-02  0.1147220E+00
         21   -1    0    0  502  501  0.00000000000E+00  0.00000000000E+00  0.24103757475E+02  0.24103757475E+02  0.00000000000E+00 0.  1.
         21   -1    0    0  501  502 -0.00000000000E+00 -0.00000000000E+00 -0.17098953337E+04  0.17098953337E+04  0.00000000000E+00 0.  1.
         25    1    1    2    0    0 -0.10436067652E+03  0.60625808369E+02 -0.39451518566E+03  0.43108452902E+03  0.12500000000E+03 0.  0.
         25    1    1    2    0    0  0.10436067652E+03 -0.60625808369E+02 -0.12912763905E+04  0.13029145621E+04  0.12500000000E+03 0.  0.
</event>
<event>
 4    0  0.2213671E-002  0.1806439E+03  0.7546771E-02  0.1167181E+00
         21   -1    0    0  502  501  0.00000000000E+00  0.00000000000E+00  0.25975458533E+03  0.25975458533E+03  0.00000000000E+00 0. -1.
         21   -1    0    0  501  502 -0.00000000000E+00 -0.00000000000E+00 -0.12562704692E+03  0.12562704692E+03  0.00000000000E+00 0. -1.
         25    1    1    2    0    0 -0.65467629299E+02 -0.11171127564E+03  0.83650076647E+02  0.19846348509E+03  0.12500000000E+03 0.  0.
         25    1    1    2    0    0  0.65467629299E+02  0.11171127564E+03  0.50477461759E+02  0.18691814716E+03  0.12500000000E+03 0.  0.
</event>
<event>
 4    0  0.2213671E-002  0.2086171E+03  0.7546771E-02  0.1142666E+00
         21   -1    0    0  502  501  0.00000000000E+00  0.00000000000E+00  0.43288818575E+02  0.43288818575E+02  0.00000000000E+00 0.  1.
         21   -1    0    0  501  502 -0.00000000000E+00 -0.00000000000E+00 -0.10053661101E+04  0.10053661101E+04  0.00000000000E+00 0.  1.
         25    1    1    2    0    0 -0.14600709109E+03 -0.80986128708E+02 -0.47000065500E+03  0.51420077731E+03  0.12500000000E+03 0.  0.
         25    1    1    2    0    0  0.14600709109E+03  0.80986128708E+02 -0.49207663654E+03  0.53445415137E+03  0.12500000000E+03 0.  0.
</event>
<event>
 4    0  0.2213671E-002  0.1955970E+03  0.7546771E-02  0.1153508E+00
         21   -1    0    0  502  501  0.00000000000E+00  0.00000000000E+00  0.57469872938E+03  0.57469872938E+03  0.00000000000E+00 0.  1.
         21   -1    0    0  501  502 -0.00000000000E+00 -0.00000000000E+00 -0.66570876341E+02  0.66570876341E+02  0.00000000000E+00 0.  1.
         25    1    1    2    0    0  0.51095638301E+02 -0.12384023989E+03  0.14184893509E+03  0.23171812544E+03  0.12500000000E+03 0.  0.
         25    1    1    2    0    0 -0.51095638301E+02  0.12384023989E+03  0.36627891795E+03  0.40955148028E+03  0.12500000000E+03 0.  0.
</event>
<event>
 4    0  0.2213671E-002  0.2006604E+03  0.7546771E-02  0.1149183E+00
         21   -1    0    0  502  501  0.00000000000E+00  0.00000000000E+00  0.34824209880E+03  0.34824209880E+03  0.00000000000E+00 0.  1.
         21   -1    0    0  501  502 -0.00000000000E+00 -0.00000000000E+00 -0.11562237844E+03  0.11562237844E+03  0.00000000000E+00 0.  1.
         25    1    1    2    0    0 -0.13569428297E+03  0.69063454760E+02  0.16042742200E+03  0.25405640504E+03  0.12500000000E+03 0.  0.
         25    1    1    2    0    0  0.13569428297E+03 -0.69063454760E+02  0.72192298355E+02  0.20980807219E+03  0.12500000000E+03 0.  0.
</event>
<event>
 4    0  0.2213671E-002  0.1487580E+03  0.7546771E-02  0.1202008E+00
         21   -1    0    0  502  501  0.00000000000E+00  0.00000000000E+00  0.51822833458E+03  0.51822833458E+03  0.00000000000E+00 0. -1.
         21   -1    0    0  501  502 -0.00000000000E+00 -0.00000000000E+00 -0.42701130527E+02  0.42701130527E+02  0.00000000000E+00 0. -1.
         25    1    1    2    0    0  0.77807066294E+02  0.13199081331E+02  0.20645384280E+03  0.25392192603E+03  0.12500000000E+03 0.  0.
         25    1    1    2    0    0 -0.77807066294E+02 -0.13199081331E+02  0.26907336125E+03  0.30700753908E+03  0.12500000000E+03 0.  0.
</event>
<event>
 4    0  0.2213671E-002  0.2311987E+03  0.7546771E-02  0.1125799E+00
         21   -1    0    0  502  501  0.00000000000E+00  0.00000000000E+00  0.95771596156E+03  0.95771596156E+03  0.00000000000E+00 0.  1.
         21   -1    0    0  501  502 -0.00000000000E+00 -0.00000000000E+00 -0.55812833759E+02  0.55812833759E+02  0.00000000000E+00 0.  1.
         25    1    1    2    0    0  0.12685011183E+03 -0.13649888017E+03  0.57308870892E+03  0.61544988704E+03  0.12500000000E+03 0.  0.
         25    1    1    2    0    0 -0.12685011183E+03  0.13649888017E+03  0.32881441888E+03  0.39807890828E+03  0.12500000000E+03 0.  0.
</event>
<event>
 4    0  0.2213671E-002  0.3960479E+03  0.7546771E-02  0.1045157E+00
         21   -1    0    0  502  501  0.00000000000E+00  0.00000000000E+00  0.32615584664E+03  0.32615584664E+03  0.00000000000E+00 0. -1.
         21   -1    0    0  501  502 -0.00000000000E+00 -0.00000000000E+00 -0.48091707955E+03  0.48091707955E+03  0.00000000000E+00 0. -1.
         25    1    1    2    0    0  0.28527688626E+03  0.19762803127E+03  0.69530190269E+02  0.37536540588E+03  0.12500000000E+03 0.  0.
         25    1    1    2    0    0 -0.28527688626E+03 -0.19762803127E+03 -0.22429142317E+03  0.43170752030E+03  0.12500000000E+03 0.  0.
</event>
<event>
 4    0  0.2213671E-002  0.3009113E+03  0.7546771E-02  0.1084786E+00
         21   -1    0    0  502  501  0.00000000000E+00  0.00000000000E+00  0.52496247044E+03  0.52496247044E+03  0.00000000000E+00 0.  1.
         21   -1    0    0  501  502 -0.00000000000E+00 -0.00000000000E+00 -0.17248393802E+03  0.17248393802E+03  0.00000000000E+00 0.  1.
         25    1    1    2    0    0  0.97466037727E+02 -0.17164441396E+03 -0.43526094345E+02  0.23765722005E+03  0.12500000000E+03 0.  0.
         25    1    1    2    0    0 -0.97466037727E+02  0.17164441396E+03  0.39600462676E+03  0.45978918840E+03  0.12500000000E+03 0.  0.
</event>
<event>
 4    0  0.2213671E-002  0.2602451E+03  0.7546771E-02  0.1106996E+00
         21   -1    0    0  502  501  0.00000000000E+00  0.00000000000E+00  0.13743762840E+03  0.13743762840E+03  0.00000000000E+00 0. -1.
         21   -1    0    0  501  502 -0.00000000000E+00 -0.00000000000E+00 -0.49278728102E+03  0.49278728102E+03  0.00000000000E+00 0. -1.
         25    1    1    2    0    0  0.68757319113E+02 -0.13811804764E+03  0.26012291844E+02  0.20026433367E+03  0.12500000000E+03 0.  0.
         25    1    1    2    0    0 -0.68757319113E+02  0.13811804764E+03 -0.38136194446E+03  0.42996057575E+03  0.12500000000E+03 0.  0.
</event>
<event>
 4    0  0.2213671E-002  0.1763323E+03  0.7546771E-02  0.1171401E+00
         21   -1    0    0  502  501  0.00000000000E+00  0.00000000000E+00  0.13764722751E+03  0.13764722751E+03  0.00000000000E+00 0.  1.
         21   -1    0    0  501  502 -0.00000000000E+00 -0.00000000000E+00 -0.22588951082E+03  0.22588951082E+03  0.00000000000E+00 0.  1.
         25    1    1    2    0    0  0.73825067063E+01 -0.75025159739E+02  0.57846476344E+02  0.15701748573E+03  0.12500000000E+03 0.  0.
         25    1    1    2    0    0 -0.73825067063E+01  0.75025159739E+02 -0.14608875965E+03  0.20651925260E+03  0.12500000000E+03 0.  0.
</event>
<event>
 4    0  0.2213671E-002  0.2433924E+03  0.7546771E-02  0.1117553E+00
         21   -1    0    0  502  501  0.00000000000E+00  0.00000000000E+00  0.23529853960E+03  0.23529853960E+03  0.00000000000E+00 0. -1.
         21   -1    0    0  501  502 -0.00000000000E+00 -0.00000000000E+00 -0.25176475247E+03  0.25176475247E+03  0.00000000000E+00 0. -1.
         25    1    1    2    0    0  0.67478082477E+02  0.17034507127E+03 -0.10851090294E+03  0.24692175071E+03  0.12500000000E+03 0.  0.
         25    1    1    2    0    0 -0.67478082477E+02 -0.17034507127E+03  0.92044690065E+02  0.24014154136E+03  0.12500000000E+03 0.  0.
</event>
<event>
 4    0  0.2213671E-002  0.1960678E+03  0.7546771E-02  0.1153100E+00
         21   -1    0    0  502  501  0.00000000000E+00  0.00000000000E+00  0.22757869449E+04  0.22757869449E+04  0.00000000000E+00 0. -1.
         21   -1    0    0  501  502 -0.00000000000E+00 -0.00000000000E+00 -0.16892003552E+02  0.16892003552E+02  0.00000000000E+00 0. -1.
         25    1    1    2    0    0 -0.37846375368E+02  0.14609175186E+03  0.11675418943E+04  0.11838725535E+04  0.12500000000E+03 0.  0.
         25    1    1    2    0    0  0.37846375368E+02 -0.14609175186E+03  0.10913530471E+04  0.11088063949E+04  0.12500000000E+03 0.  0.
</event>
<event>
 4    0  0.2213671E-002  0.1804973E+03  0.7546771E-02  0.1167323E+00
         21   -1    0    0  502  501  0.00000000000E+00  0.00000000000E+00  0.74683448123E+02  0.74683448123E+02  0.00000000000E+00 0.  1.
         21   -1    0    0  501  502 -0.00000000000E+00 -0.00000000000E+00 -0.43623140787E+03  0.43623140787E+03  0.00000000000E+00 0.  1.
         25    1    1    2    0    0 -0.11149784489E+03 -0.39711471180E+02 -0.25758562396E+03  0.30981304690E+03  0.12500000000E+03 0.  0.
         25    1    1    2    0    0  0.11149784489E+03  0.39711471180E+02 -0.10396233578E+03  0.20110180909E+03  0.12500000000E+03 0.  0.
</event>
<event>
 4    0  0.2213671E-002  0.2375659E+03  0.7546771E-02  0.1121425E+00
         21   -1    0    0  502  501  0.00000000000E+00  0.00000000000E+00  0.11561814032E+03  0.11561814032E+03  0.00000000000E+00 0. -1.
         21   -1    0    0  501  502 -0.00000000000E+00 -0.00000000000E+00 -0.48813773519E+03  0.48813773519E+03  0.00000000000E+00 0. -1.
         25    1    1    2    0    0 -0.85729607516E+02  0.17001516965E+03 -0.10047163180E+03  0.24894632416E+03  0.12500000000E+03 0.  0.
         25    1    1    2    0    0  0.85729607516E+02 -0.17001516965E+03 -0.27204796307E+03  0.35480955135E+03  0.12500000000E+03 0.  0.
</event>
<event>
 4    0  0.2213671E-002  0.3582608E+03  0.7546771E-02  0.1059275E+00
         21   -1    0    0  502  501  0.00000000000E+00  0.00000000000E+00  0.15524037610E+03  0.15524037610E+03  0.00000000000E+00 0.  1.
         21   -1    0    0  501  502 -0.00000000000E+00 -0.00000000000E+00 -0.82678758915E+03  0.82678758915E+03  0.00000000000E+00 0.  1.
         25    1    1    2    0    0 -0.69336836411E+02 -0.28544146752E+03 -0.11291127639E+03  0.33861244012E+03  0.12500000000E+03 0.  0.
         25    1    1    2    0    0  0.69336836411E+02  0.28544146752E+03 -0.55863593666E+03  0.64341552514E+03  0.12500000000E+03 0.  0.
</event>
<event>
 4    0  0.2213671E-002  0.1955925E+03  0.7546771E-02  0.1153512E+00
         21   -1    0    0  502  501  0.00000000000E+00  0.00000000000E+00  0.30088658511E+04  0.30088658511E+04  0.00000000000E+00 0.  1.
         21   -1    0    0  501  502 -0.00000000000E+00 -0.00000000000E+00 -0.12714573330E+02  0.12714573330E+02  0.00000000000E+00 0.  1.
         25    1    1    2    0    0  0.67635142894E+02 -0.11946681415E+03  0.19732605133E+04  0.19819760053E+04  0.12500000000E+03 0.  0.
         25    1    1    2    0    0 -0.67635142894E+02  0.11946681415E+03  0.10228907645E+04  0.10396044192E+04  0.12500000000E+03 0.  0.
</event>
<event>
 4    0  0.2213671E-002  0.3826565E+03  0.7546771E-02  0.1049956E+00
         21   -1    0    0  502  501  0.00000000000E+00  0.00000000000E+00  0.10114853100E+04  0.10114853100E+04  0.00000000000E+00 0. -1.
         21   -1    0    0  501  502 -0.00000000000E+00 -0.00000000000E+00 -0.14476333753E+03  0.14476333753E+03  0.00000000000E+00 0. -1.
         25    1    1    2    0    0  0.11284336888E+03  0.26532577701E+03  0.10349852742E+03  0.33085999913E+03  0.12500000000E+03 0.  0.
         25    1    1    2    0    0 -0.11284336888E+03 -0.26532577701E+03  0.76322344508E+03  0.82538864843E+03  0.12500000000E+03 0.  0.
</event>
<event>
 4    0  0.2213671E-002  0.3529939E+03  0.7546771E-02  0.1061393E+00
         21   -1    0    0  502  501  0.00000000000E+00  0.00000000000E+00  0.84375267427E+02  0.84375267427E+02  0.00000000000E+00 0. -1.
         21   -1    0    0  501  502 -0.00000000000E+00 -0.00000000000E+00 -0.14767918824E+04  0.14767918824E+04  0.00000000000E+00 0.  1.
         25    1    1    2    0    0  0.23217832066E+03  0.20277165157E+03 -0.43496696115E+03  0.54758047131E+03  0.12500000000E+03 0.  0.
         25    1    1    2    0    0 -0.23217832066E+03 -0.20277165157E+03 -0.95744965383E+03  0.10135866785E+04  0.12500000000E+03 0.  0.
</event>
<event>
 4    0  0.2213671E-002  0.2291261E+03  0.7546771E-02  0.1127256E+00
         21   -1    0    0  502  501  0.00000000000E+00  0.00000000000E+00  0.24607736053E+03  0.24607736053E+03  0.00000000000E+00 0.  1.
         21   -1    0    0  501  502 -0.00000000000E+00 -0.00000000000E+00 -0.21334244981E+03  0.21334244981E+03  0.00000000000E+00 0.  1.
         25    1    1    2    0    0 -0.12415555354E+03 -0.94538079804E+02  0.12855298632E+03  0.23770342930E+03  0.12500000000E+03 0.  0.
         25    1    1    2    0    0  0.12415555354E+03  0.94538079804E+02 -0.95818075603E+02  0.22171638104E+03  0.12500000000E+03 0.  0.
</event>
<event>
 4    0  0.2213671E-002  0.1940771E+03  0.7546771E-02  0.1154835E+00
         21   -1    0    0  502  501  0.00000000000E+00  0.00000000000E+00  0.93444489416E+02  0.93444489416E+02  0.00000000000E+00 0. -1.
         21   -1    0    0  501  502 -0.00000000000E+00 -0.00000000000E+00 -0.40308344433E+03  0.40308344433E+03  0.00000000000E+00 0. -1.
         25    1    1    2    0    0  0.12798141730E+03 -0.35266866933E+02 -0.23984491093E+03  0.30128653534E+03  0.12500000000E+03 0.  0.
         25    1    1    2    0    0 -0.12798141730E+03  0.35266866933E+02 -0.69794043988E+02  0.19524139841E+03  0.12500000000E+03 0.  0.
</event>
<event>
 4    0  0.2213671E-002  0.1862818E+03  0.7546771E-02  0.1161858E+00
         21   -1    0    0  502  501  0.00000000000E+00  0.00000000000E+00  0.34074282184E+03  0.34074282184E+03  0.00000000000E+00 0.  1.
         21   -1    0    0  501  502 -0.00000000000E+00 -0.00000000000E+00 -0.10183900117E+03  0.10183900117E+03  0.00000000000E+00 0.  1.
         25    1    1    2    0    0 -0.29342689620E+02 -0.11307170594E+03  0.20698681280E+03  0.26854188647E+03  0.12500000000E+03 0.  0.
         25    1    1    2    0    0  0.29342689620E+02  0.11307170594E+03  0.31917007873E+02  0.17403993654E+03  0.12500000000E+03 0.  0.
</event>
<event>
 4    0  0.2213671E-002  0.2518512E+03  0.7546771E-02  0.1112140E+00
         21   -1    0    0  502  501  0.00000000000E+00  0.00000000000E+00  0.20218042475E+03  0.20218042475E+03  0.00000000000E+00 0. -1.
         21   -1    0    0  501  502 -0.00000000000E+00 -0.00000000000E+00 -0.31372478946E+03  0.31372478946E+03  0.00000000000E+00 0. -1.
         25    1    1    2    0    0 -0.19710553553E+03  0.85539222001E+02 -0.14338958957E+02  0.24899428985E+03  0.12500000000E+03 0.  0.
         25    1    1    2    0    0  0.19710553553E+03 -0.85539222001E+02 -0.97205405751E+02  0.26691092436E+03  0.12500000000E+03 0.  0.
</event>
<event>
 4    0  0.2213671E-002  0.1705928E+03  0.7546771E-02  0.1177231E+00
         21   -1    0    0  502  501  0.00000000000E+00  0.00000000000E+00  0.10268455206E+04  0.10268455206E+04  0.00000000000E+00 0. -1.
         21   -1    0    0  501  502 -0.00000000000E+00 -0.00000000000E+00 -0.28341075081E+02  0.28341075081E+02  0.00000000000E+00 0. -1.
         25    1    1    2    0    0 -0.15263655388E+02 -0.61410920753E+02  0.19824720169E+03  0.24275756084E+03  0.12500000000E+03 0.  0.
         25    1    1    2    0    0  0.15263655388E+02  0.61410920753E+02  0.80025724380E+03  0.81242903482E+03  0.12500000000E+03 0.  0.
</event>
<event>
 4    0  0.2213671E-002  0.1960730E+03  0.7546771E-02  0.1153095E+00
         21   -1    0    0  502  501  0.00000000000E+00  0.00000000000E+00  0.16826148539E+03  0.16826148539E+03  0.00000000000E+00 0.  1.
         21   -1    0    0  501  502 -0.00000000000E+00 -0.00000000000E+00 -0.22848141807E+03  0.22848141807E+03  0.00000000000E+00 0.  1.
         25    1    1    2    0    0 -0.41516246914E+02  0.10632360182E+03  0.70001056128E+02  0.18317602169E+03  0.12500000000E+03 0.  0.
         25    1    1    2    0    0  0.41516246914E+02 -0.10632360182E+03 -0.13022098881E+03  0.21356688177E+03  0.12500000000E+03 0.  0.
</event>
<event>
 4    0  0.2228235E-002  0.1925023E+03  0.7546771E-02  0.1156224E+00
         21   -1    0    0  502  501  0.00000000000E+00  0.00000000000E+00  0.13355825273E+03  0.13355825273E+03  0.00000000000E+00 0.  1.
         21   -1    0    0  501  502 -0.00000000000E+00 -0.00000000000E+00 -0.27746042384E+03  0.27746042384E+03  0.00000000000E+00 0.  1.
         25    1    1    2    0    0  0.32144052901E+01  0.10767687743E+02  0.83876788691E+02  0.15095228114E+03  0.12500000000E+03 0.  0.
         25    1    1    2    0    0 -0.32144052901E+01 -0.10767687743E+02 -0.22777895980E+03  0.26006639542E+03  0.12500000000E+03 0.  0.
</event>
<event>
 4    0  0.2213671E-002  0.2117510E+03  0.7546771E-02  0.1140187E+00
         21   -1    0    0  502  501  0.00000000000E+00  0.00000000000E+00  0.43802345634E+02  0.43802345634E+02  0.00000000000E+00 0.  1.
         21   -1    0    0  501  502 -0.00000000000E+00 -0.00000000000E+00 -0.10236549519E+04  0.10236549519E+04  0.00000000000E+00 0.  1.
         25    1    1    2    0    0 -0.29147626731E+02 -0.15220712530E+03 -0.30822125159E+03  0.36693587051E+03  0.12500000000E+03 0.  0.
         25    1    1    2    0    0  0.29147626731E+02  0.15220712530E+03 -0.67163135472E+03  0.70052142707E+03  0.12500000000E+03 0.  0.
</event>
<event>
 4    0  0.2213671E-002  0.2195149E+03  0.7546771E-02  0.1134245E+00
         21   -1    0    0  502  501  0.00000000000E+00  0.00000000000E+00  0.20052199261E+03  0.20052199261E+03  0.00000000000E+00 0. -1.
         21   -1    0    0  501  502 -0.00000000000E+00 -0.00000000000E+00 -0.24030686697E+03  0.24030686697E+03  0.00000000000E+00 0. -1.
         25    1    1    2    0    0  0.11834420537E+03 -0.64918277264E+02  0.10035669990E+03  0.20956192613E+03  0.12500000000E+03 0.  0.
         25    1    1    2    0    0 -0.11834420537E+03  0.64918277264E+02 -0.14014157427E+03  0.23126693345E+03  0.12500000000E+03 0.  0.
</event>
<event>
 4    0  0.2213671E-002  0.2115637E+03  0.7546771E-02  0.1140334E+00
         21   -1    0    0  502  501  0.00000000000E+00  0.00000000000E+00  0.22064465726E+03  0.22064465726E+03  0.00000000000E+00 0.  1.
         21   -1    0    0  501  502 -0.00000000000E+00 -0.00000000000E+00 -0.20285639423E+03  0.20285639423E+03  0.00000000000E+00 0.  1.
         25    1    1    2    0    0 -0.18061053919E+02 -0.11324321469E+03 -0.11764519688E+03  0.20643550976E+03  0.12500000000E+03 0.  0.
         25    1    1    2    0    0  0.18061053919E+02  0.11324321469E+03  0.13543345992E+03  0.21706554173E+03  0.12500000000E+03 0.  0.
</event>
<event>
 4    0  0.2213671E-002  0.1832218E+03  0.7546771E-02  0.1164721E+00
         21   -1    0    0  502  501  0.00000000000E+00  0.00000000000E+00  0.40754293320E+03  0.40754293320E+03  0.00000000000E+00 0. -1.
         21   -1    0    0  501  502 -0.00000000000E+00 -0.00000000000E+00 -0.82372244557E+02  0.82372244557E+02  0.00000000000E+00 0. -1.
         25    1    1    2    0    0  0.23359176499E+02  0.12115505776E+03  0.23232506309E+03  0.29124583102E+03  0.12500000000E+03 0.  0.
         25    1    1    2    0    0 -0.23359176499E+02 -0.12115505776E+03  0.92845625555E+02  0.19866934674E+03  0.12500000000E+03 0.  0.
</event>
<event>
 4    0  0.2213671E-002  0.2962899E+03  0.7546771E-02  0.1087110E+00
         21   -1    0    0  502  501  0.00000000000E+00  0.00000000000E+00  0.13481521415E+03  0.13481521415E+03  0.00000000000E+00 0.  1.
         21   -1    0    0  501  502 -0.00000000000E+00 -0.00000000000E+00 -0.65117058444E+03  0.65117058444E+03  0.00000000000E+00 0.  1.
         25    1    1    2    0    0  0.48696163352E+01 -0.24691451250E+03 -0.11798109512E+03  0.30089039275E+03  0.12500000000E+03 0.  0.
         25    1    1    2    0    0 -0.48696163352E+01  0.24691451250E+03 -0.39837427518E+03  0.48509540584E+03  0.12500000000E+03 0.  0.
</event>
<event>
 4    0  0.2213671E-002  0.2445349E+03  0.7546771E-02  0.1116808E+00
         21   -1    0    0  502  501  0.00000000000E+00  0.00000000000E+00  0.76623614491E+02  0.76623614491E+02  0.00000000000E+00 0. -1.
         21   -1    0    0  501  502 -0.00000000000E+00 -0.00000000000E+00 -0.78040336126E+03  0.78040336126E+03  0.00000000000E+00 0.  1.
         25    1    1    2    0    0 -0.93574707102E+02  0.98516863203E+02 -0.70907476786E+02  0.19777428652E+03  0.12500000000E+03 0.  0.
         25    1    1    2    0    0  0.93574707102E+02 -0.98516863203E+02 -0.63287226998E+03  0.65925268923E+03  0.12500000000E+03 0.  0.
</event>
<event>
 4    0  0.2213671E-002  0.2091903E+03  0.7546771E-02  0.1142209E+00
         21   -1    0    0  502  501  0.00000000000E+00  0.00000000000E+00  0.25563442115E+03  0.25563442115E+03  0.00000000000E+00 0.  1.
         21   -1    0    0  501  502 -0.00000000000E+00 -0.00000000000E+00 -0.17118421880E+03  0.17118421880E+03  0.00000000000E+00 0.  1.
         25    1    1    2    0    0 -0.12348308546E+03 -0.83392060082E+02  0.12080635096E+03  0.22895738143E+03  0.12500000000E+03 0.  0.
         25    1    1    2    0    0  0.12348308546E+03  0.83392060082E+02 -0.36356148616E+02  0.19786125852E+03  0.12500000000E+03 0.  0.
</event>
<event>
 4    0  0.2213671E-002  0.3271783E+03  0.7546771E-02  0.1072392E+00
         21   -1    0    0  502  501  0.00000000000E+00  0.00000000000E+00  0.15831184530E+04  0.15831184530E+04  0.00000000000E+00 0.  1.
         21   -1    0    0  501  502 -0.00000000000E+00 -0.00000000000E+00 -0.67616966334E+02  0.67616966334E+02  0.00000000000E+00 0.  1.
         25    1    1    2    0    0 -0.29191170406E+03  0.75847480873E+02  0.81158413289E+03  0.87479088248E+03  0.12500000000E+03 0.  0.
         25    1    1    2    0    0  0.29191170406E+03 -0.75847480873E+02  0.70391735377E+03  0.77594453684E+03  0.12500000000E+03 0.  0.
</event>
<event>
 4    0  0.2213671E-002  0.2250358E+03  0.7546771E-02  0.1130183E+00
         21   -1    0    0  502  501  0.00000000000E+00  0.00000000000E+00  0.51551130102E+03  0.51551130102E+03  0.00000000000E+00 0.  1.
         21   -1    0    0  501  502 -0.00000000000E+00 -0.00000000000E+00 -0.98234731194E+02  0.98234731194E+02  0.00000000000E+00 0.  1.
         25    1    1    2    0    0  0.86194071829E+01  0.14623490525E+03  0.36741676318E+03  0.41482408267E+03  0.12500000000E+03 0.  0.
         25    1    1    2    0    0 -0.86194071829E+01 -0.14623490525E+03  0.49859806646E+02  0.19892194955E+03  0.12500000000E+03 0.  0.
</event>
<event>
 4    0  0.2213671E-002  0.2814434E+03  0.7546771E-02  0.1094903E+00
         21   -1    0    0  502  501  0.00000000000E+00  0.00000000000E+00  0.53128771760E+02  0.53128771760E+02  0.00000000000E+00 0. -1.
         21   -1    0    0  501  502 -0.00000000000E+00 -0.00000000000E+00 -0.14909137293E+04  0.14909137293E+04  0.00000000000E+00 0. -1.
         25    1    1    2    0    0 -0.67825771918E+02  0.29773210878E+01 -0.13850494237E+04  0.13923347679E+04  0.12500000000E+03 0.  0.
         25    1    1    2    0    0  0.67825771918E+02 -0.29773210878E+01 -0.52735533850E+02  0.15170773318E+03  0.12500000000E+03 0.  0.
</event>
<event>
 4    0  0.2213671E-002  0.3120919E+03  0.7546771E-02  0.1079347E+00
         21   -1    0    0  502  501  0.00000000000E+00  0.00000000000E+00  0.66634805709E+02  0.66634805709E+02  0.00000000000E+00 0. -1.
         21   -1    0    0  501  502 -0.00000000000E+00 -0.00000000000E+00 -0.14617191216E+04  0.14617191216E+04  0.00000000000E+00 0.  1.
         25    1    1    2    0    0 -0.49976866283E+02 -0.24223924925E+03 -0.10489671728E+04  0.10849583728E+04  0.12500000000E+03 0.  0.
         25    1    1    2    0    0  0.49976866283E+02  0.24223924925E+03 -0.34611714308E+03  0.44339555452E+03  0.12500000000E+03 0.  0.
</event>
<event>
 4    0  0.2213671E-002  0.3434613E+03  0.7546771E-02  0.1065331E+00
         21   -1    0    0  502  501  0.00000000000E+00  0.00000000000E+00  0.12482595060E+04  0.12482595060E+04  0.00000000000E+00 0. -1.
         21   -1    0    0  501  502 -0.00000000000E+00 -0.00000000000E+00 -0.94504102691E+02  0.94504102691E+02  0.00000000000E+00 0. -1.
         25    1    1    2    0    0  0.31348760701E+03  0.97461724671E+01  0.45369452147E+03  0.56553796198E+03  0.12500000000E+03 0.  0.
         25    1    1    2    0    0 -0.31348760701E+03 -0.97461724671E+01  0.70006088186E+03  0.77722564673E+03  0.12500000000E+03 0.  0.
</event>
<event>
 4    0  0.2213671E-002  0.2923453E+03  0.7546771E-02  0.1089131E+00
         21   -1    0    0  502  501  0.00000000000E+00  0.00000000000E+00  0.10274843208E+04  0.10274843208E+04  0.00000000000E+00 0.  1.
         21   -1    0    0  501  502 -0.00000000000E+00 -0.00000000000E+00 -0.83179612605E+02  0.83179612605E+02  0.00000000000E+00 0.  1.
         25    1    1    2    0    0  0.20398939517E+03 -0.15247881241E+03  0.60619412885E+03  0.66929648395E+03  0.12500000000E+03 0.  0.
         25    1    1    2    0    0 -0.20398939517E+03  0.15247881241E+03  0.33811057935E+03  0.44136744946E+03  0.12500000000E+03 0.  0.
</event>
<event>
 4    0  0.2213671E-002  0.2253053E+03  0.7546771E-02  0.1129988E+00
         21   -1    0    0  502  501  0.00000000000E+00  0.00000000000E+00  0.26559421984E+03  0.26559421984E+03  0.00000000000E+00 0.  1.
         21   -1    0    0  501  502 -0.00000000000E+00 -0.00000000000E+00 -0.19112788863E+03  0.19112788863E+03  0.00000000000E+00 0.  1.
         25    1    1    2    0    0  0.10271276761E+03  0.82241355681E+02 -0.98083777975E+02  0.20629828094E+03  0.12500000000E+03 0.  0.
         25    1    1    2    0    0 -0.10271276761E+03 -0.82241355681E+02  0.17255010918E+03  0.25042382753E+03  0.12500000000E+03 0.  0.
</event>
<event>
 4    0  0.2213671E-002  0.3228029E+03  0.7546771E-02  0.1074367E+00
         21   -1    0    0  502  501  0.00000000000E+00  0.00000000000E+00  0.59714785102E+03  0.59714785102E+03  0.00000000000E+00 0. -1.
         21   -1    0    0  501  502 -0.00000000000E+00 -0.00000000000E+00 -0.17449899533E+03  0.17449899533E+03  0.00000000000E+00 0.  1.
         25    1    1    2    0    0  0.27425934535E+03  0.90271359629E+02  0.29759309597E+03  0.43307477143E+03  0.12500000000E+03 0.  0.
         25    1    1    2    0    0 -0.27425934535E+03 -0.90271359629E+02  0.12505575972E+03  0.33857207492E+03  0.12500000000E+03 0.  0.
</event>
<event>
 4    0  0.2213671E-002  0.2008888E+03  0.7546771E-02  0.1148991E+00
         21   -1    0    0  502  501  0.00000000000E+00  0.00000000000E+00  0.10005532256E+04  0.10005532256E+04  0.00000000000E+00 0.  1.
         21   -1    0    0  501  502 -0.00000000000E+00 -0.00000000000E+00 -0.40333986608E+02  0.40333986608E+02  0.00000000000E+00 0.  1.
         25    1    1    2    0    0 -0.12181503094E+02  0.97419558161E+02  0.79838006346E+03  0.81404833091E+03  0.12500000000E+03 0.  0.
         25    1    1    2    0    0  0.12181503094E+02 -0.97419558161E+02  0.16183917552E+03  0.22683888129E+03  0.12500000000E+03 0.  0.
</event>
<event>
 4    0  0.2213671E-002  0.2054200E+03  0.7546771E-02  0.1145245E+00
         21   -1    0    0  502  501  0.00000000000E+00  0.00000000000E+00  0.44775848601E+03  0.44775848601E+03  0.00000000000E+00 0. -1.
         21   -1    0    0  501  502 -0.00000000000E+00 -0.00000000000E+00 -0.94241377300E+02  0.94241377300E+02  0.00000000000E+00 0. -1.
         25    1    1    2    0    0 -0.51562694922E+02  0.96633990358E+02  0.17486810263E+02  0.16711561307E+03  0.12500000000E+03 0.  0.
         25    1    1    2    0    0  0.51562694922E+02 -0.96633990358E+02  0.33603029845E+03  0.37488425024E+03  0.12500000000E+03 0.  0.
</event>
<event>
 4    0  0.2213671E-002  0.3383658E+03  0.7546771E-02  0.1067494E+00
         21   -1    0    0  502  501  0.00000000000E+00  0.00000000000E+00  0.59117248004E+03  0.59117248004E+03  0.00000000000E+00 0. -1.
         21   -1    0    0  501  502 -0.00000000000E+00 -0.00000000000E+00 -0.19366841566E+03  0.19366841566E+03  0.00000000000E+00 0.  1.
         25    1    1    2    0    0 -0.18486642187E+03  0.22437140177E+03  0.33767230173E+03  0.46278040497E+03  0.12500000000E+03 0.  0.
         25    1    1    2    0    0  0.18486642187E+03 -0.22437140177E+03  0.59831762655E+02  0.32206049073E+03  0.12500000000E+03 0.  0.
</event>
<event>
 4    0  0.2213671E-002  0.2617781E+03  0.7546771E-02  0.1106080E+00
         21   -1    0    0  502  501  0.00000000000E+00  0.00000000000E+00  0.21131820038E+03  0.21131820038E+03  0.00000000000E+00 0.  1.
         21   -1    0    0  501  502 -0.00000000000E+00 -0.00000000000E+00 -0.32428720484E+03  0.32428720484E+03  0.00000000000E+00 0.  1.
         25    1    1    2    0    0 -0.17552153946E+03 -0.77700684954E+01  0.95372289249E+02  0.23577331981E+03  0.12500000000E+03 0.  0.
         25    1    1    2    0    0  0.17552153946E+03  0.77700684954E+01 -0.20834129371E+03  0.29983208541E+03  0.12500000000E+03 0.  0.
</event>
<event>
 4    0  0.2213671E-002  0.2325400E+03  0.7546771E-02  0.1124865E+00
         21   -1    0    0  502  501  0.00000000000E+00  0.00000000000E+00  0.60162946017E+03  0.60162946017E+03  0.00000000000E+00 0. -1.
         21   -1    0    0  501  502 -0.00000000000E+00 -0.00000000000E+00 -0.89880686968E+02  0.89880686968E+02  0.00000000000E+00 0. -1.
         25    1    1    2    0    0 -0.82775759550E+02  0.16170238606E+03  0.36564453719E+03  0.42698994789E+03  0.12500000000E+03 0.  0.
         25    1    1    2    0    0  0.82775759550E+02 -0.16170238606E+03  0.14610423601E+03  0.26452019924E+03  0.12500000000E+03 0.  0.
</event>
<event>
 4    0  0.2213671E-002  0.2001252E+03  0.7546771E-02  0.1149633E+00
         21   -1    0    0  502  501  0.00000000000E+00  0.00000000000E+00  0.24079381295E+03  0.24079381295E+03  0.00000000000E+00 0. -1.
         21   -1    0    0  501  502 -0.00000000000E+00 -0.00000000000E+00 -0.16632525339E+03  0.16632525339E+03  0.00000000000E+00 0. -1.
         25    1    1    2    0    0  0.30684748362E+02 -0.60483152727E+02  0.18045302375E+03  0.22975652183E+03  0.12500000000E+03 0.  0.
         25    1    1    2    0    0 -0.30684748362E+02  0.60483152727E+02 -0.10598446418E+03  0.17736254451E+03  0.12500000000E+03 0.  0.
</event>
<event>
 4    0  0.2213671E-002  0.1960170E+03  0.7546771E-02  0.1153144E+00
         21   -1    0    0  502  501  0.00000000000E+00  0.00000000000E+00  0.30392482601E+03  0.30392482601E+03  0.00000000000E+00 0. -1.
         21   -1    0    0  501  502 -0.00000000000E+00 -0.00000000000E+00 -0.12642163235E+03  0.12642163235E+03  0.00000000000E+00 0. -1.
         25    1    1    2    0    0  0.93445536007E+02  0.11586955320E+03  0.11651891256E+03  0.22662629711E+03  0.12500000000E+03 0.  0.
         25    1    1    2    0    0 -0.93445536007E+02 -0.11586955320E+03  0.60984281106E+02  0.20372016125E+03  0.12500000000E+03 0.  0.
</event>
<event>
 4    0  0.2213671E-002  0.1873314E+03  0.7546771E-02  0.1160890E+00
         21   -1    0    0  502  501  0.00000000000E+00  0.00000000000E+00  0.14763668626E+04  0.14763668626E+04  0.00000000000E+00 0.  1.
         21   -1    0    0  501  502 -0.00000000000E+00 -0.00000000000E+00 -0.23769881082E+02  0.23769881082E+02  0.00000000000E+00 0.  1.
         25    1    1    2    0    0  0.73570135170E+02 -0.74086321861E+02  0.10968916609E+04  0.11089173385E+04  0.12500000000E+03 0.  0.
         25    1    1    2    0    0 -0.73570135170E+02  0.74086321861E+02  0.35570532064E+03  0.39121940521E+03  0.12500000000E+03 0.  0.
</event>
<event>
 4    0  0.2213671E-002  0.2284618E+03  0.7546771E-02  0.1127727E+00
         21   -1    0    0  502  501  0.00000000000E+00  0.00000000000E+00  0.25076918186E+03  0.25076918186E+03  0.00000000000E+00 0. -1.
         21   -1    0    0  501  502 -0.00000000000E+00 -0.00000000000E+00 -0.20813881091E+03  0.20813881091E+03  0.00000000000E+00 0. -1.
         25    1    1    2    0    0  0.85123064707E+01  0.92000495919E+02 -0.14684327597E+03  0.21383287472E+03  0.12500000000E+03 0.  0.
         25    1    1    2    0    0 -0.85123064707E+01 -0.92000495919E+02  0.18947364693E+03  0.24507511806E+03  0.12500000000E+03 0.  0.
</event>
<event>
 4    0  0.2213671E-002  0.2728906E+03  0.7546771E-02  0.1099637E+00
         21   -1    0    0  502  501  0.00000000000E+00  0.00000000000E+00  0.49873040092E+03  0.49873040092E+03  0.00000000000E+00 0. -1.
         21   -1    0    0  501  502 -0.00000000000E+00 -0.00000000000E+00 -0.14931770126E+03  0.14931770126E+03  0.00000000000E+00 0. -1.
         25    1    1    2    0    0 -0.20990650389E+03 -0.14314459094E+02  0.31340049263E+02  0.24672422419E+03  0.12500000000E+03 0.  0.
         25    1    1    2    0    0  0.20990650389E+03  0.14314459094E+02  0.31807265040E+03  0.40132387799E+03  0.12500000000E+03 0.  0.
</event>
<event>
 4    0  0.2213671E-002  0.1746324E+03  0.7546771E-02  0.1173101E+00
         21   -1    0    0  502  501  0.00000000000E+00  0.00000000000E+00  0.14918326625E+03  0.14918326625E+03  0.00000000000E+00 0.  1.
         21   -1    0    0  501  502 -0.00000000000E+00 -0.00000000000E+00 -0.20442284051E+03  0.20442284051E+03  0.00000000000E+00 0.  1.
         25    1    1    2    0    0  0.41378182804E+02 -0.60842300661E+02  0.70838845903E+02  0.16142206061E+03  0.12500000000E+03 0.  0.
         25    1    1    2    0    0 -0.41378182804E+02  0.60842300661E+02 -0.12607842017E+03  0.19218404615E+03  0.12500000000E+03 0.  0.
</event>
<event>
 4    0  0.2213671E-002  0.2460410E+03  0.7546771E-02  0.1115833E+00
         21   -1    0    0  502  501  0.00000000000E+00  0.00000000000E+00  0.13519272092E+04  0.13519272092E+04  0.00000000000E+00 0.  1.
         21   -1    0    0  501  502 -0.00000000000E+00 -0.00000000000E+00 -0.44777696418E+02  0.44777696418E+02  0.00000000000E+00 0.  1.
         25    1    1    2    0    0  0.11690224462E+03 -0.16120909678E+03  0.44778543189E+03  0.50575814447E+03  0.12500000000E+03 0.  0.
         25    1    1    2    0    0 -0.11690224462E+03  0.16120909678E+03  0.85936408084E+03  0.89094676110E+03  0.12500000000E+03 0.  0.
</event>
<event>
 4    0  0.2213671E-002  0.3029401E+03  0.7546771E-02  0.1083780E+00
         21   -1    0    0  502  501  0.00000000000E+00  0.00000000000E+00  0.10849207069E+03  0.10849207069E+03  0.00000000000E+00 0.  1.
         21   -1    0    0  501  502 -0.00000000000E+00 -0.00000000000E+00 -0.84589307712E+03  0.84589307712E+03  0.00000000000E+00 0.  1.
         25    1    1    2    0    0 -0.25396803807E+03  0.88664959397E+02 -0.46562937940E+03  0.55208419498E+03  0.12500000000E+03 0.  0.
         25    1    1    2    0    0  0.25396803807E+03 -0.88664959397E+02 -0.27177162703E+03  0.40230095282E+03  0.12500000000E+03 0.  0.
</event>
<event>
 4    0  0.2213671E-002  0.1827347E+03  0.7546771E-02  0.1165182E+00
         21   -1    0    0  502  501  0.00000000000E+00  0.00000000000E+00  0.28546065483E+03  0.28546065483E+03  0.00000000000E+00 0. -1.
         21   -1    0    0  501  502 -0.00000000000E+00 -0.00000000000E+00 -0.11697579378E+03  0.11697579378E+03  0.00000000000E+00 0. -1.
         25    1    1    2    0    0  0.14702900605E+02  0.79621424670E+02  0.20083557368E+03  0.25003134645E+03  0.12500000000E+03 0.  0.
         25    1    1    2    0    0 -0.14702900605E+02 -0.79621424670E+02 -0.32350712637E+02  0.15240510215E+03  0.12500000000E+03 0.  0.
</event>
<event>
 4    0  0.2213671E-002  0.2161644E+03  0.7546771E-02  0.1136775E+00
         21   -1    0    0  502  501  0.00000000000E+00  0.00000000000E+00  0.63007769570E+03  0.63007769570E+03  0.00000000000E+00 0.  1.
         21   -1    0    0  501  502 -0.00000000000E+00 -0.00000000000E+00 -0.74160785145E+02  0.74160785145E+02  0.00000000000E+00 0.  1.
         25    1    1    2    0    0  0.13738934026E+03  0.11053455968E+03  0.28266181507E+03  0.35583201290E+03  0.12500000000E+03 0.  0.
         25    1    1    2    0    0 -0.13738934026E+03 -0.11053455968E+03  0.27325509548E+03  0.34840646795E+03  0.12500000000E+03 0.  0.
</event>
<event>
 4    0  0.2213671E-002  0.2685640E+03  0.7546771E-02  0.1102104E+00
         21   -1    0    0  502  501  0.00000000000E+00  0.00000000000E+00  0.16170417249E+03  0.16170417249E+03  0.00000000000E+00 0.  1.
         21   -1    0    0  501  502 -0.00000000000E+00 -0.00000000000E+00 -0.44604055780E+03  0.44604055780E+03  0.00000000000E+00 0.  1.
         25    1    1    2    0    0 -0.56426410486E+02  0.12794142419E+03 -0.35965996464E+03  0.40562696901E+03  0.12500000000E+03 0.  0.
         25    1    1    2    0    0  0.56426410486E+02 -0.12794142419E+03  0.75323579322E+02  0.20211776128E+03  0.12500000000E+03 0.  0.
</event>
<event>
 4    0  0.2213671E-002  0.1942904E+03  0.7546771E-02  0.1154648E+00
         21   -1    0    0  502  501  0.00000000000E+00  0.00000000000E+00  0.43636232793E+03  0.43636232793E+03  0.00000000000E+00 0.  1.
         21   -1    0    0  501  502 -0.00000000000E+00 -0.00000000000E+00 -0.86507847835E+02  0.86507847835E+02  0.00000000000E+00 0.  1.
         25    1    1    2    0    0 -0.13499455359E+02  0.32373831295E+02  0.36942640339E+03  0.39157523897E+03  0.12500000000E+03 0.  0.
         25    1    1    2    0    0  0.13499455359E+02 -0.32373831295E+02 -0.19571923296E+02  0.13129493680E+03  0.12500000000E+03 0.  0.
</event>
<event>
 4    0  0.2213671E-002  0.1923942E+03  0.7546771E-02  0.1156320E+00
         21   -1    0    0  502  501  0.00000000000E+00  0.00000000000E+00  0.40946379329E+03  0.40946379329E+03  0.00000000000E+00 0.  1.
         21   -1    0    0  501  502 -0.00000000000E+00 -0.00000000000E+00 -0.90399964519E+02  0.90399964519E+02  0.00000000000E+00 0.  1.
         25    1    1    2    0    0 -0.98060226330E+02  0.10809510038E+03  0.14719741633E+03  0.24205874925E+03  0.12500000000E+03 0.  0.
         25    1    1    2    0    0  0.98060226330E+02 -0.10809510038E+03  0.17186641244E+03  0.25780500856E+03  0.12500000000E+03 0.  0.
</event>
<event>
 4    0  0.2213671E-002  0.2456815E+03  0.7546771E-02  0.1116065E+00
         21   -1    0    0  502  501  0.00000000000E+00  0.00000000000E+00  0.59308200564E+03  0.59308200564E+03  0.00000000000E+00 0.  1.
         21   -1    0    0  501  502 -0.00000000000E+00 -0.00000000000E+00 -0.10177241431E+03  0.10177241431E+03  0.00000000000E+00 0.  1.
         25    1    1    2    0    0 -0.19030311384E+03  0.92266476662E+02  0.24912152130E+03  0.34987842207E+03  0.12500000000E+03 0.  0.
         25    1    1    2    0    0  0.19030311384E+03 -0.92266476662E+02  0.24218807003E+03  0.34497599789E+03  0.12500000000E+03 0.  0.
</event>
<event>
 4    0  0.2213671E-002  0.2406276E+03  0.7546771E-02  0.1119375E+00
         21   -1    0    0  502  501  0.00000000000E+00  0.00000000000E+00  0.16394475721E+03  0.16394475721E+03  0.00000000000E+00 0. -1.
         21   -1    0    0  501  502 -0.00000000000E+00 -0.00000000000E+00 -0.35317788932E+03  0.35317788932E+03  0.00000000000E+00 0.  1.
         25    1    1    2    0    0  0.19877957835E+03  0.33822765914E+02 -0.13785701109E+03  0.27438450352E+03  0.12500000000E+03 0.  0.
         25    1    1    2    0    0 -0.19877957835E+03 -0.33822765914E+02 -0.51376121016E+02  0.24273814301E+03  0.12500000000E+03 0.  0.
</event>
<event>
 4    0  0.2213671E-002  0.2550432E+03  0.7546771E-02  0.1110158E+00
         21   -1    0    0  502  501  0.00000000000E+00  0.00000000000E+00  0.29395648203E+03  0.29395648203E+03  0.00000000000E+00 0.  1.
         21   -1    0    0  501  502 -0.00000000000E+00 -0.00000000000E+00 -0.22128123786E+03  0.22128123786E+03  0.00000000000E+00 0.  1.
         25    1    1    2    0    0 -0.96654159054E+02  0.11402737680E+03  0.20255269553E+03  0.28106380697E+03  0.12500000000E+03 0.  0.
         25    1    1    2    0    0  0.96654159054E+02 -0.11402737680E+03 -0.12987745136E+03  0.23417391292E+03  0.12500000000E+03 0.  0.
</event>
<event>
 4    0  0.2213671E-002  0.2338081E+03  0.7546771E-02  0.1123988E+00
         21   -1    0    0  502  501  0.00000000000E+00  0.00000000000E+00  0.43953510565E+02  0.43953510565E+02  0.00000000000E+00 0.  1.
         21   -1    0    0  501  502 -0.00000000000E+00 -0.00000000000E+00 -0.12437278883E+04  0.12437278883E+04  0.00000000000E+00 0.  1.
         25    1    1    2    0    0 -0.15661161146E+03  0.11922317544E+03 -0.64757056343E+03  0.68826884066E+03  0.12500000000E+03 0.  0.
         25    1    1    2    0    0  0.15661161146E+03 -0.11922317544E+03 -0.55220381435E+03  0.59941255825E+03  0.12500000000E+03 0.  0.
</event>
<event>
 4    0  0.2213671E-002  0.3320115E+03  0.7546771E-02  0.1070250E+00
         21   -1    0    0  502  501  0.00000000000E+00  0.00000000000E+00  0.43168739793E+03  0.43168739793E+03  0.00000000000E+00 0.  1.
         21   -1    0    0  501  502 -0.00000000000E+00 -0.00000000000E+00 -0.25535064065E+03  0.25535064065E+03  0.00000000000E+00 0.  1.
         25    1    1    2    0    0  0.10649081923E+03  0.25234290818E+03 -0.56644893768E+02  0.30635091297E+03  0.12500000000E+03 0.  0.
         25    1    1    2    0    0 -0.10649081923E+03 -0.25234290818E+03  0.23298165105E+03  0.38068712562E+03  0.12500000000E+03 0.  0.
</event>
<event>
 4    0  0.2213671E-002  0.3249891E+03  0.7546771E-02  0.1073376E+00
         21   -1    0    0  502  501  0.00000000000E+00  0.00000000000E+00  0.17112359194E+03  0.17112359194E+03  0.00000000000E+00 0.  1.
         21   -1    0    0  501  502 -0.00000000000E+00 -0.00000000000E+00 -0.61720267068E+03  0.61720267068E+03  0.00000000000E+00 0.  1.
         25    1    1    2    0    0 -0.13047764997E+03  0.26594510963E+03 -0.28046411450E+03  0.42665716682E+03  0.12500000000E+03 0.  0.
         25    1    1    2    0    0  0.13047764997E+03 -0.26594510963E+03 -0.16561496424E+03  0.36166909580E+03  0.12500000000E+03 0.  0.
</event>
<event>
 4    0  0.2213671E-002  0.2890766E+03  0.7546771E-02  0.1090832E+00
         21   -1    0    0  502  501  0.00000000000E+00  0.00000000000E+00  0.33007962388E+03  0.33007962388E+03  0.00000000000E+00 0. -1.
         21   -1    0    0  501  502 -0.00000000000E+00 -0.00000000000E+00 -0.25316695581E+03  0.25316695581E+03  0.00000000000E+00 0. -1.
         25    1    1    2    0    0  0.32534420678E+02  0.14583139816E+03  0.25391453351E+03  0.32003574104E+03  0.12500000000E+03 0.  0.
         25    1    1    2    0    0 -0.32534420678E+02 -0.14583139816E+03 -0.17700186543E+03  0.26321083865E+03  0.12500000000E+03 0.  0.
</event>
<event>
 4    0  0.2213671E-002  0.3970307E+03  0.7546771E-02  0.1044813E+00
         21   -1    0    0  502  501  0.00000000000E+00  0.00000000000E+00  0.68095414163E+03  0.68095414163E+03  0.00000000000E+00 0.  1.
         21   -1    0    0  501  502 -0.00000000000E+00 -0.00000000000E+00 -0.23148901556E+03  0.23148901556E+03  0.00000000000E+00 0. -1.
         25    1    1    2    0    0 -0.27388923599E+03 -0.21336970063E+03  0.39308985187E+03  0.53915357217E+03  0.12500000000E+03 0.  0.
         25    1    1    2    0    0  0.27388923599E+03  0.21336970063E+03  0.56375274197E+02  0.37328958502E+03  0.12500000000E+03 0.  0.
</event>
<event>
 4    0  0.2213671E-002  0.2440628E+03  0.7546771E-02  0.1117116E+00
         21   -1    0    0  502  501  0.00000000000E+00  0.00000000000E+00  0.11080558404E+03  0.11080558404E+03  0.00000000000E+00 0. -1.
         21   -1    0    0  501  502 -0.00000000000E+00 -0.00000000000E+00 -0.53757788052E+03  0.53757788052E+03  0.00000000000E+00 0. -1.
         25    1    1    2    0    0  0.46048519601E+02  0.18252363791E+03 -0.90876464642E+02  0.24355466816E+03  0.12500000000E+03 0.  0.
         25    1    1    2    0    0 -0.46048519601E+02 -0.18252363791E+03 -0.33589583184E+03  0.40482879641E+03  0.12500000000E+03 0.  0.
</event>
<event>
 4    0  0.2213671E-002  0.3513396E+03  0.7546771E-02  0.1062067E+00
         21   -1    0    0  502  501  0.00000000000E+00  0.00000000000E+00  0.13425622543E+03  0.13425622543E+03  0.00000000000E+00 0. -1.
         21   -1    0    0  501  502 -0.00000000000E+00 -0.00000000000E+00 -0.91943214766E+03  0.91943214766E+03  0.00000000000E+00 0. -1.
         25    1    1    2    0    0  0.30775206904E+03  0.58947338132E+02 -0.53972818294E+03  0.63648852003E+03  0.12500000000E+03 0.  0.
         25    1    1    2    0    0 -0.30775206904E+03 -0.58947338132E+02 -0.24544773928E+03  0.41719985306E+03  0.12500000000E+03 0.  0.
</event>
<event>
 4    0  0.2213671E-002  0.2149376E+03  0.7546771E-02  0.1137715E+00
         21   -1    0    0  502  501  0.00000000000E+00  0.00000000000E+00  0.49617848784E+02  0.49617848784E+02  0.00000000000E+00 0.  1.
         21   -1    0    0  501  502 -0.00000000000E+00 -0.00000000000E+00 -0.93107933576E+03  0.93107933576E+03  0.00000000000E+00 0.  1.
         25    1    1    2    0    0 -0.16933143382E+03 -0.30984143747E+02 -0.37078568749E+03  0.42748120156E+03  0.12500000000E+03 0.  0.
         25    1    1    2    0    0  0.16933143382E+03  0.30984143747E+02 -0.51067579949E+03  0.55321598298E+03  0.12500000000E+03 0.  0.
</event>
<event>
 4    0  0.2213671E-002  0.2457259E+03  0.7546771E-02  0.1116036E+00
         21   -1    0    0  502  501  0.00000000000E+00  0.00000000000E+00  0.52228287649E+02  0.52228287649E+02  0.00000000000E+00 0.  1.
         21   -1    0    0  501  502 -0.00000000000E+00 -0.00000000000E+00 -0.11561013826E+04  0.11561013826E+04  0.00000000000E+00 0.  1.
         25    1    1    2    0    0 -0.10126961267E+03 -0.92127694497E+02 -0.15538371670E+03  0.24189283983E+03  0.12500000000E+03 0.  0.
         25    1    1    2    0    0  0.10126961267E+03  0.92127694497E+02 -0.94848937825E+03  0.96643683043E+03  0.12500000000E+03 0.  0.
</event>
<event>
 4    0  0.2213671E-002  0.2657955E+03  0.7546771E-02  0.1103710E+00
         21   -1    0    0  502  501  0.00000000000E+00  0.00000000000E+00  0.11114694727E+03  0.11114694727E+03  0.00000000000E+00 0. -1.
         21   -1    0    0  501  502 -0.00000000000E+00 -0.00000000000E+00 -0.63562019953E+03  0.63562019953E+03  0.00000000000E+00 0. -1.
         25    1    1    2    0    0 -0.21113292998E+03 -0.72178506651E+02 -0.36388074902E+03  0.44477078417E+03  0.12500000000E+03 0.  0.
         25    1    1    2    0    0  0.21113292998E+03  0.72178506651E+02 -0.16059250324E+03  0.30199636263E+03  0.12500000000E+03 0.  0.
</event>
<event>
 4    0  0.2213671E-002  0.1626638E+03  0.7546771E-02  0.1185722E+00
         21   -1    0    0  502  501  0.00000000000E+00  0.00000000000E+00  0.28188983343E+03  0.28188983343E+03  0.00000000000E+00 0. -1.
         21   -1    0    0  501  502 -0.00000000000E+00 -0.00000000000E+00 -0.93864730553E+02  0.93864730553E+02  0.00000000000E+00 0. -1.
         25    1    1    2    0    0 -0.39894533555E+02 -0.84955219639E+02  0.14599477335E+03  0.21388884262E+03  0.12500000000E+03 0.  0.
         25    1    1    2    0    0  0.39894533555E+02  0.84955219639E+02  0.42030329523E+02  0.16186572136E+03  0.12500000000E+03 0.  0.
</event>
<event>
 4    0  0.2213671E-002  0.2169071E+03  0.7546771E-02  0.1136210E+00
         21   -1    0    0  502  501  0.00000000000E+00  0.00000000000E+00  0.98034662717E+03  0.98034662717E+03  0.00000000000E+00 0. -1.
         21   -1    0    0  501  502 -0.00000000000E+00 -0.00000000000E+00 -0.47991914259E+02  0.47991914259E+02  0.00000000000E+00 0. -1.
         25    1    1    2    0    0 -0.17067353973E+03  0.16488847212E+02  0.35957598884E+03  0.41751794093E+03  0.12500000000E+03 0.  0.
         25    1    1    2    0    0  0.17067353973E+03 -0.16488847212E+02  0.57277872407E+03  0.61082060050E+03  0.12500000000E+03 0.  0.
</event>
<event>
 4    0  0.2274591E-002  0.1916732E+03  0.7546771E-02  0.1156961E+00
         21   -1    0    0  502  501  0.00000000000E+00  0.00000000000E+00  0.11455109548E+03  0.11455109548E+03  0.00000000000E+00 0.  1.
         21   -1    0    0  501  502 -0.00000000000E+00 -0.00000000000E+00 -0.32071817804E+03  0.32071817804E+03  0.00000000000E+00 0.  1.
         25    1    1    2    0    0  0.13721773260E+02  0.70657115727E+01  0.60969423073E+02  0.13993027511E+03  0.12500000000E+03 0.  0.
         25    1    1    2    0    0 -0.13721773260E+02 -0.70657115727E+01 -0.26713650564E+03  0.29533899842E+03  0.12500000000E+03 0.  0.
</event>
<event>
 4    0  0.2213671E-002  0.2062235E+03  0.7546771E-02  0.1144592E+00
         21   -1    0    0  502  501  0.00000000000E+00  0.00000000000E+00  0.17599680268E+03  0.17599680268E+03  0.00000000000E+00 0. -1.
         21   -1    0    0  501  502 -0.00000000000E+00 -0.00000000000E+00 -0.24164154396E+03  0.24164154396E+03  0.00000000000E+00 0. -1.
         25    1    1    2    0    0  0.69822600919E+02 -0.94943788631E+02  0.82690732676E+02  0.19066272805E+03  0.12500000000E+03 0.  0.
         25    1    1    2    0    0 -0.69822600919E+02  0.94943788631E+02 -0.14833547396E+03  0.22697561859E+03  0.12500000000E+03 0.  0.
</event>
<event>
 4    0  0.2213671E-002  0.1870039E+03  0.7546771E-02  0.1161192E+00
         21   -1    0    0  502  501  0.00000000000E+00  0.00000000000E+00  0.11343627287E+03  0.11343627287E+03  0.00000000000E+00 0. -1.
         21   -1    0    0  501  502 -0.00000000000E+00 -0.00000000000E+00 -0.30828301450E+03  0.30828301450E+03  0.00000000000E+00 0. -1.
         25    1    1    2    0    0  0.77891288012E+02  0.91542961889E+02 -0.18507235588E+02  0.17439806303E+03  0.12500000000E+03 0.  0.
         25    1    1    2    0    0 -0.77891288012E+02 -0.91542961889E+02 -0.17633950604E+03  0.24732122435E+03  0.12500000000E+03 0.  0.
</event>
<event>
 4    0  0.2213671E-002  0.3286493E+03  0.7546771E-02  0.1071736E+00
         21   -1    0    0  502  501  0.00000000000E+00  0.00000000000E+00  0.14855637549E+03  0.14855637549E+03  0.00000000000E+00 0. -1.
         21   -1    0    0  501  502 -0.00000000000E+00 -0.00000000000E+00 -0.72706646768E+03  0.72706646768E+03  0.00000000000E+00 0. -1.
         25    1    1    2    0    0  0.46587323003E+02 -0.20091242404E+03  0.81740042047E+01  0.24130477646E+03  0.12500000000E+03 0.  0.
         25    1    1    2    0    0 -0.46587323003E+02  0.20091242404E+03 -0.58668409639E+03  0.63431806671E+03  0.12500000000E+03 0.  0.
</event>
<event>
 4    0  0.2213671E-002  0.2320013E+03  0.7546771E-02  0.1125239E+00
         21   -1    0    0  502  501  0.00000000000E+00  0.00000000000E+00  0.56603187461E+02  0.56603187461E+02  0.00000000000E+00 0. -1.
         21   -1    0    0  501  502 -0.00000000000E+00 -0.00000000000E+00 -0.95091091398E+03  0.95091091398E+03  0.00000000000E+00 0. -1.
         25    1    1    2    0    0 -0.10429185329E+03 -0.16122769604E+03 -0.52629454790E+03  0.57400532382E+03  0.12500000000E+03 0.  0.
         25    1    1    2    0    0  0.10429185329E+03  0.16122769604E+03 -0.36801317862E+03  0.43350877761E+03  0.12500000000E+03 0.  0.
</event>
<event>
 4    0  0.2213671E-002  0.2014160E+03  0.7546771E-02  0.1148550E+00
         21   -1    0    0  502  501  0.00000000000E+00  0.00000000000E+00  0.14796713941E+03  0.14796713941E+03  0.00000000000E+00 0.  1.
         21   -1    0    0  501  502 -0.00000000000E+00 -0.00000000000E+00 -0.27417166788E+03  0.27417166788E+03  0.00000000000E+00 0. -1.
         25    1    1    2    0    0  0.12585342148E+02  0.13509455201E+03  0.21608089311E+02  0.18574401294E+03  0.12500000000E+03 0.  0.
         25    1    1    2    0    0 -0.12585342148E+02 -0.13509455201E+03 -0.14781261778E+03  0.23639479435E+03  0.12500000000E+03 0.  0.
</event>
<event>
 4    0  0.2213671E-002  0.4300244E+03  0.7546771E-02  0.1033852E+00
         21   -1    0    0  502  501  0.00000000000E+00  0.00000000000E+00  0.43931889344E+03  0.43931889344E+03  0.00000000000E+00 0. -1.
         21   -1    0    0  501  502 -0.00000000000E+00 -0.00000000000E+00 -0.42092661601E+03  0.42092661601E+03  0.00000000000E+00 0. -1.
         25    1    1    2    0    0 -0.22845517979E+03  0.19805171903E+03 -0.26993712503E+03  0.42415481143E+03  0.12500000000E+03 0.  0.
         25    1    1    2    0    0  0.22845517979E+03 -0.19805171903E+03  0.28832940245E+03  0.43609069803E+03  0.12500000000E+03 0.  0.
</event>
<event>
 4    0  0.2213671E-002  0.1719263E+03  0.7546771E-02  0.1175854E+00
         21   -1    0    0  502  501  0.00000000000E+00  0.00000000000E+00  0.47503854855E+02  0.47503854855E+02  0.00000000000E+00 0.  1.
         21   -1    0    0  501  502 -0.00000000000E+00 -0.00000000000E+00 -0.62223671925E+03  0.62223671925E+03  0.00000000000E+00 0.  1.
         25    1    1    2    0    0  0.11698714363E+03  0.32163407117E+01 -0.31737110458E+03  0.36061857224E+03  0.12500000000E+03 0.  0.
         25    1    1    2    0    0 -0.11698714363E+03 -0.32163407117E+01 -0.25736175982E+03  0.30912200187E+03  0.12500000000E+03 0.  0.
</event>
<event>
 4    0  0.2213671E-002  0.2062925E+03  0.7546771E-02  0.1144536E+00
         21   -1    0    0  502  501  0.00000000000E+00  0.00000000000E+00  0.49270551861E+03  0.49270551861E+03  0.00000000000E+00 0.  1.
         21   -1    0    0  501  502 -0.00000000000E+00 -0.00000000000E+00 -0.86373300512E+02  0.86373300512E+02  0.00000000000E+00 0.  1.
         25    1    1    2    0    0  0.16064937912E+03 -0.32311231368E+01  0.15634304538E+03  0.25668426326E+03  0.12500000000E+03 0.  0.
         25    1    1    2    0    0 -0.16064937912E+03  0.32311231368E+01  0.24998917272E+03  0.32239455586E+03  0.12500000000E+03 0.  0.
</event>
<event>
 4    0  0.2213671E-002  0.2758817E+03  0.7546771E-02  0.1097960E+00
         21   -1    0    0  502  501  0.00000000000E+00  0.00000000000E+00  0.83415567300E+02  0.83415567300E+02  0.00000000000E+00 0.  1.
         21   -1    0    0  501  502 -0.00000000000E+00 -0.00000000000E+00 -0.91242804447E+03  0.91242804447E+03  0.00000000000E+00 0.  1.
         25    1    1    2    0    0  0.12700029875E+03 -0.17867712518E+03 -0.61573648975E+03  0.66544046748E+03  0.12500000000E+03 0.  0.
         25    1    1    2    0    0 -0.12700029875E+03  0.17867712518E+03 -0.21327598742E+03  0.33040314429E+03  0.12500000000E+03 0.  0.
</event>
<event>
 4    0  0.2213671E-002  0.3247555E+03  0.7546771E-02  0.1073481E+00
         21   -1    0    0  502  501  0.00000000000E+00  0.00000000000E+00  0.20681187812E+03  0.20681187812E+03  0.00000000000E+00 0.  1.
         21   -1    0    0  501  502 -0.00000000000E+00 -0.00000000000E+00 -0.50996180704E+03  0.50996180704E+03  0.00000000000E+00 0.  1.
         25    1    1    2    0    0 -0.75675033008E+02 -0.18182288329E+03  0.97777780941E+02  0.25292640422E+03  0.12500000000E+03 0.  0.
         25    1    1    2    0    0  0.75675033008E+02  0.18182288329E+03 -0.40092770986E+03  0.46384728094E+03  0.12500000000E+03 0.  0.
</event>
<event>
 4    0  0.2213671E-002  0.4938564E+03  0.7546771E-02  0.1015395E+00
         21   -1    0    0  502  501  0.00000000000E+00  0.00000000000E+00  0.11502223474E+04  0.11502223474E+04  0.00000000000E+00 0.  1.
         21   -1    0    0  501  502 -0.00000000000E+00 -0.00000000000E+00 -0.21204089523E+03  0.21204089523E+03  0.00000000000E+00 0. -1.
         25    1    1    2    0    0 -0.26675991948E+03  0.39597837556E+03  0.44482887350E+03  0.66442264806E+03  0.12500000000E+03 0.  0.
         25    1    1    2    0    0  0.26675991948E+03 -0.39597837556E+03  0.49335257868E+03  0.69784059458E+03  0.12500000000E+03 0.  0.
</event>
<event>
 4    0  0.2213671E-002  0.1579079E+03  0.7546771E-02  0.1191079E+00
         21   -1    0    0  502  501  0.00000000000E+00  0.00000000000E+00  0.29001448913E+03  0.29001448913E+03  0.00000000000E+00 0. -1.
         21   -1    0    0  501  502 -0.00000000000E+00 -0.00000000000E+00 -0.85978162854E+02  0.85978162854E+02  0.00000000000E+00 0. -1.
         25    1    1    2    0    0 -0.63570032785E+02 -0.47112681267E+02  0.16775903833E+03  0.22367129621E+03  0.12500000000E+03 0.  0.
         25    1    1    2    0    0  0.63570032785E+02  0.47112681267E+02  0.36277287939E+02  0.15232135577E+03  0.12500000000E+03 0.  0.
</event>
<event>
 4    0  0.2213671E-002  0.2054189E+03  0.7546771E-02  0.1145246E+00
         21   -1    0    0  502  501  0.00000000000E+00  0.00000000000E+00  0.93132899409E+03  0.93132899409E+03  0.00000000000E+00 0. -1.
         21   -1    0    0  501  502 -0.00000000000E+00 -0.00000000000E+00 -0.45308289545E+02  0.45308289545E+02  0.00000000000E+00 0. -1.
         25    1    1    2    0    0 -0.84185397216E+02  0.11563425830E+03  0.62887914543E+03  0.65694173437E+03  0.12500000000E+03 0.  0.
         25    1    1    2    0    0  0.84185397216E+02 -0.11563425830E+03  0.25714155912E+03  0.31969554927E+03  0.12500000000E+03 0.  0.
</event>
<event>
 4    0  0.2213671E-002  0.2352662E+03  0.7546771E-02  0.1122987E+00
         21   -1    0    0  502  501  0.00000000000E+00  0.00000000000E+00  0.43346040693E+02  0.43346040693E+02  0.00000000000E+00 0. -1.
         21   -1    0    0  501  502 -0.00000000000E+00 -0.00000000000E+00 -0.12769372972E+04  0.12769372972E+04  0.00000000000E+00 0. -1.
         25    1    1    2    0    0 -0.11157647859E+03 -0.15085187550E+03 -0.80543248221E+03  0.83639230168E+03  0.12500000000E+03 0.  0.
         25    1    1    2    0    0  0.11157647859E+03  0.15085187550E+03 -0.42815877433E+03  0.48389103624E+03  0.12500000000E+03 0.  0.
</event>
<event>
 4    0  0.2213671E-002  0.2860038E+03  0.7546771E-02  0.1092454E+00
         21   -1    0    0  502  501  0.00000000000E+00  0.00000000000E+00  0.72024749764E+03  0.72024749764E+03  0.00000000000E+00 0.  1.
         21   -1    0    0  501  502 -0.00000000000E+00 -0.00000000000E+00 -0.11356953642E+03  0.11356953642E+03  0.00000000000E+00 0.  1.
         25    1    1    2    0    0  0.52670489545E+02  0.23095799793E+03  0.15715096812E+03  0.31054340125E+03  0.12500000000E+03 0.  0.
         25    1    1    2    0    0 -0.52670489545E+02 -0.23095799793E+03  0.44952699310E+03  0.52327363282E+03  0.12500000000E+03 0.  0.
</event>
<event>
 4    0  0.2213671E-002  0.2383803E+03  0.7546771E-02  0.1120877E+00
         21   -1    0    0  502  501  0.00000000000E+00  0.00000000000E+00  0.86216286685E+03  0.86216286685E+03  0.00000000000E+00 0. -1.
         21   -1    0    0  501  502 -0.00000000000E+00 -0.00000000000E+00 -0.65910032710E+02  0.65910032710E+02  0.00000000000E+00 0. -1.
         25    1    1    2    0    0 -0.41762866551E+02 -0.17589202093E+03  0.57778649407E+03  0.61817826942E+03  0.12500000000E+03 0.  0.
         25    1    1    2    0    0  0.41762866551E+02  0.17589202093E+03  0.21846634006E+03  0.30989463014E+03  0.12500000000E+03 0.  0.
</event>
<event>
 4    0  0.2213671E-002  0.1786022E+03  0.7546771E-02  0.1169163E+00
         21   -1    0    0  502  501  0.00000000000E+00  0.00000000000E+00  0.50646754585E+03  0.50646754585E+03  0.00000000000E+00 0. -1.
         21   -1    0    0  501  502 -0.00000000000E+00 -0.00000000000E+00 -0.62982793734E+02  0.62982793734E+02  0.00000000000E+00 0. -1.
         25    1    1    2    0    0 -0.42344679051E+02  0.73913374493E+02  0.37312698958E+03  0.40262266345E+03  0.12500000000E+03 0.  0.
         25    1    1    2    0    0  0.42344679051E+02 -0.73913374493E+02  0.70357762530E+02  0.16682767612E+03  0.12500000000E+03 0.  0.
</event>
<event>
 4    0  0.2213671E-002  0.2419714E+03  0.7546771E-02  0.1118486E+00
         21   -1    0    0  502  501  0.00000000000E+00  0.00000000000E+00  0.26145208829E+03  0.26145208829E+03  0.00000000000E+00 0. -1.
         21   -1    0    0  501  502 -0.00000000000E+00 -0.00000000000E+00 -0.22394214357E+03  0.22394214357E+03  0.00000000000E+00 0. -1.
         25    1    1    2    0    0  0.12338752774E+03 -0.11828971049E+03  0.13618817732E+03  0.25177203429E+03  0.12500000000E+03 0.  0.
         25    1    1    2    0    0 -0.12338752774E+03  0.11828971049E+03 -0.98678232588E+02  0.23362219757E+03  0.12500000000E+03 0.  0.
</event>
<event>
 4    0  0.2213671E-002  0.1876951E+03  0.7546771E-02  0.1160557E+00
         21   -1    0    0  502  501  0.00000000000E+00  0.00000000000E+00  0.78263202741E+02  0.78263202741E+02  0.00000000000E+00 0.  1.
         21   -1    0    0  501  502 -0.00000000000E+00 -0.00000000000E+00 -0.45014080582E+03  0.45014080582E+03  0.00000000000E+00 0.  1.
         25    1    1    2    0    0  0.83867377020E+02  0.11147709444E+03 -0.20280559607E+03  0.27607243489E+03  0.12500000000E+03 0.  0.
         25    1    1    2    0    0 -0.83867377020E+02 -0.11147709444E+03 -0.16907200701E+03  0.25233157366E+03  0.12500000000E+03 0.  0.
</event>
<event>
 4    0  0.2213671E-002  0.3808314E+03  0.7546771E-02  0.1050627E+00
         21   -1    0    0  502  501  0.00000000000E+00  0.00000000000E+00  0.39941590771E+03  0.39941590771E+03  0.00000000000E+00 0.  1.
         21   -1    0    0  501  502 -0.00000000000E+00 -0.00000000000E+00 -0.36311156511E+03  0.36311156511E+03  0.00000000000E+00 0.  1.
         25    1    1    2    0    0 -0.34202114795E+03  0.74356016751E+02 -0.65009895057E+02  0.37730434576E+03  0.12500000000E+03 0.  0.
         25    1    1    2    0    0  0.34202114795E+03 -0.74356016751E+02  0.10131423766E+03  0.38522312706E+03  0.12500000000E+03 0.  0.
</event>
<event>
 4    0  0.2213671E-002  0.1876219E+03  0.7546771E-02  0.1160624E+00
         21   -1    0    0  502  501  0.00000000000E+00  0.00000000000E+00  0.23232164538E+03  0.23232164538E+03  0.00000000000E+00 0. -1.
         21   -1    0    0  501  502 -0.00000000000E+00 -0.00000000000E+00 -0.15152262144E+03  0.15152262144E+03  0.00000000000E+00 0. -1.
         25    1    1    2    0    0  0.73361265723E+02 -0.10239957406E+03  0.10270057641E+03  0.20503647595E+03  0.12500000000E+03 0.  0.
         25    1    1    2    0    0 -0.73361265723E+02  0.10239957406E+03 -0.21901552472E+02  0.17880779087E+03  0.12500000000E+03 0.  0.
</event>
<event>
 4    0  0.2213671E-002  0.2183022E+03  0.7546771E-02  0.1135155E+00
         21   -1    0    0  502  501  0.00000000000E+00  0.00000000000E+00  0.17018796069E+03  0.17018796069E+03  0.00000000000E+00 0.  1.
         21   -1    0    0  501  502 -0.00000000000E+00 -0.00000000000E+00 -0.28001889231E+03  0.28001889231E+03  0.00000000000E+00 0.  1.
         25    1    1    2    0    0  0.16218855929E+03  0.71158217337E+02 -0.28380022812E+02  0.21862993014E+03  0.12500000000E+03 0.  0.
         25    1    1    2    0    0 -0.16218855929E+03 -0.71158217337E+02 -0.81450908810E+02  0.23157692287E+03  0.12500000000E+03 0.  0.
</event>
<event>
 4    0  0.2213671E-002  0.1720114E+03  0.7546771E-02  0.1175766E+00
         21   -1    0    0  502  501  0.00000000000E+00  0.00000000000E+00  0.12633379038E+03  0.12633379038E+03  0.00000000000E+00 0.  1.
         21   -1    0    0  501  502 -0.00000000000E+00 -0.00000000000E+00 -0.23420443817E+03  0.23420443817E+03  0.00000000000E+00 0.  1.
         25    1    1    2    0    0  0.87923357861E+02  0.25684923463E+02  0.24298925628E+02  0.15686194547E+03  0.12500000000E+03 0.  0.
         25    1    1    2    0    0 -0.87923357861E+02 -0.25684923463E+02 -0.13216957342E+03  0.20367628308E+03  0.12500000000E+03 0.  0.
</event>
<event>
 4    0  0.2213671E-002  0.2926914E+03  0.7546771E-02  0.1088952E+00
         21   -1    0    0  502  501  0.00000000000E+00  0.00000000000E+00  0.43215363095E+03  0.43215363095E+03  0.00000000000E+00 0. -1.
         21   -1    0    0  501  502 -0.00000000000E+00 -0.00000000000E+00 -0.19823564790E+03  0.19823564790E+03  0.00000000000E+00 0. -1.
         25    1    1    2    0    0 -0.13660466322E+03 -0.31439281727E+02  0.35870440666E+03  0.40489889331E+03  0.12500000000E+03 0.  0.
         25    1    1    2    0    0  0.13660466322E+03  0.31439281727E+02 -0.12478642361E+03  0.22549038553E+03  0.12500000000E+03 0.  0.
</event>
<event>
 4    0  0.2213671E-002  0.1707419E+03  0.7546771E-02  0.1177076E+00
         21   -1    0    0  502  501  0.00000000000E+00  0.00000000000E+00  0.17961951442E+03  0.17961951442E+03  0.00000000000E+00 0.  1.
         21   -1    0    0  501  502 -0.00000000000E+00 -0.00000000000E+00 -0.16230302179E+03  0.16230302179E+03  0.00000000000E+00 0.  1.
         25    1    1    2    0    0  0.68087168789E+02 -0.32329910551E+02 -0.80037197632E+02  0.16646933254E+03  0.12500000000E+03 0.  0.
         25    1    1    2    0    0 -0.68087168789E+02  0.32329910551E+02  0.97353690262E+02  0.17545320367E+03  0.12500000000E+03 0.  0.
</event>
<event>
 4    0  0.2213671E-002  0.2971952E+03  0.7546771E-02  0.1086651E+00
         21   -1    0    0  502  501  0.00000000000E+00  0.00000000000E+00  0.18775337878E+03  0.18775337878E+03  0.00000000000E+00 0. -1.
         21   -1    0    0  501  502 -0.00000000000E+00 -0.00000000000E+00 -0.47043080432E+03  0.47043080432E+03  0.00000000000E+00 0. -1.
         25    1    1    2    0    0  0.31704716585E+02 -0.11651381210E+03 -0.40829240667E+03  0.44374355974E+03  0.12500000000E+03 0.  0.
         25    1    1    2    0    0 -0.31704716585E+02  0.11651381210E+03  0.12561498114E+03  0.21444062336E+03  0.12500000000E+03 0.  0.
</event>
<event>
 4    0  0.2213671E-002  0.1948737E+03  0.7546771E-02  0.1154138E+00
         21   -1    0    0  502  501  0.00000000000E+00  0.00000000000E+00  0.11078382713E+03  0.11078382713E+03  0.00000000000E+00 0. -1.
         21   -1    0    0  501  502 -0.00000000000E+00 -0.00000000000E+00 -0.34279169142E+03  0.34279169142E+03  0.00000000000E+00 0. -1.
         25    1    1    2    0    0 -0.82563947870E+02 -0.97788965795E+02 -0.20593304300E+03  0.27278728988E+03  0.12500000000E+03 0.  0.
         25    1    1    2    0    0  0.82563947870E+02  0.97788965795E+02 -0.26074821284E+02  0.18078822867E+03  0.12500000000E+03 0.  0.
</event>
<event>
 4    0  0.2213671E-002  0.2741559E+03  0.7546771E-02  0.1098924E+00
         21   -1    0    0  502  501  0.00000000000E+00  0.00000000000E+00  0.22005783947E+03  0.22005783947E+03  0.00000000000E+00 0. -1.
         21   -1    0    0  501  502 -0.00000000000E+00 -0.00000000000E+00 -0.34155316216E+03  0.34155316216E+03  0.00000000000E+00 0. -1.
         25    1    1    2    0    0  0.75100895599E+02  0.39066075202E+02 -0.29514352035E+03  0.33151319786E+03  0.12500000000E+03 0.  0.
         25    1    1    2    0    0 -0.75100895599E+02 -0.39066075202E+02  0.17364819765E+03  0.23009780377E+03  0.12500000000E+03 0.  0.
</event>
<event>
 4    0  0.2213671E-002  0.1795450E+03  0.7546771E-02  0.1168244E+00
         21   -1    0    0  502  501  0.00000000000E+00  0.00000000000E+00  0.13135513158E+04  0.13135513158E+04  0.00000000000E+00 0. -1.
         21   -1    0    0  501  502 -0.00000000000E+00 -0.00000000000E+00 -0.24541413858E+02  0.24541413858E+02  0.00000000000E+00 0. -1.
         25    1    1    2    0    0  0.88257090856E+02  0.64702040331E+02  0.39079216055E+03  0.42464006035E+03  0.12500000000E+03 0.  0.
         25    1    1    2    0    0 -0.88257090856E+02 -0.64702040331E+02  0.89821774139E+03  0.91345266930E+03  0.12500000000E+03 0.  0.
</event>
<event>
 4    0  0.2213671E-002  0.1954090E+03  0.7546771E-02  0.1153671E+00
         21   -1    0    0  502  501  0.00000000000E+00  0.00000000000E+00  0.14552631377E+03  0.14552631377E+03  0.00000000000E+00 0. -1.
         21   -1    0    0  501  502 -0.00000000000E+00 -0.00000000000E+00 -0.26239010021E+03  0.26239010021E+03  0.00000000000E+00 0. -1.
         25    1    1    2    0    0  0.26999596661E+01 -0.13731024079E+03  0.50421445167E+01  0.18577355901E+03  0.12500000000E+03 0.  0.
         25    1    1    2    0    0 -0.26999596661E+01  0.13731024079E+03 -0.12190593096E+03  0.22214285496E+03  0.12500000000E+03 0.  0.
</event>
<event>
 4    0  0.2213671E-002  0.4831782E+03  0.7546771E-02  0.1018265E+00
         21   -1    0    0  502  501  0.00000000000E+00  0.00000000000E+00  0.26868222016E+03  0.26868222016E+03  0.00000000000E+00 0. -1.
         21   -1    0    0  501  502 -0.00000000000E+00 -0.00000000000E+00 -0.86891175972E+03  0.86891175972E+03  0.00000000000E+00 0. -1.
         25    1    1    2    0    0  0.19122069634E+03  0.15694885010E+03 -0.76602080570E+03  0.81462333076E+03  0.12500000000E+03 0.  0.
         25    1    1    2    0    0 -0.19122069634E+03 -0.15694885010E+03  0.16579126614E+03  0.32297064911E+03  0.12500000000E+03 0.  0.
</event>
<event>
 4    0  0.2213671E-002  0.1967541E+03  0.7546771E-02  0.1152507E+00
         21   -1    0    0  502  501  0.00000000000E+00  0.00000000000E+00  0.16668789275E+04  0.16668789275E+04  0.00000000000E+00 0. -1.
         21   -1    0    0  501  502 -0.00000000000E+00 -0.00000000000E+00 -0.23224338156E+02  0.23224338156E+02  0.00000000000E+00 0. -1.
         25    1    1    2    0    0 -0.50607673918E+02  0.48360800786E+02  0.14010467433E+04  0.14083525413E+04  0.12500000000E+03 0.  0.
         25    1    1    2    0    0  0.50607673918E+02 -0.48360800786E+02  0.24260784613E+03  0.28175072443E+03  0.12500000000E+03 0.  0.
</event>
<event>
 4    0  0.2213671E-002  0.1568533E+03  0.7546771E-02  0.1192296E+00
         21   -1    0    0  502  501  0.00000000000E+00  0.00000000000E+00  0.18525174181E+03  0.18525174181E+03  0.00000000000E+00 0. -1.
         21   -1    0    0  501  502 -0.00000000000E+00 -0.00000000000E+00 -0.13280831823E+03  0.13280831823E+03  0.00000000000E+00 0. -1.
         25    1    1    2    0    0 -0.59541620961E+02 -0.54910390068E+02 -0.23629885378E+02  0.15081023522E+03  0.12500000000E+03 0.  0.
         25    1    1    2    0    0  0.59541620961E+02  0.54910390068E+02  0.76073308962E+02  0.16724982481E+03  0.12500000000E+03 0.  0.
</event>
<event>
 4    0  0.2213671E-002  0.1947843E+03  0.7546771E-02  0.1154216E+00
         21   -1    0    0  502  501  0.00000000000E+00  0.00000000000E+00  0.24532027281E+03  0.24532027281E+03  0.00000000000E+00 0.  1.
         21   -1    0    0  501  502 -0.00000000000E+00 -0.00000000000E+00 -0.15465870588E+03  0.15465870588E+03  0.00000000000E+00 0.  1.
         25    1    1    2    0    0 -0.16408423153E+02  0.13585636407E+03  0.10684620891E+03  0.21393293427E+03  0.12500000000E+03 0.  0.
         25    1    1    2    0    0  0.16408423153E+02 -0.13585636407E+03 -0.16184641981E+02  0.18604604442E+03  0.12500000000E+03 0.  0.
</event>
<event>
 4    0  0.2213671E-002  0.1965144E+03  0.7546771E-02  0.1152714E+00
         21   -1    0    0  502  501  0.00000000000E+00  0.00000000000E+00  0.17662604696E+03  0.17662604696E+03  0.00000000000E+00 0.  1.
         21   -1    0    0  501  502 -0.00000000000E+00 -0.00000000000E+00 -0.21864228781E+03  0.21864228781E+03  0.00000000000E+00 0.  1.
         25    1    1    2    0    0  0.11591598395E+03  0.58983020583E+02 -0.99410072142E+02  0.20596813952E+03  0.12500000000E+03 0.  0.
         25    1    1    2    0    0 -0.11591598395E+03 -0.58983020583E+02  0.57393831288E+02  0.18930019525E+03  0.12500000000E+03 0.  0.
</event>
<event>
 4    0  0.2213671E-002  0.1905639E+03  0.7546771E-02  0.1157954E+00
         21   -1    0    0  502  501  0.00000000000E+00  0.00000000000E+00  0.38505047211E+03  0.38505047211E+03  0.00000000000E+00 0. -1.
         21   -1    0    0  501  502 -0.00000000000E+00 -0.00000000000E+00 -0.94311294716E+02  0.94311294716E+02  0.00000000000E+00 0. -1.
         25    1    1    2    0    0 -0.10961429903E+03  0.14667464466E+02  0.29689974049E+02  0.16951968506E+03  0.12500000000E+03 0.  0.
         25    1    1    2    0    0  0.10961429903E+03 -0.14667464466E+02  0.26104920335E+03  0.30984208177E+03  0.12500000000E+03 0.  0.
</event>
<event>
 4    0  0.2213671E-002  0.2347031E+03  0.7546771E-02  0.1123373E+00
         21   -1    0    0  502  501  0.00000000000E+00  0.00000000000E+00  0.20494684112E+03  0.20494684112E+03  0.00000000000E+00 0.  1.
         21   -1    0    0  501  502 -0.00000000000E+00 -0.00000000000E+00 -0.26877972588E+03  0.26877972588E+03  0.00000000000E+00 0.  1.
         25    1    1    2    0    0 -0.48478527764E+02 -0.15460940621E+03  0.84059999278E+02  0.22123589135E+03  0.12500000000E+03 0.  0.
         25    1    1    2    0    0  0.48478527764E+02  0.15460940621E+03 -0.14789288404E+03  0.25249067565E+03  0.12500000000E+03 0.  0.
</event>
<event>
 4    0  0.2213671E-002  0.2108423E+03  0.7546771E-02  0.1140901E+00
         21   -1    0    0  502  501  0.00000000000E+00  0.00000000000E+00  0.70833519811E+02  0.70833519811E+02  0.00000000000E+00 0. -1.
         21   -1    0    0  501  502 -0.00000000000E+00 -0.00000000000E+00 -0.62759067361E+03  0.62759067361E+03  0.00000000000E+00 0. -1.
         25    1    1    2    0    0 -0.18830269546E+02  0.53923666077E+02 -0.13545336305E+02  0.13809712868E+03  0.12500000000E+03 0.  0.
         25    1    1    2    0    0  0.18830269546E+02 -0.53923666077E+02 -0.54321181749E+03  0.56032706474E+03  0.12500000000E+03 0.  0.
</event>
<event>
 4    0  0.2213671E-002  0.1631519E+03  0.7546771E-02  0.1185184E+00
         21   -1    0    0  502  501  0.00000000000E+00  0.00000000000E+00  0.54228447591E+02  0.54228447591E+02  0.00000000000E+00 0. -1.
         21   -1    0    0  501  502 -0.00000000000E+00 -0.00000000000E+00 -0.49085934605E+03  0.49085934605E+03  0.00000000000E+00 0. -1.
         25    1    1    2    0    0 -0.69520419479E-03  0.49565479391E+02 -0.63970654574E+02  0.14890930594E+03  0.12500000000E+03 0.  0.
         25    1    1    2    0    0  0.69520419479E-03 -0.49565479391E+02 -0.37266024389E+03  0.39617848771E+03  0.12500000000E+03 0.  0.
</event>
<event>
 4    0  0.2213671E-002  0.2410455E+03  0.7546771E-02  0.1119098E+00
         21   -1    0    0  502  501  0.00000000000E+00  0.00000000000E+00  0.49378104360E+03  0.49378104360E+03  0.00000000000E+00 0. -1.
         21   -1    0    0  501  502 -0.00000000000E+00 -0.00000000000E+00 -0.11766943353E+03  0.11766943353E+03  0.00000000000E+00 0. -1.
         25    1    1    2    0    0 -0.88371984326E+02  0.18265657907E+03  0.14223937606E+03  0.27754292207E+03  0.12500000000E+03 0.  0.
         25    1    1    2    0    0  0.88371984326E+02 -0.18265657907E+03  0.23387223401E+03  0.33390755507E+03  0.12500000000E+03 0.  0.
</event>
<event>
 4    0  0.2213671E-002  0.3636757E+03  0.7546771E-02  0.1057138E+00
         21   -1    0    0  502  501  0.00000000000E+00  0.00000000000E+00  0.84131832127E+02  0.84131832127E+02  0.00000000000E+00 0. -1.
         21   -1    0    0  501  502 -0.00000000000E+00 -0.00000000000E+00 -0.15720567149E+04  0.15720567149E+04  0.00000000000E+00 0. -1.
         25    1    1    2    0    0 -0.26580036190E+02  0.27617406030E+02 -0.15166915151E+04  0.15223164492E+04  0.12500000000E+03 0.  0.
         25    1    1    2    0    0  0.26580036190E+02 -0.27617406030E+02  0.28766632355E+02  0.13387209783E+03  0.12500000000E+03 0.  0.
</event>
<event>
 4    0  0.2213671E-002  0.2217704E+03  0.7546771E-02  0.1132570E+00
         21   -1    0    0  502  501  0.00000000000E+00  0.00000000000E+00  0.32793818366E+03  0.32793818366E+03  0.00000000000E+00 0.  1.
         21   -1    0    0  501  502 -0.00000000000E+00 -0.00000000000E+00 -0.14997369959E+03  0.14997369959E+03  0.00000000000E+00 0.  1.
         25    1    1    2    0    0  0.10042484291E+03  0.14399662914E+03  0.14535193710E+03  0.25994684821E+03  0.12500000000E+03 0.  0.
         25    1    1    2    0    0 -0.10042484291E+03 -0.14399662914E+03  0.32612546974E+02  0.21796503503E+03  0.12500000000E+03 0.  0.
</event>
<event>
 4    0  0.2213671E-002  0.2032726E+03  0.7546771E-02  0.1147007E+00
         21   -1    0    0  502  501  0.00000000000E+00  0.00000000000E+00  0.64863229433E+03  0.64863229433E+03  0.00000000000E+00 0.  1.
         21   -1    0    0  501  502 -0.00000000000E+00 -0.00000000000E+00 -0.63702888236E+02  0.63702888236E+02  0.00000000000E+00 0.  1.
         25    1    1    2    0    0  0.35118146801E+02  0.61659634154E+02  0.54431127503E+03  0.56296976726E+03  0.12500000000E+03 0.  0.
         25    1    1    2    0    0 -0.35118146801E+02 -0.61659634154E+02  0.40618131058E+02  0.14936541531E+03  0.12500000000E+03 0.  0.
</event>
<event>
 4    0  0.2213671E-002  0.1774131E+03  0.7546771E-02  0.1170330E+00
         21   -1    0    0  502  501  0.00000000000E+00  0.00000000000E+00  0.17250298719E+02  0.17250298719E+02  0.00000000000E+00 0.  1.
         21   -1    0    0  501  502 -0.00000000000E+00 -0.00000000000E+00 -0.18246293142E+04  0.18246293142E+04  0.00000000000E+00 0.  1.
         25    1    1    2    0    0  0.83030848465E+02  0.79857359391E+02 -0.64006965772E+03  0.66225787000E+03  0.12500000000E+03 0.  0.
         25    1    1    2    0    0 -0.83030848465E+02 -0.79857359391E+02 -0.11673093577E+04  0.11796217429E+04  0.12500000000E+03 0.  0.
</event>
<event>
 4    0  0.2213671E-002  0.1920734E+03  0.7546771E-02  0.1156604E+00
         21   -1    0    0  502  501  0.00000000000E+00  0.00000000000E+00  0.37113969725E+02  0.37113969725E+02  0.00000000000E+00 0.  1.
         21   -1    0    0  501  502 -0.00000000000E+00 -0.00000000000E+00 -0.99402421701E+03  0.99402421701E+03  0.00000000000E+00 0.  1.
         25    1    1    2    0    0  0.13883324615E+03  0.43377315161E+02 -0.45018482007E+03  0.48933386754E+03  0.12500000000E+03 0.  0.
         25    1    1    2    0    0 -0.13883324615E+03 -0.43377315161E+02 -0.50672542722E+03  0.54180431920E+03  0.12500000000E+03 0.  0.
</event>
<event>
 4    0  0.2213671E-002  0.1904249E+03  0.7546771E-02  0.1158079E+00
         21   -1    0    0  502  501  0.00000000000E+00  0.00000000000E+00  0.79388993208E+03  0.79388993208E+03  0.00000000000E+00 0. -1.
         21   -1    0    0  501  502 -0.00000000000E+00 -0.00000000000E+00 -0.45675908564E+02  0.45675908564E+02  0.00000000000E+00 0. -1.
         25    1    1    2    0    0 -0.12944608135E+03 -0.61667603345E+02  0.39350904499E+03  0.43707384933E+03  0.12500000000E+03 0.  0.
         25    1    1    2    0    0  0.12944608135E+03  0.61667603345E+02  0.35470497853E+03  0.40249199131E+03  0.12500000000E+03 0.  0.
</event>
<event>
 4    0  0.2213671E-002  0.1793744E+03  0.7546771E-02  0.1168410E+00
         21   -1    0    0  502  501  0.00000000000E+00  0.00000000000E+00  0.92827756172E+03  0.92827756172E+03  0.00000000000E+00 0.  1.
         21   -1    0    0  501  502 -0.00000000000E+00 -0.00000000000E+00 -0.34661146210E+02  0.34661146210E+02  0.00000000000E+00 0.  1.
         25    1    1    2    0    0 -0.11706071136E+03  0.52222491125E+02  0.41743345288E+03  0.45420929791E+03  0.12500000000E+03 0.  0.
         25    1    1    2    0    0  0.11706071136E+03 -0.52222491125E+02  0.47618296263E+03  0.50872941002E+03  0.12500000000E+03 0.  0.
</event>
<event>
 4    0  0.2213671E-002  0.2708924E+03  0.7546771E-02  0.1100770E+00
         21   -1    0    0  502  501  0.00000000000E+00  0.00000000000E+00  0.26728039587E+03  0.26728039587E+03  0.00000000000E+00 0.  1.
         21   -1    0    0  501  502 -0.00000000000E+00 -0.00000000000E+00 -0.27455319986E+03  0.27455319986E+03  0.00000000000E+00 0.  1.
         25    1    1    2    0    0  0.20332666611E+03  0.59403260570E+02 -0.11716846653E+03  0.27244069092E+03  0.12500000000E+03 0.  0.
         25    1    1    2    0    0 -0.20332666611E+03 -0.59403260570E+02  0.10989566254E+03  0.26939290481E+03  0.12500000000E+03 0.  0.
</event>
<event>
 4    0  0.2213671E-002  0.3160067E+03  0.7546771E-02  0.1077502E+00
         21   -1    0    0  502  501  0.00000000000E+00  0.00000000000E+00  0.19925494789E+03  0.19925494789E+03  0.00000000000E+00 0.  1.
         21   -1    0    0  501  502 -0.00000000000E+00 -0.00000000000E+00 -0.50116805715E+03  0.50116805715E+03  0.00000000000E+00 0.  1.
         25    1    1    2    0    0 -0.14948838186E+03 -0.40342279044E+02  0.12109556004E+03  0.23294508033E+03  0.12500000000E+03 0.  0.
         25    1    1    2    0    0  0.14948838186E+03  0.40342279044E+02 -0.42300866929E+03  0.46747792471E+03  0.12500000000E+03 0.  0.
</event>
<event>
 4    0  0.2213671E-002  0.1876325E+03  0.7546771E-02  0.1160614E+00
         21   -1    0    0  502  501  0.00000000000E+00  0.00000000000E+00  0.18526506537E+02  0.18526506537E+02  0.00000000000E+00 0. -1.
         21   -1    0    0  501  502 -0.00000000000E+00 -0.00000000000E+00 -0.19003024990E+04  0.19003024990E+04  0.00000000000E+00 0. -1.
         25    1    1    2    0    0 -0.44046915782E+02 -0.13274053104E+03 -0.96420094299E+03  0.98227727136E+03  0.12500000000E+03 0.  0.
         25    1    1    2    0    0  0.44046915782E+02  0.13274053104E+03 -0.91757504950E+03  0.93655173420E+03  0.12500000000E+03 0.  0.
</event>
<event>
 4    0  0.2213671E-002  0.3123395E+03  0.7546771E-02  0.1079230E+00
         21   -1    0    0  502  501  0.00000000000E+00  0.00000000000E+00  0.10927449176E+03  0.10927449176E+03  0.00000000000E+00 0.  1.
         21   -1    0    0  501  502 -0.00000000000E+00 -0.00000000000E+00 -0.89276034137E+03  0.89276034137E+03  0.00000000000E+00 0.  1.
         25    1    1    2    0    0  0.25892716277E+03  0.35317853025E+02 -0.20439967885E+03  0.35453470222E+03  0.12500000000E+03 0.  0.
         25    1    1    2    0    0 -0.25892716277E+03 -0.35317853025E+02 -0.57908617076E+03  0.64750013091E+03  0.12500000000E+03 0.  0.
</event>
<event>
 4    0  0.2213671E-002  0.1953150E+03  0.7546771E-02  0.1153753E+00
         21   -1    0    0  502  501  0.00000000000E+00  0.00000000000E+00  0.62054194129E+02  0.62054194129E+02  0.00000000000E+00 0.  1.
         21   -1    0    0  501  502 -0.00000000000E+00 -0.00000000000E+00 -0.61475230021E+03  0.61475230021E+03  0.00000000000E+00 0.  1.
         25    1    1    2    0    0  0.12644136956E+03  0.74673191455E+02 -0.22268162903E+03  0.29457700753E+03  0.12500000000E+03 0.  0.
         25    1    1    2    0    0 -0.12644136956E+03 -0.74673191455E+02 -0.33001647705E+03  0.38222948681E+03  0.12500000000E+03 0.  0.
</event>
<event>
 4    0  0.2213671E-002  0.1979750E+03  0.7546771E-02  0.1151459E+00
         21   -1    0    0  502  501  0.00000000000E+00  0.00000000000E+00  0.29939331178E+03  0.29939331178E+03  0.00000000000E+00 0. -1.
         21   -1    0    0  501  502 -0.00000000000E+00 -0.00000000000E+00 -0.13091172135E+03  0.13091172135E+03  0.00000000000E+00 0. -1.
         25    1    1    2    0    0  0.76974131415E+02  0.11860924849E+03  0.14922835051E+03  0.24059773758E+03  0.12500000000E+03 0.  0.
         25    1    1    2    0    0 -0.76974131415E+02 -0.11860924849E+03  0.19253239925E+02  0.18970729554E+03  0.12500000000E+03 0.  0.
</event>
<event>
 4    0  0.2213671E-002  0.4531278E+03  0.7546771E-02  0.1026793E+00
         21   -1    0    0  502  501  0.00000000000E+00  0.00000000000E+00  0.40577012233E+03  0.40577012233E+03  0.00000000000E+00 0. -1.
         21   -1    0    0  501  502 -0.00000000000E+00 -0.00000000000E+00 -0.50601256652E+03  0.50601256652E+03  0.00000000000E+00 0.  1.
         25    1    1    2    0    0  0.14811297621E+03 -0.39032515029E+03 -0.17500968330E+03  0.46962172641E+03  0.12500000000E+03 0.  0.
         25    1    1    2    0    0 -0.14811297621E+03  0.39032515029E+03  0.74767239100E+02  0.44216096244E+03  0.12500000000E+03 0.  0.
</event>
<event>
 4    0  0.2213671E-002  0.2582290E+03  0.7546771E-02  0.1108212E+00
         21   -1    0    0  502  501  0.00000000000E+00  0.00000000000E+00  0.11088307298E+03  0.11088307298E+03  0.00000000000E+00 0.  1.
         21   -1    0    0  501  502 -0.00000000000E+00 -0.00000000000E+00 -0.60137416928E+03  0.60137416928E+03  0.00000000000E+00 0.  1.
         25    1    1    2    0    0  0.17785909293E+03  0.12140224969E+03 -0.33964073237E+03  0.42113322150E+03  0.12500000000E+03 0.  0.
         25    1    1    2    0    0 -0.17785909293E+03 -0.12140224969E+03 -0.15085036393E+03  0.29112402076E+03  0.12500000000E+03 0.  0.
</event>
<event>
 4    0  0.2213671E-002  0.1941882E+03  0.7546771E-02  0.1154737E+00
         21   -1    0    0  502  501  0.00000000000E+00  0.00000000000E+00  0.30223946153E+02  0.30223946153E+02  0.00000000000E+00 0.  1.
         21   -1    0    0  501  502 -0.00000000000E+00 -0.00000000000E+00 -0.12476545509E+04  0.12476545509E+04  0.00000000000E+00 0.  1.
         25    1    1    2    0    0 -0.85521005404E+02 -0.84851004639E+02 -0.89500079083E+03  0.91168248362E+03  0.12500000000E+03 0.  0.
         25    1    1    2    0    0  0.85521005404E+02  0.84851004639E+02 -0.32242981394E+03  0.36619601346E+03  0.12500000000E+03 0.  0.
</event>
<event>
 4    0  0.2213671E-002  0.2012284E+03  0.7546771E-02  0.1148707E+00
         21   -1    0    0  502  501  0.00000000000E+00  0.00000000000E+00  0.39606638932E+03  0.39606638932E+03  0.00000000000E+00 0.  1.
         21   -1    0    0  501  502 -0.00000000000E+00 -0.00000000000E+00 -0.10223756037E+03  0.10223756037E+03  0.00000000000E+00 0.  1.
         25    1    1    2    0    0  0.13201384315E+03 -0.68611621400E+02  0.21163870011E+03  0.28731715709E+03  0.12500000000E+03 0.  0.
         25    1    1    2    0    0 -0.13201384315E+03  0.68611621400E+02  0.82190128832E+02  0.21098679260E+03  0.12500000000E+03 0.  0.
</event>
<event>
 4    0  0.2213671E-002  0.1448837E+03  0.7546771E-02  0.1206905E+00
         21   -1    0    0  502  501  0.00000000000E+00  0.00000000000E+00  0.18357902187E+02  0.18357902187E+02  0.00000000000E+00 0. -1.
         21   -1    0    0  501  502 -0.00000000000E+00 -0.00000000000E+00 -0.11434461443E+04  0.11434461443E+04  0.00000000000E+00 0. -1.
         25    1    1    2    0    0  0.51137297282E+02 -0.47705157467E+02 -0.47511747639E+03  0.49623827099E+03  0.12500000000E+03 0.  0.
         25    1    1    2    0    0 -0.51137297282E+02  0.47705157467E+02 -0.64997076577E+03  0.66556577554E+03  0.12500000000E+03 0.  0.
</event>
<event>
 4    0  0.2213671E-002  0.2663917E+03  0.7546771E-02  0.1103363E+00
         21   -1    0    0  502  501  0.00000000000E+00  0.00000000000E+00  0.48805764634E+02  0.48805764634E+02  0.00000000000E+00 0.  1.
         21   -1    0    0  501  502 -0.00000000000E+00 -0.00000000000E+00 -0.14540191176E+04  0.14540191176E+04  0.00000000000E+00 0.  1.
         25    1    1    2    0    0 -0.15888084119E+03  0.15971690090E+03 -0.51156961862E+03  0.57278362828E+03  0.12500000000E+03 0.  0.
         25    1    1    2    0    0  0.15888084119E+03 -0.15971690090E+03 -0.89364373439E+03  0.93004125400E+03  0.12500000000E+03 0.  0.
</event>
<event>
 4    0  0.2213671E-002  0.1881866E+03  0.7546771E-02  0.1160107E+00
         21   -1    0    0  502  501  0.00000000000E+00  0.00000000000E+00  0.20907350327E+03  0.20907350327E+03  0.00000000000E+00 0.  1.
         21   -1    0    0  501  502 -0.00000000000E+00 -0.00000000000E+00 -0.16938636615E+03  0.16938636615E+03  0.00000000000E+00 0.  1.
         25    1    1    2    0    0  0.10421714289E+03 -0.48340970694E+02  0.10147949763E+03  0.19779067410E+03  0.12500000000E+03 0.  0.
         25    1    1    2    0    0 -0.10421714289E+03  0.48340970694E+02 -0.61792360510E+02  0.18066919532E+03  0.12500000000E+03 0.  0.
</event>
<event>
 4    0  0.2213671E-002  0.2970171E+03  0.7546771E-02  0.1086741E+00
         21   -1    0    0  502  501  0.00000000000E+00  0.00000000000E+00  0.14595119262E+03  0.14595119262E+03  0.00000000000E+00 0.  1.
         21   -1    0    0  501  502 -0.00000000000E+00 -0.00000000000E+00 -0.60444295007E+03  0.60444295007E+03  0.00000000000E+00 0.  1.
         25    1    1    2    0    0  0.26317031340E+03  0.53728109794E+01 -0.15660608562E+03  0.33081406712E+03  0.12500000000E+03 0.  0.
         25    1    1    2    0    0 -0.26317031340E+03 -0.53728109794E+01 -0.30188567184E+03  0.41958007557E+03  0.12500000000E+03 0.  0.
</event>
<event>
 4    0  0.2213671E-002  0.2261229E+03  0.7546771E-02  0.1129399E+00
         21   -1    0    0  502  501  0.00000000000E+00  0.00000000000E+00  0.13017807523E+03  0.13017807523E+03  0.00000000000E+00 0.  1.
         21   -1    0    0  501  502 -0.00000000000E+00 -0.00000000000E+00 -0.39278170887E+03  0.39278170887E+03  0.00000000000E+00 0.  1.
         25    1    1    2    0    0  0.84981924626E+02  0.16712953851E+03 -0.10959555642E+03  0.25058011921E+03  0.12500000000E+03 0.  0.
         25    1    1    2    0    0 -0.84981924626E+02 -0.16712953851E+03 -0.15300807722E+03  0.27237966490E+03  0.12500000000E+03 0.  0.
</event>
<event>
 4    0  0.2213671E-002  0.3822505E+03  0.7546771E-02  0.1050105E+00
         21   -1    0    0  502  501  0.00000000000E+00  0.00000000000E+00  0.15020271635E+04  0.15020271635E+04  0.00000000000E+00 0.  1.
         21   -1    0    0  501  502 -0.00000000000E+00 -0.00000000000E+00 -0.97278854285E+02  0.97278854285E+02  0.00000000000E+00 0.  1.
         25    1    1    2    0    0 -0.23792886427E+03  0.54537550089E+02  0.12594251182E+04  0.12889379803E+04  0.12500000000E+03 0.  0.
         25    1    1    2    0    0  0.23792886427E+03 -0.54537550089E+02  0.14532319103E+03  0.31036803745E+03  0.12500000000E+03 0.  0.
</event>
<event>
 4    0  0.2213671E-002  0.1865782E+03  0.7546771E-02  0.1161584E+00
         21   -1    0    0  502  501  0.00000000000E+00  0.00000000000E+00  0.84832349807E+02  0.84832349807E+02  0.00000000000E+00 0.  1.
         21   -1    0    0  501  502 -0.00000000000E+00 -0.00000000000E+00 -0.41035562617E+03  0.41035562617E+03  0.00000000000E+00 0.  1.
         25    1    1    2    0    0  0.22282686381E+02  0.13639477562E+03 -0.15042821948E+03  0.23948632976E+03  0.12500000000E+03 0.  0.
         25    1    1    2    0    0 -0.22282686381E+02 -0.13639477562E+03 -0.17509505688E+03  0.25570164621E+03  0.12500000000E+03 0.  0.
</event>
<event>
 4    0  0.2213671E-002  0.1681432E+03  0.7546771E-02  0.1179798E+00
         21   -1    0    0  502  501  0.00000000000E+00  0.00000000000E+00  0.53042986870E+03  0.53042986870E+03  0.00000000000E+00 0.  1.
         21   -1    0    0  501  502 -0.00000000000E+00 -0.00000000000E+00 -0.53300409017E+02  0.53300409017E+02  0.00000000000E+00 0.  1.
         25    1    1    2    0    0 -0.88898722098E+02 -0.68541127533E+02  0.22675864784E+03  0.28221508345E+03  0.12500000000E+03 0.  0.
         25    1    1    2    0    0  0.88898722098E+02  0.68541127533E+02  0.25037081184E+03  0.30151519427E+03  0.12500000000E+03 0.  0.
</event>
<event>
 4    0  0.2213671E-002  0.1876120E+03  0.7546771E-02  0.1160633E+00
         21   -1    0    0  502  501  0.00000000000E+00  0.00000000000E+00  0.88956570976E+03  0.88956570976E+03  0.00000000000E+00 0.  1.
         21   -1    0    0  501  502 -0.00000000000E+00 -0.00000000000E+00 -0.39567934721E+02  0.39567934721E+02  0.00000000000E+00 0.  1.
         25    1    1    2    0    0 -0.10204593893E+03  0.45357752054E+02  0.21631183401E+03  0.27365399477E+03  0.12500000000E+03 0.  0.
         25    1    1    2    0    0  0.10204593893E+03 -0.45357752054E+02  0.63368594103E+03  0.65547964971E+03  0.12500000000E+03 0.  0.
</event>
<event>
 4    0  0.2213671E-002  0.2604738E+03  0.7546771E-02  0.1106859E+00
         21   -1    0    0  502  501  0.00000000000E+00  0.00000000000E+00  0.29812767381E+03  0.29812767381E+03  0.00000000000E+00 0.  1.
         21   -1    0    0  501  502 -0.00000000000E+00 -0.00000000000E+00 -0.22757565035E+03  0.22757565035E+03  0.00000000000E+00 0.  1.
         25    1    1    2    0    0  0.19922420748E+03 -0.11128603523E+03  0.47499924662E+02  0.26449217252E+03  0.12500000000E+03 0.  0.
         25    1    1    2    0    0 -0.19922420748E+03  0.11128603523E+03  0.23052098806E+02  0.26121115164E+03  0.12500000000E+03 0.  0.
</event>
<event>
 4    0  0.2213671E-002  0.2343535E+03  0.7546771E-02  0.1123613E+00
         21   -1    0    0  502  501  0.00000000000E+00  0.00000000000E+00  0.16201000116E+03  0.16201000116E+03  0.00000000000E+00 0.  1.
         21   -1    0    0  501  502 -0.00000000000E+00 -0.00000000000E+00 -0.33900103395E+03  0.33900103395E+03  0.00000000000E+00 0.  1.
         25    1    1    2    0    0  0.15360048663E+03  0.70951808343E+02 -0.19890684038E+03  0.28951027572E+03  0.12500000000E+03 0.  0.
         25    1    1    2    0    0 -0.15360048663E+03 -0.70951808343E+02  0.21915807578E+02  0.21150075939E+03  0.12500000000E+03 0.  0.
</event>
<event>
 4    0  0.2213671E-002  0.2180627E+03  0.7546771E-02  0.1135336E+00
         21   -1    0    0  502  501  0.00000000000E+00  0.00000000000E+00  0.96715852174E+03  0.96715852174E+03  0.00000000000E+00 0. -1.
         21   -1    0    0  501  502 -0.00000000000E+00 -0.00000000000E+00 -0.49166016430E+02  0.49166016430E+02  0.00000000000E+00 0. -1.
         25    1    1    2    0    0 -0.30311523116E+02  0.17162003533E+03  0.36712883576E+03  0.42518326285E+03  0.12500000000E+03 0.  0.
         25    1    1    2    0    0  0.30311523116E+02 -0.17162003533E+03  0.55086366955E+03  0.59114127532E+03  0.12500000000E+03 0.  0.
</event>
<event>
 4    0  0.2213671E-002  0.1869949E+03  0.7546771E-02  0.1161200E+00
         21   -1    0    0  502  501  0.00000000000E+00  0.00000000000E+00  0.20663924174E+04  0.20663924174E+04  0.00000000000E+00 0. -1.
         21   -1    0    0  501  502 -0.00000000000E+00 -0.00000000000E+00 -0.16921810911E+02  0.16921810911E+02  0.00000000000E+00 0. -1.
         25    1    1    2    0    0 -0.10628233285E+03  0.33711445706E+02  0.14877819539E+04  0.14971815315E+04  0.12500000000E+03 0.  0.
         25    1    1    2    0    0  0.10628233285E+03 -0.33711445706E+02  0.56168865259E+03  0.58613269683E+03  0.12500000000E+03 0.  0.
</event>
<event>
 4    0  0.2213671E-002  0.2771411E+03  0.7546771E-02  0.1097261E+00
         21   -1    0    0  502  501  0.00000000000E+00  0.00000000000E+00  0.12208877121E+03  0.12208877121E+03  0.00000000000E+00 0. -1.
         21   -1    0    0  501  502 -0.00000000000E+00 -0.00000000000E+00 -0.62910934151E+03  0.62910934151E+03  0.00000000000E+00 0.  1.
         25    1    1    2    0    0 -0.26014217334E+02 -0.24146888699E+03 -0.31705208242E+03  0.41848654203E+03  0.12500000000E+03 0.  0.
         25    1    1    2    0    0  0.26014217334E+02  0.24146888699E+03 -0.18996848787E+03  0.33271157069E+03  0.12500000000E+03 0.  0.
</event>
<event>
 4    0  0.2213671E-002  0.2376447E+03  0.7546771E-02  0.1121372E+00
         21   -1    0    0  502  501  0.00000000000E+00  0.00000000000E+00  0.16475042774E+03  0.16475042774E+03  0.00000000000E+00 0.  1.
         21   -1    0    0  501  502 -0.00000000000E+00 -0.00000000000E+00 -0.34279111628E+03  0.34279111628E+03  0.00000000000E+00 0.  1.
         25    1    1    2    0    0  0.60653345787E+02 -0.11789265631E+03 -0.25192550562E+03  0.31091633465E+03  0.12500000000E+03 0.  0.
         25    1    1    2    0    0 -0.60653345787E+02  0.11789265631E+03  0.73884817081E+02  0.19662520938E+03  0.12500000000E+03 0.  0.
</event>
<event>
 4    0  0.2213671E-002  0.3542111E+03  0.7546771E-02  0.1060900E+00
         21   -1    0    0  502  501  0.00000000000E+00  0.00000000000E+00  0.28439503194E+03  0.28439503194E+03  0.00000000000E+00 0.  1.
         21   -1    0    0  501  502 -0.00000000000E+00 -0.00000000000E+00 -0.44116641779E+03  0.44116641779E+03  0.00000000000E+00 0.  1.
         25    1    1    2    0    0  0.27808223251E+03 -0.12992929815E+03  0.49655635465E+02  0.33511495444E+03  0.12500000000E+03 0.  0.
         25    1    1    2    0    0 -0.27808223251E+03  0.12992929815E+03 -0.20642702131E+03  0.39044649529E+03  0.12500000000E+03 0.  0.
</event>
<event>
 4    0  0.2213671E-002  0.1846560E+03  0.7546771E-02  0.1163371E+00
         21   -1    0    0  502  501  0.00000000000E+00  0.00000000000E+00  0.15431348429E+02  0.15431348429E+02  0.00000000000E+00 0. -1.
         21   -1    0    0  501  502 -0.00000000000E+00 -0.00000000000E+00 -0.22096479136E+04  0.22096479136E+04  0.00000000000E+00 0. -1.
         25    1    1    2    0    0  0.91318519651E+02 -0.39988683406E+02 -0.54050516528E+03  0.56365681095E+03  0.12500000000E+03 0.  0.
         25    1    1    2    0    0 -0.91318519651E+02  0.39988683406E+02 -0.16537113998E+04  0.16614224510E+04  0.12500000000E+03 0.  0.
</event>
<event>
 4    0  0.2213671E-002  0.2251724E+03  0.7546771E-02  0.1130085E+00
         21   -1    0    0  502  501  0.00000000000E+00  0.00000000000E+00  0.11952630607E+03  0.11952630607E+03  0.00000000000E+00 0. -1.
         21   -1    0    0  501  502 -0.00000000000E+00 -0.00000000000E+00 -0.42419631343E+03  0.42419631343E+03  0.00000000000E+00 0. -1.
         25    1    1    2    0    0  0.10467487697E+03  0.12865657655E+03 -0.25736917893E+03  0.33071625122E+03  0.12500000000E+03 0.  0.
         25    1    1    2    0    0 -0.10467487697E+03 -0.12865657655E+03 -0.47300828429E+02  0.21300636828E+03  0.12500000000E+03 0.  0.
</event>
<event>
 4    0  0.2213671E-002  0.2508583E+03  0.7546771E-02  0.1112764E+00
         21   -1    0    0  502  501  0.00000000000E+00  0.00000000000E+00  0.87857268898E+03  0.87857268898E+03  0.00000000000E+00 0.  1.
         21   -1    0    0  501  502 -0.00000000000E+00 -0.00000000000E+00 -0.71627390709E+02  0.71627390709E+02  0.00000000000E+00 0.  1.
         25    1    1    2    0    0 -0.19432572721E+03  0.61404126170E+02  0.54735800289E+03  0.59729284132E+03  0.12500000000E+03 0.  0.
         25    1    1    2    0    0  0.19432572721E+03 -0.61404126170E+02  0.25958729538E+03  0.35290723837E+03  0.12500000000E+03 0.  0.
</event>
<event>
 4    0  0.2213671E-002  0.3152742E+03  0.7546771E-02  0.1077845E+00
         21   -1    0    0  502  501  0.00000000000E+00  0.00000000000E+00  0.22976711601E+04  0.22976711601E+04  0.00000000000E+00 0.  1.
         21   -1    0    0  501  502 -0.00000000000E+00 -0.00000000000E+00 -0.43260258330E+02  0.43260258330E+02  0.00000000000E+00 0.  1.
         25    1    1    2    0    0  0.85198986498E+01  0.27661839441E+03  0.14418416745E+04  0.14734730195E+04  0.12500000000E+03 0.  0.
         25    1    1    2    0    0 -0.85198986498E+01 -0.27661839441E+03  0.81256922720E+03  0.86745839889E+03  0.12500000000E+03 0.  0.
</event>
<event>
 4    0  0.2213671E-002  0.1956167E+03  0.7546771E-02  0.1153491E+00
         21   -1    0    0  502  501  0.00000000000E+00  0.00000000000E+00  0.11808765773E+03  0.11808765773E+03  0.00000000000E+00 0.  1.
         21   -1    0    0  501  502 -0.00000000000E+00 -0.00000000000E+00 -0.32404649418E+03  0.32404649418E+03  0.00000000000E+00 0.  1.
         25    1    1    2    0    0 -0.59931483928E+02 -0.24500679517E+02 -0.25647734349E+03  0.29257083550E+03  0.12500000000E+03 0.  0.
         25    1    1    2    0    0  0.59931483928E+02  0.24500679517E+02  0.50518507035E+02  0.14956331641E+03  0.12500000000E+03 0.  0.
</event>
<event>
 4    0  0.2213671E-002  0.2502784E+03  0.7546771E-02  0.1113129E+00
         21   -1    0    0  502  501  0.00000000000E+00  0.00000000000E+00  0.10443967141E+04  0.10443967141E+04  0.00000000000E+00 0.  1.
         21   -1    0    0  501  502 -0.00000000000E+00 -0.00000000000E+00 -0.59976528292E+02  0.59976528292E+02  0.00000000000E+00 0.  1.
         25    1    1    2    0    0 -0.12734115985E+03 -0.92379297723E+02  0.16300256544E+03  0.25873643342E+03  0.12500000000E+03 0.  0.
         25    1    1    2    0    0  0.12734115985E+03  0.92379297723E+02  0.82141762037E+03  0.84563680897E+03  0.12500000000E+03 0.  0.
</event>
<event>
 4    0  0.2213671E-002  0.1528867E+03  0.7546771E-02  0.1196970E+00
         21   -1    0    0  502  501  0.00000000000E+00  0.00000000000E+00  0.89052260326E+02  0.89052260326E+02  0.00000000000E+00 0.  1.
         21   -1    0    0  501  502 -0.00000000000E+00 -0.00000000000E+00 -0.26247903009E+03  0.26247903009E+03  0.00000000000E+00 0.  1.
         25    1    1    2    0    0 -0.55396342461E+02 -0.82472960941E+01 -0.16479271650E+03  0.21428581862E+03  0.12500000000E+03 0.  0.
         25    1    1    2    0    0  0.55396342461E+02  0.82472960941E+01 -0.86340532590E+01  0.13724547179E+03  0.12500000000E+03 0.  0.
</event>
<event>
 4    0  0.2213671E-002  0.2308266E+03  0.7546771E-02  0.1126059E+00
         21   -1    0    0  502  501  0.00000000000E+00  0.00000000000E+00  0.42930274006E+03  0.42930274006E+03  0.00000000000E+00 0. -1.
         21   -1    0    0  501  502 -0.00000000000E+00 -0.00000000000E+00 -0.12411040417E+03  0.12411040417E+03  0.00000000000E+00 0. -1.
         25    1    1    2    0    0 -0.55453919422E+02 -0.10627215168E+03 -0.30336215469E+02  0.17582432531E+03  0.12500000000E+03 0.  0.
         25    1    1    2    0    0  0.55453919422E+02  0.10627215168E+03  0.33552855136E+03  0.37758881893E+03  0.12500000000E+03 0.  0.
</event>
<event>
 4    0  0.2213671E-002  0.2074321E+03  0.7546771E-02  0.1143616E+00
         21   -1    0    0  502  501  0.00000000000E+00  0.00000000000E+00  0.24071434780E+03  0.24071434780E+03  0.00000000000E+00 0. -1.
         21   -1    0    0  501  502 -0.00000000000E+00 -0.00000000000E+00 -0.17875166567E+03  0.17875166567E+03  0.00000000000E+00 0. -1.
         25    1    1    2    0    0 -0.26775941113E+02 -0.13350259428E+03  0.12617016142E+03  0.22379410925E+03  0.12500000000E+03 0.  0.
         25    1    1    2    0    0  0.26775941113E+02  0.13350259428E+03 -0.64207479292E+02  0.19567190421E+03  0.12500000000E+03 0.  0.
</event>
<event>
 4    0  0.2213671E-002  0.2544169E+03  0.7546771E-02  0.1110545E+00
         21   -1    0    0  502  501  0.00000000000E+00  0.00000000000E+00  0.14813995660E+04  0.14813995660E+04  0.00000000000E+00 0. -1.
         21   -1    0    0  501  502 -0.00000000000E+00 -0.00000000000E+00 -0.43693801555E+02  0.43693801555E+02  0.00000000000E+00 0. -1.
         25    1    1    2    0    0  0.10139144507E+03 -0.15810654085E+03  0.36643805974E+03  0.43032517358E+03  0.12500000000E+03 0.  0.
         25    1    1    2    0    0 -0.10139144507E+03  0.15810654085E+03  0.10712677047E+04  0.10947681940E+04  0.12500000000E+03 0.  0.
</event>
<event>
 4    0  0.2213671E-002  0.2096557E+03  0.7546771E-02  0.1141839E+00
         21   -1    0    0  502  501  0.00000000000E+00  0.00000000000E+00  0.10276696307E+03  0.10276696307E+03  0.00000000000E+00 0. -1.
         21   -1    0    0  501  502 -0.00000000000E+00 -0.00000000000E+00 -0.42772025129E+03  0.42772025129E+03  0.00000000000E+00 0. -1.
         25    1    1    2    0    0 -0.13403226225E+03 -0.87463204254E+02 -0.22841031949E+03  0.30563169579E+03  0.12500000000E+03 0.  0.
         25    1    1    2    0    0  0.13403226225E+03  0.87463204254E+02 -0.96542968728E+02  0.22485551857E+03  0.12500000000E+03 0.  0.
</event>
<event>
 4    0  0.2213671E-002  0.2597153E+03  0.7546771E-02  0.1107314E+00
         21   -1    0    0  502  501  0.00000000000E+00  0.00000000000E+00  0.37368370766E+03  0.37368370766E+03  0.00000000000E+00 0. -1.
         21   -1    0    0  501  502 -0.00000000000E+00 -0.00000000000E+00 -0.18050571864E+03  0.18050571864E+03  0.00000000000E+00 0. -1.
         25    1    1    2    0    0 -0.14411132883E+03  0.15636623661E+03  0.18332201287E+03  0.30732789566E+03  0.12500000000E+03 0.  0.
         25    1    1    2    0    0  0.14411132883E+03 -0.15636623661E+03  0.98559761420E+01  0.24686153065E+03  0.12500000000E+03 0.  0.
</event>
<event>
 4    0  0.2213671E-002  0.2203555E+03  0.7546771E-02  0.1133618E+00
         21   -1    0    0  502  501  0.00000000000E+00  0.00000000000E+00  0.11371985571E+03  0.11371985571E+03  0.00000000000E+00 0. -1.
         21   -1    0    0  501  502 -0.00000000000E+00 -0.00000000000E+00 -0.42698388284E+03  0.42698388284E+03  0.00000000000E+00 0. -1.
         25    1    1    2    0    0  0.11501212201E+03 -0.11635462974E+03 -0.25296712784E+03  0.32616492122E+03  0.12500000000E+03 0.  0.
         25    1    1    2    0    0 -0.11501212201E+03  0.11635462974E+03 -0.60296899293E+02  0.21453881732E+03  0.12500000000E+03 0.  0.
</event>
<event>
 4    0  0.2213671E-002  0.3342802E+03  0.7546771E-02  0.1069259E+00
         21   -1    0    0  502  501  0.00000000000E+00  0.00000000000E+00  0.53930429755E+02  0.53930429755E+02  0.00000000000E+00 0.  1.
         21   -1    0    0  501  502 -0.00000000000E+00 -0.00000000000E+00 -0.20719884688E+04  0.20719884688E+04  0.00000000000E+00 0.  1.
         25    1    1    2    0    0  0.20085759287E+03  0.19298612466E+03 -0.14418948554E+04  0.14738633556E+04  0.12500000000E+03 0.  0.
         25    1    1    2    0    0 -0.20085759287E+03 -0.19298612466E+03 -0.57616318366E+03  0.65205554298E+03  0.12500000000E+03 0.  0.
</event>
<event>
 4    0  0.2213671E-002  0.2684665E+03  0.7546771E-02  0.1102160E+00
         21   -1    0    0  502  501  0.00000000000E+00  0.00000000000E+00  0.19344608853E+03  0.19344608853E+03  0.00000000000E+00 0.  1.
         21   -1    0    0  501  502 -0.00000000000E+00 -0.00000000000E+00 -0.37258066141E+03  0.37258066141E+03  0.00000000000E+00 0.  1.
         25    1    1    2    0    0  0.22132618811E+03 -0.80805632921E+02 -0.57342319351E+02  0.27281490693E+03  0.12500000000E+03 0.  0.
         25    1    1    2    0    0 -0.22132618811E+03  0.80805632921E+02 -0.12179225353E+03  0.29321184300E+03  0.12500000000E+03 0.  0.
</event>
<event>
 4    0  0.2213671E-002  0.3082245E+03  0.7546771E-02  0.1081200E+00
         21   -1    0    0  502  501  0.00000000000E+00  0.00000000000E+00  0.99204356765E+02  0.99204356765E+02  0.00000000000E+00 0.  1.
         21   -1    0    0  501  502 -0.00000000000E+00 -0.00000000000E+00 -0.95764258871E+03  0.95764258871E+03  0.00000000000E+00 0.  1.
         25    1    1    2    0    0 -0.23620936337E+02 -0.12706906272E+02 -0.91004316788E+03  0.91897931506E+03  0.12500000000E+03 0.  0.
         25    1    1    2    0    0  0.23620936337E+02  0.12706906272E+02  0.51604935945E+02  0.13786763041E+03  0.12500000000E+03 0.  0.
</event>
<event>
 4    0  0.2213671E-002  0.2057712E+03  0.7546771E-02  0.1144959E+00
         21   -1    0    0  502  501  0.00000000000E+00  0.00000000000E+00  0.55341904404E+02  0.55341904404E+02  0.00000000000E+00 0. -1.
         21   -1    0    0  501  502 -0.00000000000E+00 -0.00000000000E+00 -0.76509450089E+03  0.76509450089E+03  0.00000000000E+00 0.  1.
         25    1    1    2    0    0  0.43552893172E+02  0.12174947157E+03 -0.55420284759E+03  0.58265391496E+03  0.12500000000E+03 0.  0.
         25    1    1    2    0    0 -0.43552893172E+02 -0.12174947157E+03 -0.15554974889E+03  0.23778249034E+03  0.12500000000E+03 0.  0.
</event>
<event>
 4    0  0.2213671E-002  0.1827714E+03  0.7546771E-02  0.1165148E+00
         21   -1    0    0  502  501  0.00000000000E+00  0.00000000000E+00  0.82637571782E+02  0.82637571782E+02  0.00000000000E+00 0.  1.
         21   -1    0    0  501  502 -0.00000000000E+00 -0.00000000000E+00 -0.40423945236E+03  0.40423945236E+03  0.00000000000E+00 0.  1.
         25    1    1    2    0    0 -0.67201016402E+02 -0.18802242281E+02 -0.94591570427E+01  0.14347116983E+03  0.12500000000E+03 0.  0.
         25    1    1    2    0    0  0.67201016402E+02  0.18802242281E+02 -0.31214272354E+03  0.34340585432E+03  0.12500000000E+03 0.  0.
</event>
<event>
 4    0  0.2213671E-002  0.1883193E+03  0.7546771E-02  0.1159986E+00
         21   -1    0    0  502  501  0.00000000000E+00  0.00000000000E+00  0.28525260768E+03  0.28525260768E+03  0.00000000000E+00 0. -1.
         21   -1    0    0  501  502 -0.00000000000E+00 -0.00000000000E+00 -0.12432548744E+03  0.12432548744E+03  0.00000000000E+00 0. -1.
         25    1    1    2    0    0 -0.40224923819E+02 -0.13479506142E+03  0.88261191838E+02  0.20785281106E+03  0.12500000000E+03 0.  0.
         25    1    1    2    0    0  0.40224923819E+02  0.13479506142E+03  0.72665928405E+02  0.20172528406E+03  0.12500000000E+03 0.  0.
</event>
<event>
 4    0  0.2213671E-002  0.4831572E+03  0.7546771E-02  0.1018271E+00
         21   -1    0    0  502  501  0.00000000000E+00  0.00000000000E+00  0.15592032362E+03  0.15592032362E+03  0.00000000000E+00 0. -1.
         21   -1    0    0  501  502 -0.00000000000E+00 -0.00000000000E+00 -0.14971802809E+04  0.14971802809E+04  0.00000000000E+00 0. -1.
         25    1    1    2    0    0  0.31775288682E+02 -0.34003443738E+03 -0.12147993672E+04  0.12680676599E+04  0.12500000000E+03 0.  0.
         25    1    1    2    0    0 -0.31775288682E+02  0.34003443738E+03 -0.12646059006E+03  0.38503294458E+03  0.12500000000E+03 0.  0.
</event>
<event>
 4    0  0.2213671E-002  0.2007510E+03  0.7546771E-02  0.1149107E+00
         21   -1    0    0  502  501  0.00000000000E+00  0.00000000000E+00  0.78590606627E+02  0.78590606627E+02  0.00000000000E+00 0. -1.
         21   -1    0    0  501  502 -0.00000000000E+00 -0.00000000000E+00 -0.51279606788E+03  0.51279606788E+03  0.00000000000E+00 0. -1.
         25    1    1    2    0    0  0.50485781513E+02 -0.11349778906E+03 -0.35872988694E+03  0.39967823814E+03  0.12500000000E+03 0.  0.
         25    1    1    2    0    0 -0.50485781513E+02  0.11349778906E+03 -0.75475574312E+02  0.19170843637E+03  0.12500000000E+03 0.  0.
</event>
<event>
 4    0  0.2213671E-002  0.3339719E+03  0.7546771E-02  0.1069393E+00
         21   -1    0    0  502  501  0.00000000000E+00  0.00000000000E+00  0.17115128535E+03  0.17115128535E+03  0.00000000000E+00 0.  1.
         21   -1    0    0  501  502 -0.00000000000E+00 -0.00000000000E+00 -0.65168804245E+03  0.65168804245E+03  0.00000000000E+00 0.  1.
         25    1    1    2    0    0 -0.10897213147E+03  0.17517450214E+03  0.44274185958E+02  0.24524729393E+03  0.12500000000E+03 0.  0.
         25    1    1    2    0    0  0.10897213147E+03 -0.17517450214E+03 -0.52481094305E+03  0.57759203387E+03  0.12500000000E+03 0.  0.
</event>
<event>
 4    0  0.2213671E-002  0.2291439E+03  0.7546771E-02  0.1127244E+00
         21   -1    0    0  502  501  0.00000000000E+00  0.00000000000E+00  0.22634614807E+03  0.22634614807E+03  0.00000000000E+00 0.  1.
         21   -1    0    0  501  502 -0.00000000000E+00 -0.00000000000E+00 -0.23197628502E+03  0.23197628502E+03  0.00000000000E+00 0.  1.
         25    1    1    2    0    0 -0.11063296934E+03 -0.79027864035E+02 -0.13846040716E+03  0.23082751472E+03  0.12500000000E+03 0.  0.
         25    1    1    2    0    0  0.11063296934E+03  0.79027864035E+02  0.13283027021E+03  0.22749491837E+03  0.12500000000E+03 0.  0.
</event>
<event>
 4    0  0.2213671E-002  0.2539185E+03  0.7546771E-02  0.1110853E+00
         21   -1    0    0  502  501  0.00000000000E+00  0.00000000000E+00  0.14689885684E+03  0.14689885684E+03  0.00000000000E+00 0.  1.
         21   -1    0    0  501  502 -0.00000000000E+00 -0.00000000000E+00 -0.43890458585E+03  0.43890458585E+03  0.00000000000E+00 0.  1.
         25    1    1    2    0    0 -0.97727971804E+01  0.35847769751E+02 -0.39732616350E+03  0.41817896930E+03  0.12500000000E+03 0.  0.
         25    1    1    2    0    0  0.97727971804E+01 -0.35847769751E+02  0.10532043448E+03  0.16762447339E+03  0.12500000000E+03 0.  0.
</event>
<event>
 4    0  0.2213671E-002  0.2035494E+03  0.7546771E-02  0.1146778E+00
         21   -1    0    0  502  501  0.00000000000E+00  0.00000000000E+00  0.11107016595E+04  0.11107016595E+04  0.00000000000E+00 0.  1.
         21   -1    0    0  501  502 -0.00000000000E+00 -0.00000000000E+00 -0.37302852703E+02  0.37302852703E+02  0.00000000000E+00 0.  1.
         25    1    1    2    0    0  0.23373949363E+02 -0.47119061836E+02  0.96474750627E+03  0.97423267157E+03  0.12500000000E+03 0.  0.
         25    1    1    2    0    0 -0.23373949363E+02  0.47119061836E+02  0.10865130057E+03  0.17377184068E+03  0.12500000000E+03 0.  0.
</event>
<event>
 4    0  0.2213671E-002  0.2864012E+03  0.7546771E-02  0.1092243E+00
         21   -1    0    0  502  501  0.00000000000E+00  0.00000000000E+00  0.48573922681E+03  0.48573922681E+03  0.00000000000E+00 0. -1.
         21   -1    0    0  501  502 -0.00000000000E+00 -0.00000000000E+00 -0.16886762449E+03  0.16886762449E+03  0.00000000000E+00 0. -1.
         25    1    1    2    0    0  0.92928222142E+01 -0.15229434861E+03 -0.78875645834E+02  0.21242950047E+03  0.12500000000E+03 0.  0.
         25    1    1    2    0    0 -0.92928222142E+01  0.15229434861E+03  0.39574724816E+03  0.44217735083E+03  0.12500000000E+03 0.  0.
</event>
<event>
 4    0  0.2213671E-002  0.1677363E+03  0.7546771E-02  0.1180229E+00
         21   -1    0    0  502  501  0.00000000000E+00  0.00000000000E+00  0.77880779496E+02  0.77880779496E+02  0.00000000000E+00 0.  1.
         21   -1    0    0  501  502 -0.00000000000E+00 -0.00000000000E+00 -0.36126331564E+03  0.36126331564E+03  0.00000000000E+00 0.  1.
         25    1    1    2    0    0 -0.96417606223E+02  0.11878335466E+02 -0.69125366283E+02  0.17274479994E+03  0.12500000000E+03 0.  0.
         25    1    1    2    0    0  0.96417606223E+02 -0.11878335466E+02 -0.21425716986E+03  0.26639929519E+03  0.12500000000E+03 0.  0.
</event>
<event>
 4    0  0.2213671E-002  0.3126057E+03  0.7546771E-02  0.1079104E+00
         21   -1    0    0  502  501  0.00000000000E+00  0.00000000000E+00  0.56729416618E+03  0.56729416618E+03  0.00000000000E+00 0. -1.
         21   -1    0    0  501  502 -0.00000000000E+00 -0.00000000000E+00 -0.17226038318E+03  0.17226038318E+03  0.00000000000E+00 0. -1.
         25    1    1    2    0    0 -0.24215118869E+03 -0.14337326599E+03  0.26126363803E+03  0.40382766144E+03  0.12500000000E+03 0.  0.
         25    1    1    2    0    0  0.24215118869E+03  0.14337326599E+03  0.13377014498E+03  0.33572688792E+03  0.12500000000E+03 0.  0.
</event>
<event>
 4    0  0.2213671E-002  0.2526645E+03  0.7546771E-02  0.1111632E+00
         21   -1    0    0  502  501  0.00000000000E+00  0.00000000000E+00  0.24822858065E+03  0.24822858065E+03  0.00000000000E+00 0. -1.
         21   -1    0    0  501  502 -0.00000000000E+00 -0.00000000000E+00 -0.25717964829E+03  0.25717964829E+03  0.00000000000E+00 0. -1.
         25    1    1    2    0    0  0.20924791873E+02  0.53154254899E+02 -0.21652557820E+03  0.25645964155E+03  0.12500000000E+03 0.  0.
         25    1    1    2    0    0 -0.20924791873E+02 -0.53154254899E+02  0.20757451056E+03  0.24894858739E+03  0.12500000000E+03 0.  0.
</event>
<event>
 4    0  0.2213671E-002  0.2371832E+03  0.7546771E-02  0.1121684E+00
         21   -1    0    0  502  501  0.00000000000E+00  0.00000000000E+00  0.26161615299E+02  0.26161615299E+02  0.00000000000E+00 0.  1.
         21   -1    0    0  501  502 -0.00000000000E+00 -0.00000000000E+00 -0.21503206475E+04  0.21503206475E+04  0.00000000000E+00 0.  1.
         25    1    1    2    0    0  0.49307582095E+02  0.18539161035E+03 -0.13460129401E+04  0.13653487180E+04  0.12500000000E+03 0.  0.
         25    1    1    2    0    0 -0.49307582095E+02 -0.18539161035E+03 -0.77814609210E+03  0.81113354479E+03  0.12500000000E+03 0.  0.
</event>
<event>
 4    0  0.2213671E-002  0.3671543E+03  0.7546771E-02  0.1055786E+00
         21   -1    0    0  502  501  0.00000000000E+00  0.00000000000E+00  0.41250525996E+03  0.41250525996E+03  0.00000000000E+00 0.  1.
         21   -1    0    0  501  502 -0.00000000000E+00 -0.00000000000E+00 -0.32678915487E+03  0.32678915487E+03  0.00000000000E+00 0. -1.
         25    1    1    2    0    0 -0.74134582341E+02  0.12684731625E+03  0.35737489033E+03  0.40611327260E+03  0.12500000000E+03 0.  0.
         25    1    1    2    0    0  0.74134582341E+02 -0.12684731625E+03 -0.27165878525E+03  0.33318114223E+03  0.12500000000E+03 0.  0.
</event>
<event>
 4    0  0.2213671E-002  0.2786776E+03  0.7546771E-02  0.1096413E+00
         21   -1    0    0  502  501  0.00000000000E+00  0.00000000000E+00  0.89234192750E+02  0.89234192750E+02  0.00000000000E+00 0. -1.
         21   -1    0    0  501  502 -0.00000000000E+00 -0.00000000000E+00 -0.87030747954E+03  0.87030747954E+03  0.00000000000E+00 0. -1.
         25    1    1    2    0    0 -0.75178281813E+01 -0.24663557349E+03 -0.33214015106E+03  0.43223570399E+03  0.12500000000E+03 0.  0.
         25    1    1    2    0    0  0.75178281813E+01  0.24663557349E+03 -0.44893313573E+03  0.52730596830E+03  0.12500000000E+03 0.  0.
</event>
<event>
 4    0  0.2213671E-002  0.2997138E+03  0.7546771E-02  0.1085384E+00
         21   -1    0    0  502  501  0.00000000000E+00  0.00000000000E+00  0.21613956444E+03  0.21613956444E+03  0.00000000000E+00 0.  1.
         21   -1    0    0  501  502 -0.00000000000E+00 -0.00000000000E+00 -0.41560340670E+03  0.41560340670E+03  0.00000000000E+00 0.  1.
         25    1    1    2    0    0 -0.86290562831E+02  0.19081406838E+03 -0.28332806165E+03  0.37383935112E+03  0.12500000000E+03 0.  0.
         25    1    1    2    0    0  0.86290562831E+02 -0.19081406838E+03  0.83864219388E+02  0.25790362002E+03  0.12500000000E+03 0.  0.
</event>
<event>
 4    0  0.2213671E-002  0.2843659E+03  0.7546771E-02  0.1093328E+00
         21   -1    0    0  502  501  0.00000000000E+00  0.00000000000E+00  0.74959491669E+03  0.74959491669E+03  0.00000000000E+00 0.  1.
         21   -1    0    0  501  502 -0.00000000000E+00 -0.00000000000E+00 -0.10787686675E+03  0.10787686675E+03  0.00000000000E+00 0.  1.
         25    1    1    2    0    0  0.20123782130E+03  0.54921646574E+02  0.98629743854E+02  0.26242308274E+03  0.12500000000E+03 0.  0.
         25    1    1    2    0    0 -0.20123782130E+03 -0.54921646574E+02  0.54308830609E+03  0.59504870069E+03  0.12500000000E+03 0.  0.
</event>
<event>
 4    0  0.2213671E-002  0.3205866E+03  0.7546771E-02  0.1075380E+00
         21   -1    0    0  502  501  0.00000000000E+00  0.00000000000E+00  0.88548482447E+02  0.88548482447E+02  0.00000000000E+00 0. -1.
         21   -1    0    0  501  502 -0.00000000000E+00 -0.00000000000E+00 -0.11606721819E+04  0.11606721819E+04  0.00000000000E+00 0. -1.
         25    1    1    2    0    0 -0.13348686779E+03 -0.99631796087E+02 -0.61189129332E+02  0.21705839816E+03  0.12500000000E+03 0.  0.
         25    1    1    2    0    0  0.13348686779E+03  0.99631796087E+02 -0.10109345701E+04  0.10321622662E+04  0.12500000000E+03 0.  0.
</event>
<event>
 4    0  0.2213671E-002  0.3043848E+03  0.7546771E-02  0.1083069E+00
         21   -1    0    0  502  501  0.00000000000E+00  0.00000000000E+00  0.38833012085E+03  0.38833012085E+03  0.00000000000E+00 0.  1.
         21   -1    0    0  501  502 -0.00000000000E+00 -0.00000000000E+00 -0.23858595865E+03  0.23858595865E+03  0.00000000000E+00 0.  1.
         25    1    1    2    0    0 -0.15025623060E+03 -0.75312041165E+02 -0.15256472751E+03  0.25913285098E+03  0.12500000000E+03 0.  0.
         25    1    1    2    0    0  0.15025623060E+03  0.75312041165E+02  0.30230888971E+03  0.36778322851E+03  0.12500000000E+03 0.  0.
</event>
<event>
 4    0  0.2213671E-002  0.2445572E+03  0.7546771E-02  0.1116794E+00
         21   -1    0    0  502  501  0.00000000000E+00  0.00000000000E+00  0.48949873796E+02  0.48949873796E+02  0.00000000000E+00 0.  1.
         21   -1    0    0  501  502 -0.00000000000E+00 -0.00000000000E+00 -0.12218262168E+04  0.12218262168E+04  0.00000000000E+00 0.  1.
         25    1    1    2    0    0  0.62264605183E+02 -0.12733475802E+03 -0.98970910317E+03  0.10075912517E+04  0.12500000000E+03 0.  0.
         25    1    1    2    0    0 -0.62264605183E+02  0.12733475802E+03 -0.18316723982E+03  0.26318483885E+03  0.12500000000E+03 0.  0.
</event>
<event>
 4    0  0.2213671E-002  0.2719728E+03  0.7546771E-02  0.1100156E+00
         21   -1    0    0  502  501  0.00000000000E+00  0.00000000000E+00  0.20298288598E+04  0.20298288598E+04  0.00000000000E+00 0. -1.
         21   -1    0    0  501  502 -0.00000000000E+00 -0.00000000000E+00 -0.36441110276E+02  0.36441110276E+02  0.00000000000E+00 0.  1.
         25    1    1    2    0    0 -0.12221277971E+03 -0.17744280347E+03  0.58191973055E+03  0.63299090423E+03  0.12500000000E+03 0.  0.
         25    1    1    2    0    0  0.12221277971E+03  0.17744280347E+03  0.14114680190E+04  0.14332790659E+04  0.12500000000E+03 0.  0.
</event>
<event>
 4    0  0.2213671E-002  0.2695150E+03  0.7546771E-02  0.1101557E+00
         21   -1    0    0  502  501  0.00000000000E+00  0.00000000000E+00  0.76983593917E+02  0.76983593917E+02  0.00000000000E+00 0.  1.
         21   -1    0    0  501  502 -0.00000000000E+00 -0.00000000000E+00 -0.94355617373E+03  0.94355617373E+03  0.00000000000E+00 0.  1.
         25    1    1    2    0    0  0.23352681922E+03 -0.49420578624E+02 -0.44467382706E+03  0.51993940162E+03  0.12500000000E+03 0.  0.
         25    1    1    2    0    0 -0.23352681922E+03  0.49420578624E+02 -0.42189875276E+03  0.50060036603E+03  0.12500000000E+03 0.  0.
</event>
<event>
 4    0  0.2213671E-002  0.2046404E+03  0.7546771E-02  0.1145882E+00
         21   -1    0    0  502  501  0.00000000000E+00  0.00000000000E+00  0.15455252351E+04  0.15455252351E+04  0.00000000000E+00 0. -1.
         21   -1    0    0  501  502 -0.00000000000E+00 -0.00000000000E+00 -0.27096097583E+02  0.27096097583E+02  0.00000000000E+00 0. -1.
         25    1    1    2    0    0 -0.10012250788E+03 -0.22848372558E+02  0.27766893923E+03  0.32135899633E+03  0.12500000000E+03 0.  0.
         25    1    1    2    0    0  0.10012250788E+03  0.22848372558E+02  0.12407601983E+04  0.12512623364E+04  0.12500000000E+03 0.  0.
</event>
<event>
 4    0  0.2213671E-002  0.3330115E+03  0.7546771E-02  0.1069812E+00
         21   -1    0    0  502  501  0.00000000000E+00  0.00000000000E+00  0.23649660154E+03  0.23649660154E+03  0.00000000000E+00 0. -1.
         21   -1    0    0  501  502 -0.00000000000E+00 -0.00000000000E+00 -0.46891434989E+03  0.46891434989E+03  0.00000000000E+00 0. -1.
         25    1    1    2    0    0  0.24349684889E+03  0.38330511916E+02 -0.31296859881E+03  0.41753357637E+03  0.12500000000E+03 0.  0.
         25    1    1    2    0    0 -0.24349684889E+03 -0.38330511916E+02  0.80550850457E+02  0.28787737506E+03  0.12500000000E+03 0.  0.
</event>
<event>
 4    0  0.2213671E-002  0.2714809E+03  0.7546771E-02  0.1100435E+00
         21   -1    0    0  502  501  0.00000000000E+00  0.00000000000E+00  0.13627148732E+03  0.13627148732E+03  0.00000000000E+00 0.  1.
         21   -1    0    0  501  502 -0.00000000000E+00 -0.00000000000E+00 -0.54084580466E+03  0.54084580466E+03  0.00000000000E+00 0.  1.
         25    1    1    2    0    0 -0.12727871094E+03  0.20014128262E+03 -0.25549616189E+03  0.37035076888E+03  0.12500000000E+03 0.  0.
         25    1    1    2    0    0  0.12727871094E+03 -0.20014128262E+03 -0.14907815545E+03  0.30676652311E+03  0.12500000000E+03 0.  0.
</event>
<event>
 4    0  0.2213671E-002  0.2689888E+03  0.7546771E-02  0.1101860E+00
         21   -1    0    0  502  501  0.00000000000E+00  0.00000000000E+00  0.78480004373E+03  0.78480004373E+03  0.00000000000E+00 0. -1.
         21   -1    0    0  501  502 -0.00000000000E+00 -0.00000000000E+00 -0.92195439179E+02  0.92195439179E+02  0.00000000000E+00 0. -1.
         25    1    1    2    0    0 -0.13610464678E+03 -0.19536694619E+03  0.35625384602E+03  0.44635694387E+03  0.12500000000E+03 0.  0.
         25    1    1    2    0    0  0.13610464678E+03  0.19536694619E+03  0.33635075853E+03  0.43063853903E+03  0.12500000000E+03 0.  0.
</event>
<event>
 4    0  0.2213671E-002  0.2835659E+03  0.7546771E-02  0.1093757E+00
         21   -1    0    0  502  501  0.00000000000E+00  0.00000000000E+00  0.94769838617E+03  0.94769838617E+03  0.00000000000E+00 0. -1.
         21   -1    0    0  501  502 -0.00000000000E+00 -0.00000000000E+00 -0.84847283388E+02  0.84847283388E+02  0.00000000000E+00 0. -1.
         25    1    1    2    0    0 -0.13398844410E+03  0.18637302754E+03  0.23118089696E+03  0.34893755267E+03  0.12500000000E+03 0.  0.
         25    1    1    2    0    0  0.13398844410E+03 -0.18637302754E+03  0.63167020583E+03  0.68360811689E+03  0.12500000000E+03 0.  0.
</event>
<event>
 4    0  0.2213671E-002  0.2022631E+03  0.7546771E-02  0.1147844E+00
         21   -1    0    0  502  501  0.00000000000E+00  0.00000000000E+00  0.70355267683E+03  0.70355267683E+03  0.00000000000E+00 0. -1.
         21   -1    0    0  501  502 -0.00000000000E+00 -0.00000000000E+00 -0.58148256702E+02  0.58148256702E+02  0.00000000000E+00 0. -1.
         25    1    1    2    0    0 -0.19295032405E+02  0.15773005496E+03  0.31167561372E+03  0.37150741137E+03  0.12500000000E+03 0.  0.
         25    1    1    2    0    0  0.19295032405E+02 -0.15773005496E+03  0.33372880640E+03  0.39019352216E+03  0.12500000000E+03 0.  0.
</event>
<event>
 4    0  0.2213671E-002  0.2609149E+03  0.7546771E-02  0.1106595E+00
         21   -1    0    0  502  501  0.00000000000E+00  0.00000000000E+00  0.39100010253E+03  0.39100010253E+03  0.00000000000E+00 0.  1.
         21   -1    0    0  501  502 -0.00000000000E+00 -0.00000000000E+00 -0.17410888154E+03  0.17410888154E+03  0.00000000000E+00 0.  1.
         25    1    1    2    0    0  0.17300465600E+03  0.82356641750E+02  0.24430294761E+03  0.33469711330E+03  0.12500000000E+03 0.  0.
         25    1    1    2    0    0 -0.17300465600E+03 -0.82356641750E+02 -0.27411726616E+02  0.23041187078E+03  0.12500000000E+03 0.  0.
</event>
<event>
 4    0  0.2213671E-002  0.2116733E+03  0.7546771E-02  0.1140248E+00
         21   -1    0    0  502  501  0.00000000000E+00  0.00000000000E+00  0.36701230082E+02  0.36701230082E+02  0.00000000000E+00 0.  1.
         21   -1    0    0  501  502 -0.00000000000E+00 -0.00000000000E+00 -0.12208203072E+04  0.12208203072E+04  0.00000000000E+00 0.  1.
         25    1    1    2    0    0  0.51111428205E+02  0.15567354780E+03 -0.44855442016E+03  0.49363214990E+03  0.12500000000E+03 0.  0.
         25    1    1    2    0    0 -0.51111428205E+02 -0.15567354780E+03 -0.73556465691E+03  0.76388938733E+03  0.12500000000E+03 0.  0.
</event>
<event>
 4    0  0.2213671E-002  0.1669332E+03  0.7546771E-02  0.1181084E+00
         21   -1    0    0  502  501  0.00000000000E+00  0.00000000000E+00  0.49754308675E+03  0.49754308675E+03  0.00000000000E+00 0. -1.
         21   -1    0    0  501  502 -0.00000000000E+00 -0.00000000000E+00 -0.56008595941E+02  0.56008595941E+02  0.00000000000E+00 0. -1.
         25    1    1    2    0    0 -0.51586993405E+00 -0.18566716697E+02  0.40160901789E+03  0.42102231810E+03  0.12500000000E+03 0.  0.
         25    1    1    2    0    0  0.51586993405E+00  0.18566716697E+02  0.39925472923E+02  0.13252936459E+03  0.12500000000E+03 0.  0.
</event>
<event>
 4    0  0.2213671E-002  0.1652570E+03  0.7546771E-02  0.1182886E+00
         21   -1    0    0  502  501  0.00000000000E+00  0.00000000000E+00  0.10742228840E+03  0.10742228840E+03  0.00000000000E+00 0. -1.
         21   -1    0    0  501  502 -0.00000000000E+00 -0.00000000000E+00 -0.25422912961E+03  0.25422912961E+03  0.00000000000E+00 0. -1.
         25    1    1    2    0    0 -0.73534909437E+02 -0.72744349803E+02 -0.10775795407E+03  0.19477140447E+03  0.12500000000E+03 0.  0.
         25    1    1    2    0    0  0.73534909437E+02  0.72744349803E+02 -0.39048887136E+02  0.16688001354E+03  0.12500000000E+03 0.  0.
</event>
<event>
 4    0  0.2213671E-002  0.1473834E+03  0.7546771E-02  0.1203726E+00
         21   -1    0    0  502  501  0.00000000000E+00  0.00000000000E+00  0.15174329807E+03  0.15174329807E+03  0.00000000000E+00 0. -1.
         21   -1    0    0  501  502 -0.00000000000E+00 -0.00000000000E+00 -0.14314872993E+03  0.14314872993E+03  0.00000000000E+00 0. -1.
         25    1    1    2    0    0 -0.50680759814E+01  0.71736869352E+02  0.34723965662E+02  0.14833279344E+03  0.12500000000E+03 0.  0.
         25    1    1    2    0    0  0.50680759814E+01 -0.71736869352E+02 -0.26129397523E+02  0.14655923456E+03  0.12500000000E+03 0.  0.
</event>
<event>
 4    0  0.2213671E-002  0.2029771E+03  0.7546771E-02  0.1147251E+00
         21   -1    0    0  502  501  0.00000000000E+00  0.00000000000E+00  0.10341776962E+03  0.10341776962E+03  0.00000000000E+00 0. -1.
         21   -1    0    0  501  502 -0.00000000000E+00 -0.00000000000E+00 -0.39838145907E+03  0.39838145907E+03  0.00000000000E+00 0. -1.
         25    1    1    2    0    0 -0.10825276534E+03  0.10714231739E+03 -0.87221794617E+02  0.21547802402E+03  0.12500000000E+03 0.  0.
         25    1    1    2    0    0  0.10825276534E+03 -0.10714231739E+03 -0.20774189484E+03  0.28632120468E+03  0.12500000000E+03 0.  0.
</event>
<event>
 4    0  0.2213671E-002  0.3056331E+03  0.7546771E-02  0.1082458E+00
         21   -1    0    0  502  501  0.00000000000E+00  0.00000000000E+00  0.22387854163E+03  0.22387854163E+03  0.00000000000E+00 0.  1.
         21   -1    0    0  501  502 -0.00000000000E+00 -0.00000000000E+00 -0.41724226520E+03  0.41724226520E+03  0.00000000000E+00 0.  1.
         25    1    1    2    0    0  0.13113525144E+03 -0.12392543561E+03  0.12638516367E+03  0.25328280115E+03  0.12500000000E+03 0.  0.
         25    1    1    2    0    0 -0.13113525144E+03  0.12392543561E+03 -0.31974888724E+03  0.38783800568E+03  0.12500000000E+03 0.  0.
</event>
<event>
 4    0  0.2213671E-002  0.1987553E+03  0.7546771E-02  0.1150793E+00
         21   -1    0    0  502  501  0.00000000000E+00  0.00000000000E+00  0.49029169297E+03  0.49029169297E+03  0.00000000000E+00 0.  1.
         21   -1    0    0  501  502 -0.00000000000E+00 -0.00000000000E+00 -0.80571731680E+02  0.80571731680E+02  0.00000000000E+00 0.  1.
         25    1    1    2    0    0 -0.10956948113E+03 -0.45060374465E+02  0.62383997870E+02  0.18317388387E+03  0.12500000000E+03 0.  0.
         25    1    1    2    0    0  0.10956948113E+03  0.45060374465E+02  0.34733596342E+03  0.38768954078E+03  0.12500000000E+03 0.  0.
</event>
<event>
 4    0  0.2213671E-002  0.2963460E+03  0.7546771E-02  0.1087082E+00
         21   -1    0    0  502  501  0.00000000000E+00  0.00000000000E+00  0.44931328819E+03  0.44931328819E+03  0.00000000000E+00 0.  1.
         21   -1    0    0  501  502 -0.00000000000E+00 -0.00000000000E+00 -0.19545587691E+03  0.19545587691E+03  0.00000000000E+00 0.  1.
         25    1    1    2    0    0 -0.10536548528E+03  0.11348119315E+03  0.36580393003E+03  0.41643412674E+03  0.12500000000E+03 0.  0.
         25    1    1    2    0    0  0.10536548528E+03 -0.11348119315E+03 -0.11194651875E+03  0.22833503837E+03  0.12500000000E+03 0.  0.
</event>
<event>
 4    0  0.2213671E-002  0.2099875E+03  0.7546771E-02  0.1141576E+00
         21   -1    0    0  502  501  0.00000000000E+00  0.00000000000E+00  0.45982984396E+02  0.45982984396E+02  0.00000000000E+00 0. -1.
         21   -1    0    0  501  502 -0.00000000000E+00 -0.00000000000E+00 -0.95893632519E+03  0.95893632519E+03  0.00000000000E+00 0. -1.
         25    1    1    2    0    0 -0.28609926207E+02 -0.10230176430E+03 -0.14279454656E+03  0.21748439343E+03  0.12500000000E+03 0.  0.
         25    1    1    2    0    0  0.28609926207E+02  0.10230176430E+03 -0.77015879423E+03  0.78743491616E+03  0.12500000000E+03 0.  0.
</event>
<event>
 4    0  0.2213671E-002  0.1928391E+03  0.7546771E-02  0.1155925E+00
         21   -1    0    0  502  501  0.00000000000E+00  0.00000000000E+00  0.65554474665E+03  0.65554474665E+03  0.00000000000E+00 0. -1.
         21   -1    0    0  501  502 -0.00000000000E+00 -0.00000000000E+00 -0.56726747066E+02  0.56726747066E+02  0.00000000000E+00 0. -1.
         25    1    1    2    0    0  0.55122034585E+02  0.12221681625E+03  0.41000968612E+03  0.44911950701E+03  0.12500000000E+03 0.  0.
         25    1    1    2    0    0 -0.55122034585E+02 -0.12221681625E+03  0.18880831346E+03  0.26315198670E+03  0.12500000000E+03 0.  0.
</event>
<event>
 4    0  0.2213671E-002  0.2526584E+03  0.7546771E-02  0.1111636E+00
         21   -1    0    0  502  501  0.00000000000E+00  0.00000000000E+00  0.13316976408E+03  0.13316976408E+03  0.00000000000E+00 0. -1.
         21   -1    0    0  501  502 -0.00000000000E+00 -0.00000000000E+00 -0.47936011264E+03  0.47936011264E+03  0.00000000000E+00 0. -1.
         25    1    1    2    0    0 -0.17465843821E+03  0.12485594732E+03 -0.11732619303E+03  0.27474536063E+03  0.12500000000E+03 0.  0.
         25    1    1    2    0    0  0.17465843821E+03 -0.12485594732E+03 -0.22886415554E+03  0.33778451609E+03  0.12500000000E+03 0.  0.
</event>
<event>
 4    0  0.2213671E-002  0.3290707E+03  0.7546771E-02  0.1071549E+00
         21   -1    0    0  502  501  0.00000000000E+00  0.00000000000E+00  0.50137204950E+03  0.50137204950E+03  0.00000000000E+00 0. -1.
         21   -1    0    0  501  502 -0.00000000000E+00 -0.00000000000E+00 -0.21598237945E+03  0.21598237945E+03  0.00000000000E+00 0.  1.
         25    1    1    2    0    0  0.23784500710E+03  0.18330890552E+03  0.19708560776E+03  0.38031584115E+03  0.12500000000E+03 0.  0.
         25    1    1    2    0    0 -0.23784500710E+03 -0.18330890552E+03  0.88304062297E+02  0.33703858780E+03  0.12500000000E+03 0.  0.
</event>
<event>
 4    0  0.2213671E-002  0.2139163E+03  0.7546771E-02  0.1138502E+00
         21   -1    0    0  502  501  0.00000000000E+00  0.00000000000E+00  0.29765845139E+02  0.29765845139E+02  0.00000000000E+00 0.  1.
         21   -1    0    0  501  502 -0.00000000000E+00 -0.00000000000E+00 -0.15373383891E+04  0.15373383891E+04  0.00000000000E+00 0.  1.
         25    1    1    2    0    0  0.66878470037E+02  0.95154255692E+02 -0.28174039828E+03  0.32943848311E+03  0.12500000000E+03 0.  0.
         25    1    1    2    0    0 -0.66878470037E+02 -0.95154255692E+02 -0.12258321457E+04  0.12376657511E+04  0.12500000000E+03 0.  0.
</event>
<event>
 4    0  0.2213671E-002  0.2260800E+03  0.7546771E-02  0.1129430E+00
         21   -1    0    0  502  501  0.00000000000E+00  0.00000000000E+00  0.46578701639E+03  0.46578701639E+03  0.00000000000E+00 0. -1.
         21   -1    0    0  501  502 -0.00000000000E+00 -0.00000000000E+00 -0.10973293633E+03  0.10973293633E+03  0.00000000000E+00 0. -1.
         25    1    1    2    0    0 -0.74803584226E+02 -0.15059673519E+03  0.69932736579E+02  0.22088580876E+03  0.12500000000E+03 0.  0.
         25    1    1    2    0    0  0.74803584226E+02  0.15059673519E+03  0.28612134348E+03  0.35463414396E+03  0.12500000000E+03 0.  0.
</event>
<event>
 4    0  0.2213671E-002  0.1873737E+03  0.7546771E-02  0.1160852E+00
         21   -1    0    0  502  501  0.00000000000E+00  0.00000000000E+00  0.67623579262E+02  0.67623579262E+02  0.00000000000E+00 0.  1.
         21   -1    0    0  501  502 -0.00000000000E+00 -0.00000000000E+00 -0.51918140315E+03  0.51918140315E+03  0.00000000000E+00 0.  1.
         25    1    1    2    0    0  0.17242148991E+02  0.13515045527E+03 -0.27329900803E+03  0.32997012751E+03  0.12500000000E+03 0.  0.
         25    1    1    2    0    0 -0.17242148991E+02 -0.13515045527E+03 -0.17825881586E+03  0.25683485490E+03  0.12500000000E+03 0.  0.
</event>
<event>
 4    0  0.2213671E-002  0.1828400E+03  0.7546771E-02  0.1165082E+00
         21   -1    0    0  502  501  0.00000000000E+00  0.00000000000E+00  0.11032028205E+04  0.11032028205E+04  0.00000000000E+00 0. -1.
         21   -1    0    0  501  502 -0.00000000000E+00 -0.00000000000E+00 -0.30303098010E+02  0.30303098010E+02  0.00000000000E+00 0.  1.
         25    1    1    2    0    0 -0.13120404243E+03 -0.22816633737E+02  0.51044845514E+03  0.54214179408E+03  0.12500000000E+03 0.  0.
         25    1    1    2    0    0  0.13120404243E+03  0.22816633737E+02  0.56245126731E+03  0.59136412440E+03  0.12500000000E+03 0.  0.
</event>
<event>
 4    0  0.2213671E-002  0.2368384E+03  0.7546771E-02  0.1121917E+00
         21   -1    0    0  502  501  0.00000000000E+00  0.00000000000E+00  0.68473919761E+03  0.68473919761E+03  0.00000000000E+00 0. -1.
         21   -1    0    0  501  502 -0.00000000000E+00 -0.00000000000E+00 -0.81917957073E+02  0.81917957073E+02  0.00000000000E+00 0. -1.
         25    1    1    2    0    0  0.55389252875E+01 -0.22685095487E+02 -0.21978919818E+02  0.12904792198E+03  0.12500000000E+03 0.  0.
         25    1    1    2    0    0 -0.55389252875E+01  0.22685095487E+02  0.62480016035E+03  0.63760923270E+03  0.12500000000E+03 0.  0.
</event>
<event>
 4    0  0.2213671E-002  0.2448750E+03  0.7546771E-02  0.1116587E+00
         21   -1    0    0  502  501  0.00000000000E+00  0.00000000000E+00  0.12057827925E+03  0.12057827925E+03  0.00000000000E+00 0. -1.
         21   -1    0    0  501  502 -0.00000000000E+00 -0.00000000000E+00 -0.49730135403E+03  0.49730135403E+03  0.00000000000E+00 0. -1.
         25    1    1    2    0    0 -0.16888279320E+03 -0.83119311115E+02 -0.30743977420E+03  0.38154217654E+03  0.12500000000E+03 0.  0.
         25    1    1    2    0    0  0.16888279320E+03  0.83119311115E+02 -0.69283300579E+02  0.23633745674E+03  0.12500000000E+03 0.  0.
</event>
<event>
 4    0  0.2213671E-002  0.2708988E+03  0.7546771E-02  0.1100766E+00
         21   -1    0    0  502  501  0.00000000000E+00  0.00000000000E+00  0.18569114539E+04  0.18569114539E+04  0.00000000000E+00 0. -1.
         21   -1    0    0  501  502 -0.00000000000E+00 -0.00000000000E+00 -0.39520540626E+02  0.39520540626E+02  0.00000000000E+00 0. -1.
         25    1    1    2    0    0 -0.17322106257E+03  0.14075295536E+03  0.12206746984E+04  0.12471923068E+04  0.12500000000E+03 0.  0.
         25    1    1    2    0    0  0.17322106257E+03 -0.14075295536E+03  0.59671621493E+03  0.64923968773E+03  0.12500000000E+03 0.  0.
</event>
<event>
 4    0  0.2213671E-002  0.1992778E+03  0.7546771E-02  0.1150350E+00
         21   -1    0    0  502  501  0.00000000000E+00  0.00000000000E+00  0.94160074848E+03  0.94160074848E+03  0.00000000000E+00 0.  1.
         21   -1    0    0  501  502 -0.00000000000E+00 -0.00000000000E+00 -0.42174623840E+02  0.42174623840E+02  0.00000000000E+00 0.  1.
         25    1    1    2    0    0  0.22769705394E+02 -0.96729609840E+02  0.15545516080E+03  0.22285956099E+03  0.12500000000E+03 0.  0.
         25    1    1    2    0    0 -0.22769705394E+02  0.96729609840E+02  0.74397096383E+03  0.76091581133E+03  0.12500000000E+03 0.  0.
</event>
<event>
 4    0  0.2213671E-002  0.2223830E+03  0.7546771E-02  0.1132119E+00
         21   -1    0    0  502  501  0.00000000000E+00  0.00000000000E+00  0.77113521137E+02  0.77113521137E+02  0.00000000000E+00 0. -1.
         21   -1    0    0  501  502 -0.00000000000E+00 -0.00000000000E+00 -0.64131708540E+03  0.64131708540E+03  0.00000000000E+00 0. -1.
         25    1    1    2    0    0 -0.77738138209E+02  0.15619389026E+03 -0.37614316347E+03  0.43306861917E+03  0.12500000000E+03 0.  0.
         25    1    1    2    0    0  0.77738138209E+02 -0.15619389026E+03 -0.18806040080E+03  0.28536198737E+03  0.12500000000E+03 0.  0.
</event>
<event>
 4    0  0.2213671E-002  0.1718715E+03  0.7546771E-02  0.1175910E+00
         21   -1    0    0  502  501  0.00000000000E+00  0.00000000000E+00  0.12819472495E+03  0.12819472495E+03  0.00000000000E+00 0. -1.
         21   -1    0    0  501  502 -0.00000000000E+00 -0.00000000000E+00 -0.23042910346E+03  0.23042910346E+03  0.00000000000E+00 0. -1.
         25    1    1    2    0    0  0.62510380006E+02 -0.85640509530E+02 -0.10505594299E+03  0.19468845790E+03  0.12500000000E+03 0.  0.
         25    1    1    2    0    0 -0.62510380006E+02  0.85640509530E+02  0.28215644773E+01  0.16393537052E+03  0.12500000000E+03 0.  0.
</event>
<event>
 4    0  0.2213671E-002  0.2055805E+03  0.7546771E-02  0.1145114E+00
         21   -1    0    0  502  501  0.00000000000E+00  0.00000000000E+00  0.78559788665E+03  0.78559788665E+03  0.00000000000E+00 0. -1.
         21   -1    0    0  501  502 -0.00000000000E+00 -0.00000000000E+00 -0.53797664014E+02  0.53797664014E+02  0.00000000000E+00 0. -1.
         25    1    1    2    0    0 -0.71039618358E+02  0.10374900023E+03  0.15346519755E+03  0.23449317534E+03  0.12500000000E+03 0.  0.
         25    1    1    2    0    0  0.71039618358E+02 -0.10374900023E+03  0.57833502509E+03  0.60490237532E+03  0.12500000000E+03 0.  0.
</event>
<event>
 4    0  0.2213671E-002  0.1877584E+03  0.7546771E-02  0.1160499E+00
         21   -1    0    0  502  501  0.00000000000E+00  0.00000000000E+00  0.76061727383E+02  0.76061727383E+02  0.00000000000E+00 0.  1.
         21   -1    0    0  501  502 -0.00000000000E+00 -0.00000000000E+00 -0.46348188431E+03  0.46348188431E+03  0.00000000000E+00 0.  1.
         25    1    1    2    0    0  0.13286634244E+03 -0.43138195864E+02 -0.20904176707E+03  0.28078074948E+03  0.12500000000E+03 0.  0.
         25    1    1    2    0    0 -0.13286634244E+03  0.43138195864E+02 -0.17837838985E+03  0.25876286221E+03  0.12500000000E+03 0.  0.
</event>
<event>
 4    0  0.2213671E-002  0.2058916E+03  0.7546771E-02  0.1144861E+00
         21   -1    0    0  502  501  0.00000000000E+00  0.00000000000E+00  0.16671357526E+03  0.16671357526E+03  0.00000000000E+00 0.  1.
         21   -1    0    0  501  502 -0.00000000000E+00 -0.00000000000E+00 -0.25427662571E+03  0.25427662571E+03  0.00000000000E+00 0.  1.
         25    1    1    2    0    0  0.12167240896E+03 -0.55963622866E+00 -0.15559726896E+03  0.23375200192E+03  0.12500000000E+03 0.  0.
         25    1    1    2    0    0 -0.12167240896E+03  0.55963622866E+00  0.68034218504E+02  0.18723819905E+03  0.12500000000E+03 0.  0.
</event>
<event>
 4    0  0.2213671E-002  0.2752393E+03  0.7546771E-02  0.1098318E+00
         21   -1    0    0  502  501  0.00000000000E+00  0.00000000000E+00  0.57114014756E+03  0.57114014756E+03  0.00000000000E+00 0.  1.
         21   -1    0    0  501  502 -0.00000000000E+00 -0.00000000000E+00 -0.13264113690E+03  0.13264113690E+03  0.00000000000E+00 0.  1.
         25    1    1    2    0    0  0.22421872585E+03  0.80266393955E+02  0.29396131739E+03  0.39844069464E+03  0.12500000000E+03 0.  0.
         25    1    1    2    0    0 -0.22421872585E+03 -0.80266393955E+02  0.14453769327E+03  0.30534058983E+03  0.12500000000E+03 0.  0.
</event>
<event>
 4    0  0.2213671E-002  0.1865544E+03  0.7546771E-02  0.1161606E+00
         21   -1    0    0  502  501  0.00000000000E+00  0.00000000000E+00  0.12335062407E+03  0.12335062407E+03  0.00000000000E+00 0.  1.
         21   -1    0    0  501  502 -0.00000000000E+00 -0.00000000000E+00 -0.28214325248E+03  0.28214325248E+03  0.00000000000E+00 0.  1.
         25    1    1    2    0    0 -0.53210915993E+02  0.40491829307E+02 -0.21119294004E+03  0.25435889555E+03  0.12500000000E+03 0.  0.
         25    1    1    2    0    0  0.53210915993E+02 -0.40491829307E+02  0.52400311635E+02  0.15113498100E+03  0.12500000000E+03 0.  0.
</event>
<event>
 4    0  0.2213671E-002  0.2411453E+03  0.7546771E-02  0.1119032E+00
         21   -1    0    0  502  501  0.00000000000E+00  0.00000000000E+00  0.84878227110E+02  0.84878227110E+02  0.00000000000E+00 0. -1.
         21   -1    0    0  501  502 -0.00000000000E+00 -0.00000000000E+00 -0.68511134233E+03  0.68511134233E+03  0.00000000000E+00 0.  1.
         25    1    1    2    0    0  0.31387511865E+02  0.18827319211E+03 -0.17548452699E+03  0.28783986865E+03  0.12500000000E+03 0.  0.
         25    1    1    2    0    0 -0.31387511865E+02 -0.18827319211E+03 -0.42474858823E+03  0.48214970079E+03  0.12500000000E+03 0.  0.
</event>
<event>
 4    0  0.2213671E-002  0.3710132E+03  0.7546771E-02  0.1054306E+00
         21   -1    0    0  502  501  0.00000000000E+00  0.00000000000E+00  0.15074591202E+03  0.15074591202E+03  0.00000000000E+00 0.  1.
         21   -1    0    0  501  502 -0.00000000000E+00 -0.00000000000E+00 -0.91313104835E+03  0.91313104835E+03  0.00000000000E+00 0.  1.
         25    1    1    2    0    0  0.18984833940E+03  0.18415870702E+03 -0.54031590830E+02  0.29749156988E+03  0.12500000000E+03 0.  0.
         25    1    1    2    0    0 -0.18984833940E+03 -0.18415870702E+03 -0.70835354550E+03  0.76638539049E+03  0.12500000000E+03 0.  0.
</event>
<event>
 4    0  0.2213671E-002  0.1916308E+03  0.7546771E-02  0.1156999E+00
         21   -1    0    0  502  501  0.00000000000E+00  0.00000000000E+00  0.13465204140E+03  0.13465204140E+03  0.00000000000E+00 0.  1.
         21   -1    0    0  501  502 -0.00000000000E+00 -0.00000000000E+00 -0.27272043069E+03  0.27272043069E+03  0.00000000000E+00 0.  1.
         25    1    1    2    0    0  0.10470425914E+03 -0.97475968060E+02 -0.42295803686E+02  0.19462394827E+03  0.12500000000E+03 0.  0.
         25    1    1    2    0    0 -0.10470425914E+03  0.97475968060E+02 -0.95772585603E+02  0.21274852382E+03  0.12500000000E+03 0.  0.
</event>
<event>
 4    0  0.2213671E-002  0.2607721E+03  0.7546771E-02  0.1106680E+00
         21   -1    0    0  502  501  0.00000000000E+00  0.00000000000E+00  0.24687002219E+03  0.24687002219E+03  0.00000000000E+00 0. -1.
         21   -1    0    0  501  502 -0.00000000000E+00 -0.00000000000E+00 -0.27545702786E+03  0.27545702786E+03  0.00000000000E+00 0. -1.
         25    1    1    2    0    0 -0.14135190513E+03 -0.69699413172E+02  0.15190351914E+03  0.25206754731E+03  0.12500000000E+03 0.  0.
         25    1    1    2    0    0  0.14135190513E+03  0.69699413172E+02 -0.18049052481E+03  0.27025950275E+03  0.12500000000E+03 0.  0.
</event>
<event>
 4    0  0.2213671E-002  0.2687197E+03  0.7546771E-02  0.1102015E+00
         21   -1    0    0  502  501  0.00000000000E+00  0.00000000000E+00  0.32992738882E+03  0.32992738882E+03  0.00000000000E+00 0. -1.
         21   -1    0    0  501  502 -0.00000000000E+00 -0.00000000000E+00 -0.21886725714E+03  0.21886725714E+03  0.00000000000E+00 0. -1.
         25    1    1    2    0    0 -0.11772258534E+03 -0.63731827511E+02  0.25631864767E+03  0.31503111288E+03  0.12500000000E+03 0.  0.
         25    1    1    2    0    0  0.11772258534E+03  0.63731827511E+02 -0.14525851599E+03  0.23376353309E+03  0.12500000000E+03 0.  0.
</event>
<event>
 4    0  0.2213671E-002  0.2868268E+03  0.7546771E-02  0.1092018E+00
         21   -1    0    0  502  501  0.00000000000E+00  0.00000000000E+00  0.12068240269E+04  0.12068240269E+04  0.00000000000E+00 0.  1.
         21   -1    0    0  501  502 -0.00000000000E+00 -0.00000000000E+00 -0.68170350464E+02  0.68170350464E+02  0.00000000000E+00 0.  1.
         25    1    1    2    0    0 -0.14991439790E+03  0.20170267411E+03  0.43809408246E+03  0.52029772297E+03  0.12500000000E+03 0.  0.
         25    1    1    2    0    0  0.14991439790E+03 -0.20170267411E+03  0.70055959398E+03  0.75469665440E+03  0.12500000000E+03 0.  0.
</event>
<event>
 4    0  0.2213671E-002  0.1885372E+03  0.7546771E-02  0.1159787E+00
         21   -1    0    0  502  501  0.00000000000E+00  0.00000000000E+00  0.77781992688E+02  0.77781992688E+02  0.00000000000E+00 0. -1.
         21   -1    0    0  501  502 -0.00000000000E+00 -0.00000000000E+00 -0.45699874954E+03  0.45699874954E+03  0.00000000000E+00 0. -1.
         25    1    1    2    0    0  0.11374789272E+03  0.63472880169E+02 -0.26668903896E+03  0.32204880549E+03  0.12500000000E+03 0.  0.
         25    1    1    2    0    0 -0.11374789272E+03 -0.63472880169E+02 -0.11252771789E+03  0.21273193674E+03  0.12500000000E+03 0.  0.
</event>
<event>
 4    0  0.2213671E-002  0.1972205E+03  0.7546771E-02  0.1152105E+00
         21   -1    0    0  502  501  0.00000000000E+00  0.00000000000E+00  0.56913823050E+03  0.56913823050E+03  0.00000000000E+00 0. -1.
         21   -1    0    0  501  502 -0.00000000000E+00 -0.00000000000E+00 -0.68341812150E+02  0.68341812150E+02  0.00000000000E+00 0. -1.
         25    1    1    2    0    0  0.46678691275E+02  0.65926098144E+02  0.41258134305E+02  0.15444217132E+03  0.12500000000E+03 0.  0.
         25    1    1    2    0    0 -0.46678691275E+02 -0.65926098144E+02  0.45953828404E+03  0.48303787133E+03  0.12500000000E+03 0.  0.
</event>
<event>
 4    0  0.2213671E-002  0.2535115E+03  0.7546771E-02  0.1111106E+00
         21   -1    0    0  502  501  0.00000000000E+00  0.00000000000E+00  0.41717902474E+02  0.41717902474E+02  0.00000000000E+00 0. -1.
         21   -1    0    0  501  502 -0.00000000000E+00 -0.00000000000E+00 -0.15405391450E+04  0.15405391450E+04  0.00000000000E+00 0. -1.
         25    1    1    2    0    0 -0.20347885008E+03 -0.61782342881E+02 -0.56684778183E+03  0.61819261407E+03  0.12500000000E+03 0.  0.
         25    1    1    2    0    0  0.20347885008E+03  0.61782342881E+02 -0.93197346073E+03  0.96406443345E+03  0.12500000000E+03 0.  0.
</event>
<event>
 4    0  0.2213671E-002  0.1791505E+03  0.7546771E-02  0.1168628E+00
         21   -1    0    0  502  501  0.00000000000E+00  0.00000000000E+00  0.46459966465E+02  0.46459966465E+02  0.00000000000E+00 0.  1.
         21   -1    0    0  501  502 -0.00000000000E+00 -0.00000000000E+00 -0.69080748666E+03  0.69080748666E+03  0.00000000000E+00 0.  1.
         25    1    1    2    0    0 -0.36523872329E+02 -0.12297532328E+03 -0.32958404659E+03  0.37511007339E+03  0.12500000000E+03 0.  0.
         25    1    1    2    0    0  0.36523872329E+02  0.12297532328E+03 -0.31476347360E+03  0.36215737974E+03  0.12500000000E+03 0.  0.
</event>
<event>
 4    0  0.2213671E-002  0.2083760E+03  0.7546771E-02  0.1142858E+00
         21   -1    0    0  502  501  0.00000000000E+00  0.00000000000E+00  0.95077549261E+03  0.95077549261E+03  0.00000000000E+00 0.  1.
         21   -1    0    0  501  502 -0.00000000000E+00 -0.00000000000E+00 -0.45668586764E+02  0.45668586764E+02  0.00000000000E+00 0.  1.
         25    1    1    2    0    0  0.45275477774E+02  0.16042785984E+03  0.44553929893E+03  0.49185082493E+03  0.12500000000E+03 0.  0.
         25    1    1    2    0    0 -0.45275477774E+02 -0.16042785984E+03  0.45956760692E+03  0.50459325444E+03  0.12500000000E+03 0.  0.
</event>
<event>
 4    0  0.2213671E-002  0.1830855E+03  0.7546771E-02  0.1164850E+00
         21   -1    0    0  502  501  0.00000000000E+00  0.00000000000E+00  0.39658210875E+02  0.39658210875E+02  0.00000000000E+00 0. -1.
         21   -1    0    0  501  502 -0.00000000000E+00 -0.00000000000E+00 -0.84522984170E+03  0.84522984170E+03  0.00000000000E+00 0. -1.
         25    1    1    2    0    0  0.10239368194E+03  0.83369471022E+02 -0.35093481192E+03  0.39524065709E+03  0.12500000000E+03 0.  0.
         25    1    1    2    0    0 -0.10239368194E+03 -0.83369471022E+02 -0.45463681891E+03  0.48964739549E+03  0.12500000000E+03 0.  0.
</event>
<event>
 4    0  0.2213671E-002  0.1927060E+03  0.7546771E-02  0.1156043E+00
         21   -1    0    0  502  501  0.00000000000E+00  0.00000000000E+00  0.32682194460E+02  0.32682194460E+02  0.00000000000E+00 0. -1.
         21   -1    0    0  501  502 -0.00000000000E+00 -0.00000000000E+00 -0.11362636770E+04  0.11362636770E+04  0.00000000000E+00 0. -1.
         25    1    1    2    0    0  0.10275355220E+03  0.99104926881E+02 -0.44981268795E+03  0.48819722783E+03  0.12500000000E+03 0.  0.
         25    1    1    2    0    0 -0.10275355220E+03 -0.99104926881E+02 -0.65376879455E+03  0.68074864359E+03  0.12500000000E+03 0.  0.
</event>
<event>
 4    0  0.2213671E-002  0.2310550E+03  0.7546771E-02  0.1125899E+00
         21   -1    0    0  502  501  0.00000000000E+00  0.00000000000E+00  0.25540037517E+03  0.25540037517E+03  0.00000000000E+00 0.  1.
         21   -1    0    0  501  502 -0.00000000000E+00 -0.00000000000E+00 -0.20903028560E+03  0.20903028560E+03  0.00000000000E+00 0.  1.
         25    1    1    2    0    0 -0.46778744103E+02 -0.17769341501E+03  0.86734007142E+02  0.23856024110E+03  0.12500000000E+03 0.  0.
         25    1    1    2    0    0  0.46778744103E+02  0.17769341501E+03 -0.40363917565E+02  0.22587041967E+03  0.12500000000E+03 0.  0.
</event>
<event>
 4    0  0.2213671E-002  0.2338422E+03  0.7546771E-02  0.1123964E+00
         21   -1    0    0  502  501  0.00000000000E+00  0.00000000000E+00  0.33381427307E+03  0.33381427307E+03  0.00000000000E+00 0.  1.
         21   -1    0    0  501  502 -0.00000000000E+00 -0.00000000000E+00 -0.16381018428E+03  0.16381018428E+03  0.00000000000E+00 0.  1.
         25    1    1    2    0    0 -0.18880088949E+03  0.39130777174E+02  0.38865082123E+02  0.23305039842E+03  0.12500000000E+03 0.  0.
         25    1    1    2    0    0  0.18880088949E+03 -0.39130777174E+02  0.13113900667E+03  0.26457405894E+03  0.12500000000E+03 0.  0.
</event>
<event>
 4    0  0.2213671E-002  0.2294214E+03  0.7546771E-02  0.1127048E+00
         21   -1    0    0  502  501  0.00000000000E+00  0.00000000000E+00  0.71203467444E+02  0.71203467444E+02  0.00000000000E+00 0.  1.
         21   -1    0    0  501  502 -0.00000000000E+00 -0.00000000000E+00 -0.73920791975E+03  0.73920791975E+03  0.00000000000E+00 0.  1.
         25    1    1    2    0    0  0.13218762643E+03  0.41037676715E+02 -0.98020099388E+02  0.21069076718E+03  0.12500000000E+03 0.  0.
         25    1    1    2    0    0 -0.13218762643E+03 -0.41037676715E+02 -0.56998435291E+03  0.59972062000E+03  0.12500000000E+03 0.  0.
</event>
<event>
 4    0  0.2213671E-002  0.1944110E+03  0.7546771E-02  0.1154542E+00
         21   -1    0    0  502  501  0.00000000000E+00  0.00000000000E+00  0.59397211768E+02  0.59397211768E+02  0.00000000000E+00 0.  1.
         21   -1    0    0  501  502 -0.00000000000E+00 -0.00000000000E+00 -0.63632024587E+03  0.63632024587E+03  0.00000000000E+00 0.  1.
         25    1    1    2    0    0 -0.24227879328E+02 -0.14680230210E+03 -0.27822300165E+03  0.33936844975E+03  0.12500000000E+03 0.  0.
         25    1    1    2    0    0  0.24227879328E+02  0.14680230210E+03 -0.29870003245E+03  0.35634900789E+03  0.12500000000E+03 0.  0.
</event>
<event>
 4    0  0.2213671E-002  0.1735583E+03  0.7546771E-02  0.1174187E+00
         21   -1    0    0  502  501  0.00000000000E+00  0.00000000000E+00  0.27006624653E+02  0.27006624653E+02  0.00000000000E+00 0. -1.
         21   -1    0    0  501  502 -0.00000000000E+00 -0.00000000000E+00 -0.11153736076E+04  0.11153736076E+04  0.00000000000E+00 0. -1.
         25    1    1    2    0    0 -0.30641485155E+02  0.40148375780E+02 -0.90389889053E+03  0.91389769503E+03  0.12500000000E+03 0.  0.
         25    1    1    2    0    0  0.30641485155E+02 -0.40148375780E+02 -0.18446809238E+03  0.22848253718E+03  0.12500000000E+03 0.  0.
</event>
<event>
 4    0  0.2213671E-002  0.2218688E+03  0.7546771E-02  0.1132497E+00
         21   -1    0    0  502  501  0.00000000000E+00  0.00000000000E+00  0.45814941384E+02  0.45814941384E+02  0.00000000000E+00 0. -1.
         21   -1    0    0  501  502 -0.00000000000E+00 -0.00000000000E+00 -0.10744475191E+04  0.10744475191E+04  0.00000000000E+00 0. -1.
         25    1    1    2    0    0 -0.67225105866E+02  0.13331257849E+03 -0.78279590516E+03  0.80665103209E+03  0.12500000000E+03 0.  0.
         25    1    1    2    0    0  0.67225105866E+02 -0.13331257849E+03 -0.24583667254E+03  0.31361142838E+03  0.12500000000E+03 0.  0.
</event>
<event>
 4    0  0.2213671E-002  0.2117133E+03  0.7546771E-02  0.1140216E+00
         21   -1    0    0  502  501  0.00000000000E+00  0.00000000000E+00  0.22717483021E+03  0.22717483021E+03  0.00000000000E+00 0.  1.
         21   -1    0    0  501  502 -0.00000000000E+00 -0.00000000000E+00 -0.19730407497E+03  0.19730407497E+03  0.00000000000E+00 0.  1.
         25    1    1    2    0    0 -0.84161823643E+02  0.98410079391E+02  0.12670130218E+03  0.22010446669E+03  0.12500000000E+03 0.  0.
         25    1    1    2    0    0  0.84161823643E+02 -0.98410079391E+02 -0.96830546941E+02  0.20437443848E+03  0.12500000000E+03 0.  0.
</event>
<event>
 4    0  0.2213671E-002  0.1835250E+03  0.7546771E-02  0.1164434E+00
         21   -1    0    0  502  501  0.00000000000E+00  0.00000000000E+00  0.74264966431E+02  0.74264966431E+02  0.00000000000E+00 0.  1.
         21   -1    0    0  501  502 -0.00000000000E+00 -0.00000000000E+00 -0.45353067065E+03  0.45353067065E+03  0.00000000000E+00 0.  1.
         25    1    1    2    0    0 -0.68120484712E+02 -0.11108588170E+03 -0.14246567927E+03  0.23000422457E+03  0.12500000000E+03 0.  0.
         25    1    1    2    0    0  0.68120484712E+02  0.11108588170E+03 -0.23680002495E+03  0.29779141251E+03  0.12500000000E+03 0.  0.
</event>
<event>
 4    0  0.2213671E-002  0.4131421E+03  0.7546771E-02  0.1039322E+00
         21   -1    0    0  502  501  0.00000000000E+00  0.00000000000E+00  0.68407000225E+03  0.68407000225E+03  0.00000000000E+00 0.  1.
         21   -1    0    0  501  502 -0.00000000000E+00 -0.00000000000E+00 -0.24951598508E+03  0.24951598508E+03  0.00000000000E+00 0. -1.
         25    1    1    2    0    0  0.31927406704E+03  0.16077504137E+02  0.47706384325E+03  0.58771534484E+03  0.12500000000E+03 0.  0.
         25    1    1    2    0    0 -0.31927406704E+03 -0.16077504137E+02 -0.42509826083E+02  0.34587064249E+03  0.12500000000E+03 0.  0.
</event>
<event>
 4    0  0.2213671E-002  0.1906565E+03  0.7546771E-02  0.1157871E+00
         21   -1    0    0  502  501  0.00000000000E+00  0.00000000000E+00  0.13982121880E+02  0.13982121880E+02  0.00000000000E+00 0.  1.
         21   -1    0    0  501  502 -0.00000000000E+00 -0.00000000000E+00 -0.25997413123E+04  0.25997413123E+04  0.00000000000E+00 0.  1.
         25    1    1    2    0    0 -0.28405052317E+02  0.14110174493E+03 -0.13126872645E+04  0.13264574640E+04  0.12500000000E+03 0.  0.
         25    1    1    2    0    0  0.28405052317E+02 -0.14110174493E+03 -0.12730719260E+04  0.12872659702E+04  0.12500000000E+03 0.  0.
</event>
<event>
 4    0  0.2213671E-002  0.1536289E+03  0.7546771E-02  0.1196083E+00
         21   -1    0    0  502  501  0.00000000000E+00  0.00000000000E+00  0.28903175552E+02  0.28903175552E+02  0.00000000000E+00 0. -1.
         21   -1    0    0  501  502 -0.00000000000E+00 -0.00000000000E+00 -0.81658315833E+03  0.81658315833E+03  0.00000000000E+00 0. -1.
         25    1    1    2    0    0  0.60214180275E+02  0.38674553242E+02 -0.24680002441E+03  0.28575640084E+03  0.12500000000E+03 0.  0.
         25    1    1    2    0    0 -0.60214180275E+02 -0.38674553242E+02 -0.54087995838E+03  0.55972993304E+03  0.12500000000E+03 0.  0.
</event>
<event>
 4    0  0.2213671E-002  0.2136264E+03  0.7546771E-02  0.1138726E+00
         21   -1    0    0  502  501  0.00000000000E+00  0.00000000000E+00  0.21763635581E+04  0.21763635581E+04  0.00000000000E+00 0. -1.
         21   -1    0    0  501  502 -0.00000000000E+00 -0.00000000000E+00 -0.20969039656E+02  0.20969039656E+02  0.00000000000E+00 0. -1.
         25    1    1    2    0    0 -0.87745844949E+02  0.84855571793E+02  0.44548354383E+03  0.47851895385E+03  0.12500000000E+03 0.  0.
         25    1    1    2    0    0  0.87745844949E+02 -0.84855571793E+02  0.17099109746E+04  0.17188136439E+04  0.12500000000E+03 0.  0.
</event>
<event>
 4    0  0.2213671E-002  0.1725031E+03  0.7546771E-02  0.1175262E+00
         21   -1    0    0  502  501  0.00000000000E+00  0.00000000000E+00  0.16905082146E+03  0.16905082146E+03  0.00000000000E+00 0. -1.
         21   -1    0    0  501  502 -0.00000000000E+00 -0.00000000000E+00 -0.17602585834E+03  0.17602585834E+03  0.00000000000E+00 0. -1.
         25    1    1    2    0    0  0.11458408818E+03  0.27999750384E+02 -0.18282994175E+02  0.17283740094E+03  0.12500000000E+03 0.  0.
         25    1    1    2    0    0 -0.11458408818E+03 -0.27999750384E+02  0.11307957292E+02  0.17223927887E+03  0.12500000000E+03 0.  0.
</event>
<event>
 4    0  0.2213671E-002  0.2435937E+03  0.7546771E-02  0.1117422E+00
         21   -1    0    0  502  501  0.00000000000E+00  0.00000000000E+00  0.15897296860E+03  0.15897296860E+03  0.00000000000E+00 0. -1.
         21   -1    0    0  501  502 -0.00000000000E+00 -0.00000000000E+00 -0.37325777795E+03  0.37325777795E+03  0.00000000000E+00 0. -1.
         25    1    1    2    0    0 -0.20295462737E+03  0.37735264717E+02 -0.70936663971E+02  0.25153834950E+03  0.12500000000E+03 0.  0.
         25    1    1    2    0    0  0.20295462737E+03 -0.37735264717E+02 -0.14334814538E+03  0.28069239705E+03  0.12500000000E+03 0.  0.
</event>
<event>
 4    0  0.2213671E-002  0.3599091E+03  0.7546771E-02  0.1058620E+00
         21   -1    0    0  502  501  0.00000000000E+00  0.00000000000E+00  0.39128787392E+03  0.39128787392E+03  0.00000000000E+00 0.  1.
         21   -1    0    0  501  502 -0.00000000000E+00 -0.00000000000E+00 -0.33104672327E+03  0.33104672327E+03  0.00000000000E+00 0.  1.
         25    1    1    2    0    0  0.28863745550E+03 -0.16241642440E+03 -0.35059495607E+02  0.35573142097E+03  0.12500000000E+03 0.  0.
         25    1    1    2    0    0 -0.28863745550E+03  0.16241642440E+03  0.95300646265E+02  0.36660317622E+03  0.12500000000E+03 0.  0.
</event>
<event>
 4    0  0.2213671E-002  0.1971609E+03  0.7546771E-02  0.1152157E+00
         21   -1    0    0  502  501  0.00000000000E+00  0.00000000000E+00  0.26794224615E+02  0.26794224615E+02  0.00000000000E+00 0. -1.
         21   -1    0    0  501  502 -0.00000000000E+00 -0.00000000000E+00 -0.14507755604E+04  0.14507755604E+04  0.00000000000E+00 0. -1.
         25    1    1    2    0    0 -0.76630478562E+02  0.13049336055E+03 -0.78175740818E+03  0.80602133510E+03  0.12500000000E+03 0.  0.
         25    1    1    2    0    0  0.76630478562E+02 -0.13049336055E+03 -0.64222392759E+03  0.67154844990E+03  0.12500000000E+03 0.  0.
</event>
<event>
 4    0  0.2213671E-002  0.2036911E+03  0.7546771E-02  0.1146662E+00
         21   -1    0    0  502  501  0.00000000000E+00  0.00000000000E+00  0.15447015638E+03  0.15447015638E+03  0.00000000000E+00 0.  1.
         21   -1    0    0  501  502 -0.00000000000E+00 -0.00000000000E+00 -0.26859594642E+03  0.26859594642E+03  0.00000000000E+00 0.  1.
         25    1    1    2    0    0 -0.49071987732E+01  0.91909737545E+02  0.79899288452E+02  0.17458630173E+03  0.12500000000E+03 0.  0.
         25    1    1    2    0    0  0.49071987732E+01 -0.91909737545E+02 -0.19402507849E+03  0.24847980107E+03  0.12500000000E+03 0.  0.
</event>
<event>
 4    0  0.2213671E-002  0.2346776E+03  0.7546771E-02  0.1123390E+00
         21   -1    0    0  502  501  0.00000000000E+00  0.00000000000E+00  0.49856348168E+02  0.49856348168E+02  0.00000000000E+00 0.  1.
         21   -1    0    0  501  502 -0.00000000000E+00 -0.00000000000E+00 -0.11046455626E+04  0.11046455626E+04  0.00000000000E+00 0.  1.
         25    1    1    2    0    0 -0.68129653034E+02 -0.87422603234E+01 -0.68990419651E+02  0.15843848883E+03  0.12500000000E+03 0.  0.
         25    1    1    2    0    0  0.68129653034E+02  0.87422603234E+01 -0.98579879473E+03  0.99606342189E+03  0.12500000000E+03 0.  0.
</event>
<event>
 4    0  0.2213671E-002  0.2089619E+03  0.7546771E-02  0.1142391E+00
         21   -1    0    0  502  501  0.00000000000E+00  0.00000000000E+00  0.24056999498E+03  0.24056999498E+03  0.00000000000E+00 0. -1.
         21   -1    0    0  501  502 -0.00000000000E+00 -0.00000000000E+00 -0.18150680450E+03  0.18150680450E+03  0.00000000000E+00 0. -1.
         25    1    1    2    0    0 -0.13823487735E+03  0.31587310467E+02  0.11948661159E+03  0.22362622800E+03  0.12500000000E+03 0.  0.
         25    1    1    2    0    0  0.13823487735E+03 -0.31587310467E+02 -0.60423421110E+02  0.19845057147E+03  0.12500000000E+03 0.  0.
</event>
<event>
 4    0  0.2213671E-002  0.1821911E+03  0.7546771E-02  0.1165699E+00
         21   -1    0    0  502  501  0.00000000000E+00  0.00000000000E+00  0.35712416865E+02  0.35712416865E+02  0.00000000000E+00 0. -1.
         21   -1    0    0  501  502 -0.00000000000E+00 -0.00000000000E+00 -0.92946931978E+03  0.92946931978E+03  0.00000000000E+00 0. -1.
         25    1    1    2    0    0 -0.39983518510E+02 -0.11962473840E+03 -0.55479412905E+03  0.58252063090E+03  0.12500000000E+03 0.  0.
         25    1    1    2    0    0  0.39983518510E+02  0.11962473840E+03 -0.33896277386E+03  0.38266110575E+03  0.12500000000E+03 0.  0.
</event>
<event>
 4    0  0.2213671E-002  0.2679689E+03  0.7546771E-02  0.1102448E+00
         21   -1    0    0  502  501  0.00000000000E+00  0.00000000000E+00  0.10266899274E+03  0.10266899274E+03  0.00000000000E+00 0. -1.
         21   -1    0    0  501  502 -0.00000000000E+00 -0.00000000000E+00 -0.69940625070E+03  0.69940625070E+03  0.00000000000E+00 0. -1.
         25    1    1    2    0    0 -0.55350519751E+02 -0.12065065800E+03 -0.59225598547E+03  0.61968735153E+03  0.12500000000E+03 0.  0.
         25    1    1    2    0    0  0.55350519751E+02  0.12065065800E+03 -0.44812724815E+01  0.18238789191E+03  0.12500000000E+03 0.  0.
</event>
<event>
 4    0  0.2213671E-002  0.1699022E+03  0.7546771E-02  0.1177950E+00
         21   -1    0    0  502  501  0.00000000000E+00  0.00000000000E+00  0.39901224124E+03  0.39901224124E+03  0.00000000000E+00 0.  1.
         21   -1    0    0  501  502 -0.00000000000E+00 -0.00000000000E+00 -0.72345527794E+02  0.72345527794E+02  0.00000000000E+00 0.  1.
         25    1    1    2    0    0  0.28806381828E+02  0.68830702576E+02  0.28485131989E+03  0.31989490101E+03  0.12500000000E+03 0.  0.
         25    1    1    2    0    0 -0.28806381828E+02 -0.68830702576E+02  0.41815393555E+02  0.15146286802E+03  0.12500000000E+03 0.  0.
</event>
<event>
 4    0  0.2213671E-002  0.2674033E+03  0.7546771E-02  0.1102775E+00
         21   -1    0    0  502  501  0.00000000000E+00  0.00000000000E+00  0.11052202417E+03  0.11052202417E+03  0.00000000000E+00 0.  1.
         21   -1    0    0  501  502 -0.00000000000E+00 -0.00000000000E+00 -0.64697101092E+03  0.64697101092E+03  0.00000000000E+00 0.  1.
         25    1    1    2    0    0 -0.89028715121E+02  0.21631515958E+03 -0.31648952469E+03  0.41292732970E+03  0.12500000000E+03 0.  0.
         25    1    1    2    0    0  0.89028715121E+02 -0.21631515958E+03 -0.21995946207E+03  0.34456570539E+03  0.12500000000E+03 0.  0.
</event>
<event>
 4    0  0.2213671E-002  0.1517547E+03  0.7546771E-02  0.1198333E+00
         21   -1    0    0  502  501  0.00000000000E+00  0.00000000000E+00  0.76164442052E+02  0.76164442052E+02  0.00000000000E+00 0.  1.
         21   -1    0    0  501  502 -0.00000000000E+00 -0.00000000000E+00 -0.30236525867E+03  0.30236525867E+03  0.00000000000E+00 0.  1.
         25    1    1    2    0    0  0.85377504011E+02  0.29371710112E+01 -0.12597330250E+03  0.19695740176E+03  0.12500000000E+03 0.  0.
         25    1    1    2    0    0 -0.85377504011E+02 -0.29371710112E+01 -0.10022751412E+03  0.18157229896E+03  0.12500000000E+03 0.  0.
</event>
<event>
 4    0  0.2213671E-002  0.2112097E+03  0.7546771E-02  0.1140612E+00
         21   -1    0    0  502  501  0.00000000000E+00  0.00000000000E+00  0.56784932600E+03  0.56784932600E+03  0.00000000000E+00 0. -1.
         21   -1    0    0  501  502 -0.00000000000E+00 -0.00000000000E+00 -0.78558786868E+02  0.78558786868E+02  0.00000000000E+00 0. -1.
         25    1    1    2    0    0  0.43250843397E+02  0.16180668125E+03  0.19791576763E+03  0.28783274419E+03  0.12500000000E+03 0.  0.
         25    1    1    2    0    0 -0.43250843397E+02 -0.16180668125E+03  0.29137477150E+03  0.35857536868E+03  0.12500000000E+03 0.  0.
</event>
<event>
 4    0  0.2213671E-002  0.1879762E+03  0.7546771E-02  0.1160299E+00
         21   -1    0    0  502  501  0.00000000000E+00  0.00000000000E+00  0.12253818327E+02  0.12253818327E+02  0.00000000000E+00 0.  1.
         21   -1    0    0  501  502 -0.00000000000E+00 -0.00000000000E+00 -0.28835948063E+04  0.28835948063E+04  0.00000000000E+00 0.  1.
         25    1    1    2    0    0 -0.10241327421E+03  0.86701860822E+02 -0.17536675617E+04  0.17632301632E+04  0.12500000000E+03 0.  0.
         25    1    1    2    0    0  0.10241327421E+03 -0.86701860822E+02 -0.11176734263E+04  0.11326184614E+04  0.12500000000E+03 0.  0.
</event>
<event>
 4    0  0.2213671E-002  0.2590337E+03  0.7546771E-02  0.1107725E+00
         21   -1    0    0  502  501  0.00000000000E+00  0.00000000000E+00  0.87861317726E+03  0.87861317726E+03  0.00000000000E+00 0.  1.
         21   -1    0    0  501  502 -0.00000000000E+00 -0.00000000000E+00 -0.76368584569E+02  0.76368584569E+02  0.00000000000E+00 0.  1.
         25    1    1    2    0    0 -0.12904825008E+02  0.15453781004E+03  0.70639078674E+03  0.73393556449E+03  0.12500000000E+03 0.  0.
         25    1    1    2    0    0  0.12904825008E+02 -0.15453781004E+03  0.95853805959E+02  0.22104619734E+03  0.12500000000E+03 0.  0.
</event>
<event>
 4    0  0.2213671E-002  0.2394186E+03  0.7546771E-02  0.1120181E+00
         21   -1    0    0  502  501  0.00000000000E+00  0.00000000000E+00  0.31258720355E+03  0.31258720355E+03  0.00000000000E+00 0.  1.
         21   -1    0    0  501  502 -0.00000000000E+00 -0.00000000000E+00 -0.18337689155E+03  0.18337689155E+03  0.00000000000E+00 0.  1.
         25    1    1    2    0    0 -0.16928865663E+03  0.26920219901E+02  0.17953767060E+03  0.27792467085E+03  0.12500000000E+03 0.  0.
         25    1    1    2    0    0  0.16928865663E+03 -0.26920219901E+02 -0.50327358589E+02  0.21803942425E+03  0.12500000000E+03 0.  0.
</event>
<event>
 4    0  0.2213671E-002  0.2449380E+03  0.7546771E-02  0.1116546E+00
         21   -1    0    0  502  501  0.00000000000E+00  0.00000000000E+00  0.73381352320E+03  0.73381352320E+03  0.00000000000E+00 0.  1.
         21   -1    0    0  501  502 -0.00000000000E+00 -0.00000000000E+00 -0.81757302191E+02  0.81757302191E+02  0.00000000000E+00 0.  1.
         25    1    1    2    0    0 -0.20219458883E+03  0.50480132330E+02  0.37703669035E+03  0.44856723173E+03  0.12500000000E+03 0.  0.
         25    1    1    2    0    0  0.20219458883E+03 -0.50480132330E+02  0.27501953065E+03  0.36700359365E+03  0.12500000000E+03 0.  0.
</event>
<event>
 4    0  0.2213671E-002  0.3480124E+03  0.7546771E-02  0.1063434E+00
         21   -1    0    0  502  501  0.00000000000E+00  0.00000000000E+00  0.10759004161E+03  0.10759004161E+03  0.00000000000E+00 0.  1.
         21   -1    0    0  501  502 -0.00000000000E+00 -0.00000000000E+00 -0.11256860822E+04  0.11256860822E+04  0.00000000000E+00 0.  1.
         25    1    1    2    0    0  0.18229715888E+03 -0.26043248943E+03 -0.39111075050E+03  0.51927830191E+03  0.12500000000E+03 0.  0.
         25    1    1    2    0    0 -0.18229715888E+03  0.26043248943E+03 -0.62698529007E+03  0.71399782188E+03  0.12500000000E+03 0.  0.
</event>
<event>
 4    0  0.2213671E-002  0.2500001E+03  0.7546771E-02  0.1113305E+00
         21   -1    0    0  502  501  0.00000000000E+00  0.00000000000E+00  0.43757357568E+03  0.43757357568E+03  0.00000000000E+00 0.  1.
         21   -1    0    0  501  502 -0.00000000000E+00 -0.00000000000E+00 -0.14283322935E+03  0.14283322935E+03  0.00000000000E+00 0.  1.
         25    1    1    2    0    0 -0.55238785822E+02 -0.19253894044E+03  0.24275822453E+03  0.33864306079E+03  0.12500000000E+03 0.  0.
         25    1    1    2    0    0  0.55238785822E+02  0.19253894044E+03  0.51982121800E+02  0.24176374424E+03  0.12500000000E+03 0.  0.
</event>
<event>
 4    0  0.2213671E-002  0.2072563E+03  0.7546771E-02  0.1143757E+00
         21   -1    0    0  502  501  0.00000000000E+00  0.00000000000E+00  0.36899543428E+03  0.36899543428E+03  0.00000000000E+00 0. -1.
         21   -1    0    0  501  502 -0.00000000000E+00 -0.00000000000E+00 -0.11641117917E+03  0.11641117917E+03  0.00000000000E+00 0. -1.
         25    1    1    2    0    0  0.39063359531E+02 -0.52047961728E+02 -0.51670682588E+02  0.15009928653E+03  0.12500000000E+03 0.  0.
         25    1    1    2    0    0 -0.39063359531E+02  0.52047961728E+02  0.30425493769E+03  0.33530732692E+03  0.12500000000E+03 0.  0.
</event>
<event>
 4    0  0.2213671E-002  0.2667200E+03  0.7546771E-02  0.1103172E+00
         21   -1    0    0  502  501  0.00000000000E+00  0.00000000000E+00  0.36769404551E+03  0.36769404551E+03  0.00000000000E+00 0. -1.
         21   -1    0    0  501  502 -0.00000000000E+00 -0.00000000000E+00 -0.19347487650E+03  0.19347487650E+03  0.00000000000E+00 0. -1.
         25    1    1    2    0    0 -0.16319244756E+03  0.12344577085E+03 -0.35769429546E+02  0.24243573452E+03  0.12500000000E+03 0.  0.
         25    1    1    2    0    0  0.16319244756E+03 -0.12344577085E+03  0.20998859856E+03  0.31873318749E+03  0.12500000000E+03 0.  0.
</event>
<event>
 4    0  0.2213671E-002  0.4262140E+03  0.7546771E-02  0.1035063E+00
         21   -1    0    0  502  501  0.00000000000E+00  0.00000000000E+00  0.39614935850E+03  0.39614935850E+03  0.00000000000E+00 0.  1.
         21   -1    0    0  501  502 -0.00000000000E+00 -0.00000000000E+00 -0.45856022305E+03  0.45856022305E+03  0.00000000000E+00 0.  1.
         25    1    1    2    0    0 -0.55890256034E+02  0.39448624446E+03 -0.11681676104E+03  0.43360612709E+03  0.12500000000E+03 0.  0.
         25    1    1    2    0    0  0.55890256034E+02 -0.39448624446E+03  0.54405896488E+02  0.42110345446E+03  0.12500000000E+03 0.  0.
</event>
<event>
 4    0  0.2213671E-002  0.1785528E+03  0.7546771E-02  0.1169211E+00
         21   -1    0    0  502  501  0.00000000000E+00  0.00000000000E+00  0.12290551178E+03  0.12290551178E+03  0.00000000000E+00 0. -1.
         21   -1    0    0  501  502 -0.00000000000E+00 -0.00000000000E+00 -0.25939514990E+03  0.25939514990E+03  0.00000000000E+00 0. -1.
         25    1    1    2    0    0  0.88897885446E+02 -0.51714159370E+02 -0.14892015140E+03  0.21995317640E+03  0.12500000000E+03 0.  0.
         25    1    1    2    0    0 -0.88897885446E+02  0.51714159370E+02  0.12430513277E+02  0.16234748528E+03  0.12500000000E+03 0.  0.
</event>
<event>
 4    0  0.2213671E-002  0.1925258E+03  0.7546771E-02  0.1156203E+00
         21   -1    0    0  502  501  0.00000000000E+00  0.00000000000E+00  0.86940034916E+02  0.86940034916E+02  0.00000000000E+00 0.  1.
         21   -1    0    0  501  502 -0.00000000000E+00 -0.00000000000E+00 -0.42634193785E+03  0.42634193785E+03  0.00000000000E+00 0.  1.
         25    1    1    2    0    0 -0.37203074254E+02 -0.59578903080E+02  0.15674807797E+01  0.14339167138E+03  0.12500000000E+03 0.  0.
         25    1    1    2    0    0  0.37203074254E+02  0.59578903080E+02 -0.34096938371E+03  0.36989030138E+03  0.12500000000E+03 0.  0.
</event>
<event>
 4    0  0.2213671E-002  0.2753204E+03  0.7546771E-02  0.1098273E+00
         21   -1    0    0  502  501  0.00000000000E+00  0.00000000000E+00  0.81350588689E+02  0.81350588689E+02  0.00000000000E+00 0.  1.
         21   -1    0    0  501  502 -0.00000000000E+00 -0.00000000000E+00 -0.93178548480E+03  0.93178548480E+03  0.00000000000E+00 0.  1.
         25    1    1    2    0    0 -0.11277471957E+03  0.72878387331E+02 -0.80294815071E+03  0.82363834869E+03  0.12500000000E+03 0.  0.
         25    1    1    2    0    0  0.11277471957E+03 -0.72878387331E+02 -0.47486745403E+02  0.18949772479E+03  0.12500000000E+03 0.  0.
</event>
<event>
 4    0  0.2213671E-002  0.1885567E+03  0.7546771E-02  0.1159770E+00
         21   -1    0    0  502  501  0.00000000000E+00  0.00000000000E+00  0.12989886210E+04  0.12989886210E+04  0.00000000000E+00 0.  1.
         21   -1    0    0  501  502 -0.00000000000E+00 -0.00000000000E+00 -0.27370250731E+02  0.27370250731E+02  0.00000000000E+00 0.  1.
         25    1    1    2    0    0 -0.10579182628E+02 -0.74378540230E+02  0.10561701609E+04  0.10661915847E+04  0.12500000000E+03 0.  0.
         25    1    1    2    0    0  0.10579182628E+02  0.74378540230E+02  0.21544820929E+03  0.26016728702E+03  0.12500000000E+03 0.  0.
</event>
<event>
 4    0  0.2213671E-002  0.2359654E+03  0.7546771E-02  0.1122510E+00
         21   -1    0    0  502  501  0.00000000000E+00  0.00000000000E+00  0.20327593834E+03  0.20327593834E+03  0.00000000000E+00 0.  1.
         21   -1    0    0  501  502 -0.00000000000E+00 -0.00000000000E+00 -0.27391175295E+03  0.27391175295E+03  0.00000000000E+00 0.  1.
         25    1    1    2    0    0 -0.72006009055E+01  0.17419425574E+03  0.64057992324E+02  0.22388370590E+03  0.12500000000E+03 0.  0.
         25    1    1    2    0    0  0.72006009055E+01 -0.17419425574E+03 -0.13469380693E+03  0.25330398539E+03  0.12500000000E+03 0.  0.
</event>
<event>
 4    0  0.2213671E-002  0.2590132E+03  0.7546771E-02  0.1107738E+00
         21   -1    0    0  502  501  0.00000000000E+00  0.00000000000E+00  0.10192039851E+04  0.10192039851E+04  0.00000000000E+00 0. -1.
         21   -1    0    0  501  502 -0.00000000000E+00 -0.00000000000E+00 -0.65823743552E+02  0.65823743552E+02  0.00000000000E+00 0. -1.
         25    1    1    2    0    0  0.40756963859E+02  0.22272662728E+03  0.50590436985E+03  0.56818351968E+03  0.12500000000E+03 0.  0.
         25    1    1    2    0    0 -0.40756963859E+02 -0.22272662728E+03  0.44747587173E+03  0.51684420900E+03  0.12500000000E+03 0.  0.
</event>
<event>
 4    0  0.2213671E-002  0.2126781E+03  0.7546771E-02  0.1139463E+00
         21   -1    0    0  502  501  0.00000000000E+00  0.00000000000E+00  0.58952045040E+03  0.58952045040E+03  0.00000000000E+00 0. -1.
         21   -1    0    0  501  502 -0.00000000000E+00 -0.00000000000E+00 -0.76726746568E+02  0.76726746568E+02  0.00000000000E+00 0. -1.
         25    1    1    2    0    0 -0.16436859593E+03 -0.19533445867E+02  0.33000416804E+03  0.38977729765E+03  0.12500000000E+03 0.  0.
         25    1    1    2    0    0  0.16436859593E+03  0.19533445867E+02  0.18278953579E+03  0.27646989932E+03  0.12500000000E+03 0.  0.
</event>
<event>
 4    0  0.2213671E-002  0.2849058E+03  0.7546771E-02  0.1093039E+00
         21   -1    0    0  502  501  0.00000000000E+00  0.00000000000E+00  0.63315367848E+03  0.63315367848E+03  0.00000000000E+00 0.  1.
         21   -1    0    0  501  502 -0.00000000000E+00 -0.00000000000E+00 -0.12820159353E+03  0.12820159353E+03  0.00000000000E+00 0.  1.
         25    1    1    2    0    0 -0.62934704872E+02  0.11319039569E+03  0.54756156469E+03  0.57638659759E+03  0.12500000000E+03 0.  0.
         25    1    1    2    0    0  0.62934704872E+02 -0.11319039569E+03 -0.42609479739E+02  0.18496867442E+03  0.12500000000E+03 0.  0.
</event>
<event>
 4    0  0.2213671E-002  0.2905959E+03  0.7546771E-02  0.1090038E+00
         21   -1    0    0  502  501  0.00000000000E+00  0.00000000000E+00  0.90451460959E+02  0.90451460959E+02  0.00000000000E+00 0. -1.
         21   -1    0    0  501  502 -0.00000000000E+00 -0.00000000000E+00 -0.93360543601E+03  0.93360543601E+03  0.00000000000E+00 0. -1.
         25    1    1    2    0    0 -0.60447897982E+02  0.16015894651E+03 -0.77183805367E+03  0.80041477848E+03  0.12500000000E+03 0.  0.
         25    1    1    2    0    0  0.60447897982E+02 -0.16015894651E+03 -0.71315921378E+02  0.22364211848E+03  0.12500000000E+03 0.  0.
</event>
<event>
 4    0  0.2213671E-002  0.1715313E+03  0.7546771E-02  0.1176260E+00
         21   -1    0    0  502  501  0.00000000000E+00  0.00000000000E+00  0.25515740277E+02  0.25515740277E+02  0.00000000000E+00 0. -1.
         21   -1    0    0  501  502 -0.00000000000E+00 -0.00000000000E+00 -0.11531306066E+04  0.11531306066E+04  0.00000000000E+00 0.  1.
         25    1    1    2    0    0 -0.42155284334E+01  0.11137281975E+03 -0.43634928908E+03  0.46738354458E+03  0.12500000000E+03 0.  0.
         25    1    1    2    0    0  0.42155284334E+01 -0.11137281975E+03 -0.69126557727E+03  0.71126280233E+03  0.12500000000E+03 0.  0.
</event>
<event>
 4    0  0.2213671E-002  0.2387079E+03  0.7546771E-02  0.1120657E+00
         21   -1    0    0  502  501  0.00000000000E+00  0.00000000000E+00  0.45515039021E+02  0.45515039021E+02  0.00000000000E+00 0. -1.
         21   -1    0    0  501  502 -0.00000000000E+00 -0.00000000000E+00 -0.12519256186E+04  0.12519256186E+04  0.00000000000E+00 0. -1.
         25    1    1    2    0    0 -0.10900437158E+03  0.13644999069E+03 -0.32005076270E+03  0.38543228159E+03  0.12500000000E+03 0.  0.
         25    1    1    2    0    0  0.10900437158E+03 -0.13644999069E+03 -0.88635981692E+03  0.91200837607E+03  0.12500000000E+03 0.  0.
</event>
<event>
 4    0  0.2213671E-002  0.2511524E+03  0.7546771E-02  0.1112579E+00
         21   -1    0    0  502  501  0.00000000000E+00  0.00000000000E+00  0.13103691671E+03  0.13103691671E+03  0.00000000000E+00 0.  1.
         21   -1    0    0  501  502 -0.00000000000E+00 -0.00000000000E+00 -0.48137237615E+03  0.48137237615E+03  0.00000000000E+00 0.  1.
         25    1    1    2    0    0 -0.12826257935E+03 -0.15824090082E+03 -0.26929963236E+03  0.36005383478E+03  0.12500000000E+03 0.  0.
         25    1    1    2    0    0  0.12826257935E+03  0.15824090082E+03 -0.81035827068E+02  0.25235545808E+03  0.12500000000E+03 0.  0.
</event>
<event>
 4    0  0.2213671E-002  0.2934876E+03  0.7546771E-02  0.1088542E+00
         21   -1    0    0  502  501  0.00000000000E+00  0.00000000000E+00  0.32826761986E+03  0.32826761986E+03  0.00000000000E+00 0.  1.
         21   -1    0    0  501  502 -0.00000000000E+00 -0.00000000000E+00 -0.26239246569E+03  0.26239246569E+03  0.00000000000E+00 0.  1.
         25    1    1    2    0    0  0.17279310432E+03 -0.27131991818E+02  0.23398260023E+03  0.31775219761E+03  0.12500000000E+03 0.  0.
         25    1    1    2    0    0 -0.17279310432E+03  0.27131991818E+02 -0.16810744605E+03  0.27290788793E+03  0.12500000000E+03 0.  0.
</event>
<event>
 4    0  0.2213671E-002  0.2595958E+03  0.7546771E-02  0.1107386E+00
         21   -1    0    0  502  501  0.00000000000E+00  0.00000000000E+00  0.15621799635E+03  0.15621799635E+03  0.00000000000E+00 0.  1.
         21   -1    0    0  501  502 -0.00000000000E+00 -0.00000000000E+00 -0.43138413326E+03  0.43138413326E+03  0.00000000000E+00 0.  1.
         25    1    1    2    0    0  0.14709492638E+03  0.15493004622E+03 -0.49010514763E+02  0.25232373481E+03  0.12500000000E+03 0.  0.
         25    1    1    2    0    0 -0.14709492638E+03 -0.15493004622E+03 -0.22615562214E+03  0.33527839480E+03  0.12500000000E+03 0.  0.
</event>
<event>
 4    0  0.2213671E-002  0.1922387E+03  0.7546771E-02  0.1156458E+00
         21   -1    0    0  502  501  0.00000000000E+00  0.00000000000E+00  0.31580933135E+03  0.31580933135E+03  0.00000000000E+00 0.  1.
         21   -1    0    0  501  502 -0.00000000000E+00 -0.00000000000E+00 -0.11701909181E+03  0.11701909181E+03  0.00000000000E+00 0.  1.
         25    1    1    2    0    0 -0.95649370085E+02 -0.10854577738E+03  0.12190276857E+03  0.22675156619E+03  0.12500000000E+03 0.  0.
         25    1    1    2    0    0  0.95649370085E+02  0.10854577738E+03  0.76887470972E+02  0.20607685697E+03  0.12500000000E+03 0.  0.
</event>
<event>
 4    0  0.2213671E-002  0.1983387E+03  0.7546771E-02  0.1151148E+00
         21   -1    0    0  502  501  0.00000000000E+00  0.00000000000E+00  0.50831756927E+03  0.50831756927E+03  0.00000000000E+00 0. -1.
         21   -1    0    0  501  502 -0.00000000000E+00 -0.00000000000E+00 -0.77389084202E+02  0.77389084202E+02  0.00000000000E+00 0. -1.
         25    1    1    2    0    0  0.10566614258E+03 -0.41799084296E+02  0.62013362413E+02  0.17995320018E+03  0.12500000000E+03 0.  0.
         25    1    1    2    0    0 -0.10566614258E+03  0.41799084296E+02  0.36891512265E+03  0.40575345329E+03  0.12500000000E+03 0.  0.
</event>
<event>
 4    0  0.2213671E-002  0.1436520E+03  0.7546771E-02  0.1208498E+00
         21   -1    0    0  502  501  0.00000000000E+00  0.00000000000E+00  0.17081114433E+04  0.17081114433E+04  0.00000000000E+00 0. -1.
         21   -1    0    0  501  502 -0.00000000000E+00 -0.00000000000E+00 -0.12081113618E+02  0.12081113618E+02  0.00000000000E+00 0. -1.
         25    1    1    2    0    0  0.58160104211E+02  0.39365327319E+02  0.79491239773E+03  0.80773940524E+03  0.12500000000E+03 0.  0.
         25    1    1    2    0    0 -0.58160104211E+02 -0.39365327319E+02  0.90111793197E+03  0.91245315169E+03  0.12500000000E+03 0.  0.
</event>
<event>
 4    0  0.2213671E-002  0.2016424E+03  0.7546771E-02  0.1148361E+00
         21   -1    0    0  502  501  0.00000000000E+00  0.00000000000E+00  0.74259273897E+02  0.74259273897E+02  0.00000000000E+00 0. -1.
         21   -1    0    0  501  502 -0.00000000000E+00 -0.00000000000E+00 -0.54753638387E+03  0.54753638387E+03  0.00000000000E+00 0. -1.
         25    1    1    2    0    0 -0.10640762241E+03 -0.78444475178E+02 -0.10259229361E+03  0.20886908939E+03  0.12500000000E+03 0.  0.
         25    1    1    2    0    0  0.10640762241E+03  0.78444475178E+02 -0.37068481637E+03  0.41292656839E+03  0.12500000000E+03 0.  0.
</event>
<event>
 4    0  0.2213671E-002  0.2006915E+03  0.7546771E-02  0.1149157E+00
         21   -1    0    0  502  501  0.00000000000E+00  0.00000000000E+00  0.13284735610E+03  0.13284735610E+03  0.00000000000E+00 0. -1.
         21   -1    0    0  501  502 -0.00000000000E+00 -0.00000000000E+00 -0.30318312641E+03  0.30318312641E+03  0.00000000000E+00 0. -1.
         25    1    1    2    0    0  0.11660452592E+02  0.15376366924E+03 -0.53073699916E+02  0.20547761376E+03  0.12500000000E+03 0.  0.
         25    1    1    2    0    0 -0.11660452592E+02 -0.15376366924E+03 -0.11726207039E+03  0.23055286874E+03  0.12500000000E+03 0.  0.
</event>
<event>
 4    0  0.2213671E-002  0.1751711E+03  0.7546771E-02  0.1172560E+00
         21   -1    0    0  502  501  0.00000000000E+00  0.00000000000E+00  0.17551716044E+03  0.17551716044E+03  0.00000000000E+00 0. -1.
         21   -1    0    0  501  502 -0.00000000000E+00 -0.00000000000E+00 -0.17482572427E+03  0.17482572427E+03  0.00000000000E+00 0. -1.
         25    1    1    2    0    0 -0.30635071088E+02 -0.46061447853E+02 -0.10919786629E+03  0.17495524731E+03  0.12500000000E+03 0.  0.
         25    1    1    2    0    0  0.30635071088E+02  0.46061447853E+02  0.10988930246E+03  0.17538763741E+03  0.12500000000E+03 0.  0.
</event>
<event>
 4    0  0.2213671E-002  0.2005155E+03  0.7546771E-02  0.1149305E+00
         21   -1    0    0  502  501  0.00000000000E+00  0.00000000000E+00  0.12712504594E+03  0.12712504594E+03  0.00000000000E+00 0. -1.
         21   -1    0    0  501  502 -0.00000000000E+00 -0.00000000000E+00 -0.31627495026E+03  0.31627495026E+03  0.00000000000E+00 0. -1.
         25    1    1    2    0    0 -0.51385977658E+02  0.12862664803E+03 -0.17579422649E+03  0.25634731001E+03  0.12500000000E+03 0.  0.
         25    1    1    2    0    0  0.51385977658E+02 -0.12862664803E+03 -0.13355677828E+02  0.18705268620E+03  0.12500000000E+03 0.  0.
</event>
<event>
 4    0  0.2213671E-002  0.2843097E+03  0.7546771E-02  0.1093358E+00
         21   -1    0    0  502  501  0.00000000000E+00  0.00000000000E+00  0.30690491241E+04  0.30690491241E+04  0.00000000000E+00 0. -1.
         21   -1    0    0  501  502 -0.00000000000E+00 -0.00000000000E+00 -0.26337805590E+02  0.26337805590E+02  0.00000000000E+00 0. -1.
         25    1    1    2    0    0  0.19555704013E+03  0.13637833454E+03  0.20192497031E+04  0.20371146187E+04  0.12500000000E+03 0.  0.
         25    1    1    2    0    0 -0.19555704013E+03 -0.13637833454E+03  0.10234616154E+04  0.10582723110E+04  0.12500000000E+03 0.  0.
</event>
<event>
 4    0  0.2213671E-002  0.1968736E+03  0.7546771E-02  0.1152404E+00
         21   -1    0    0  502  501  0.00000000000E+00  0.00000000000E+00  0.42805216167E+03  0.42805216167E+03  0.00000000000E+00 0. -1.
         21   -1    0    0  501  502 -0.00000000000E+00 -0.00000000000E+00 -0.90547853172E+02  0.90547853172E+02  0.00000000000E+00 0. -1.
         25    1    1    2    0    0 -0.97516049145E+02  0.48959865343E+02  0.29191953166E+02  0.16847438495E+03  0.12500000000E+03 0.  0.
         25    1    1    2    0    0  0.97516049145E+02 -0.48959865343E+02  0.30831235533E+03  0.35012562989E+03  0.12500000000E+03 0.  0.
</event>
<event>
 4    0  0.2213671E-002  0.2294258E+03  0.7546771E-02  0.1127045E+00
         21   -1    0    0  502  501  0.00000000000E+00  0.00000000000E+00  0.54029446349E+02  0.54029446349E+02  0.00000000000E+00 0.  1.
         21   -1    0    0  501  502 -0.00000000000E+00 -0.00000000000E+00 -0.97421345761E+03  0.97421345761E+03  0.00000000000E+00 0.  1.
         25    1    1    2    0    0  0.15343158408E+03  0.11082004299E+03 -0.38282527000E+03  0.44497474116E+03  0.12500000000E+03 0.  0.
         25    1    1    2    0    0 -0.15343158408E+03 -0.11082004299E+03 -0.53735874126E+03  0.58326816280E+03  0.12500000000E+03 0.  0.
</event>
<event>
 4    0  0.2213671E-002  0.2743235E+03  0.7546771E-02  0.1098830E+00
         21   -1    0    0  502  501  0.00000000000E+00  0.00000000000E+00  0.76122803540E+03  0.76122803540E+03  0.00000000000E+00 0. -1.
         21   -1    0    0  501  502 -0.00000000000E+00 -0.00000000000E+00 -0.98857885781E+02  0.98857885781E+02  0.00000000000E+00 0. -1.
         25    1    1    2    0    0  0.18486767375E+03 -0.13074084871E+02  0.58044324669E+03  0.62200188997E+03  0.12500000000E+03 0.  0.
         25    1    1    2    0    0 -0.18486767375E+03  0.13074084871E+02  0.81926902925E+02  0.23808403121E+03  0.12500000000E+03 0.  0.
</event>
<event>
 4    0  0.2213671E-002  0.1931482E+03  0.7546771E-02  0.1155652E+00
         21   -1    0    0  502  501  0.00000000000E+00  0.00000000000E+00  0.11880822320E+04  0.11880822320E+04  0.00000000000E+00 0.  1.
         21   -1    0    0  501  502 -0.00000000000E+00 -0.00000000000E+00 -0.31400379987E+02  0.31400379987E+02  0.00000000000E+00 0.  1.
         25    1    1    2    0    0 -0.10161817032E+03 -0.93451612590E+02  0.73998239832E+03  0.76305858638E+03  0.12500000000E+03 0.  0.
         25    1    1    2    0    0  0.10161817032E+03  0.93451612590E+02  0.41669945366E+03  0.45642402557E+03  0.12500000000E+03 0.  0.
</event>
<event>
 4    0  0.2213671E-002  0.2312837E+03  0.7546771E-02  0.1125740E+00
         21   -1    0    0  502  501  0.00000000000E+00  0.00000000000E+00  0.22041709310E+03  0.22041709310E+03  0.00000000000E+00 0.  1.
         21   -1    0    0  501  502 -0.00000000000E+00 -0.00000000000E+00 -0.24268595973E+03  0.24268595973E+03  0.00000000000E+00 0.  1.
         25    1    1    2    0    0  0.93751163161E+02 -0.16372654337E+03  0.36580728231E+02  0.22925708556E+03  0.12500000000E+03 0.  0.
         25    1    1    2    0    0 -0.93751163161E+02  0.16372654337E+03 -0.58849594860E+02  0.23384596728E+03  0.12500000000E+03 0.  0.
</event>
<event>
 4    0  0.2213671E-002  0.1793440E+03  0.7546771E-02  0.1168439E+00
         21   -1    0    0  502  501  0.00000000000E+00  0.00000000000E+00  0.12020542660E+04  0.12020542660E+04  0.00000000000E+00 0.  1.
         21   -1    0    0  501  502 -0.00000000000E+00 -0.00000000000E+00 -0.26757767198E+02  0.26757767198E+02  0.00000000000E+00 0.  1.
         25    1    1    2    0    0  0.95929339341E+02  0.14613744044E+02  0.87678863502E+03  0.89095415716E+03  0.12500000000E+03 0.  0.
         25    1    1    2    0    0 -0.95929339341E+02 -0.14613744044E+02  0.29850786379E+03  0.33785787605E+03  0.12500000000E+03 0.  0.
</event>
<event>
 4    0  0.2213671E-002  0.2423371E+03  0.7546771E-02  0.1118246E+00
         21   -1    0    0  502  501  0.00000000000E+00  0.00000000000E+00  0.87963300560E+03  0.87963300560E+03  0.00000000000E+00 0. -1.
         21   -1    0    0  501  502 -0.00000000000E+00 -0.00000000000E+00 -0.66763394202E+02  0.66763394202E+02  0.00000000000E+00 0. -1.
         25    1    1    2    0    0 -0.81938646272E+02  0.14551945739E+03  0.64727137416E+03  0.68005520808E+03  0.12500000000E+03 0.  0.
         25    1    1    2    0    0  0.81938646272E+02 -0.14551945739E+03  0.16559823724E+03  0.26634119173E+03  0.12500000000E+03 0.  0.
</event>
<event>
 4    0  0.2213671E-002  0.2167037E+03  0.7546771E-02  0.1136365E+00
         21   -1    0    0  502  501  0.00000000000E+00  0.00000000000E+00  0.68404544252E+03  0.68404544252E+03  0.00000000000E+00 0.  1.
         21   -1    0    0  501  502 -0.00000000000E+00 -0.00000000000E+00 -0.68651119277E+02  0.68651119277E+02  0.00000000000E+00 0.  1.
         25    1    1    2    0    0 -0.17301256820E+03 -0.36464405576E+02  0.29291140216E+03  0.36425964797E+03  0.12500000000E+03 0.  0.
         25    1    1    2    0    0  0.17301256820E+03  0.36464405576E+02  0.32248292108E+03  0.38843691382E+03  0.12500000000E+03 0.  0.
</event>
<event>
 4    0  0.2213671E-002  0.2137036E+03  0.7546771E-02  0.1138666E+00
         21   -1    0    0  502  501  0.00000000000E+00  0.00000000000E+00  0.10151942340E+03  0.10151942340E+03  0.00000000000E+00 0.  1.
         21   -1    0    0  501  502 -0.00000000000E+00 -0.00000000000E+00 -0.44985712319E+03  0.44985712319E+03  0.00000000000E+00 0.  1.
         25    1    1    2    0    0  0.86705568949E+02  0.47319564303E+02 -0.35791484965E+03  0.39177166367E+03  0.12500000000E+03 0.  0.
         25    1    1    2    0    0 -0.86705568949E+02 -0.47319564303E+02  0.95771498678E+01  0.15960488292E+03  0.12500000000E+03 0.  0.
</event>
<event>
 4    0  0.2213671E-002  0.3694739E+03  0.7546771E-02  0.1054894E+00
         21   -1    0    0  502  501  0.00000000000E+00  0.00000000000E+00  0.71205090561E+03  0.71205090561E+03  0.00000000000E+00 0. -1.
         21   -1    0    0  501  502 -0.00000000000E+00 -0.00000000000E+00 -0.19171517656E+03  0.19171517656E+03  0.00000000000E+00 0. -1.
         25    1    1    2    0    0  0.49750444212E+02  0.32688931012E+03  0.12870202591E+03  0.37619268898E+03  0.12500000000E+03 0.  0.
         25    1    1    2    0    0 -0.49750444212E+02 -0.32688931012E+03  0.39163370314E+03  0.52757339319E+03  0.12500000000E+03 0.  0.
</event>
<event>
 4    0  0.2213671E-002  0.2259723E+03  0.7546771E-02  0.1129507E+00
         21   -1    0    0  502  501  0.00000000000E+00  0.00000000000E+00  0.50924176363E+02  0.50924176363E+02  0.00000000000E+00 0. -1.
         21   -1    0    0  501  502 -0.00000000000E+00 -0.00000000000E+00 -0.10027353461E+04  0.10027353461E+04  0.00000000000E+00 0. -1.
         25    1    1    2    0    0 -0.96181897405E+01 -0.87631757170E+02 -0.86369265044E+03  0.87713273161E+03  0.12500000000E+03 0.  0.
         25    1    1    2    0    0  0.96181897405E+01  0.87631757170E+02 -0.88118519256E+02  0.17652679081E+03  0.12500000000E+03 0.  0.
</event>
<event>
 4    0  0.2213671E-002  0.1974513E+03  0.7546771E-02  0.1151907E+00
         21   -1    0    0  502  501  0.00000000000E+00  0.00000000000E+00  0.42433351697E+03  0.42433351697E+03  0.00000000000E+00 0.  1.
         21   -1    0    0  501  502 -0.00000000000E+00 -0.00000000000E+00 -0.91878258995E+02  0.91878258995E+02  0.00000000000E+00 0.  1.
         25    1    1    2    0    0  0.11018389321E+02  0.13737703038E+03  0.79832809795E+02  0.20246513502E+03  0.12500000000E+03 0.  0.
         25    1    1    2    0    0 -0.11018389321E+02 -0.13737703038E+03  0.25262244818E+03  0.31374664094E+03  0.12500000000E+03 0.  0.
</event>
<event>
 4    0  0.2213671E-002  0.1988722E+03  0.7546771E-02  0.1150694E+00
         21   -1    0    0  502  501  0.00000000000E+00  0.00000000000E+00  0.27785348518E+03  0.27785348518E+03  0.00000000000E+00 0.  1.
         21   -1    0    0  501  502 -0.00000000000E+00 -0.00000000000E+00 -0.14234175437E+03  0.14234175437E+03  0.00000000000E+00 0.  1.
         25    1    1    2    0    0 -0.47869769285E+02 -0.13534065747E+03  0.12859596875E+03  0.22971837444E+03  0.12500000000E+03 0.  0.
         25    1    1    2    0    0  0.47869769285E+02  0.13534065747E+03  0.69157620573E+01  0.19047686511E+03  0.12500000000E+03 0.  0.
</event>
<event>
 4    0  0.2213671E-002  0.1916714E+03  0.7546771E-02  0.1156962E+00
         21   -1    0    0  502  501  0.00000000000E+00  0.00000000000E+00  0.11459613733E+03  0.11459613733E+03  0.00000000000E+00 0.  1.
         21   -1    0    0  501  502 -0.00000000000E+00 -0.00000000000E+00 -0.32058606819E+03  0.32058606819E+03  0.00000000000E+00 0.  1.
         25    1    1    2    0    0  0.12335280418E+03 -0.48997328020E+02 -0.17012030058E+03  0.24936433009E+03  0.12500000000E+03 0.  0.
         25    1    1    2    0    0 -0.12335280418E+03  0.48997328020E+02 -0.35869630284E+02  0.18581787543E+03  0.12500000000E+03 0.  0.
</event>
<event>
 4    0  0.2213671E-002  0.1748784E+03  0.7546771E-02  0.1172854E+00
         21   -1    0    0  502  501  0.00000000000E+00  0.00000000000E+00  0.86949675592E+02  0.86949675592E+02  0.00000000000E+00 0.  1.
         21   -1    0    0  501  502 -0.00000000000E+00 -0.00000000000E+00 -0.35172580070E+03  0.35172580070E+03  0.00000000000E+00 0.  1.
         25    1    1    2    0    0  0.89964004406E+02  0.47820918880E+02 -0.47534202043E+02  0.16812157130E+03  0.12500000000E+03 0.  0.
         25    1    1    2    0    0 -0.89964004406E+02 -0.47820918880E+02 -0.21724192306E+03  0.27055390499E+03  0.12500000000E+03 0.  0.
</event>
<event>
 4    0  0.2213671E-002  0.3717562E+03  0.7546771E-02  0.1054023E+00
         21   -1    0    0  502  501  0.00000000000E+00  0.00000000000E+00  0.39233504966E+03  0.39233504966E+03  0.00000000000E+00 0.  1.
         21   -1    0    0  501  502 -0.00000000000E+00 -0.00000000000E+00 -0.35225677571E+03  0.35225677571E+03  0.00000000000E+00 0.  1.
         25    1    1    2    0    0  0.34846281079E+03  0.43925699861E+01  0.53733999477E+02  0.37410956667E+03  0.12500000000E+03 0.  0.
         25    1    1    2    0    0 -0.34846281079E+03 -0.43925699861E+01 -0.13655725530E+02  0.37048225871E+03  0.12500000000E+03 0.  0.
</event>
<event>
 4    0  0.2213671E-002  0.2858323E+03  0.7546771E-02  0.1092545E+00
         21   -1    0    0  502  501  0.00000000000E+00  0.00000000000E+00  0.13156565551E+03  0.13156565551E+03  0.00000000000E+00 0.  1.
         21   -1    0    0  501  502 -0.00000000000E+00 -0.00000000000E+00 -0.62098335301E+03  0.62098335301E+03  0.00000000000E+00 0.  1.
         25    1    1    2    0    0  0.56309125299E+02 -0.90036881487E+02 -0.55286781440E+03  0.57668464330E+03  0.12500000000E+03 0.  0.
         25    1    1    2    0    0 -0.56309125299E+02  0.90036881487E+02  0.63450116904E+02  0.17586436522E+03  0.12500000000E+03 0.  0.
</event>
<event>
 4    0  0.2213671E-002  0.2937841E+03  0.7546771E-02  0.1088390E+00
         21   -1    0    0  502  501  0.00000000000E+00  0.00000000000E+00  0.10968987027E+04  0.10968987027E+04  0.00000000000E+00 0.  1.
         21   -1    0    0  501  502 -0.00000000000E+00 -0.00000000000E+00 -0.78684649814E+02  0.78684649814E+02  0.00000000000E+00 0.  1.
         25    1    1    2    0    0  0.20081169701E+00 -0.14486580410E+03  0.63076693844E+02  0.20146913120E+03  0.12500000000E+03 0.  0.
         25    1    1    2    0    0 -0.20081169701E+00  0.14486580410E+03  0.95513735909E+03  0.97411422135E+03  0.12500000000E+03 0.  0.
</event>
<event>
 4    0  0.2213671E-002  0.1779763E+03  0.7546771E-02  0.1169776E+00
         21   -1    0    0  502  501  0.00000000000E+00  0.00000000000E+00  0.12404879684E+04  0.12404879684E+04  0.00000000000E+00 0. -1.
         21   -1    0    0  501  502 -0.00000000000E+00 -0.00000000000E+00 -0.25534762996E+02  0.25534762996E+02  0.00000000000E+00 0. -1.
         25    1    1    2    0    0 -0.11376996793E+03 -0.44583805166E+02  0.72646699398E+03  0.74720185668E+03  0.12500000000E+03 0.  0.
         25    1    1    2    0    0  0.11376996793E+03  0.44583805166E+02  0.48848621139E+03  0.51882087468E+03  0.12500000000E+03 0.  0.
</event>
<event>
 4    0  0.2213671E-002  0.1759773E+03  0.7546771E-02  0.1171754E+00
         21   -1    0    0  502  501  0.00000000000E+00  0.00000000000E+00  0.12125663320E+03  0.12125663320E+03  0.00000000000E+00 0.  1.
         21   -1    0    0  501  502 -0.00000000000E+00 -0.00000000000E+00 -0.25539237102E+03  0.25539237102E+03  0.00000000000E+00 0.  1.
         25    1    1    2    0    0  0.51102257015E+02  0.93626836300E+01 -0.18740259112E+03  0.23117921981E+03  0.12500000000E+03 0.  0.
         25    1    1    2    0    0 -0.51102257015E+02 -0.93626836300E+01  0.53266853292E+02  0.14546978441E+03  0.12500000000E+03 0.  0.
</event>
<event>
 4    0  0.2213671E-002  0.2084982E+03  0.7546771E-02  0.1142761E+00
         21   -1    0    0  502  501  0.00000000000E+00  0.00000000000E+00  0.24578845397E+03  0.24578845397E+03  0.00000000000E+00 0. -1.
         21   -1    0    0  501  502 -0.00000000000E+00 -0.00000000000E+00 -0.17686543163E+03  0.17686543163E+03  0.00000000000E+00 0. -1.
         25    1    1    2    0    0  0.58106407918E+02 -0.67381616726E+02  0.17754996894E+03  0.23466066646E+03  0.12500000000E+03 0.  0.
         25    1    1    2    0    0 -0.58106407918E+02  0.67381616726E+02 -0.10862694660E+03  0.18799321914E+03  0.12500000000E+03 0.  0.
</event>
<event>
 4    0  0.2213671E-002  0.2051499E+03  0.7546771E-02  0.1145465E+00
         21   -1    0    0  502  501  0.00000000000E+00  0.00000000000E+00  0.12002482501E+04  0.12002482501E+04  0.00000000000E+00 0.  1.
         21   -1    0    0  501  502 -0.00000000000E+00 -0.00000000000E+00 -0.35064810117E+02  0.35064810117E+02  0.00000000000E+00 0.  1.
         25    1    1    2    0    0  0.10057748819E+03 -0.12783231189E+03  0.57617245659E+03  0.61160169295E+03  0.12500000000E+03 0.  0.
         25    1    1    2    0    0 -0.10057748819E+03  0.12783231189E+03  0.58901098335E+03  0.62371136722E+03  0.12500000000E+03 0.  0.
</event>
<event>
 4    0  0.2213671E-002  0.1672832E+03  0.7546771E-02  0.1180711E+00
         21   -1    0    0  502  501  0.00000000000E+00  0.00000000000E+00  0.11711715463E+03  0.11711715463E+03  0.00000000000E+00 0. -1.
         21   -1    0    0  501  502 -0.00000000000E+00 -0.00000000000E+00 -0.23893738699E+03  0.23893738699E+03  0.00000000000E+00 0. -1.
         25    1    1    2    0    0  0.81548283533E+02 -0.14951703588E+02  0.17907297339E+02  0.15106074038E+03  0.12500000000E+03 0.  0.
         25    1    1    2    0    0 -0.81548283533E+02  0.14951703588E+02 -0.13972752971E+03  0.20499380124E+03  0.12500000000E+03 0.  0.
</event>
<event>
 4    0  0.2213671E-002  0.2469836E+03  0.7546771E-02  0.1115226E+00
         21   -1    0    0  502  501  0.00000000000E+00  0.00000000000E+00  0.75238298916E+02  0.75238298916E+02  0.00000000000E+00 0.  1.
         21   -1    0    0  501  502 -0.00000000000E+00 -0.00000000000E+00 -0.81076901088E+03  0.81076901088E+03  0.00000000000E+00 0.  1.
         25    1    1    2    0    0  0.18772508335E+03  0.72841066080E+02 -0.49241290605E+03  0.54648147075E+03  0.12500000000E+03 0.  0.
         25    1    1    2    0    0 -0.18772508335E+03 -0.72841066080E+02 -0.24311780591E+03  0.33952583904E+03  0.12500000000E+03 0.  0.
</event>
<event>
 4    0  0.2213671E-002  0.2233265E+03  0.7546771E-02  0.1131427E+00
         21   -1    0    0  502  501  0.00000000000E+00  0.00000000000E+00  0.17436904974E+04  0.17436904974E+04  0.00000000000E+00 0.  1.
         21   -1    0    0  501  502 -0.00000000000E+00 -0.00000000000E+00 -0.28602973389E+02  0.28602973389E+02  0.00000000000E+00 0.  1.
         25    1    1    2    0    0  0.15864506538E+03  0.54839682904E+01  0.48003826277E+03  0.52082632844E+03  0.12500000000E+03 0.  0.
         25    1    1    2    0    0 -0.15864506538E+03 -0.54839682904E+01  0.12350492613E+04  0.12514671424E+04  0.12500000000E+03 0.  0.
</event>
<event>
 4    0  0.2213671E-002  0.2311153E+03  0.7546771E-02  0.1125857E+00
         21   -1    0    0  502  501  0.00000000000E+00  0.00000000000E+00  0.48409559679E+03  0.48409559679E+03  0.00000000000E+00 0. -1.
         21   -1    0    0  501  502 -0.00000000000E+00 -0.00000000000E+00 -0.11033827191E+03  0.11033827191E+03  0.00000000000E+00 0. -1.
         25    1    1    2    0    0 -0.57952385542E+02 -0.11352763810E+03 -0.18729226015E+01  0.17853714303E+03  0.12500000000E+03 0.  0.
         25    1    1    2    0    0  0.57952385542E+02  0.11352763810E+03  0.37563024748E+03  0.41589672567E+03  0.12500000000E+03 0.  0.
</event>
<event>
 4    0  0.2213671E-002  0.3403945E+03  0.7546771E-02  0.1066628E+00
         21   -1    0    0  502  501  0.00000000000E+00  0.00000000000E+00  0.12554999792E+04  0.12554999792E+04  0.00000000000E+00 0. -1.
         21   -1    0    0  501  502 -0.00000000000E+00 -0.00000000000E+00 -0.92288657689E+02  0.92288657689E+02  0.00000000000E+00 0. -1.
         25    1    1    2    0    0  0.96544038921E+02 -0.13813946099E+03  0.11122369774E+04  0.11318565969E+04  0.12500000000E+03 0.  0.
         25    1    1    2    0    0 -0.96544038921E+02  0.13813946099E+03  0.50974344150E+02  0.21593203999E+03  0.12500000000E+03 0.  0.
</event>
<event>
 4    0  0.2213671E-002  0.1298237E+03  0.7546771E-02  0.1227718E+00
         21   -1    0    0  502  501  0.00000000000E+00  0.00000000000E+00  0.29718747397E+02  0.29718747397E+02  0.00000000000E+00 0.  1.
         21   -1    0    0  501  502 -0.00000000000E+00 -0.00000000000E+00 -0.56712290894E+03  0.56712290894E+03  0.00000000000E+00 0.  1.
         25    1    1    2    0    0  0.18623577746E+02  0.82556482122E+01 -0.20311203604E+03  0.23936267997E+03  0.12500000000E+03 0.  0.
         25    1    1    2    0    0 -0.18623577746E+02 -0.82556482122E+01 -0.33429212550E+03  0.35747897637E+03  0.12500000000E+03 0.  0.
</event>
<event>
 4    0  0.2213671E-002  0.2058501E+03  0.7546771E-02  0.1144895E+00
         21   -1    0    0  502  501  0.00000000000E+00  0.00000000000E+00  0.70228782069E+02  0.70228782069E+02  0.00000000000E+00 0.  1.
         21   -1    0    0  501  502 -0.00000000000E+00 -0.00000000000E+00 -0.60337456372E+03  0.60337456372E+03  0.00000000000E+00 0.  1.
         25    1    1    2    0    0  0.13372756150E+03  0.93948770917E+02 -0.27689860346E+03  0.34497430174E+03  0.12500000000E+03 0.  0.
         25    1    1    2    0    0 -0.13372756150E+03 -0.93948770917E+02 -0.25624717819E+03  0.32862904405E+03  0.12500000000E+03 0.  0.
</event>
<event>
 4    0  0.2213671E-002  0.2091896E+03  0.7546771E-02  0.1142209E+00
         21   -1    0    0  502  501  0.00000000000E+00  0.00000000000E+00  0.26589632992E+03  0.26589632992E+03  0.00000000000E+00 0. -1.
         21   -1    0    0  501  502 -0.00000000000E+00 -0.00000000000E+00 -0.16457649207E+03  0.16457649207E+03  0.00000000000E+00 0. -1.
         25    1    1    2    0    0 -0.23123135984E+02  0.11027361506E+03 -0.77191054201E+02  0.18514429088E+03  0.12500000000E+03 0.  0.
         25    1    1    2    0    0  0.23123135984E+02 -0.11027361506E+03  0.17851089204E+03  0.24532853111E+03  0.12500000000E+03 0.  0.
</event>
<event>
 4    0  0.2213671E-002  0.1882519E+03  0.7546771E-02  0.1160047E+00
         21   -1    0    0  502  501  0.00000000000E+00  0.00000000000E+00  0.25845294463E+03  0.25845294463E+03  0.00000000000E+00 0. -1.
         21   -1    0    0  501  502 -0.00000000000E+00 -0.00000000000E+00 -0.13711893152E+03  0.13711893152E+03  0.00000000000E+00 0. -1.
         25    1    1    2    0    0  0.88705902602E+02 -0.36052707719E+02 -0.47734178192E+02  0.16453597375E+03  0.12500000000E+03 0.  0.
         25    1    1    2    0    0 -0.88705902602E+02  0.36052707719E+02  0.16906819130E+03  0.23103590240E+03  0.12500000000E+03 0.  0.
</event>
<event>
 4    0  0.2213671E-002  0.2165437E+03  0.7546771E-02  0.1136486E+00
         21   -1    0    0  502  501  0.00000000000E+00  0.00000000000E+00  0.71902451463E+03  0.71902451463E+03  0.00000000000E+00 0.  1.
         21   -1    0    0  501  502 -0.00000000000E+00 -0.00000000000E+00 -0.65214999357E+02  0.65214999357E+02  0.00000000000E+00 0.  1.
         25    1    1    2    0    0 -0.11021464179E+03 -0.12580072238E+03  0.22299048340E+03  0.30548787980E+03  0.12500000000E+03 0.  0.
         25    1    1    2    0    0  0.11021464179E+03  0.12580072238E+03  0.43081903186E+03  0.47875163418E+03  0.12500000000E+03 0.  0.
</event>
<event>
 4    0  0.2213671E-002  0.2260493E+03  0.7546771E-02  0.1129452E+00
         21   -1    0    0  502  501  0.00000000000E+00  0.00000000000E+00  0.24812337006E+03  0.24812337006E+03  0.00000000000E+00 0. -1.
         21   -1    0    0  501  502 -0.00000000000E+00 -0.00000000000E+00 -0.20593893871E+03  0.20593893871E+03  0.00000000000E+00 0. -1.
         25    1    1    2    0    0 -0.10209118102E+03 -0.15374479197E+03 -0.16663539021E+02  0.22352347490E+03  0.12500000000E+03 0.  0.
         25    1    1    2    0    0  0.10209118102E+03  0.15374479197E+03  0.58847970375E+02  0.23053883386E+03  0.12500000000E+03 0.  0.
</event>
<event>
 4    0  0.2213671E-002  0.2221564E+03  0.7546771E-02  0.1132286E+00
         21   -1    0    0  502  501  0.00000000000E+00  0.00000000000E+00  0.71569989878E+03  0.71569989878E+03  0.00000000000E+00 0.  1.
         21   -1    0    0  501  502 -0.00000000000E+00 -0.00000000000E+00 -0.68958326832E+02  0.68958326832E+02  0.00000000000E+00 0.  1.
         25    1    1    2    0    0  0.43345412150E+02 -0.17360974851E+03  0.39638385314E+03  0.45250892651E+03  0.12500000000E+03 0.  0.
         25    1    1    2    0    0 -0.43345412150E+02  0.17360974851E+03  0.25035771881E+03  0.33214929911E+03  0.12500000000E+03 0.  0.
</event>
<event>
 4    0  0.2213671E-002  0.2106554E+03  0.7546771E-02  0.1141048E+00
         21   -1    0    0  502  501  0.00000000000E+00  0.00000000000E+00  0.89673439452E+03  0.89673439452E+03  0.00000000000E+00 0.  1.
         21   -1    0    0  501  502 -0.00000000000E+00 -0.00000000000E+00 -0.49485895593E+02  0.49485895593E+02  0.00000000000E+00 0.  1.
         25    1    1    2    0    0 -0.10400480479E+03 -0.11542407677E+03  0.27111836128E+03  0.33655591325E+03  0.12500000000E+03 0.  0.
         25    1    1    2    0    0  0.10400480479E+03  0.11542407677E+03  0.57613013765E+03  0.60966437687E+03  0.12500000000E+03 0.  0.
</event>
<event>
 4    0  0.2213671E-002  0.2471831E+03  0.7546771E-02  0.1115098E+00
         21   -1    0    0  502  501  0.00000000000E+00  0.00000000000E+00  0.11655496458E+03  0.11655496458E+03  0.00000000000E+00 0.  1.
         21   -1    0    0  501  502 -0.00000000000E+00 -0.00000000000E+00 -0.52421194187E+03  0.52421194187E+03  0.00000000000E+00 0.  1.
         25    1    1    2    0    0  0.17160865787E+03  0.12411239740E+03 -0.17152666885E+03  0.29983298146E+03  0.12500000000E+03 0.  0.
         25    1    1    2    0    0 -0.17160865787E+03 -0.12411239740E+03 -0.23613030844E+03  0.34093392499E+03  0.12500000000E+03 0.  0.
</event>
<event>
 4    0  0.2213671E-002  0.2249485E+03  0.7546771E-02  0.1130247E+00
         21   -1    0    0  502  501  0.00000000000E+00  0.00000000000E+00  0.11429175526E+03  0.11429175526E+03  0.00000000000E+00 0.  1.
         21   -1    0    0  501  502 -0.00000000000E+00 -0.00000000000E+00 -0.44274277454E+03  0.44274277454E+03  0.00000000000E+00 0.  1.
         25    1    1    2    0    0 -0.13495052605E+03  0.10928036781E+03 -0.78239496908E+02  0.22781629034E+03  0.12500000000E+03 0.  0.
         25    1    1    2    0    0  0.13495052605E+03 -0.10928036781E+03 -0.25021152236E+03  0.32921823946E+03  0.12500000000E+03 0.  0.
</event>
<event>
 4    0  0.2213671E-002  0.2057767E+03  0.7546771E-02  0.1144955E+00
         21   -1    0    0  502  501  0.00000000000E+00  0.00000000000E+00  0.38646073373E+02  0.38646073373E+02  0.00000000000E+00 0. -1.
         21   -1    0    0  501  502 -0.00000000000E+00 -0.00000000000E+00 -0.10956881432E+04  0.10956881432E+04  0.00000000000E+00 0. -1.
         25    1    1    2    0    0 -0.42934502366E+02  0.15771584795E+03 -0.53176377739E+03  0.57018889426E+03  0.12500000000E+03 0.  0.
         25    1    1    2    0    0  0.42934502366E+02 -0.15771584795E+03 -0.52527829242E+03  0.56414532230E+03  0.12500000000E+03 0.  0.
</event>
<event>
 4    0  0.2213671E-002  0.1935638E+03  0.7546771E-02  0.1155286E+00
         21   -1    0    0  502  501  0.00000000000E+00  0.00000000000E+00  0.45687357801E+03  0.45687357801E+03  0.00000000000E+00 0. -1.
         21   -1    0    0  501  502 -0.00000000000E+00 -0.00000000000E+00 -0.82007263748E+02  0.82007263748E+02  0.00000000000E+00 0. -1.
         25    1    1    2    0    0 -0.11374500786E+03  0.51766120753E+02  0.29725370681E+03  0.34583583430E+03  0.12500000000E+03 0.  0.
         25    1    1    2    0    0  0.11374500786E+03 -0.51766120753E+02  0.77612607449E+02  0.19304500746E+03  0.12500000000E+03 0.  0.
</event>
<event>
 4    0  0.2213671E-002  0.1958825E+03  0.7546771E-02  0.1153260E+00
         21   -1    0    0  502  501  0.00000000000E+00  0.00000000000E+00  0.13522728837E+03  0.13522728837E+03  0.00000000000E+00 0. -1.
         21   -1    0    0  501  502 -0.00000000000E+00 -0.00000000000E+00 -0.28374411632E+03  0.28374411632E+03  0.00000000000E+00 0. -1.
         25    1    1    2    0    0 -0.12682879867E+03 -0.30936526578E+02 -0.15501633558E+03  0.23811274041E+03  0.12500000000E+03 0.  0.
         25    1    1    2    0    0  0.12682879867E+03  0.30936526578E+02  0.64995076254E+01  0.18085866429E+03  0.12500000000E+03 0.  0.
</event>
<event>
 4    0  0.2213671E-002  0.2048719E+03  0.7546771E-02  0.1145692E+00
         21   -1    0    0  502  501  0.00000000000E+00  0.00000000000E+00  0.15481481724E+03  0.15481481724E+03  0.00000000000E+00 0. -1.
         21   -1    0    0  501  502 -0.00000000000E+00 -0.00000000000E+00 -0.27111424941E+03  0.27111424941E+03  0.00000000000E+00 0. -1.
         25    1    1    2    0    0  0.24570257977E+02 -0.60460941266E+02 -0.21264164583E+03  0.25514837357E+03  0.12500000000E+03 0.  0.
         25    1    1    2    0    0 -0.24570257977E+02  0.60460941266E+02  0.96342213658E+02  0.17078069308E+03  0.12500000000E+03 0.  0.
</event>
<event>
 4    0  0.2213671E-002  0.2441963E+03  0.7546771E-02  0.1117028E+00
         21   -1    0    0  502  501  0.00000000000E+00  0.00000000000E+00  0.18030622251E+03  0.18030622251E+03  0.00000000000E+00 0. -1.
         21   -1    0    0  501  502 -0.00000000000E+00 -0.00000000000E+00 -0.33072545289E+03  0.33072545289E+03  0.00000000000E+00 0. -1.
         25    1    1    2    0    0  0.81310335020E+02  0.14415134174E+03 -0.21008735937E+03  0.29521632488E+03  0.12500000000E+03 0.  0.
         25    1    1    2    0    0 -0.81310335020E+02 -0.14415134174E+03  0.59668128991E+02  0.21581535053E+03  0.12500000000E+03 0.  0.
</event>
<event>
 4    0  0.2213671E-002  0.4145325E+03  0.7546771E-02  0.1038861E+00
         21   -1    0    0  502  501  0.00000000000E+00  0.00000000000E+00  0.23133421672E+04  0.23133421672E+04  0.00000000000E+00 0. -1.
         21   -1    0    0  501  502 -0.00000000000E+00 -0.00000000000E+00 -0.74280908219E+02  0.74280908219E+02  0.00000000000E+00 0. -1.
         25    1    1    2    0    0  0.72563285821E+02 -0.23149874596E+03  0.22095116206E+03  0.35114315578E+03  0.12500000000E+03 0.  0.
         25    1    1    2    0    0 -0.72563285821E+02  0.23149874596E+03  0.20181100969E+04  0.20364799196E+04  0.12500000000E+03 0.  0.
</event>
<event>
 4    0  0.2213671E-002  0.2071807E+03  0.7546771E-02  0.1143818E+00
         21   -1    0    0  502  501  0.00000000000E+00  0.00000000000E+00  0.29414190197E+03  0.29414190197E+03  0.00000000000E+00 0. -1.
         21   -1    0    0  501  502 -0.00000000000E+00 -0.00000000000E+00 -0.14592899432E+03  0.14592899432E+03  0.00000000000E+00 0. -1.
         25    1    1    2    0    0 -0.10406278803E+01 -0.76445906289E+02  0.22966549020E+03  0.27242668167E+03  0.12500000000E+03 0.  0.
         25    1    1    2    0    0  0.10406278803E+01  0.76445906289E+02 -0.81452582545E+02  0.16764421463E+03  0.12500000000E+03 0.  0.
</event>
<event>
 4    0  0.2213671E-002  0.2256679E+03  0.7546771E-02  0.1129727E+00
         21   -1    0    0  502  501  0.00000000000E+00  0.00000000000E+00  0.80424488122E+03  0.80424488122E+03  0.00000000000E+00 0. -1.
         21   -1    0    0  501  502 -0.00000000000E+00 -0.00000000000E+00 -0.63321523252E+02  0.63321523252E+02  0.00000000000E+00 0. -1.
         25    1    1    2    0    0 -0.18181376629E+03 -0.47344849125E+02  0.37391664713E+03  0.43673383125E+03  0.12500000000E+03 0.  0.
         25    1    1    2    0    0  0.18181376629E+03  0.47344849125E+02  0.36700671083E+03  0.43083257322E+03  0.12500000000E+03 0.  0.
</event>
<event>
 4    0  0.2213671E-002  0.1983286E+03  0.7546771E-02  0.1151157E+00
         21   -1    0    0  502  501  0.00000000000E+00  0.00000000000E+00  0.61939444566E+03  0.61939444566E+03  0.00000000000E+00 0. -1.
         21   -1    0    0  501  502 -0.00000000000E+00 -0.00000000000E+00 -0.63504321981E+02  0.63504321981E+02  0.00000000000E+00 0. -1.
         25    1    1    2    0    0  0.88534745099E+02  0.20965055819E+02  0.49181126037E+03  0.51553976615E+03  0.12500000000E+03 0.  0.
         25    1    1    2    0    0 -0.88534745099E+02 -0.20965055819E+02  0.64078863300E+02  0.16735900148E+03  0.12500000000E+03 0.  0.
</event>
<event>
 4    0  0.2213671E-002  0.3279868E+03  0.7546771E-02  0.1072031E+00
         21   -1    0    0  502  501  0.00000000000E+00  0.00000000000E+00  0.40518066272E+03  0.40518066272E+03  0.00000000000E+00 0.  1.
         21   -1    0    0  501  502 -0.00000000000E+00 -0.00000000000E+00 -0.26549977119E+03  0.26549977119E+03  0.00000000000E+00 0.  1.
         25    1    1    2    0    0  0.20818748276E+03 -0.14231919643E+03 -0.10231994903E+03  0.29948481367E+03  0.12500000000E+03 0.  0.
         25    1    1    2    0    0 -0.20818748276E+03  0.14231919643E+03  0.24200084056E+03  0.37119562023E+03  0.12500000000E+03 0.  0.
</event>
<event>
 4    0  0.2213671E-002  0.2030404E+03  0.7546771E-02  0.1147199E+00
         21   -1    0    0  502  501  0.00000000000E+00  0.00000000000E+00  0.84256249544E+03  0.84256249544E+03  0.00000000000E+00 0.  1.
         21   -1    0    0  501  502 -0.00000000000E+00 -0.00000000000E+00 -0.48928608449E+02  0.48928608449E+02  0.00000000000E+00 0.  1.
         25    1    1    2    0    0 -0.60939313147E+02  0.42741416027E+02  0.70775207370E+03  0.72254994731E+03  0.12500000000E+03 0.  0.
         25    1    1    2    0    0  0.60939313147E+02 -0.42741416027E+02  0.85881813281E+02  0.16894115657E+03  0.12500000000E+03 0.  0.
</event>
<event>
 4    0  0.2213671E-002  0.4196891E+03  0.7546771E-02  0.1037168E+00
         21   -1    0    0  502  501  0.00000000000E+00  0.00000000000E+00  0.80369743138E+03  0.80369743138E+03  0.00000000000E+00 0.  1.
         21   -1    0    0  501  502 -0.00000000000E+00 -0.00000000000E+00 -0.21916077469E+03  0.21916077469E+03  0.00000000000E+00 0.  1.
         25    1    1    2    0    0  0.11678129399E+03 -0.18714448537E+03  0.69981898460E+03  0.74433362159E+03  0.12500000000E+03 0.  0.
         25    1    1    2    0    0 -0.11678129399E+03  0.18714448537E+03 -0.11528232790E+03  0.27852458448E+03  0.12500000000E+03 0.  0.
</event>
<event>
 4    0  0.2213671E-002  0.2114848E+03  0.7546771E-02  0.1140396E+00
         21   -1    0    0  502  501  0.00000000000E+00  0.00000000000E+00  0.61629333584E+03  0.61629333584E+03  0.00000000000E+00 0.  1.
         21   -1    0    0  501  502 -0.00000000000E+00 -0.00000000000E+00 -0.72572298080E+02  0.72572298080E+02  0.00000000000E+00 0.  1.
         25    1    1    2    0    0 -0.14987410567E+03  0.42675227057E+02  0.38490041623E+03  0.43365510831E+03  0.12500000000E+03 0.  0.
         25    1    1    2    0    0  0.14987410567E+03 -0.42675227057E+02  0.15882062153E+03  0.25521052561E+03  0.12500000000E+03 0.  0.
</event>
<event>
 4    0  0.2213671E-002  0.2098067E+03  0.7546771E-02  0.1141719E+00
         21   -1    0    0  502  501  0.00000000000E+00  0.00000000000E+00  0.28551596360E+03  0.28551596360E+03  0.00000000000E+00 0. -1.
         21   -1    0    0  501  502 -0.00000000000E+00 -0.00000000000E+00 -0.15417304480E+03  0.15417304480E+03  0.00000000000E+00 0. -1.
         25    1    1    2    0    0 -0.30784243435E+02 -0.16137232079E+03  0.10495047617E+03  0.23157784438E+03  0.12500000000E+03 0.  0.
         25    1    1    2    0    0  0.30784243435E+02  0.16137232079E+03  0.26392442631E+02  0.20811116402E+03  0.12500000000E+03 0.  0.
</event>
<event>
 4    0  0.2213671E-002  0.2650867E+03  0.7546771E-02  0.1104125E+00
         21   -1    0    0  502  501  0.00000000000E+00  0.00000000000E+00  0.53625588369E+03  0.53625588369E+03  0.00000000000E+00 0.  1.
         21   -1    0    0  501  502 -0.00000000000E+00 -0.00000000000E+00 -0.13103998860E+03  0.13103998860E+03  0.00000000000E+00 0.  1.
         25    1    1    2    0    0  0.14838877467E+03 -0.15800434441E+03  0.92440440795E+02  0.26674863898E+03  0.12500000000E+03 0.  0.
         25    1    1    2    0    0 -0.14838877467E+03  0.15800434441E+03  0.31277545429E+03  0.40054723331E+03  0.12500000000E+03 0.  0.
</event>
<event>
 4    0  0.2213671E-002  0.1834959E+03  0.7546771E-02  0.1164462E+00
         21   -1    0    0  502  501  0.00000000000E+00  0.00000000000E+00  0.12906945086E+04  0.12906945086E+04  0.00000000000E+00 0. -1.
         21   -1    0    0  501  502 -0.00000000000E+00 -0.00000000000E+00 -0.26087312572E+02  0.26087312572E+02  0.00000000000E+00 0. -1.
         25    1    1    2    0    0  0.12016078759E+03  0.44923926116E+02  0.77533000860E+03  0.79575020971E+03  0.12500000000E+03 0.  0.
         25    1    1    2    0    0 -0.12016078759E+03 -0.44923926116E+02  0.48927718747E+03  0.52103161151E+03  0.12500000000E+03 0.  0.
</event>
<event>
 4    0  0.2213671E-002  0.2402724E+03  0.7546771E-02  0.1119612E+00
         21   -1    0    0  502  501  0.00000000000E+00  0.00000000000E+00  0.27893738649E+03  0.27893738649E+03  0.00000000000E+00 0.  1.
         21   -1    0    0  501  502 -0.00000000000E+00 -0.00000000000E+00 -0.20696692620E+03  0.20696692620E+03  0.00000000000E+00 0.  1.
         25    1    1    2    0    0 -0.33950948318E+02 -0.13014644482E+03 -0.12071104124E+03  0.21974284850E+03  0.12500000000E+03 0.  0.
         25    1    1    2    0    0  0.33950948318E+02  0.13014644482E+03  0.19268150153E+03  0.26616146419E+03  0.12500000000E+03 0.  0.
</event>
<event>
 4    0  0.2213671E-002  0.3510238E+03  0.7546771E-02  0.1062196E+00
         21   -1    0    0  502  501  0.00000000000E+00  0.00000000000E+00  0.24763215501E+03  0.24763215501E+03  0.00000000000E+00 0.  1.
         21   -1    0    0  501  502 -0.00000000000E+00 -0.00000000000E+00 -0.49758366403E+03  0.49758366403E+03  0.00000000000E+00 0.  1.
         25    1    1    2    0    0  0.29168565797E+03 -0.14948217775E+03 -0.11124718880E+03  0.36800323578E+03  0.12500000000E+03 0.  0.
         25    1    1    2    0    0 -0.29168565797E+03  0.14948217775E+03 -0.13870432021E+03  0.37721258326E+03  0.12500000000E+03 0.  0.
</event>
<event>
 4    0  0.2213671E-002  0.1732627E+03  0.7546771E-02  0.1174488E+00
         21   -1    0    0  502  501  0.00000000000E+00  0.00000000000E+00  0.87376878257E+02  0.87376878257E+02  0.00000000000E+00 0. -1.
         21   -1    0    0  501  502 -0.00000000000E+00 -0.00000000000E+00 -0.34356856202E+03  0.34356856202E+03  0.00000000000E+00 0. -1.
         25    1    1    2    0    0 -0.45302238031E+01  0.11901657033E+03 -0.11009635451E+03  0.20477224962E+03  0.12500000000E+03 0.  0.
         25    1    1    2    0    0  0.45302238031E+01 -0.11901657033E+03 -0.14609532926E+03  0.22617319065E+03  0.12500000000E+03 0.  0.
</event>
<event>
 4    0  0.2213671E-002  0.2756378E+03  0.7546771E-02  0.1098096E+00
         21   -1    0    0  502  501  0.00000000000E+00  0.00000000000E+00  0.12210414656E+03  0.12210414656E+03  0.00000000000E+00 0. -1.
         21   -1    0    0  501  502 -0.00000000000E+00 -0.00000000000E+00 -0.62222443053E+03  0.62222443053E+03  0.00000000000E+00 0. -1.
         25    1    1    2    0    0 -0.18299221880E+03 -0.50222672555E+02 -0.39400927293E+02  0.23062068869E+03  0.12500000000E+03 0.  0.
         25    1    1    2    0    0  0.18299221880E+03  0.50222672555E+02 -0.46071935668E+03  0.51370788839E+03  0.12500000000E+03 0.  0.
</event>
<event>
 4    0  0.2213671E-002  0.3695634E+03  0.7546771E-02  0.1054860E+00
         21   -1    0    0  502  501  0.00000000000E+00  0.00000000000E+00  0.28138143162E+03  0.28138143162E+03  0.00000000000E+00 0. -1.
         21   -1    0    0  501  502 -0.00000000000E+00 -0.00000000000E+00 -0.48538072500E+03  0.48538072500E+03  0.00000000000E+00 0. -1.
         25    1    1    2    0    0  0.13250945544E+03  0.21699740820E+03 -0.34815941487E+03  0.44887259785E+03  0.12500000000E+03 0.  0.
         25    1    1    2    0    0 -0.13250945544E+03 -0.21699740820E+03  0.14416012149E+03  0.31788955877E+03  0.12500000000E+03 0.  0.
</event>
<event>
 4    0  0.2213671E-002  0.1554887E+03  0.7546771E-02  0.1193886E+00
         21   -1    0    0  502  501  0.00000000000E+00  0.00000000000E+00  0.21320561168E+03  0.21320561168E+03  0.00000000000E+00 0.  1.
         21   -1    0    0  501  502 -0.00000000000E+00 -0.00000000000E+00 -0.11339631443E+03  0.11339631443E+03  0.00000000000E+00 0.  1.
         25    1    1    2    0    0  0.31230502144E+02 -0.85838353302E+02  0.65057423344E+02  0.16793163935E+03  0.12500000000E+03 0.  0.
         25    1    1    2    0    0 -0.31230502144E+02  0.85838353302E+02  0.34751873913E+02  0.15867028677E+03  0.12500000000E+03 0.  0.
</event>
<event>
 4    0  0.2213671E-002  0.1771884E+03  0.7546771E-02  0.1170552E+00
         21   -1    0    0  502  501  0.00000000000E+00  0.00000000000E+00  0.42118884557E+02  0.42118884557E+02  0.00000000000E+00 0. -1.
         21   -1    0    0  501  502 -0.00000000000E+00 -0.00000000000E+00 -0.74540744861E+03  0.74540744861E+03  0.00000000000E+00 0. -1.
         25    1    1    2    0    0 -0.90466923077E+02  0.57869569086E+02 -0.49630769338E+03  0.52295265340E+03  0.12500000000E+03 0.  0.
         25    1    1    2    0    0  0.90466923077E+02 -0.57869569086E+02 -0.20698087068E+03  0.26457367976E+03  0.12500000000E+03 0.  0.
</event>
<event>
 4    0  0.2213671E-002  0.2193941E+03  0.7546771E-02  0.1134336E+00
         21   -1    0    0  502  501  0.00000000000E+00  0.00000000000E+00  0.32431692487E+03  0.32431692487E+03  0.00000000000E+00 0.  1.
         21   -1    0    0  501  502 -0.00000000000E+00 -0.00000000000E+00 -0.14841589316E+03  0.14841589316E+03  0.00000000000E+00 0.  1.
         25    1    1    2    0    0 -0.10091265278E+03 -0.12160091141E+03  0.18149265008E+03  0.27117287324E+03  0.12500000000E+03 0.  0.
         25    1    1    2    0    0  0.10091265278E+03  0.12160091141E+03 -0.55916183719E+01  0.20155994479E+03  0.12500000000E+03 0.  0.
</event>
<event>
 4    0  0.2213671E-002  0.1874950E+03  0.7546771E-02  0.1160740E+00
         21   -1    0    0  502  501  0.00000000000E+00  0.00000000000E+00  0.10953019919E+03  0.10953019919E+03  0.00000000000E+00 0. -1.
         21   -1    0    0  501  502 -0.00000000000E+00 -0.00000000000E+00 -0.32095602918E+03  0.32095602918E+03  0.00000000000E+00 0. -1.
         25    1    1    2    0    0 -0.84908241033E+02  0.43365031638E+02 -0.22300756699E+03  0.27285034414E+03  0.12500000000E+03 0.  0.
         25    1    1    2    0    0  0.84908241033E+02 -0.43365031638E+02  0.11581737004E+02  0.15763588423E+03  0.12500000000E+03 0.  0.
</event>
<event>
 4    0  0.2213671E-002  0.1680740E+03  0.7546771E-02  0.1179871E+00
         21   -1    0    0  502  501  0.00000000000E+00  0.00000000000E+00  0.49963972134E+03  0.49963972134E+03  0.00000000000E+00 0. -1.
         21   -1    0    0  501  502 -0.00000000000E+00 -0.00000000000E+00 -0.56538490603E+02  0.56538490603E+02  0.00000000000E+00 0. -1.
         25    1    1    2    0    0 -0.84037912435E+02 -0.64172828253E+02  0.15869129467E+03  0.22800975772E+03  0.12500000000E+03 0.  0.
         25    1    1    2    0    0  0.84037912435E+02  0.64172828253E+02  0.28440993607E+03  0.32816845422E+03  0.12500000000E+03 0.  0.
</event>
<event>
 4    0  0.2213671E-002  0.2835518E+03  0.7546771E-02  0.1093765E+00
         21   -1    0    0  502  501  0.00000000000E+00  0.00000000000E+00  0.24783256972E+03  0.24783256972E+03  0.00000000000E+00 0.  1.
         21   -1    0    0  501  502 -0.00000000000E+00 -0.00000000000E+00 -0.32441909114E+03  0.32441909114E+03  0.00000000000E+00 0.  1.
         25    1    1    2    0    0  0.14425760836E+03 -0.13141080826E+03  0.12658388153E+03  0.26405972272E+03  0.12500000000E+03 0.  0.
         25    1    1    2    0    0 -0.14425760836E+03  0.13141080826E+03 -0.20317040296E+03  0.30819193814E+03  0.12500000000E+03 0.  0.
</event>
<event>
 4    0  0.2213671E-002  0.2234490E+03  0.7546771E-02  0.1131338E+00
         21   -1    0    0  502  501  0.00000000000E+00  0.00000000000E+00  0.74563556778E+02  0.74563556778E+02  0.00000000000E+00 0. -1.
         21   -1    0    0  501  502 -0.00000000000E+00 -0.00000000000E+00 -0.66962272087E+03  0.66962272087E+03  0.00000000000E+00 0. -1.
         25    1    1    2    0    0  0.25321506042E+02 -0.18321872134E+03 -0.28136974256E+03  0.35917156144E+03  0.12500000000E+03 0.  0.
         25    1    1    2    0    0 -0.25321506042E+02  0.18321872134E+03 -0.31368942153E+03  0.38501471621E+03  0.12500000000E+03 0.  0.
</event>
<event>
 4    0  0.2213671E-002  0.2226930E+03  0.7546771E-02  0.1131891E+00
         21   -1    0    0  502  501  0.00000000000E+00  0.00000000000E+00  0.49145867387E+03  0.49145867387E+03  0.00000000000E+00 0. -1.
         21   -1    0    0  501  502 -0.00000000000E+00 -0.00000000000E+00 -0.10090810214E+03  0.10090810214E+03  0.00000000000E+00 0. -1.
         25    1    1    2    0    0 -0.88697044451E+02 -0.16099118274E+03  0.21320995836E+03  0.30800781314E+03  0.12500000000E+03 0.  0.
         25    1    1    2    0    0  0.88697044451E+02  0.16099118274E+03  0.17734061337E+03  0.28435896287E+03  0.12500000000E+03 0.  0.
</event>
<event>
 4    0  0.2213671E-002  0.2106134E+03  0.7546771E-02  0.1141081E+00
         21   -1    0    0  502  501  0.00000000000E+00  0.00000000000E+00  0.30905345718E+03  0.30905345718E+03  0.00000000000E+00 0. -1.
         21   -1    0    0  501  502 -0.00000000000E+00 -0.00000000000E+00 -0.14352858873E+03  0.14352858873E+03  0.00000000000E+00 0. -1.
         25    1    1    2    0    0  0.28749342463E+02 -0.14943434021E+03  0.16299251674E+03  0.25563393210E+03  0.12500000000E+03 0.  0.
         25    1    1    2    0    0 -0.28749342463E+02  0.14943434021E+03  0.25323517024E+01  0.19694811381E+03  0.12500000000E+03 0.  0.
</event>
<event>
 4    0  0.2213671E-002  0.2494182E+03  0.7546771E-02  0.1113673E+00
         21   -1    0    0  502  501  0.00000000000E+00  0.00000000000E+00  0.38875784960E+03  0.38875784960E+03  0.00000000000E+00 0. -1.
         21   -1    0    0  501  502 -0.00000000000E+00 -0.00000000000E+00 -0.16002102974E+03  0.16002102974E+03  0.00000000000E+00 0. -1.
         25    1    1    2    0    0 -0.17613803332E+03 -0.77783994177E+01 -0.22592179100E+02  0.21730282289E+03  0.12500000000E+03 0.  0.
         25    1    1    2    0    0  0.17613803332E+03  0.77783994177E+01  0.25132899896E+03  0.33147605645E+03  0.12500000000E+03 0.  0.
</event>
<event>
 4    0  0.2213671E-002  0.2430742E+03  0.7546771E-02  0.1117762E+00
         21   -1    0    0  502  501  0.00000000000E+00  0.00000000000E+00  0.52937298922E+03  0.52937298922E+03  0.00000000000E+00 0. -1.
         21   -1    0    0  501  502 -0.00000000000E+00 -0.00000000000E+00 -0.11161329606E+03  0.11161329606E+03  0.00000000000E+00 0. -1.
         25    1    1    2    0    0  0.10188292567E+03  0.15049090584E+03  0.74209357951E+02  0.23272230682E+03  0.12500000000E+03 0.  0.
         25    1    1    2    0    0 -0.10188292567E+03 -0.15049090584E+03  0.34355033521E+03  0.40826397846E+03  0.12500000000E+03 0.  0.
</event>
<event>
 4    0  0.2213671E-002  0.2356432E+03  0.7546771E-02  0.1122730E+00
         21   -1    0    0  502  501  0.00000000000E+00  0.00000000000E+00  0.16585188550E+03  0.16585188550E+03  0.00000000000E+00 0. -1.
         21   -1    0    0  501  502 -0.00000000000E+00 -0.00000000000E+00 -0.33480291300E+03  0.33480291300E+03  0.00000000000E+00 0. -1.
         25    1    1    2    0    0 -0.31934179308E+02  0.12541057595E+03 -0.24612592122E+03  0.30487796487E+03  0.12500000000E+03 0.  0.
         25    1    1    2    0    0  0.31934179308E+02 -0.12541057595E+03  0.77174893720E+02  0.19577683364E+03  0.12500000000E+03 0.  0.
</event>
<event>
 4    0  0.2213671E-002  0.4668176E+03  0.7546771E-02  0.1022822E+00
         21   -1    0    0  502  501  0.00000000000E+00  0.00000000000E+00  0.15864741434E+04  0.15864741434E+04  0.00000000000E+00 0.  1.
         21   -1    0    0  501  502 -0.00000000000E+00 -0.00000000000E+00 -0.13736039616E+03  0.13736039616E+03  0.00000000000E+00 0.  1.
         25    1    1    2    0    0  0.36961371712E+03 -0.13874361464E+03  0.11224037112E+04  0.11963608074E+04  0.12500000000E+03 0.  0.
         25    1    1    2    0    0 -0.36961371712E+03  0.13874361464E+03  0.32671003600E+03  0.52747373215E+03  0.12500000000E+03 0.  0.
</event>
<event>
 4    0  0.2213671E-002  0.1860383E+03  0.7546771E-02  0.1162084E+00
         21   -1    0    0  502  501  0.00000000000E+00  0.00000000000E+00  0.10875915980E+04  0.10875915980E+04  0.00000000000E+00 0. -1.
         21   -1    0    0  501  502 -0.00000000000E+00 -0.00000000000E+00 -0.31822848128E+02  0.31822848128E+02  0.00000000000E+00 0. -1.
         25    1    1    2    0    0  0.60816545906E+02  0.61502847181E+02  0.85057257732E+03  0.86404858761E+03  0.12500000000E+03 0.  0.
         25    1    1    2    0    0 -0.60816545906E+02 -0.61502847181E+02  0.20519617258E+03  0.25536585854E+03  0.12500000000E+03 0.  0.
</event>
<event>
 4    0  0.2213671E-002  0.1857792E+03  0.7546771E-02  0.1162324E+00
         21   -1    0    0  502  501  0.00000000000E+00  0.00000000000E+00  0.18890697851E+03  0.18890697851E+03  0.00000000000E+00 0. -1.
         21   -1    0    0  501  502 -0.00000000000E+00 -0.00000000000E+00 -0.18270324908E+03  0.18270324908E+03  0.00000000000E+00 0. -1.
         25    1    1    2    0    0 -0.11170873872E+03  0.20385519400E+02  0.80536857778E+02  0.18709782780E+03  0.12500000000E+03 0.  0.
         25    1    1    2    0    0  0.11170873872E+03 -0.20385519400E+02 -0.74333128345E+02  0.18451239979E+03  0.12500000000E+03 0.  0.
</event>
<event>
 4    0  0.2213671E-002  0.2096508E+03  0.7546771E-02  0.1141843E+00
         21   -1    0    0  502  501  0.00000000000E+00  0.00000000000E+00  0.52026912627E+03  0.52026912627E+03  0.00000000000E+00 0. -1.
         21   -1    0    0  501  502 -0.00000000000E+00 -0.00000000000E+00 -0.84482192967E+02  0.84482192967E+02  0.00000000000E+00 0. -1.
         25    1    1    2    0    0 -0.61662028514E+02 -0.59207733974E+02  0.42700305935E+03  0.45306111532E+03  0.12500000000E+03 0.  0.
         25    1    1    2    0    0  0.61662028514E+02  0.59207733974E+02  0.87838739556E+01  0.15169020392E+03  0.12500000000E+03 0.  0.
</event>
<event>
 4    0  0.2213671E-002  0.2026925E+03  0.7546771E-02  0.1147487E+00
         21   -1    0    0  502  501  0.00000000000E+00  0.00000000000E+00  0.22765972539E+03  0.22765972539E+03  0.00000000000E+00 0.  1.
         21   -1    0    0  501  502 -0.00000000000E+00 -0.00000000000E+00 -0.18046341557E+03  0.18046341557E+03  0.00000000000E+00 0.  1.
         25    1    1    2    0    0 -0.12135719280E+03  0.95703744912E+02 -0.16324152079E+02  0.19944486199E+03  0.12500000000E+03 0.  0.
         25    1    1    2    0    0  0.12135719280E+03 -0.95703744912E+02  0.63520461901E+02  0.20867827897E+03  0.12500000000E+03 0.  0.
</event>
<event>
 4    0  0.2213671E-002  0.1580639E+03  0.7546771E-02  0.1190900E+00
         21   -1    0    0  502  501  0.00000000000E+00  0.00000000000E+00  0.26489535301E+03  0.26489535301E+03  0.00000000000E+00 0.  1.
         21   -1    0    0  501  502 -0.00000000000E+00 -0.00000000000E+00 -0.94317190471E+02  0.94317190471E+02  0.00000000000E+00 0.  1.
         25    1    1    2    0    0  0.79405132263E+02 -0.54377708104E+02  0.74093587222E+02  0.17428990170E+03  0.12500000000E+03 0.  0.
         25    1    1    2    0    0 -0.79405132263E+02  0.54377708104E+02  0.96484575319E+02  0.18492264178E+03  0.12500000000E+03 0.  0.
</event>
<event>
 4    0  0.2213671E-002  0.3533477E+03  0.7546771E-02  0.1061249E+00
         21   -1    0    0  502  501  0.00000000000E+00  0.00000000000E+00  0.53897864447E+03  0.53897864447E+03  0.00000000000E+00 0. -1.
         21   -1    0    0  501  502 -0.00000000000E+00 -0.00000000000E+00 -0.23165033151E+03  0.23165033151E+03  0.00000000000E+00 0. -1.
         25    1    1    2    0    0 -0.28823031520E+03 -0.14795860546E+03  0.82481386370E+02  0.35692666281E+03  0.12500000000E+03 0.  0.
         25    1    1    2    0    0  0.28823031520E+03  0.14795860546E+03  0.22484692659E+03  0.41370231318E+03  0.12500000000E+03 0.  0.
</event>
<event>
 4    0  0.2213671E-002  0.3356832E+03  0.7546771E-02  0.1068650E+00
         21   -1    0    0  502  501  0.00000000000E+00  0.00000000000E+00  0.77403198362E+03  0.77403198362E+03  0.00000000000E+00 0.  1.
         21   -1    0    0  501  502 -0.00000000000E+00 -0.00000000000E+00 -0.14557953338E+03  0.14557953338E+03  0.00000000000E+00 0.  1.
         25    1    1    2    0    0  0.19051759488E+03  0.97835104524E+02  0.62413613330E+03  0.67159479936E+03  0.12500000000E+03 0.  0.
         25    1    1    2    0    0 -0.19051759488E+03 -0.97835104524E+02  0.43163169340E+01  0.24801671764E+03  0.12500000000E+03 0.  0.
</event>
<event>
 4    0  0.2213671E-002  0.3315399E+03  0.7546771E-02  0.1070458E+00
         21   -1    0    0  502  501  0.00000000000E+00  0.00000000000E+00  0.14821255374E+03  0.14821255374E+03  0.00000000000E+00 0.  1.
         21   -1    0    0  501  502 -0.00000000000E+00 -0.00000000000E+00 -0.74162867143E+03  0.74162867143E+03  0.00000000000E+00 0.  1.
         25    1    1    2    0    0  0.59539640454E+02  0.29977060643E+03 -0.25675631937E+03  0.41827765038E+03  0.12500000000E+03 0.  0.
         25    1    1    2    0    0 -0.59539640454E+02 -0.29977060643E+03 -0.33665979831E+03  0.47156357479E+03  0.12500000000E+03 0.  0.
</event>
<event>
 4    0  0.2213671E-002  0.2113698E+03  0.7546771E-02  0.1140486E+00
         21   -1    0    0  502  501  0.00000000000E+00  0.00000000000E+00  0.31036575421E+03  0.31036575421E+03  0.00000000000E+00 0.  1.
         21   -1    0    0  501  502 -0.00000000000E+00 -0.00000000000E+00 -0.14395018904E+03  0.14395018904E+03  0.00000000000E+00 0.  1.
         25    1    1    2    0    0 -0.13163532127E+03 -0.13040399987E+02 -0.32312107900E+02  0.18484312850E+03  0.12500000000E+03 0.  0.
         25    1    1    2    0    0  0.13163532127E+03  0.13040399987E+02  0.19872767308E+03  0.26947281474E+03  0.12500000000E+03 0.  0.
</event>
<event>
 4    0  0.2213671E-002  0.1866063E+03  0.7546771E-02  0.1161558E+00
         21   -1    0    0  502  501  0.00000000000E+00  0.00000000000E+00  0.50521957806E+02  0.50521957806E+02  0.00000000000E+00 0.  1.
         21   -1    0    0  501  502 -0.00000000000E+00 -0.00000000000E+00 -0.68924331038E+03  0.68924331038E+03  0.00000000000E+00 0.  1.
         25    1    1    2    0    0  0.10283431337E+03  0.87678131888E+02 -0.37995663202E+03  0.42220183921E+03  0.12500000000E+03 0.  0.
         25    1    1    2    0    0 -0.10283431337E+03 -0.87678131888E+02 -0.25876472056E+03  0.31756342898E+03  0.12500000000E+03 0.  0.
</event>
<event>
 4    0  0.2213671E-002  0.3860801E+03  0.7546771E-02  0.1048709E+00
         21   -1    0    0  502  501  0.00000000000E+00  0.00000000000E+00  0.32456278394E+03  0.32456278394E+03  0.00000000000E+00 0.  1.
         21   -1    0    0  501  502 -0.00000000000E+00 -0.00000000000E+00 -0.45925742714E+03  0.45925742714E+03  0.00000000000E+00 0.  1.
         25    1    1    2    0    0 -0.76784538234E+02 -0.35219987595E+03 -0.12733495701E+03  0.40221860873E+03  0.12500000000E+03 0.  0.
         25    1    1    2    0    0  0.76784538234E+02  0.35219987595E+03 -0.73596861858E+01  0.38160160235E+03  0.12500000000E+03 0.  0.
</event>
<event>
 4    0  0.2213671E-002  0.1878214E+03  0.7546771E-02  0.1160441E+00
         21   -1    0    0  502  501  0.00000000000E+00  0.00000000000E+00  0.10285682563E+04  0.10285682563E+04  0.00000000000E+00 0.  1.
         21   -1    0    0  501  502 -0.00000000000E+00 -0.00000000000E+00 -0.34297071100E+02  0.34297071100E+02  0.00000000000E+00 0.  1.
         25    1    1    2    0    0 -0.13774558062E+03 -0.25506928001E+02  0.51195456692E+03  0.54529526584E+03  0.12500000000E+03 0.  0.
         25    1    1    2    0    0  0.13774558062E+03  0.25506928001E+02  0.48231661826E+03  0.51757006155E+03  0.12500000000E+03 0.  0.
</event>
<event>
 4    0  0.2213671E-002  0.1681690E+03  0.7546771E-02  0.1179771E+00
         21   -1    0    0  502  501  0.00000000000E+00  0.00000000000E+00  0.26843093697E+03  0.26843093697E+03  0.00000000000E+00 0. -1.
         21   -1    0    0  501  502 -0.00000000000E+00 -0.00000000000E+00 -0.10535603570E+03  0.10535603570E+03  0.00000000000E+00 0. -1.
         25    1    1    2    0    0  0.38992277008E+01 -0.18669258548E+02 -0.41676748280E+02  0.13313788544E+03  0.12500000000E+03 0.  0.
         25    1    1    2    0    0 -0.38992277008E+01  0.18669258548E+02  0.20475164955E+03  0.24064908723E+03  0.12500000000E+03 0.  0.
</event>
<event>
 4    0  0.2213671E-002  0.2263863E+03  0.7546771E-02  0.1129209E+00
         21   -1    0    0  502  501  0.00000000000E+00  0.00000000000E+00  0.14111556739E+03  0.14111556739E+03  0.00000000000E+00 0.  1.
         21   -1    0    0  501  502 -0.00000000000E+00 -0.00000000000E+00 -0.36318279673E+03  0.36318279673E+03  0.00000000000E+00 0.  1.
         25    1    1    2    0    0  0.16580847289E+03 -0.88721014082E+02 -0.12905786906E+03  0.26008614263E+03  0.12500000000E+03 0.  0.
         25    1    1    2    0    0 -0.16580847289E+03  0.88721014082E+02 -0.93009360289E+02  0.24421222149E+03  0.12500000000E+03 0.  0.
</event>
<event>
 4    0  0.2213671E-002  0.2294953E+03  0.7546771E-02  0.1126995E+00
         21   -1    0    0  502  501  0.00000000000E+00  0.00000000000E+00  0.24365780550E+03  0.24365780550E+03  0.00000000000E+00 0.  1.
         21   -1    0    0  501  502 -0.00000000000E+00 -0.00000000000E+00 -0.21615602850E+03  0.21615602850E+03  0.00000000000E+00 0.  1.
         25    1    1    2    0    0  0.24945695993E+02  0.13874609677E+03  0.14502152762E+03  0.23775830288E+03  0.12500000000E+03 0.  0.
         25    1    1    2    0    0 -0.24945695993E+02 -0.13874609677E+03 -0.11751975062E+03  0.22205553112E+03  0.12500000000E+03 0.  0.
</event>
<event>
 4    0  0.2213671E-002  0.2456703E+03  0.7546771E-02  0.1116072E+00
         21   -1    0    0  502  501  0.00000000000E+00  0.00000000000E+00  0.82932287852E+03  0.82932287852E+03  0.00000000000E+00 0. -1.
         21   -1    0    0  501  502 -0.00000000000E+00 -0.00000000000E+00 -0.72774923903E+02  0.72774923903E+02  0.00000000000E+00 0. -1.
         25    1    1    2    0    0  0.74350316388E+02  0.18800960871E+03  0.26430442276E+03  0.35546787535E+03  0.12500000000E+03 0.  0.
         25    1    1    2    0    0 -0.74350316388E+02 -0.18800960871E+03  0.49224353186E+03  0.54662992708E+03  0.12500000000E+03 0.  0.
</event>
<event>
 4    0  0.2213671E-002  0.2310428E+03  0.7546771E-02  0.1125908E+00
         21   -1    0    0  502  501  0.00000000000E+00  0.00000000000E+00  0.68783754186E+03  0.68783754186E+03  0.00000000000E+00 0.  1.
         21   -1    0    0  501  502 -0.00000000000E+00 -0.00000000000E+00 -0.77606683819E+02  0.77606683819E+02  0.00000000000E+00 0.  1.
         25    1    1    2    0    0  0.12097078506E+03 -0.12195217985E+03  0.15466080407E+03  0.26277600599E+03  0.12500000000E+03 0.  0.
         25    1    1    2    0    0 -0.12097078506E+03  0.12195217985E+03  0.45557005397E+03  0.50266821969E+03  0.12500000000E+03 0.  0.
</event>
<event>
 4    0  0.2213671E-002  0.2346186E+03  0.7546771E-02  0.1123431E+00
         21   -1    0    0  502  501  0.00000000000E+00  0.00000000000E+00  0.33302397088E+03  0.33302397088E+03  0.00000000000E+00 0.  1.
         21   -1    0    0  501  502 -0.00000000000E+00 -0.00000000000E+00 -0.16529101614E+03  0.16529101614E+03  0.00000000000E+00 0.  1.
         25    1    1    2    0    0  0.11411482128E+03  0.15588317831E+03  0.35211253746E+02  0.23278013254E+03  0.12500000000E+03 0.  0.
         25    1    1    2    0    0 -0.11411482128E+03 -0.15588317831E+03  0.13252170099E+03  0.26553485449E+03  0.12500000000E+03 0.  0.
</event>
<event>
 4    0  0.2213671E-002  0.2558231E+03  0.7546771E-02  0.1109679E+00
         21   -1    0    0  502  501  0.00000000000E+00  0.00000000000E+00  0.87830488014E+03  0.87830488014E+03  0.00000000000E+00 0.  1.
         21   -1    0    0  501  502 -0.00000000000E+00 -0.00000000000E+00 -0.74513359869E+02  0.74513359869E+02  0.00000000000E+00 0.  1.
         25    1    1    2    0    0  0.27748103585E+02  0.21337962796E+03  0.51237699648E+03  0.56961040142E+03  0.12500000000E+03 0.  0.
         25    1    1    2    0    0 -0.27748103585E+02 -0.21337962796E+03  0.29141452379E+03  0.38320783859E+03  0.12500000000E+03 0.  0.
</event>
<event>
 4    0  0.2213671E-002  0.2630212E+03  0.7546771E-02  0.1105342E+00
         21   -1    0    0  502  501  0.00000000000E+00  0.00000000000E+00  0.95644582523E+03  0.95644582523E+03  0.00000000000E+00 0. -1.
         21   -1    0    0  501  502 -0.00000000000E+00 -0.00000000000E+00 -0.72330448474E+02  0.72330448474E+02  0.00000000000E+00 0. -1.
         25    1    1    2    0    0  0.25673738120E+02 -0.17478689245E+03  0.14971262250E+03  0.26315103636E+03  0.12500000000E+03 0.  0.
         25    1    1    2    0    0 -0.25673738120E+02  0.17478689245E+03  0.73440275425E+03  0.76562523734E+03  0.12500000000E+03 0.  0.
</event>
<event>
 4    0  0.2213671E-002  0.2400856E+03  0.7546771E-02  0.1119736E+00
         21   -1    0    0  502  501  0.00000000000E+00  0.00000000000E+00  0.12904770705E+04  0.12904770705E+04  0.00000000000E+00 0.  1.
         21   -1    0    0  501  502 -0.00000000000E+00 -0.00000000000E+00 -0.44666486145E+02  0.44666486145E+02  0.00000000000E+00 0.  1.
         25    1    1    2    0    0 -0.17909218228E+03  0.52572800426E+02  0.38732513349E+03  0.44775402637E+03  0.12500000000E+03 0.  0.
         25    1    1    2    0    0  0.17909218228E+03 -0.52572800426E+02  0.85848545090E+03  0.88738953031E+03  0.12500000000E+03 0.  0.
</event>
<event>
 4    0  0.2213671E-002  0.1789756E+03  0.7546771E-02  0.1168798E+00
         21   -1    0    0  502  501  0.00000000000E+00  0.00000000000E+00  0.61142653486E+03  0.61142653486E+03  0.00000000000E+00 0. -1.
         21   -1    0    0  501  502 -0.00000000000E+00 -0.00000000000E+00 -0.52389387431E+02  0.52389387431E+02  0.00000000000E+00 0. -1.
         25    1    1    2    0    0  0.54643402055E+02 -0.11585051534E+03  0.27976963567E+03  0.33211939470E+03  0.12500000000E+03 0.  0.
         25    1    1    2    0    0 -0.54643402055E+02  0.11585051534E+03  0.27926751177E+03  0.33169652760E+03  0.12500000000E+03 0.  0.
</event>
<event>
 4    0  0.2213671E-002  0.2723016E+03  0.7546771E-02  0.1099970E+00
         21   -1    0    0  502  501  0.00000000000E+00  0.00000000000E+00  0.54066536968E+02  0.54066536968E+02  0.00000000000E+00 0.  1.
         21   -1    0    0  501  502 -0.00000000000E+00 -0.00000000000E+00 -0.13714239639E+04  0.13714239639E+04  0.00000000000E+00 0.  1.
         25    1    1    2    0    0 -0.73828338421E+02 -0.95988776503E+02 -0.12068445245E+04  0.12193289856E+04  0.12500000000E+03 0.  0.
         25    1    1    2    0    0  0.73828338421E+02  0.95988776503E+02 -0.11051290237E+03  0.20616151522E+03  0.12500000000E+03 0.  0.
</event>
<event>
 4    0  0.2213671E-002  0.1981272E+03  0.7546771E-02  0.1151329E+00
         21   -1    0    0  502  501  0.00000000000E+00  0.00000000000E+00  0.36247922945E+03  0.36247922945E+03  0.00000000000E+00 0. -1.
         21   -1    0    0  501  502 -0.00000000000E+00 -0.00000000000E+00 -0.10829419905E+03  0.10829419905E+03  0.00000000000E+00 0. -1.
         25    1    1    2    0    0  0.14755876675E+03  0.16710790272E+02  0.79919599764E+02  0.20991660864E+03  0.12500000000E+03 0.  0.
         25    1    1    2    0    0 -0.14755876675E+03 -0.16710790272E+02  0.17426543063E+03  0.26085681986E+03  0.12500000000E+03 0.  0.
</event>
<event>
 4    0  0.2213671E-002  0.2393362E+03  0.7546771E-02  0.1120236E+00
         21   -1    0    0  502  501  0.00000000000E+00  0.00000000000E+00  0.13974417311E+03  0.13974417311E+03  0.00000000000E+00 0.  1.
         21   -1    0    0  501  502 -0.00000000000E+00 -0.00000000000E+00 -0.40990501257E+03  0.40990501257E+03  0.00000000000E+00 0.  1.
         25    1    1    2    0    0 -0.60273089126E+02 -0.62725038422E+02  0.76930305081E+02  0.17061813373E+03  0.12500000000E+03 0.  0.
         25    1    1    2    0    0  0.60273089126E+02  0.62725038422E+02 -0.34709114454E+03  0.37903105194E+03  0.12500000000E+03 0.  0.
</event>
<event>
 4    0  0.2213671E-002  0.2168816E+03  0.7546771E-02  0.1136230E+00
         21   -1    0    0  502  501  0.00000000000E+00  0.00000000000E+00  0.36427153641E+03  0.36427153641E+03  0.00000000000E+00 0.  1.
         21   -1    0    0  501  502 -0.00000000000E+00 -0.00000000000E+00 -0.12912792932E+03  0.12912792932E+03  0.00000000000E+00 0.  1.
         25    1    1    2    0    0  0.11786848098E+03 -0.12311156439E+03  0.17286803994E+03  0.27305273360E+03  0.12500000000E+03 0.  0.
         25    1    1    2    0    0 -0.11786848098E+03  0.12311156439E+03  0.62275567154E+02  0.22034673213E+03  0.12500000000E+03 0.  0.
</event>
<event>
 4    0  0.2213671E-002  0.5414258E+03  0.7546771E-02  0.1003498E+00
         21   -1    0    0  502  501  0.00000000000E+00  0.00000000000E+00  0.36833292926E+03  0.36833292926E+03  0.00000000000E+00 0. -1.
         21   -1    0    0  501  502 -0.00000000000E+00 -0.00000000000E+00 -0.79586112867E+03  0.79586112867E+03  0.00000000000E+00 0. -1.
         25    1    1    2    0    0  0.49880051896E+03 -0.15865780094E+03 -0.14977325461E+03  0.55859760411E+03  0.12500000000E+03 0.  0.
         25    1    1    2    0    0 -0.49880051896E+03  0.15865780094E+03 -0.27775494480E+03  0.60559645382E+03  0.12500000000E+03 0.  0.
</event>
<event>
 4    0  0.2213671E-002  0.1692296E+03  0.7546771E-02  0.1178654E+00
         21   -1    0    0  502  501  0.00000000000E+00  0.00000000000E+00  0.15329451972E+02  0.15329451972E+02  0.00000000000E+00 0. -1.
         21   -1    0    0  501  502 -0.00000000000E+00 -0.00000000000E+00 -0.18682121853E+04  0.18682121853E+04  0.00000000000E+00 0. -1.
         25    1    1    2    0    0 -0.81539644979E+02  0.14745817885E+02 -0.13627749622E+04  0.13710020972E+04  0.12500000000E+03 0.  0.
         25    1    1    2    0    0  0.81539644979E+02 -0.14745817885E+02 -0.49010777114E+03  0.51253954012E+03  0.12500000000E+03 0.  0.
</event>
<event>
 4    0  0.2213671E-002  0.2611775E+03  0.7546771E-02  0.1106438E+00
         21   -1    0    0  502  501  0.00000000000E+00  0.00000000000E+00  0.48884085619E+02  0.48884085619E+02  0.00000000000E+00 0. -1.
         21   -1    0    0  501  502 -0.00000000000E+00 -0.00000000000E+00 -0.13954171508E+04  0.13954171508E+04  0.00000000000E+00 0. -1.
         25    1    1    2    0    0 -0.15475899529E+03 -0.61988781208E+02 -0.11086585995E+04  0.11280699650E+04  0.12500000000E+03 0.  0.
         25    1    1    2    0    0  0.15475899529E+03  0.61988781208E+02 -0.23787446567E+03  0.31623127144E+03  0.12500000000E+03 0.  0.
</event>
<event>
 4    0  0.2213671E-002  0.5613821E+03  0.7546771E-02  0.9988932E-01
         21   -1    0    0  502  501  0.00000000000E+00  0.00000000000E+00  0.11803271403E+04  0.11803271403E+04  0.00000000000E+00 0.  1.
         21   -1    0    0  501  502 -0.00000000000E+00 -0.00000000000E+00 -0.26700208911E+03  0.26700208911E+03  0.00000000000E+00 0.  1.
         25    1    1    2    0    0 -0.95908971278E+02  0.14778217465E+03 -0.21128171239E+03  0.30216396858E+03  0.12500000000E+03 0.  0.
         25    1    1    2    0    0  0.95908971278E+02 -0.14778217465E+03  0.11246067635E+04  0.11451652608E+04  0.12500000000E+03 0.  0.
</event>
<event>
 4    0  0.2213671E-002  0.1848243E+03  0.7546771E-02  0.1163214E+00
         21   -1    0    0  502  501  0.00000000000E+00  0.00000000000E+00  0.29018712717E+03  0.29018712717E+03  0.00000000000E+00 0. -1.
         21   -1    0    0  501  502 -0.00000000000E+00 -0.00000000000E+00 -0.11771724622E+03  0.11771724622E+03  0.00000000000E+00 0. -1.
         25    1    1    2    0    0 -0.42546140593E+02 -0.13839855845E+02  0.22812409534E+03  0.26394567351E+03  0.12500000000E+03 0.  0.
         25    1    1    2    0    0  0.42546140593E+02  0.13839855845E+02 -0.55654214398E+02  0.14395869987E+03  0.12500000000E+03 0.  0.
</event>
<event>
 4    0  0.2213671E-002  0.2323514E+03  0.7546771E-02  0.1124996E+00
         21   -1    0    0  502  501  0.00000000000E+00  0.00000000000E+00  0.19636271285E+02  0.19636271285E+02  0.00000000000E+00 0.  1.
         21   -1    0    0  501  502 -0.00000000000E+00 -0.00000000000E+00 -0.27493592949E+04  0.27493592949E+04  0.00000000000E+00 0.  1.
         25    1    1    2    0    0  0.76628710853E+02  0.15997940718E+03 -0.18597081908E+04  0.18723260733E+04  0.12500000000E+03 0.  0.
         25    1    1    2    0    0 -0.76628710853E+02 -0.15997940718E+03 -0.87001483287E+03  0.89666949288E+03  0.12500000000E+03 0.  0.
</event>
<event>
 4    0  0.2213671E-002  0.1661434E+03  0.7546771E-02  0.1181930E+00
         21   -1    0    0  502  501  0.00000000000E+00  0.00000000000E+00  0.49452765498E+02  0.49452765498E+02  0.00000000000E+00 0.  1.
         21   -1    0    0  501  502 -0.00000000000E+00 -0.00000000000E+00 -0.55818158450E+03  0.55818158450E+03  0.00000000000E+00 0.  1.
         25    1    1    2    0    0  0.31738504282E+02 -0.93481876445E+02 -0.34076527989E+03  0.37615444947E+03  0.12500000000E+03 0.  0.
         25    1    1    2    0    0 -0.31738504282E+02  0.93481876445E+02 -0.16796353912E+03  0.23147990053E+03  0.12500000000E+03 0.  0.
</event>
<event>
 4    0  0.2213671E-002  0.2225391E+03  0.7546771E-02  0.1132004E+00
         21   -1    0    0  502  501  0.00000000000E+00  0.00000000000E+00  0.96147844415E+02  0.96147844415E+02  0.00000000000E+00 0.  1.
         21   -1    0    0  501  502 -0.00000000000E+00 -0.00000000000E+00 -0.51507825859E+03  0.51507825859E+03  0.00000000000E+00 0.  1.
         25    1    1    2    0    0  0.13707035497E+03 -0.87075191055E+02 -0.32862061924E+03  0.38728139963E+03  0.12500000000E+03 0.  0.
         25    1    1    2    0    0 -0.13707035497E+03  0.87075191055E+02 -0.90309794934E+02  0.22394470338E+03  0.12500000000E+03 0.  0.
</event>
<event>
 4    0  0.2213671E-002  0.1734727E+03  0.7546771E-02  0.1174274E+00
         21   -1    0    0  502  501  0.00000000000E+00  0.00000000000E+00  0.73737804205E+02  0.73737804205E+02  0.00000000000E+00 0.  1.
         21   -1    0    0  501  502 -0.00000000000E+00 -0.00000000000E+00 -0.40810504711E+03  0.40810504711E+03  0.00000000000E+00 0.  1.
         25    1    1    2    0    0 -0.46370423319E+02 -0.10033882007E+03 -0.10131110712E+03  0.19521023384E+03  0.12500000000E+03 0.  0.
         25    1    1    2    0    0  0.46370423319E+02  0.10033882007E+03 -0.23305613578E+03  0.28663261747E+03  0.12500000000E+03 0.  0.
</event>
<event>
 4    0  0.2213671E-002  0.1847311E+03  0.7546771E-02  0.1163301E+00
         21   -1    0    0  502  501  0.00000000000E+00  0.00000000000E+00  0.81001467447E+02  0.81001467447E+02  0.00000000000E+00 0. -1.
         21   -1    0    0  501  502 -0.00000000000E+00 -0.00000000000E+00 -0.42129566039E+03  0.42129566039E+03  0.00000000000E+00 0. -1.
         25    1    1    2    0    0  0.98256563136E+02 -0.92136726323E+02 -0.19583614949E+03  0.26855227794E+03  0.12500000000E+03 0.  0.
         25    1    1    2    0    0 -0.98256563136E+02  0.92136726323E+02 -0.14445804345E+03  0.23374484990E+03  0.12500000000E+03 0.  0.
</event>
<event>
 4    0  0.2213671E-002  0.3168860E+03  0.7546771E-02  0.1077091E+00
         21   -1    0    0  502  501  0.00000000000E+00  0.00000000000E+00  0.28232869183E+03  0.28232869183E+03  0.00000000000E+00 0. -1.
         21   -1    0    0  501  502 -0.00000000000E+00 -0.00000000000E+00 -0.35567315924E+03  0.35567315924E+03  0.00000000000E+00 0. -1.
         25    1    1    2    0    0  0.12471410975E+03  0.25813020660E+03 -0.88071055120E+02  0.32490971589E+03  0.12500000000E+03 0.  0.
         25    1    1    2    0    0 -0.12471410975E+03 -0.25813020660E+03  0.14726587715E+02  0.31309213518E+03  0.12500000000E+03 0.  0.
</event>
<event>
 4    0  0.2213671E-002  0.2174262E+03  0.7546771E-02  0.1135817E+00
         21   -1    0    0  502  501  0.00000000000E+00  0.00000000000E+00  0.21685567070E+03  0.21685567070E+03  0.00000000000E+00 0. -1.
         21   -1    0    0  501  502 -0.00000000000E+00 -0.00000000000E+00 -0.21799823354E+03  0.21799823354E+03  0.00000000000E+00 0. -1.
         25    1    1    2    0    0 -0.11327868584E+03  0.13476299493E+03 -0.26184407077E+02  0.21749424968E+03  0.12500000000E+03 0.  0.
         25    1    1    2    0    0  0.11327868584E+03 -0.13476299493E+03  0.25041844238E+02  0.21735965457E+03  0.12500000000E+03 0.  0.
</event>
<event>
 4    0  0.2213671E-002  0.2078367E+03  0.7546771E-02  0.1143291E+00
         21   -1    0    0  502  501  0.00000000000E+00  0.00000000000E+00  0.16033208937E+03  0.16033208937E+03  0.00000000000E+00 0. -1.
         21   -1    0    0  501  502 -0.00000000000E+00 -0.00000000000E+00 -0.26941642983E+03  0.26941642983E+03  0.00000000000E+00 0. -1.
         25    1    1    2    0    0  0.12643016443E+03  0.73952670049E+02 -0.13540513457E+03  0.23539994552E+03  0.12500000000E+03 0.  0.
         25    1    1    2    0    0 -0.12643016443E+03 -0.73952670049E+02  0.26320794112E+02  0.19434857367E+03  0.12500000000E+03 0.  0.
</event>
<event>
 4    0  0.2213671E-002  0.1980162E+03  0.7546771E-02  0.1151424E+00
         21   -1    0    0  502  501  0.00000000000E+00  0.00000000000E+00  0.18647037377E+04  0.18647037377E+04  0.00000000000E+00 0.  1.
         21   -1    0    0  501  502 -0.00000000000E+00 -0.00000000000E+00 -0.21027688490E+02  0.21027688490E+02  0.00000000000E+00 0.  1.
         25    1    1    2    0    0  0.11889748223E+03  0.13216548587E+02  0.13803867930E+04  0.13911879768E+04  0.12500000000E+03 0.  0.
         25    1    1    2    0    0 -0.11889748223E+03 -0.13216548587E+02  0.46328925618E+03  0.49454344938E+03  0.12500000000E+03 0.  0.
</event>
<event>
 4    0  0.2213671E-002  0.2012315E+03  0.7546771E-02  0.1148704E+00
         21   -1    0    0  502  501  0.00000000000E+00  0.00000000000E+00  0.80083490853E+02  0.80083490853E+02  0.00000000000E+00 0.  1.
         21   -1    0    0  501  502 -0.00000000000E+00 -0.00000000000E+00 -0.50564855359E+03  0.50564855359E+03  0.00000000000E+00 0.  1.
         25    1    1    2    0    0 -0.10451118601E+02  0.14829328671E+03 -0.13619946612E+03  0.23722440712E+03  0.12500000000E+03 0.  0.
         25    1    1    2    0    0  0.10451118601E+02 -0.14829328671E+03 -0.28936559662E+03  0.34850763732E+03  0.12500000000E+03 0.  0.
</event>
<event>
 4    0  0.2213671E-002  0.2353935E+03  0.7546771E-02  0.1122900E+00
         21   -1    0    0  502  501  0.00000000000E+00  0.00000000000E+00  0.77955833150E+02  0.77955833150E+02  0.00000000000E+00 0. -1.
         21   -1    0    0  501  502 -0.00000000000E+00 -0.00000000000E+00 -0.71078823456E+03  0.71078823456E+03  0.00000000000E+00 0. -1.
         25    1    1    2    0    0  0.67316986702E+02 -0.17201237525E+03 -0.44251803988E+03  0.49554722232E+03  0.12500000000E+03 0.  0.
         25    1    1    2    0    0 -0.67316986702E+02  0.17201237525E+03 -0.19031436153E+03  0.29319684538E+03  0.12500000000E+03 0.  0.
</event>
