<event>
 4    0  0.2244970E-002  0.2634150E+03  0.7546771E-02  0.1105109E+00
         21   -1    0    0  502  501  0.00000000000E+00  0.00000000000E+00  0.46319264681E+03  0.46319264681E+03  0.00000000000E+00 0. -1.
         21   -1    0    0  501  502 -0.00000000000E+00 -0.00000000000E+00 -0.14980261663E+03  0.14980261663E+03  0.00000000000E+00 0.  1.
         25    1    1    2    0    0  0.97674168152E+02 -0.20491475842E+03  0.21166810475E+03  0.33460228318E+03  0.12500000000E+03 0.  0.
         25    1    1    2    0    0 -0.97674168152E+02  0.20491475842E+03  0.10172192544E+03  0.27839298026E+03  0.12500000000E+03 0.  0.
</event>
<event>
 4    0  0.2244970E-002  0.2144030E+03  0.7546771E-02  0.1138126E+00
         21   -1    0    0  502  501  0.00000000000E+00  0.00000000000E+00  0.26822316717E+03  0.26822316717E+03  0.00000000000E+00 0.  1.
         21   -1    0    0  501  502 -0.00000000000E+00 -0.00000000000E+00 -0.17138204103E+03  0.17138204103E+03  0.00000000000E+00 0.  1.
         25    1    1    2    0    0 -0.51733817660E+02  0.83328356597E+02  0.19600309595E+03  0.25231372639E+03  0.12500000000E+03 0.  0.
         25    1    1    2    0    0  0.51733817660E+02 -0.83328356597E+02 -0.99161969808E+02  0.18729148181E+03  0.12500000000E+03 0.  0.
</event>
<event>
 4    0  0.2244970E-002  0.1996035E+03  0.7546771E-02  0.1150074E+00
         21   -1    0    0  502  501  0.00000000000E+00  0.00000000000E+00  0.60207142181E+02  0.60207142181E+02  0.00000000000E+00 0. -1.
         21   -1    0    0  501  502 -0.00000000000E+00 -0.00000000000E+00 -0.66174167077E+03  0.66174167077E+03  0.00000000000E+00 0. -1.
         25    1    1    2    0    0  0.95213429924E+02 -0.10254074793E+03 -0.42390674833E+03  0.46357538061E+03  0.12500000000E+03 0.  0.
         25    1    1    2    0    0 -0.95213429924E+02  0.10254074793E+03 -0.17762778026E+03  0.25837343235E+03  0.12500000000E+03 0.  0.
</event>
<event>
 4    0  0.2244970E-002  0.2565478E+03  0.7546771E-02  0.1109235E+00
         21   -1    0    0  502  501  0.00000000000E+00  0.00000000000E+00  0.44120823557E+02  0.44120823557E+02  0.00000000000E+00 0. -1.
         21   -1    0    0  501  502 -0.00000000000E+00 -0.00000000000E+00 -0.14917400122E+04  0.14917400122E+04  0.00000000000E+00 0. -1.
         25    1    1    2    0    0  0.15131285535E+03  0.16512175484E+03 -0.70713709534E+03  0.75221582390E+03  0.12500000000E+03 0.  0.
         25    1    1    2    0    0 -0.15131285535E+03 -0.16512175484E+03 -0.74048209334E+03  0.78364501190E+03  0.12500000000E+03 0.  0.
</event>
<event>
 4    0  0.2244970E-002  0.1952890E+03  0.7546771E-02  0.1153776E+00
         21   -1    0    0  502  501  0.00000000000E+00  0.00000000000E+00  0.66055915322E+03  0.66055915322E+03  0.00000000000E+00 0.  1.
         21   -1    0    0  501  502 -0.00000000000E+00 -0.00000000000E+00 -0.57735639088E+02  0.57735639088E+02  0.00000000000E+00 0.  1.
         25    1    1    2    0    0 -0.54220427212E+02  0.53511477641E+02  0.63686000566E+02  0.15963783898E+03  0.12500000000E+03 0.  0.
         25    1    1    2    0    0  0.54220427212E+02 -0.53511477641E+02  0.53913751357E+03  0.55865695333E+03  0.12500000000E+03 0.  0.
</event>
<event>
 4    0  0.2244970E-002  0.6122086E+03  0.7546771E-02  0.9880396E-01
         21   -1    0    0  502  501  0.00000000000E+00  0.00000000000E+00  0.55335300195E+03  0.55335300195E+03  0.00000000000E+00 0. -1.
         21   -1    0    0  501  502 -0.00000000000E+00 -0.00000000000E+00 -0.67732422527E+03  0.67732422527E+03  0.00000000000E+00 0. -1.
         25    1    1    2    0    0 -0.16109648559E+03  0.92129250534E+02 -0.63475388782E+03  0.67303593855E+03  0.12500000000E+03 0.  0.
         25    1    1    2    0    0  0.16109648559E+03 -0.92129250534E+02  0.51078266451E+03  0.55764128867E+03  0.12500000000E+03 0.  0.
</event>
<event>
 4    0  0.2244970E-002  0.1616138E+03  0.7546771E-02  0.1186887E+00
         21   -1    0    0  502  501  0.00000000000E+00  0.00000000000E+00  0.23007177469E+02  0.23007177469E+02  0.00000000000E+00 0. -1.
         21   -1    0    0  501  502 -0.00000000000E+00 -0.00000000000E+00 -0.11352557601E+04  0.11352557601E+04  0.00000000000E+00 0. -1.
         25    1    1    2    0    0 -0.64876698222E+01 -0.76112447270E+01 -0.19079020233E+03  0.22831102078E+03  0.12500000000E+03 0.  0.
         25    1    1    2    0    0  0.64876698222E+01  0.76112447270E+01 -0.92145838034E+03  0.92995191683E+03  0.12500000000E+03 0.  0.
</event>
<event>
 4    0  0.2244970E-002  0.2439776E+03  0.7546771E-02  0.1117171E+00
         21   -1    0    0  502  501  0.00000000000E+00  0.00000000000E+00  0.34546868310E+03  0.34546868310E+03  0.00000000000E+00 0. -1.
         21   -1    0    0  501  502 -0.00000000000E+00 -0.00000000000E+00 -0.17230241327E+03  0.17230241327E+03  0.00000000000E+00 0. -1.
         25    1    1    2    0    0 -0.12136564729E+02  0.18477839255E+03 -0.17436072837E+02  0.22409678086E+03  0.12500000000E+03 0.  0.
         25    1    1    2    0    0  0.12136564729E+02 -0.18477839255E+03  0.19060234267E+03  0.29367431551E+03  0.12500000000E+03 0.  0.
</event>
<event>
 4    0  0.2244970E-002  0.1682720E+03  0.7546771E-02  0.1179662E+00
         21   -1    0    0  502  501  0.00000000000E+00  0.00000000000E+00  0.24747713981E+02  0.24747713981E+02  0.00000000000E+00 0.  1.
         21   -1    0    0  501  502 -0.00000000000E+00 -0.00000000000E+00 -0.11441646808E+04  0.11441646808E+04  0.00000000000E+00 0.  1.
         25    1    1    2    0    0 -0.16799471029E+02  0.67151304842E+02 -0.25101705451E+03  0.28883573467E+03  0.12500000000E+03 0.  0.
         25    1    1    2    0    0  0.16799471029E+02 -0.67151304842E+02 -0.86839991227E+03  0.88007666007E+03  0.12500000000E+03 0.  0.
</event>
<event>
 4    0  0.2244970E-002  0.4005302E+03  0.7546771E-02  0.1043596E+00
         21   -1    0    0  502  501  0.00000000000E+00  0.00000000000E+00  0.18946496541E+04  0.18946496541E+04  0.00000000000E+00 0. -1.
         21   -1    0    0  501  502 -0.00000000000E+00 -0.00000000000E+00 -0.84672331982E+02  0.84672331982E+02  0.00000000000E+00 0.  1.
         25    1    1    2    0    0  0.25710827520E+03 -0.17327792319E+03  0.35988427006E+03  0.49119404687E+03  0.12500000000E+03 0.  0.
         25    1    1    2    0    0 -0.25710827520E+03  0.17327792319E+03  0.14500930521E+04  0.14881279392E+04  0.12500000000E+03 0.  0.
</event>
<event>
 4    0  0.2244970E-002  0.2038521E+03  0.7546771E-02  0.1146529E+00
         21   -1    0    0  502  501  0.00000000000E+00  0.00000000000E+00  0.38867024135E+03  0.38867024135E+03  0.00000000000E+00 0. -1.
         21   -1    0    0  501  502 -0.00000000000E+00 -0.00000000000E+00 -0.10691759404E+03  0.10691759404E+03  0.00000000000E+00 0. -1.
         25    1    1    2    0    0  0.10678326818E+03  0.72453832675E+02  0.25796460328E+03  0.31436119477E+03  0.12500000000E+03 0.  0.
         25    1    1    2    0    0 -0.10678326818E+03 -0.72453832675E+02  0.23788044031E+02  0.18122664062E+03  0.12500000000E+03 0.  0.
</event>
<event>
 4    0  0.2244970E-002  0.2641954E+03  0.7546771E-02  0.1104648E+00
         21   -1    0    0  502  501  0.00000000000E+00  0.00000000000E+00  0.42103477053E+03  0.42103477053E+03  0.00000000000E+00 0.  1.
         21   -1    0    0  501  502 -0.00000000000E+00 -0.00000000000E+00 -0.16578018300E+03  0.16578018300E+03  0.00000000000E+00 0.  1.
         25    1    1    2    0    0  0.12185542361E+03  0.15501725593E+03  0.26497532459E+03  0.35315154897E+03  0.12500000000E+03 0.  0.
         25    1    1    2    0    0 -0.12185542361E+03 -0.15501725593E+03 -0.97207370719E+01  0.23366340455E+03  0.12500000000E+03 0.  0.
</event>
<event>
 4    0  0.2244970E-002  0.3446018E+03  0.7546771E-02  0.1064853E+00
         21   -1    0    0  502  501  0.00000000000E+00  0.00000000000E+00  0.38101381043E+03  0.38101381043E+03  0.00000000000E+00 0.  1.
         21   -1    0    0  501  502 -0.00000000000E+00 -0.00000000000E+00 -0.31166945430E+03  0.31166945430E+03  0.00000000000E+00 0.  1.
         25    1    1    2    0    0 -0.27304369411E+03 -0.11525652654E+03 -0.89598542115E+02  0.33390092026E+03  0.12500000000E+03 0.  0.
         25    1    1    2    0    0  0.27304369411E+03  0.11525652654E+03  0.15894289824E+03  0.35878234447E+03  0.12500000000E+03 0.  0.
</event>
<event>
 4    0  0.2244970E-002  0.1933607E+03  0.7546771E-02  0.1155465E+00
         21   -1    0    0  502  501  0.00000000000E+00  0.00000000000E+00  0.28551867497E+03  0.28551867497E+03  0.00000000000E+00 0. -1.
         21   -1    0    0  501  502 -0.00000000000E+00 -0.00000000000E+00 -0.13094888941E+03  0.13094888941E+03  0.00000000000E+00 0. -1.
         25    1    1    2    0    0 -0.33469020851E+02  0.13822962320E+03  0.35081906605E+02  0.19257036184E+03  0.12500000000E+03 0.  0.
         25    1    1    2    0    0  0.33469020851E+02 -0.13822962320E+03  0.11948787896E+03  0.22389720254E+03  0.12500000000E+03 0.  0.
</event>
<event>
 4    0  0.2244970E-002  0.2228801E+03  0.7546771E-02  0.1131754E+00
         21   -1    0    0  502  501  0.00000000000E+00  0.00000000000E+00  0.20378789969E+03  0.20378789969E+03  0.00000000000E+00 0.  1.
         21   -1    0    0  501  502 -0.00000000000E+00 -0.00000000000E+00 -0.24376101322E+03  0.24376101322E+03  0.00000000000E+00 0.  1.
         25    1    1    2    0    0 -0.87590016110E+02 -0.11371155872E+03 -0.13641833204E+03  0.23417363393E+03  0.12500000000E+03 0.  0.
         25    1    1    2    0    0  0.87590016110E+02  0.11371155872E+03  0.96445218511E+02  0.21337527898E+03  0.12500000000E+03 0.  0.
</event>
<event>
 4    0  0.2244970E-002  0.2274610E+03  0.7546771E-02  0.1128440E+00
         21   -1    0    0  502  501  0.00000000000E+00  0.00000000000E+00  0.31673177206E+03  0.31673177206E+03  0.00000000000E+00 0. -1.
         21   -1    0    0  501  502 -0.00000000000E+00 -0.00000000000E+00 -0.16335110624E+03  0.16335110624E+03  0.00000000000E+00 0. -1.
         25    1    1    2    0    0 -0.14892618863E+03  0.11799434933E+03  0.73063815042E+02  0.23888281061E+03  0.12500000000E+03 0.  0.
         25    1    1    2    0    0  0.14892618863E+03 -0.11799434933E+03  0.80316850782E+02  0.24120006769E+03  0.12500000000E+03 0.  0.
</event>
<event>
 4    0  0.2244970E-002  0.2481411E+03  0.7546771E-02  0.1114485E+00
         21   -1    0    0  502  501  0.00000000000E+00  0.00000000000E+00  0.46216555005E+02  0.46216555005E+02  0.00000000000E+00 0.  1.
         21   -1    0    0  501  502 -0.00000000000E+00 -0.00000000000E+00 -0.13322929941E+04  0.13322929941E+04  0.00000000000E+00 0.  1.
         25    1    1    2    0    0  0.17942145287E+03  0.94586879674E+02 -0.83568655518E+03  0.86898547402E+03  0.12500000000E+03 0.  0.
         25    1    1    2    0    0 -0.17942145287E+03 -0.94586879674E+02 -0.45038988395E+03  0.50952407511E+03  0.12500000000E+03 0.  0.
</event>
<event>
 4    0  0.2244970E-002  0.2481863E+03  0.7546771E-02  0.1114456E+00
         21   -1    0    0  502  501  0.00000000000E+00  0.00000000000E+00  0.14015140661E+03  0.14015140661E+03  0.00000000000E+00 0.  1.
         21   -1    0    0  501  502 -0.00000000000E+00 -0.00000000000E+00 -0.43949929426E+03  0.43949929426E+03  0.00000000000E+00 0.  1.
         25    1    1    2    0    0 -0.88531722802E+02  0.14310628473E+03 -0.30483481013E+03  0.36995477580E+03  0.12500000000E+03 0.  0.
         25    1    1    2    0    0  0.88531722802E+02 -0.14310628473E+03  0.54869224789E+01  0.20969592507E+03  0.12500000000E+03 0.  0.
</event>
<event>
 4    0  0.2244970E-002  0.2636798E+03  0.7546771E-02  0.1104952E+00
         21   -1    0    0  502  501  0.00000000000E+00  0.00000000000E+00  0.26452513803E+03  0.26452513803E+03  0.00000000000E+00 0.  1.
         21   -1    0    0  501  502 -0.00000000000E+00 -0.00000000000E+00 -0.26283716359E+03  0.26283716359E+03  0.00000000000E+00 0.  1.
         25    1    1    2    0    0 -0.59569123885E+02 -0.16677358069E+03  0.15097846083E+03  0.26416169929E+03  0.12500000000E+03 0.  0.
         25    1    1    2    0    0  0.59569123885E+02  0.16677358069E+03 -0.14929048640E+03  0.26320060233E+03  0.12500000000E+03 0.  0.
</event>
<event>
 4    0  0.2244970E-002  0.2263825E+03  0.7546771E-02  0.1129212E+00
         21   -1    0    0  502  501  0.00000000000E+00  0.00000000000E+00  0.53413694862E+03  0.53413694862E+03  0.00000000000E+00 0.  1.
         21   -1    0    0  501  502 -0.00000000000E+00 -0.00000000000E+00 -0.95947348865E+02  0.95947348865E+02  0.00000000000E+00 0.  1.
         25    1    1    2    0    0  0.86302743736E+02  0.32388376725E+01  0.45264680224E+03  0.47746495287E+03  0.12500000000E+03 0.  0.
         25    1    1    2    0    0 -0.86302743736E+02 -0.32388376725E+01 -0.14457202484E+02  0.15261934461E+03  0.12500000000E+03 0.  0.
</event>
<event>
 4    0  0.2244970E-002  0.2476301E+03  0.7546771E-02  0.1114812E+00
         21   -1    0    0  502  501  0.00000000000E+00  0.00000000000E+00  0.98068182786E+03  0.98068182786E+03  0.00000000000E+00 0. -1.
         21   -1    0    0  501  502 -0.00000000000E+00 -0.00000000000E+00 -0.62528620368E+02  0.62528620368E+02  0.00000000000E+00 0. -1.
         25    1    1    2    0    0 -0.20284013318E+02  0.97536718283E+02  0.60691630842E+02  0.17097756187E+03  0.12500000000E+03 0.  0.
         25    1    1    2    0    0  0.20284013318E+02 -0.97536718283E+02  0.85746157665E+03  0.87223288635E+03  0.12500000000E+03 0.  0.
</event>
<event>
 4    0  0.2244970E-002  0.2013273E+03  0.7546771E-02  0.1148624E+00
         21   -1    0    0  502  501  0.00000000000E+00  0.00000000000E+00  0.31681177073E+02  0.31681177073E+02  0.00000000000E+00 0. -1.
         21   -1    0    0  501  502 -0.00000000000E+00 -0.00000000000E+00 -0.12793925795E+04  0.12793925795E+04  0.00000000000E+00 0. -1.
         25    1    1    2    0    0  0.10707308016E+03 -0.49811363587E+02 -0.96476309227E+03  0.97996869371E+03  0.12500000000E+03 0.  0.
         25    1    1    2    0    0 -0.10707308016E+03  0.49811363587E+02 -0.28294831019E+03  0.33110506290E+03  0.12500000000E+03 0.  0.
</event>
<event>
 4    0  0.2244970E-002  0.1580148E+03  0.7546771E-02  0.1190956E+00
         21   -1    0    0  502  501  0.00000000000E+00  0.00000000000E+00  0.16200771068E+03  0.16200771068E+03  0.00000000000E+00 0.  1.
         21   -1    0    0  501  502 -0.00000000000E+00 -0.00000000000E+00 -0.15412031778E+03  0.15412031778E+03  0.00000000000E+00 0.  1.
         25    1    1    2    0    0  0.71972031603E+02  0.15081558083E+02  0.66702799207E+02  0.15962985357E+03  0.12500000000E+03 0.  0.
         25    1    1    2    0    0 -0.71972031603E+02 -0.15081558083E+02 -0.58815406311E+02  0.15649817490E+03  0.12500000000E+03 0.  0.
</event>
<event>
 4    0  0.2244970E-002  0.2491594E+03  0.7546771E-02  0.1113837E+00
         21   -1    0    0  502  501  0.00000000000E+00  0.00000000000E+00  0.15902968961E+04  0.15902968961E+04  0.00000000000E+00 0. -1.
         21   -1    0    0  501  502 -0.00000000000E+00 -0.00000000000E+00 -0.39036997835E+02  0.39036997835E+02  0.00000000000E+00 0.  1.
         25    1    1    2    0    0 -0.63233621301E+02 -0.20544832900E+03  0.82711125764E+03  0.86368138759E+03  0.12500000000E+03 0.  0.
         25    1    1    2    0    0  0.63233621301E+02  0.20544832900E+03  0.72414864058E+03  0.76565250630E+03  0.12500000000E+03 0.  0.
</event>
<event>
 4    0  0.2244970E-002  0.2877258E+03  0.7546771E-02  0.1091543E+00
         21   -1    0    0  502  501  0.00000000000E+00  0.00000000000E+00  0.22491737578E+04  0.22491737578E+04  0.00000000000E+00 0.  1.
         21   -1    0    0  501  502 -0.00000000000E+00 -0.00000000000E+00 -0.36807366323E+02  0.36807366323E+02  0.00000000000E+00 0.  1.
         25    1    1    2    0    0 -0.25746327274E+03  0.73396587343E+01  0.99243126275E+03  0.10329017469E+04  0.12500000000E+03 0.  0.
         25    1    1    2    0    0  0.25746327274E+03 -0.73396587343E+01  0.12199351287E+04  0.12530793772E+04  0.12500000000E+03 0.  0.
</event>
<event>
 4    0  0.2244970E-002  0.1686173E+03  0.7546771E-02  0.1179298E+00
         21   -1    0    0  502  501  0.00000000000E+00  0.00000000000E+00  0.47930108427E+02  0.47930108427E+02  0.00000000000E+00 0. -1.
         21   -1    0    0  501  502 -0.00000000000E+00 -0.00000000000E+00 -0.59319243189E+03  0.59319243189E+03  0.00000000000E+00 0. -1.
         25    1    1    2    0    0  0.10012448925E+03 -0.12245445123E+02 -0.17509967746E+03  0.23761262871E+03  0.12500000000E+03 0.  0.
         25    1    1    2    0    0 -0.10012448925E+03  0.12245445123E+02 -0.37016264600E+03  0.40350991161E+03  0.12500000000E+03 0.  0.
</event>
<event>
 4    0  0.2244970E-002  0.2132771E+03  0.7546771E-02  0.1138997E+00
         21   -1    0    0  502  501  0.00000000000E+00  0.00000000000E+00  0.84805990697E+03  0.84805990697E+03  0.00000000000E+00 0. -1.
         21   -1    0    0  501  502 -0.00000000000E+00 -0.00000000000E+00 -0.53636673218E+02  0.53636673218E+02  0.00000000000E+00 0. -1.
         25    1    1    2    0    0  0.13425985385E+03 -0.95717772458E+02  0.28788938188E+03  0.35453194005E+03  0.12500000000E+03 0.  0.
         25    1    1    2    0    0 -0.13425985385E+03  0.95717772458E+02  0.50653385187E+03  0.54716464013E+03  0.12500000000E+03 0.  0.
</event>
<event>
 4    0  0.2244970E-002  0.3015898E+03  0.7546771E-02  0.1084449E+00
         21   -1    0    0  502  501  0.00000000000E+00  0.00000000000E+00  0.11781135124E+03  0.11781135124E+03  0.00000000000E+00 0.  1.
         21   -1    0    0  501  502 -0.00000000000E+00 -0.00000000000E+00 -0.77205117709E+03  0.77205117709E+03  0.00000000000E+00 0. -1.
         25    1    1    2    0    0 -0.67137376603E+02  0.19877361264E+03 -0.66060858834E+02  0.25299686458E+03  0.12500000000E+03 0.  0.
         25    1    1    2    0    0  0.67137376603E+02 -0.19877361264E+03 -0.58817896702E+03  0.63686566375E+03  0.12500000000E+03 0.  0.
</event>
<event>
 4    0  0.2244970E-002  0.2016384E+03  0.7546771E-02  0.1148364E+00
         21   -1    0    0  502  501  0.00000000000E+00  0.00000000000E+00  0.15300723209E+04  0.15300723209E+04  0.00000000000E+00 0.  1.
         21   -1    0    0  501  502 -0.00000000000E+00 -0.00000000000E+00 -0.26572620167E+02  0.26572620167E+02  0.00000000000E+00 0.  1.
         25    1    1    2    0    0  0.13464773367E+03  0.31641686142E+02  0.10482872384E+04  0.10647358089E+04  0.12500000000E+03 0.  0.
         25    1    1    2    0    0 -0.13464773367E+03 -0.31641686142E+02  0.45521246237E+03  0.49190913224E+03  0.12500000000E+03 0.  0.
</event>
<event>
 4    0  0.2244970E-002  0.2019707E+03  0.7546771E-02  0.1148087E+00
         21   -1    0    0  502  501  0.00000000000E+00  0.00000000000E+00  0.14647194533E+03  0.14647194533E+03  0.00000000000E+00 0.  1.
         21   -1    0    0  501  502 -0.00000000000E+00 -0.00000000000E+00 -0.27849814577E+03  0.27849814577E+03  0.00000000000E+00 0.  1.
         25    1    1    2    0    0  0.90281184732E+02 -0.12976462510E+03 -0.51992076193E+02  0.20812910953E+03  0.12500000000E+03 0.  0.
         25    1    1    2    0    0 -0.90281184732E+02  0.12976462510E+03 -0.80034124244E+02  0.21684098157E+03  0.12500000000E+03 0.  0.
</event>
<event>
 4    0  0.2244970E-002  0.4672947E+03  0.7546771E-02  0.1022687E+00
         21   -1    0    0  502  501  0.00000000000E+00  0.00000000000E+00  0.26986500492E+03  0.26986500492E+03  0.00000000000E+00 0. -1.
         21   -1    0    0  501  502 -0.00000000000E+00 -0.00000000000E+00 -0.80916134999E+03  0.80916134999E+03  0.00000000000E+00 0.  1.
         25    1    1    2    0    0 -0.30780452414E+03 -0.26088375884E+03 -0.38925609315E+02  0.42419825998E+03  0.12500000000E+03 0.  0.
         25    1    1    2    0    0  0.30780452414E+03  0.26088375884E+03 -0.50037073575E+03  0.65482809493E+03  0.12500000000E+03 0.  0.
</event>
<event>
 4    0  0.2244970E-002  0.3813700E+03  0.7546771E-02  0.1050429E+00
         21   -1    0    0  502  501  0.00000000000E+00  0.00000000000E+00  0.10911553010E+04  0.10911553010E+04  0.00000000000E+00 0.  1.
         21   -1    0    0  501  502 -0.00000000000E+00 -0.00000000000E+00 -0.13329270308E+03  0.13329270308E+03  0.00000000000E+00 0.  1.
         25    1    1    2    0    0 -0.29218692380E+03  0.19619324790E+03  0.60279203816E+03  0.70911792407E+03  0.12500000000E+03 0.  0.
         25    1    1    2    0    0  0.29218692380E+03 -0.19619324790E+03  0.35507055975E+03  0.51533008001E+03  0.12500000000E+03 0.  0.
</event>
<event>
 4    0  0.2244970E-002  0.2208340E+03  0.7546771E-02  0.1133263E+00
         21   -1    0    0  502  501  0.00000000000E+00  0.00000000000E+00  0.87354820807E+02  0.87354820807E+02  0.00000000000E+00 0.  1.
         21   -1    0    0  501  502 -0.00000000000E+00 -0.00000000000E+00 -0.55827093029E+03  0.55827093029E+03  0.00000000000E+00 0.  1.
         25    1    1    2    0    0  0.12899364902E+03 -0.12633652120E+03 -0.20141438759E+03  0.29798159944E+03  0.12500000000E+03 0.  0.
         25    1    1    2    0    0 -0.12899364902E+03  0.12633652120E+03 -0.26950172189E+03  0.34764415165E+03  0.12500000000E+03 0.  0.
</event>
<event>
 4    0  0.2244970E-002  0.1710309E+03  0.7546771E-02  0.1176777E+00
         21   -1    0    0  502  501  0.00000000000E+00  0.00000000000E+00  0.60750144838E+02  0.60750144838E+02  0.00000000000E+00 0.  1.
         21   -1    0    0  501  502 -0.00000000000E+00 -0.00000000000E+00 -0.48150630178E+03  0.48150630178E+03  0.00000000000E+00 0.  1.
         25    1    1    2    0    0 -0.13274930923E+02  0.11593833165E+03 -0.20571379730E+03  0.26750904085E+03  0.12500000000E+03 0.  0.
         25    1    1    2    0    0  0.13274930923E+02 -0.11593833165E+03 -0.21504235964E+03  0.27474740577E+03  0.12500000000E+03 0.  0.
</event>
<event>
 4    0  0.2244970E-002  0.2082310E+03  0.7546771E-02  0.1142975E+00
         21   -1    0    0  502  501  0.00000000000E+00  0.00000000000E+00  0.76043223316E+02  0.76043223316E+02  0.00000000000E+00 0. -1.
         21   -1    0    0  501  502 -0.00000000000E+00 -0.00000000000E+00 -0.57020391506E+03  0.57020391506E+03  0.00000000000E+00 0. -1.
         25    1    1    2    0    0  0.33687464842E+02  0.12341541780E+03 -0.81624111901E+02  0.19660545843E+03  0.12500000000E+03 0.  0.
         25    1    1    2    0    0 -0.33687464842E+02 -0.12341541780E+03 -0.41253657984E+03  0.44964167995E+03  0.12500000000E+03 0.  0.
</event>
<event>
 4    0  0.2244970E-002  0.2007216E+03  0.7546771E-02  0.1149132E+00
         21   -1    0    0  502  501  0.00000000000E+00  0.00000000000E+00  0.56931869088E+03  0.56931869088E+03  0.00000000000E+00 0.  1.
         21   -1    0    0  501  502 -0.00000000000E+00 -0.00000000000E+00 -0.70767311505E+02  0.70767311505E+02  0.00000000000E+00 0.  1.
         25    1    1    2    0    0  0.42371713996E+02  0.15018217802E+03  0.22101704843E+03  0.29803285798E+03  0.12500000000E+03 0.  0.
         25    1    1    2    0    0 -0.42371713996E+02 -0.15018217802E+03  0.27753433094E+03  0.34205314440E+03  0.12500000000E+03 0.  0.
</event>
<event>
 4    0  0.2244970E-002  0.1721111E+03  0.7546771E-02  0.1175664E+00
         21   -1    0    0  502  501  0.00000000000E+00  0.00000000000E+00  0.15248185117E+03  0.15248185117E+03  0.00000000000E+00 0.  1.
         21   -1    0    0  501  502 -0.00000000000E+00 -0.00000000000E+00 -0.19426727915E+03  0.19426727915E+03  0.00000000000E+00 0.  1.
         25    1    1    2    0    0 -0.67585287173E+02 -0.97085225087E+02 -0.18897676939E+02  0.17313415078E+03  0.12500000000E+03 0.  0.
         25    1    1    2    0    0  0.67585287173E+02  0.97085225087E+02 -0.22887751049E+02  0.17361497954E+03  0.12500000000E+03 0.  0.
</event>
<event>
 4    0  0.2244970E-002  0.2022185E+03  0.7546771E-02  0.1147881E+00
         21   -1    0    0  502  501  0.00000000000E+00  0.00000000000E+00  0.24237696949E+03  0.24237696949E+03  0.00000000000E+00 0.  1.
         21   -1    0    0  501  502 -0.00000000000E+00 -0.00000000000E+00 -0.16871371256E+03  0.16871371256E+03  0.00000000000E+00 0.  1.
         25    1    1    2    0    0 -0.52914425465E+02 -0.10051161171E+03  0.14985812888E+03  0.22579853698E+03  0.12500000000E+03 0.  0.
         25    1    1    2    0    0  0.52914425465E+02  0.10051161171E+03 -0.76194871953E+02  0.18529214507E+03  0.12500000000E+03 0.  0.
</event>
<event>
 4    0  0.2244970E-002  0.2114931E+03  0.7546771E-02  0.1140389E+00
         21   -1    0    0  502  501  0.00000000000E+00  0.00000000000E+00  0.12097522090E+03  0.12097522090E+03  0.00000000000E+00 0.  1.
         21   -1    0    0  501  502 -0.00000000000E+00 -0.00000000000E+00 -0.36973948706E+03  0.36973948706E+03  0.00000000000E+00 0.  1.
         25    1    1    2    0    0  0.14758799488E+03 -0.77919345484E+02 -0.16540965346E+03  0.26615595821E+03  0.12500000000E+03 0.  0.
         25    1    1    2    0    0 -0.14758799488E+03  0.77919345484E+02 -0.83354612694E+02  0.22455874975E+03  0.12500000000E+03 0.  0.
</event>
<event>
 4    0  0.2244970E-002  0.4881974E+03  0.7546771E-02  0.1016906E+00
         21   -1    0    0  502  501  0.00000000000E+00  0.00000000000E+00  0.70075989666E+03  0.70075989666E+03  0.00000000000E+00 0. -1.
         21   -1    0    0  501  502 -0.00000000000E+00 -0.00000000000E+00 -0.34011175457E+03  0.34011175457E+03  0.00000000000E+00 0. -1.
         25    1    1    2    0    0  0.27692001216E+03  0.38115772261E+03  0.15121182218E+03  0.51034881974E+03  0.12500000000E+03 0.  0.
         25    1    1    2    0    0 -0.27692001216E+03 -0.38115772261E+03  0.20943631991E+03  0.53052283149E+03  0.12500000000E+03 0.  0.
</event>
<event>
 4    0  0.2244970E-002  0.2853855E+03  0.7546771E-02  0.1092783E+00
         21   -1    0    0  502  501  0.00000000000E+00  0.00000000000E+00  0.37018982706E+03  0.37018982706E+03  0.00000000000E+00 0.  1.
         21   -1    0    0  501  502 -0.00000000000E+00 -0.00000000000E+00 -0.22000836033E+03  0.22000836033E+03  0.00000000000E+00 0.  1.
         25    1    1    2    0    0  0.23212707407E+03  0.93619879857E+02  0.13333002452E+03  0.30991862780E+03  0.12500000000E+03 0.  0.
         25    1    1    2    0    0 -0.23212707407E+03 -0.93619879857E+02  0.16851442209E+02  0.28027955959E+03  0.12500000000E+03 0.  0.
</event>
<event>
 4    0  0.2244970E-002  0.3005202E+03  0.7546771E-02  0.1084981E+00
         21   -1    0    0  502  501  0.00000000000E+00  0.00000000000E+00  0.12300562008E+04  0.12300562008E+04  0.00000000000E+00 0. -1.
         21   -1    0    0  501  502 -0.00000000000E+00 -0.00000000000E+00 -0.73421370272E+02  0.73421370272E+02  0.00000000000E+00 0. -1.
         25    1    1    2    0    0  0.10539099502E+02  0.10070199289E+03  0.11288236886E+04  0.11402279965E+04  0.12500000000E+03 0.  0.
         25    1    1    2    0    0 -0.10539099502E+02 -0.10070199289E+03  0.27811141919E+02  0.16324957459E+03  0.12500000000E+03 0.  0.
</event>
<event>
 4    0  0.2244970E-002  0.1885507E+03  0.7546771E-02  0.1159775E+00
         21   -1    0    0  502  501  0.00000000000E+00  0.00000000000E+00  0.10222083172E+04  0.10222083172E+04  0.00000000000E+00 0.  1.
         21   -1    0    0  501  502 -0.00000000000E+00 -0.00000000000E+00 -0.34778968115E+02  0.34778968115E+02  0.00000000000E+00 0.  1.
         25    1    1    2    0    0 -0.62419052116E+01 -0.54399965181E+02  0.12903214120E+03  0.18781003982E+03  0.12500000000E+03 0.  0.
         25    1    1    2    0    0  0.62419052116E+01  0.54399965181E+02  0.85839720784E+03  0.86917724546E+03  0.12500000000E+03 0.  0.
</event>
<event>
 4    0  0.2244970E-002  0.2138370E+03  0.7546771E-02  0.1138563E+00
         21   -1    0    0  502  501  0.00000000000E+00  0.00000000000E+00  0.22675968910E+03  0.22675968910E+03  0.00000000000E+00 0.  1.
         21   -1    0    0  501  502 -0.00000000000E+00 -0.00000000000E+00 -0.20165074904E+03  0.20165074904E+03  0.00000000000E+00 0.  1.
         25    1    1    2    0    0 -0.13097197308E+03 -0.53508475242E+02  0.11314873813E+03  0.22010100317E+03  0.12500000000E+03 0.  0.
         25    1    1    2    0    0  0.13097197308E+03  0.53508475242E+02 -0.88039798075E+02  0.20830943497E+03  0.12500000000E+03 0.  0.
</event>
<event>
 4    0  0.2244970E-002  0.1985887E+03  0.7546771E-02  0.1150935E+00
         21   -1    0    0  502  501  0.00000000000E+00  0.00000000000E+00  0.28022994132E+02  0.28022994132E+02  0.00000000000E+00 0.  1.
         21   -1    0    0  501  502 -0.00000000000E+00 -0.00000000000E+00 -0.14073258503E+04  0.14073258503E+04  0.00000000000E+00 0.  1.
         25    1    1    2    0    0 -0.14878586578E+03  0.32776997245E+02 -0.60106224314E+03  0.63254437436E+03  0.12500000000E+03 0.  0.
         25    1    1    2    0    0  0.14878586578E+03 -0.32776997245E+02 -0.77824061300E+03  0.80280447005E+03  0.12500000000E+03 0.  0.
</event>
<event>
 4    0  0.2244970E-002  0.1708628E+03  0.7546771E-02  0.1176951E+00
         21   -1    0    0  502  501  0.00000000000E+00  0.00000000000E+00  0.33837074426E+02  0.33837074426E+02  0.00000000000E+00 0.  1.
         21   -1    0    0  501  502 -0.00000000000E+00 -0.00000000000E+00 -0.86278467525E+03  0.86278467525E+03  0.00000000000E+00 0.  1.
         25    1    1    2    0    0  0.88571964114E+02 -0.75152805690E+02 -0.39157408833E+03  0.42713955996E+03  0.12500000000E+03 0.  0.
         25    1    1    2    0    0 -0.88571964114E+02  0.75152805690E+02 -0.43737351250E+03  0.46948218972E+03  0.12500000000E+03 0.  0.
</event>
<event>
 4    0  0.2244970E-002  0.3061158E+03  0.7546771E-02  0.1082223E+00
         21   -1    0    0  502  501  0.00000000000E+00  0.00000000000E+00  0.11373007482E+04  0.11373007482E+04  0.00000000000E+00 0.  1.
         21   -1    0    0  501  502 -0.00000000000E+00 -0.00000000000E+00 -0.82394099672E+02  0.82394099672E+02  0.00000000000E+00 0.  1.
         25    1    1    2    0    0 -0.21016605970E+02  0.27715787958E+03  0.47027708374E+03  0.56039604159E+03  0.12500000000E+03 0.  0.
         25    1    1    2    0    0  0.21016605970E+02 -0.27715787958E+03  0.58462956479E+03  0.65929880629E+03  0.12500000000E+03 0.  0.
</event>
<event>
 4    0  0.2244970E-002  0.3276254E+03  0.7546771E-02  0.1072192E+00
         21   -1    0    0  502  501  0.00000000000E+00  0.00000000000E+00  0.14475683634E+04  0.14475683634E+04  0.00000000000E+00 0. -1.
         21   -1    0    0  501  502 -0.00000000000E+00 -0.00000000000E+00 -0.74150813270E+02  0.74150813270E+02  0.00000000000E+00 0. -1.
         25    1    1    2    0    0  0.12559152299E+03  0.27544169918E+03  0.66700149056E+03  0.74307290941E+03  0.12500000000E+03 0.  0.
         25    1    1    2    0    0 -0.12559152299E+03 -0.27544169918E+03  0.70641605955E+03  0.77864626723E+03  0.12500000000E+03 0.  0.
</event>
<event>
 4    0  0.2244970E-002  0.2124822E+03  0.7546771E-02  0.1139615E+00
         21   -1    0    0  502  501  0.00000000000E+00  0.00000000000E+00  0.14767342190E+04  0.14767342190E+04  0.00000000000E+00 0. -1.
         21   -1    0    0  501  502 -0.00000000000E+00 -0.00000000000E+00 -0.30573318869E+02  0.30573318869E+02  0.00000000000E+00 0. -1.
         25    1    1    2    0    0 -0.92938458222E+02  0.81636392112E+02  0.30009661100E+03  0.34782902908E+03  0.12500000000E+03 0.  0.
         25    1    1    2    0    0  0.92938458222E+02 -0.81636392112E+02  0.11460642892E+04  0.11594785088E+04  0.12500000000E+03 0.  0.
</event>
<event>
 4    0  0.2244970E-002  0.2875592E+03  0.7546771E-02  0.1091630E+00
         21   -1    0    0  502  501  0.00000000000E+00  0.00000000000E+00  0.24413550885E+03  0.24413550885E+03  0.00000000000E+00 0. -1.
         21   -1    0    0  501  502 -0.00000000000E+00 -0.00000000000E+00 -0.33870661353E+03  0.33870661353E+03  0.00000000000E+00 0. -1.
         25    1    1    2    0    0  0.87743767676E+01  0.54227854987E+02 -0.30376068329E+03  0.33303633834E+03  0.12500000000E+03 0.  0.
         25    1    1    2    0    0 -0.87743767676E+01 -0.54227854987E+02  0.20918957861E+03  0.24980578404E+03  0.12500000000E+03 0.  0.
</event>
<event>
 4    0  0.2244970E-002  0.1834627E+03  0.7546771E-02  0.1164493E+00
         21   -1    0    0  502  501  0.00000000000E+00  0.00000000000E+00  0.44058184672E+03  0.44058184672E+03  0.00000000000E+00 0.  1.
         21   -1    0    0  501  502 -0.00000000000E+00 -0.00000000000E+00 -0.76395708950E+02  0.76395708950E+02  0.00000000000E+00 0.  1.
         25    1    1    2    0    0 -0.34430059507E+02 -0.11088104823E+03  0.27716840151E+03  0.32546483474E+03  0.12500000000E+03 0.  0.
         25    1    1    2    0    0  0.34430059507E+02  0.11088104823E+03  0.87017736260E+02  0.19151272093E+03  0.12500000000E+03 0.  0.
</event>
<event>
 4    0  0.2244970E-002  0.3851088E+03  0.7546771E-02  0.1049062E+00
         21   -1    0    0  502  501  0.00000000000E+00  0.00000000000E+00  0.52824460515E+02  0.52824460515E+02  0.00000000000E+00 0.  1.
         21   -1    0    0  501  502 -0.00000000000E+00 -0.00000000000E+00 -0.28075774809E+04  0.28075774809E+04  0.00000000000E+00 0.  1.
         25    1    1    2    0    0 -0.29182988775E+03  0.16181585295E+03 -0.19198231855E+04  0.19526123827E+04  0.12500000000E+03 0.  0.
         25    1    1    2    0    0  0.29182988775E+03 -0.16181585295E+03 -0.83492983487E+03  0.90778955866E+03  0.12500000000E+03 0.  0.
</event>
<event>
 4    0  0.2244970E-002  0.2548853E+03  0.7546771E-02  0.1110256E+00
         21   -1    0    0  502  501  0.00000000000E+00  0.00000000000E+00  0.77026581533E+03  0.77026581533E+03  0.00000000000E+00 0. -1.
         21   -1    0    0  501  502 -0.00000000000E+00 -0.00000000000E+00 -0.84343014909E+02  0.84343014909E+02  0.00000000000E+00 0. -1.
         25    1    1    2    0    0  0.90893379148E+02 -0.12094801492E+03  0.61561909728E+03  0.64614387068E+03  0.12500000000E+03 0.  0.
         25    1    1    2    0    0 -0.90893379148E+02  0.12094801492E+03  0.70303703140E+02  0.20846495955E+03  0.12500000000E+03 0.  0.
</event>
<event>
 4    0  0.2244970E-002  0.1930331E+03  0.7546771E-02  0.1155754E+00
         21   -1    0    0  502  501  0.00000000000E+00  0.00000000000E+00  0.34794523120E+02  0.34794523120E+02  0.00000000000E+00 0.  1.
         21   -1    0    0  501  502 -0.00000000000E+00 -0.00000000000E+00 -0.10709090677E+04  0.10709090677E+04  0.00000000000E+00 0.  1.
         25    1    1    2    0    0  0.10172215997E+00  0.14672805621E+03 -0.48834343396E+03  0.52500804024E+03  0.12500000000E+03 0.  0.
         25    1    1    2    0    0 -0.10172215997E+00 -0.14672805621E+03 -0.54777111059E+03  0.58069555055E+03  0.12500000000E+03 0.  0.
</event>
<event>
 4    0  0.2244970E-002  0.3687181E+03  0.7546771E-02  0.1055184E+00
         21   -1    0    0  502  501  0.00000000000E+00  0.00000000000E+00  0.19301141462E+03  0.19301141462E+03  0.00000000000E+00 0. -1.
         21   -1    0    0  501  502 -0.00000000000E+00 -0.00000000000E+00 -0.70437804707E+03  0.70437804707E+03  0.00000000000E+00 0. -1.
         25    1    1    2    0    0  0.12578448291E+03 -0.32265554489E+03 -0.28001126224E+03  0.46255771939E+03  0.12500000000E+03 0.  0.
         25    1    1    2    0    0 -0.12578448291E+03  0.32265554489E+03 -0.23135537021E+03  0.43483174230E+03  0.12500000000E+03 0.  0.
</event>
<event>
 4    0  0.2244970E-002  0.1496942E+03  0.7546771E-02  0.1200849E+00
         21   -1    0    0  502  501  0.00000000000E+00  0.00000000000E+00  0.80599783680E+02  0.80599783680E+02  0.00000000000E+00 0. -1.
         21   -1    0    0  501  502 -0.00000000000E+00 -0.00000000000E+00 -0.27801997823E+03  0.27801997823E+03  0.00000000000E+00 0. -1.
         25    1    1    2    0    0 -0.50925876297E+02 -0.53005100726E+02 -0.54206391442E+02  0.15481058896E+03  0.12500000000E+03 0.  0.
         25    1    1    2    0    0  0.50925876297E+02  0.53005100726E+02 -0.14321380311E+03  0.20380917296E+03  0.12500000000E+03 0.  0.
</event>
<event>
 4    0  0.2244970E-002  0.5778232E+03  0.7546771E-02  0.9952515E-01
         21   -1    0    0  502  501  0.00000000000E+00  0.00000000000E+00  0.26392654025E+03  0.26392654025E+03  0.00000000000E+00 0.  1.
         21   -1    0    0  501  502 -0.00000000000E+00 -0.00000000000E+00 -0.12650476091E+04  0.12650476091E+04  0.00000000000E+00 0.  1.
         25    1    1    2    0    0 -0.10049720420E+03 -0.15999988798E+03  0.20271687570E+03  0.30400457874E+03  0.12500000000E+03 0.  0.
         25    1    1    2    0    0  0.10049720420E+03  0.15999988798E+03 -0.12038379446E+04  0.12249695706E+04  0.12500000000E+03 0.  0.
</event>
<event>
 4    0  0.2244970E-002  0.2785262E+03  0.7546771E-02  0.1096497E+00
         21   -1    0    0  502  501  0.00000000000E+00  0.00000000000E+00  0.21501710764E+02  0.21501710764E+02  0.00000000000E+00 0.  1.
         21   -1    0    0  501  502 -0.00000000000E+00 -0.00000000000E+00 -0.36079387172E+04  0.36079387172E+04  0.00000000000E+00 0.  1.
         25    1    1    2    0    0  0.11962989074E+03 -0.63546099208E+02 -0.31537198496E+04  0.31591016614E+04  0.12500000000E+03 0.  0.
         25    1    1    2    0    0 -0.11962989074E+03  0.63546099208E+02 -0.43271715681E+03  0.47033876651E+03  0.12500000000E+03 0.  0.
</event>
<event>
 4    0  0.2244970E-002  0.2245554E+03  0.7546771E-02  0.1130532E+00
         21   -1    0    0  502  501  0.00000000000E+00  0.00000000000E+00  0.89144693963E+03  0.89144693963E+03  0.00000000000E+00 0.  1.
         21   -1    0    0  501  502 -0.00000000000E+00 -0.00000000000E+00 -0.56565496096E+02  0.56565496096E+02  0.00000000000E+00 0.  1.
         25    1    1    2    0    0 -0.15455246435E+03  0.87266147083E+02  0.29621210406E+03  0.36724440807E+03  0.12500000000E+03 0.  0.
         25    1    1    2    0    0  0.15455246435E+03 -0.87266147083E+02  0.53866933947E+03  0.58076802766E+03  0.12500000000E+03 0.  0.
</event>
<event>
 4    0  0.2244970E-002  0.2077110E+03  0.7546771E-02  0.1143392E+00
         21   -1    0    0  502  501  0.00000000000E+00  0.00000000000E+00  0.66143855903E+02  0.66143855903E+02  0.00000000000E+00 0.  1.
         21   -1    0    0  501  502 -0.00000000000E+00 -0.00000000000E+00 -0.65227333514E+03  0.65227333514E+03  0.00000000000E+00 0.  1.
         25    1    1    2    0    0  0.23057121357E+02 -0.13489343857E+03 -0.13091869295E+03  0.22691975405E+03  0.12500000000E+03 0.  0.
         25    1    1    2    0    0 -0.23057121357E+02  0.13489343857E+03 -0.45521078628E+03  0.49149743699E+03  0.12500000000E+03 0.  0.
</event>
<event>
 4    0  0.2244970E-002  0.1757599E+03  0.7546771E-02  0.1171971E+00
         21   -1    0    0  502  501  0.00000000000E+00  0.00000000000E+00  0.27159658309E+03  0.27159658309E+03  0.00000000000E+00 0. -1.
         21   -1    0    0  501  502 -0.00000000000E+00 -0.00000000000E+00 -0.11374052008E+03  0.11374052008E+03  0.00000000000E+00 0. -1.
         25    1    1    2    0    0 -0.36150495286E+02  0.11425190423E+03  0.45929206462E+02  0.17915035008E+03  0.12500000000E+03 0.  0.
         25    1    1    2    0    0  0.36150495286E+02 -0.11425190423E+03  0.11192685655E+03  0.20618675308E+03  0.12500000000E+03 0.  0.
</event>
<event>
 4    0  0.2244970E-002  0.2050930E+03  0.7546771E-02  0.1145512E+00
         21   -1    0    0  502  501  0.00000000000E+00  0.00000000000E+00  0.21550916897E+03  0.21550916897E+03  0.00000000000E+00 0. -1.
         21   -1    0    0  501  502 -0.00000000000E+00 -0.00000000000E+00 -0.19518020574E+03  0.19518020574E+03  0.00000000000E+00 0. -1.
         25    1    1    2    0    0  0.13766312827E+03 -0.26404523652E+02 -0.72336824206E+02  0.20126090503E+03  0.12500000000E+03 0.  0.
         25    1    1    2    0    0 -0.13766312827E+03  0.26404523652E+02  0.92665787435E+02  0.20942846969E+03  0.12500000000E+03 0.  0.
</event>
<event>
 4    0  0.2244970E-002  0.2071377E+03  0.7546771E-02  0.1143853E+00
         21   -1    0    0  502  501  0.00000000000E+00  0.00000000000E+00  0.28138282823E+02  0.28138282823E+02  0.00000000000E+00 0. -1.
         21   -1    0    0  501  502 -0.00000000000E+00 -0.00000000000E+00 -0.15248269374E+04  0.15248269374E+04  0.00000000000E+00 0. -1.
         25    1    1    2    0    0  0.13029009352E+03  0.10085762988E+03 -0.70507375339E+03  0.73478008118E+03  0.12500000000E+03 0.  0.
         25    1    1    2    0    0 -0.13029009352E+03 -0.10085762988E+03 -0.79161490115E+03  0.81818513901E+03  0.12500000000E+03 0.  0.
</event>
<event>
 4    0  0.2244970E-002  0.1736907E+03  0.7546771E-02  0.1174053E+00
         21   -1    0    0  502  501  0.00000000000E+00  0.00000000000E+00  0.44031021489E+02  0.44031021489E+02  0.00000000000E+00 0.  1.
         21   -1    0    0  501  502 -0.00000000000E+00 -0.00000000000E+00 -0.68516413069E+03  0.68516413069E+03  0.00000000000E+00 0.  1.
         25    1    1    2    0    0  0.11175999936E+03  0.10378629494E+02 -0.41315325184E+03  0.44600294048E+03  0.12500000000E+03 0.  0.
         25    1    1    2    0    0 -0.11175999936E+03 -0.10378629494E+02 -0.22797985736E+03  0.28319221171E+03  0.12500000000E+03 0.  0.
</event>
<event>
 4    0  0.2244970E-002  0.1850815E+03  0.7546771E-02  0.1162974E+00
         21   -1    0    0  502  501  0.00000000000E+00  0.00000000000E+00  0.23898756602E+02  0.23898756602E+02  0.00000000000E+00 0. -1.
         21   -1    0    0  501  502 -0.00000000000E+00 -0.00000000000E+00 -0.14333441975E+04  0.14333441975E+04  0.00000000000E+00 0. -1.
         25    1    1    2    0    0 -0.47381810616E+02  0.89898591176E+02 -0.34599430538E+03  0.38165934028E+03  0.12500000000E+03 0.  0.
         25    1    1    2    0    0  0.47381810616E+02 -0.89898591176E+02 -0.10634511355E+04  0.10755836138E+04  0.12500000000E+03 0.  0.
</event>
<event>
 4    0  0.2244970E-002  0.2960678E+03  0.7546771E-02  0.1087223E+00
         21   -1    0    0  502  501  0.00000000000E+00  0.00000000000E+00  0.82286744897E+03  0.82286744897E+03  0.00000000000E+00 0.  1.
         21   -1    0    0  501  502 -0.00000000000E+00 -0.00000000000E+00 -0.10652525691E+03  0.10652525691E+03  0.00000000000E+00 0.  1.
         25    1    1    2    0    0 -0.16810835770E+03  0.20136312763E+03  0.26905603387E+03  0.39600969490E+03  0.12500000000E+03 0.  0.
         25    1    1    2    0    0  0.16810835770E+03 -0.20136312763E+03  0.44728615819E+03  0.53338301098E+03  0.12500000000E+03 0.  0.
</event>
<event>
 4    0  0.2244970E-002  0.2943048E+03  0.7546771E-02  0.1088123E+00
         21   -1    0    0  502  501  0.00000000000E+00  0.00000000000E+00  0.42505859964E+03  0.42505859964E+03  0.00000000000E+00 0. -1.
         21   -1    0    0  501  502 -0.00000000000E+00 -0.00000000000E+00 -0.20377258859E+03  0.20377258859E+03  0.00000000000E+00 0. -1.
         25    1    1    2    0    0 -0.19007503445E+03 -0.21639244544E+01  0.31010141699E+03  0.38460510931E+03  0.12500000000E+03 0.  0.
         25    1    1    2    0    0  0.19007503445E+03  0.21639244544E+01 -0.88815405940E+02  0.24422607892E+03  0.12500000000E+03 0.  0.
</event>
<event>
 4    0  0.2244970E-002  0.1966028E+03  0.7546771E-02  0.1152637E+00
         21   -1    0    0  502  501  0.00000000000E+00  0.00000000000E+00  0.19708433053E+03  0.19708433053E+03  0.00000000000E+00 0.  1.
         21   -1    0    0  501  502 -0.00000000000E+00 -0.00000000000E+00 -0.19612246222E+03  0.19612246222E+03  0.00000000000E+00 0.  1.
         25    1    1    2    0    0 -0.29912103728E+02  0.13717992104E+03  0.58053664838E+02  0.19674423165E+03  0.12500000000E+03 0.  0.
         25    1    1    2    0    0  0.29912103728E+02 -0.13717992104E+03 -0.57091796532E+02  0.19646256111E+03  0.12500000000E+03 0.  0.
</event>
<event>
 4    0  0.2244970E-002  0.2666122E+03  0.7546771E-02  0.1103234E+00
         21   -1    0    0  502  501  0.00000000000E+00  0.00000000000E+00  0.15572598289E+03  0.15572598289E+03  0.00000000000E+00 0. -1.
         21   -1    0    0  501  502 -0.00000000000E+00 -0.00000000000E+00 -0.45645603063E+03  0.45645603063E+03  0.00000000000E+00 0. -1.
         25    1    1    2    0    0  0.13141477957E+03  0.19260940679E+03 -0.18824867413E+03  0.32470107974E+03  0.12500000000E+03 0.  0.
         25    1    1    2    0    0 -0.13141477957E+03 -0.19260940679E+03 -0.11248137361E+03  0.28748093377E+03  0.12500000000E+03 0.  0.
</event>
<event>
 4    0  0.2244970E-002  0.3035826E+03  0.7546771E-02  0.1083463E+00
         21   -1    0    0  502  501  0.00000000000E+00  0.00000000000E+00  0.72486440256E+02  0.72486440256E+02  0.00000000000E+00 0.  1.
         21   -1    0    0  501  502 -0.00000000000E+00 -0.00000000000E+00 -0.12714430970E+04  0.12714430970E+04  0.00000000000E+00 0.  1.
         25    1    1    2    0    0  0.22157108923E+03 -0.14505382248E+03 -0.42236050971E+03  0.51395307097E+03  0.12500000000E+03 0.  0.
         25    1    1    2    0    0 -0.22157108923E+03  0.14505382248E+03 -0.77659614699E+03  0.82997646625E+03  0.12500000000E+03 0.  0.
</event>
<event>
 4    0  0.2244970E-002  0.2264586E+03  0.7546771E-02  0.1129157E+00
         21   -1    0    0  502  501  0.00000000000E+00  0.00000000000E+00  0.20016799250E+03  0.20016799250E+03  0.00000000000E+00 0.  1.
         21   -1    0    0  501  502 -0.00000000000E+00 -0.00000000000E+00 -0.25620223618E+03  0.25620223618E+03  0.00000000000E+00 0.  1.
         25    1    1    2    0    0  0.14002950886E+03  0.10039374660E+03  0.49846337097E+02  0.21862484998E+03  0.12500000000E+03 0.  0.
         25    1    1    2    0    0 -0.14002950886E+03 -0.10039374660E+03 -0.10588058078E+03  0.23774537870E+03  0.12500000000E+03 0.  0.
</event>
<event>
 4    0  0.2244970E-002  0.2126405E+03  0.7546771E-02  0.1139492E+00
         21   -1    0    0  502  501  0.00000000000E+00  0.00000000000E+00  0.47077769682E+02  0.47077769682E+02  0.00000000000E+00 0. -1.
         21   -1    0    0  501  502 -0.00000000000E+00 -0.00000000000E+00 -0.96045283187E+03  0.96045283187E+03  0.00000000000E+00 0. -1.
         25    1    1    2    0    0 -0.11452818879E+03 -0.73101706560E+02 -0.70662876148E+03  0.73034907550E+03  0.12500000000E+03 0.  0.
         25    1    1    2    0    0  0.11452818879E+03  0.73101706560E+02 -0.20674630071E+03  0.27718152605E+03  0.12500000000E+03 0.  0.
</event>
<event>
 4    0  0.2244970E-002  0.2878348E+03  0.7546771E-02  0.1091485E+00
         21   -1    0    0  502  501  0.00000000000E+00  0.00000000000E+00  0.58580057301E+03  0.58580057301E+03  0.00000000000E+00 0. -1.
         21   -1    0    0  501  502 -0.00000000000E+00 -0.00000000000E+00 -0.14142841229E+03  0.14142841229E+03  0.00000000000E+00 0. -1.
         25    1    1    2    0    0  0.16648412021E+03  0.17326326666E+03  0.34522884141E+03  0.43879958386E+03  0.12500000000E+03 0.  0.
         25    1    1    2    0    0 -0.16648412021E+03 -0.17326326666E+03  0.99143319309E+02  0.28842940144E+03  0.12500000000E+03 0.  0.
</event>
<event>
 4    0  0.2244970E-002  0.2067184E+03  0.7546771E-02  0.1144191E+00
         21   -1    0    0  502  501  0.00000000000E+00  0.00000000000E+00  0.36319214440E+03  0.36319214440E+03  0.00000000000E+00 0. -1.
         21   -1    0    0  501  502 -0.00000000000E+00 -0.00000000000E+00 -0.11765814474E+03  0.11765814474E+03  0.00000000000E+00 0. -1.
         25    1    1    2    0    0 -0.81874807039E+02  0.12379403291E+03  0.39878811459E+02  0.19810039428E+03  0.12500000000E+03 0.  0.
         25    1    1    2    0    0  0.81874807039E+02 -0.12379403291E+03  0.20565518820E+03  0.28274989486E+03  0.12500000000E+03 0.  0.
</event>
<event>
 4    0  0.2244970E-002  0.3747397E+03  0.7546771E-02  0.1052895E+00
         21   -1    0    0  502  501  0.00000000000E+00  0.00000000000E+00  0.30127222292E+03  0.30127222292E+03  0.00000000000E+00 0.  1.
         21   -1    0    0  501  502 -0.00000000000E+00 -0.00000000000E+00 -0.46612283637E+03  0.46612283637E+03  0.00000000000E+00 0.  1.
         25    1    1    2    0    0  0.31895445005E+02 -0.17611991943E+03 -0.39428658021E+03  0.45069108352E+03  0.12500000000E+03 0.  0.
         25    1    1    2    0    0 -0.31895445005E+02  0.17611991943E+03  0.22943596676E+03  0.31670397578E+03  0.12500000000E+03 0.  0.
</event>
<event>
 4    0  0.2244970E-002  0.1584366E+03  0.7546771E-02  0.1190473E+00
         21   -1    0    0  502  501  0.00000000000E+00  0.00000000000E+00  0.13150814147E+03  0.13150814147E+03  0.00000000000E+00 0. -1.
         21   -1    0    0  501  502 -0.00000000000E+00 -0.00000000000E+00 -0.19087909918E+03  0.19087909918E+03  0.00000000000E+00 0. -1.
         25    1    1    2    0    0  0.40082545792E+02 -0.74075351600E+02  0.19984006409E+02  0.15204646890E+03  0.12500000000E+03 0.  0.
         25    1    1    2    0    0 -0.40082545792E+02  0.74075351600E+02 -0.79354964119E+02  0.17034077176E+03  0.12500000000E+03 0.  0.
</event>
<event>
 4    0  0.2244970E-002  0.2683210E+03  0.7546771E-02  0.1102244E+00
         21   -1    0    0  502  501  0.00000000000E+00  0.00000000000E+00  0.30477901695E+03  0.30477901695E+03  0.00000000000E+00 0. -1.
         21   -1    0    0  501  502 -0.00000000000E+00 -0.00000000000E+00 -0.23622419321E+03  0.23622419321E+03  0.00000000000E+00 0. -1.
         25    1    1    2    0    0  0.13815320152E+03  0.70418759816E+02 -0.14697824609E+03  0.24753325766E+03  0.12500000000E+03 0.  0.
         25    1    1    2    0    0 -0.13815320152E+03 -0.70418759816E+02  0.21553306983E+03  0.29346995249E+03  0.12500000000E+03 0.  0.
</event>
<event>
 4    0  0.2244970E-002  0.1943082E+03  0.7546771E-02  0.1154632E+00
         21   -1    0    0  502  501  0.00000000000E+00  0.00000000000E+00  0.63372828543E+03  0.63372828543E+03  0.00000000000E+00 0.  1.
         21   -1    0    0  501  502 -0.00000000000E+00 -0.00000000000E+00 -0.59577073060E+02  0.59577073060E+02  0.00000000000E+00 0.  1.
         25    1    1    2    0    0 -0.21552190029E+02  0.68135978390E+02  0.51984721230E+03  0.53941925493E+03  0.12500000000E+03 0.  0.
         25    1    1    2    0    0  0.21552190029E+02 -0.68135978390E+02  0.54304000066E+02  0.15388610356E+03  0.12500000000E+03 0.  0.
</event>
<event>
 4    0  0.2244970E-002  0.2296374E+03  0.7546771E-02  0.1126895E+00
         21   -1    0    0  502  501  0.00000000000E+00  0.00000000000E+00  0.22435726314E+04  0.22435726314E+04  0.00000000000E+00 0.  1.
         21   -1    0    0  501  502 -0.00000000000E+00 -0.00000000000E+00 -0.23504190237E+02  0.23504190237E+02  0.00000000000E+00 0.  1.
         25    1    1    2    0    0 -0.13004468877E+03  0.14207568156E+03  0.11265816185E+04  0.11497426945E+04  0.12500000000E+03 0.  0.
         25    1    1    2    0    0  0.13004468877E+03 -0.14207568156E+03  0.10934868226E+04  0.11173341271E+04  0.12500000000E+03 0.  0.
</event>
<event>
 4    0  0.2244970E-002  0.1787764E+03  0.7546771E-02  0.1168992E+00
         21   -1    0    0  502  501  0.00000000000E+00  0.00000000000E+00  0.54331760141E+03  0.54331760141E+03  0.00000000000E+00 0.  1.
         21   -1    0    0  501  502 -0.00000000000E+00 -0.00000000000E+00 -0.58825656702E+02  0.58825656702E+02  0.00000000000E+00 0.  1.
         25    1    1    2    0    0 -0.27507774180E+02 -0.63160196670E+02  0.42354840999E+03  0.44694982234E+03  0.12500000000E+03 0.  0.
         25    1    1    2    0    0  0.27507774180E+02  0.63160196670E+02  0.60943534722E+02  0.15519343578E+03  0.12500000000E+03 0.  0.
</event>
<event>
 4    0  0.2244970E-002  0.1951625E+03  0.7546771E-02  0.1153886E+00
         21   -1    0    0  502  501  0.00000000000E+00  0.00000000000E+00  0.11315554466E+03  0.11315554466E+03  0.00000000000E+00 0. -1.
         21   -1    0    0  501  502 -0.00000000000E+00 -0.00000000000E+00 -0.33660205046E+03  0.33660205046E+03  0.00000000000E+00 0. -1.
         25    1    1    2    0    0  0.27903881770E+02 -0.58071118357E+02 -0.26765197273E+03  0.30234658905E+03  0.12500000000E+03 0.  0.
         25    1    1    2    0    0 -0.27903881770E+02  0.58071118357E+02  0.44205466932E+02  0.14741100607E+03  0.12500000000E+03 0.  0.
</event>
<event>
 4    0  0.2244970E-002  0.2434550E+03  0.7546771E-02  0.1117512E+00
         21   -1    0    0  502  501  0.00000000000E+00  0.00000000000E+00  0.14271379708E+03  0.14271379708E+03  0.00000000000E+00 0.  1.
         21   -1    0    0  501  502 -0.00000000000E+00 -0.00000000000E+00 -0.41530925264E+03  0.41530925264E+03  0.00000000000E+00 0.  1.
         25    1    1    2    0    0 -0.55102515168E+02 -0.65881987367E+02  0.81959671454E+02  0.17239231764E+03  0.12500000000E+03 0.  0.
         25    1    1    2    0    0  0.55102515168E+02  0.65881987367E+02 -0.35455512701E+03  0.38563073208E+03  0.12500000000E+03 0.  0.
</event>
<event>
 4    0  0.2244970E-002  0.2087249E+03  0.7546771E-02  0.1142580E+00
         21   -1    0    0  502  501  0.00000000000E+00  0.00000000000E+00  0.22435140136E+03  0.22435140136E+03  0.00000000000E+00 0. -1.
         21   -1    0    0  501  502 -0.00000000000E+00 -0.00000000000E+00 -0.19418674652E+03  0.19418674652E+03  0.00000000000E+00 0. -1.
         25    1    1    2    0    0 -0.14359256642E+03 -0.66995556118E+02 -0.38290284393E+02  0.20542243195E+03  0.12500000000E+03 0.  0.
         25    1    1    2    0    0  0.14359256642E+03  0.66995556118E+02  0.68454939235E+02  0.21311571593E+03  0.12500000000E+03 0.  0.
</event>
<event>
 4    0  0.2244970E-002  0.2720379E+03  0.7546771E-02  0.1100119E+00
         21   -1    0    0  502  501  0.00000000000E+00  0.00000000000E+00  0.96811961133E+02  0.96811961133E+02  0.00000000000E+00 0.  1.
         21   -1    0    0  501  502 -0.00000000000E+00 -0.00000000000E+00 -0.76441617586E+03  0.76441617586E+03  0.00000000000E+00 0.  1.
         25    1    1    2    0    0  0.22508451869E+03 -0.84106638699E+02 -0.37393034077E+03  0.46172055074E+03  0.12500000000E+03 0.  0.
         25    1    1    2    0    0 -0.22508451869E+03  0.84106638699E+02 -0.29367387395E+03  0.39950758625E+03  0.12500000000E+03 0.  0.
</event>
<event>
 4    0  0.2244970E-002  0.2653351E+03  0.7546771E-02  0.1103980E+00
         21   -1    0    0  502  501  0.00000000000E+00  0.00000000000E+00  0.22545013984E+03  0.22545013984E+03  0.00000000000E+00 0.  1.
         21   -1    0    0  501  502 -0.00000000000E+00 -0.00000000000E+00 -0.31227621890E+03  0.31227621890E+03  0.00000000000E+00 0.  1.
         25    1    1    2    0    0 -0.13187265525E+03  0.55880900502E+02  0.14415538799E+03  0.23857671331E+03  0.12500000000E+03 0.  0.
         25    1    1    2    0    0  0.13187265525E+03 -0.55880900502E+02 -0.23098146706E+03  0.29914964544E+03  0.12500000000E+03 0.  0.
</event>
<event>
 4    0  0.2244970E-002  0.2139791E+03  0.7546771E-02  0.1138453E+00
         21   -1    0    0  502  501  0.00000000000E+00  0.00000000000E+00  0.31865154831E+02  0.31865154831E+02  0.00000000000E+00 0. -1.
         21   -1    0    0  501  502 -0.00000000000E+00 -0.00000000000E+00 -0.14369003541E+04  0.14369003541E+04  0.00000000000E+00 0. -1.
         25    1    1    2    0    0 -0.83217004985E+02 -0.87734349089E+01 -0.12248181590E+04  0.12340204884E+04  0.12500000000E+03 0.  0.
         25    1    1    2    0    0  0.83217004985E+02  0.87734349089E+01 -0.18021704027E+03  0.23474502057E+03  0.12500000000E+03 0.  0.
</event>
<event>
 4    0  0.2244970E-002  0.2055459E+03  0.7546771E-02  0.1145143E+00
         21   -1    0    0  502  501  0.00000000000E+00  0.00000000000E+00  0.19390915084E+03  0.19390915084E+03  0.00000000000E+00 0.  1.
         21   -1    0    0  501  502 -0.00000000000E+00 -0.00000000000E+00 -0.21788091380E+03  0.21788091380E+03  0.00000000000E+00 0.  1.
         25    1    1    2    0    0 -0.12917856969E+03  0.28156765569E+02  0.83801852871E+02  0.20031888792E+03  0.12500000000E+03 0.  0.
         25    1    1    2    0    0  0.12917856969E+03 -0.28156765569E+02 -0.10777361583E+03  0.21147117672E+03  0.12500000000E+03 0.  0.
</event>
<event>
 4    0  0.2244970E-002  0.2052332E+03  0.7546771E-02  0.1145397E+00
         21   -1    0    0  502  501  0.00000000000E+00  0.00000000000E+00  0.17427237694E+03  0.17427237694E+03  0.00000000000E+00 0.  1.
         21   -1    0    0  501  502 -0.00000000000E+00 -0.00000000000E+00 -0.24169441061E+03  0.24169441061E+03  0.00000000000E+00 0.  1.
         25    1    1    2    0    0 -0.14854467825E+03 -0.49327734791E+02 -0.78996666832E+02  0.21532352455E+03  0.12500000000E+03 0.  0.
         25    1    1    2    0    0  0.14854467825E+03  0.49327734791E+02  0.11574633163E+02  0.20064326300E+03  0.12500000000E+03 0.  0.
</event>
<event>
 4    0  0.2244970E-002  0.1795275E+03  0.7546771E-02  0.1168261E+00
         21   -1    0    0  502  501  0.00000000000E+00  0.00000000000E+00  0.23804204887E+03  0.23804204887E+03  0.00000000000E+00 0.  1.
         21   -1    0    0  501  502 -0.00000000000E+00 -0.00000000000E+00 -0.13539677455E+03  0.13539677455E+03  0.00000000000E+00 0.  1.
         25    1    1    2    0    0  0.16800196142E+01  0.99078603565E+02  0.13699818104E+03  0.21026862286E+03  0.12500000000E+03 0.  0.
         25    1    1    2    0    0 -0.16800196142E+01 -0.99078603565E+02 -0.34352906715E+02  0.16317020056E+03  0.12500000000E+03 0.  0.
</event>
<event>
 4    0  0.2244970E-002  0.1620536E+03  0.7546771E-02  0.1186398E+00
         21   -1    0    0  502  501  0.00000000000E+00  0.00000000000E+00  0.11204870216E+03  0.11204870216E+03  0.00000000000E+00 0.  1.
         21   -1    0    0  501  502 -0.00000000000E+00 -0.00000000000E+00 -0.23437465020E+03  0.23437465020E+03  0.00000000000E+00 0.  1.
         25    1    1    2    0    0 -0.51591070025E+02 -0.68189601305E+02  0.46937401982E+00  0.15144860694E+03  0.12500000000E+03 0.  0.
         25    1    1    2    0    0  0.51591070025E+02  0.68189601305E+02 -0.12279532205E+03  0.19497474542E+03  0.12500000000E+03 0.  0.
</event>
<event>
 4    0  0.2244970E-002  0.2601911E+03  0.7546771E-02  0.1107028E+00
         21   -1    0    0  502  501  0.00000000000E+00  0.00000000000E+00  0.32312492553E+03  0.32312492553E+03  0.00000000000E+00 0.  1.
         21   -1    0    0  501  502 -0.00000000000E+00 -0.00000000000E+00 -0.20951463397E+03  0.20951463397E+03  0.00000000000E+00 0.  1.
         25    1    1    2    0    0  0.22379291441E+03  0.39676636938E+02  0.35906165102E+02  0.26186209491E+03  0.12500000000E+03 0.  0.
         25    1    1    2    0    0 -0.22379291441E+03 -0.39676636938E+02  0.77704126456E+02  0.27077746459E+03  0.12500000000E+03 0.  0.
</event>
<event>
 4    0  0.2244970E-002  0.3961122E+03  0.7546771E-02  0.1045134E+00
         21   -1    0    0  502  501  0.00000000000E+00  0.00000000000E+00  0.29806858521E+03  0.29806858521E+03  0.00000000000E+00 0.  1.
         21   -1    0    0  501  502 -0.00000000000E+00 -0.00000000000E+00 -0.52640537795E+03  0.52640537795E+03  0.00000000000E+00 0.  1.
         25    1    1    2    0    0  0.46508580324E+02  0.23824704160E+03  0.18448964660E+03  0.32952409712E+03  0.12500000000E+03 0.  0.
         25    1    1    2    0    0 -0.46508580324E+02 -0.23824704160E+03 -0.41282643934E+03  0.49494986605E+03  0.12500000000E+03 0.  0.
</event>
<event>
 4    0  0.2244970E-002  0.2882470E+03  0.7546771E-02  0.1091268E+00
         21   -1    0    0  502  501  0.00000000000E+00  0.00000000000E+00  0.12560585518E+03  0.12560585518E+03  0.00000000000E+00 0.  1.
         21   -1    0    0  501  502 -0.00000000000E+00 -0.00000000000E+00 -0.66148468536E+03  0.66148468536E+03  0.00000000000E+00 0.  1.
         25    1    1    2    0    0 -0.22388621773E+03  0.89996720057E+01 -0.44728526405E+03  0.51565021092E+03  0.12500000000E+03 0.  0.
         25    1    1    2    0    0  0.22388621773E+03 -0.89996720057E+01 -0.88593566137E+02  0.27144032962E+03  0.12500000000E+03 0.  0.
</event>
<event>
 4    0  0.2244970E-002  0.2069299E+03  0.7546771E-02  0.1144021E+00
         21   -1    0    0  502  501  0.00000000000E+00  0.00000000000E+00  0.38631415714E+03  0.38631415714E+03  0.00000000000E+00 0.  1.
         21   -1    0    0  501  502 -0.00000000000E+00 -0.00000000000E+00 -0.11084238373E+03  0.11084238373E+03  0.00000000000E+00 0.  1.
         25    1    1    2    0    0  0.46413849470E+02  0.13756069213E+03  0.43777122399E+02  0.19651622296E+03  0.12500000000E+03 0.  0.
         25    1    1    2    0    0 -0.46413849470E+02 -0.13756069213E+03  0.23169465101E+03  0.30064031791E+03  0.12500000000E+03 0.  0.
</event>
<event>
 4    0  0.2244970E-002  0.2367966E+03  0.7546771E-02  0.1121945E+00
         21   -1    0    0  502  501  0.00000000000E+00  0.00000000000E+00  0.11545148279E+04  0.11545148279E+04  0.00000000000E+00 0. -1.
         21   -1    0    0  501  502 -0.00000000000E+00 -0.00000000000E+00 -0.48568149189E+02  0.48568149189E+02  0.00000000000E+00 0. -1.
         25    1    1    2    0    0  0.19937975558E+03 -0.26243146279E+02  0.55952854159E+03  0.60756742713E+03  0.12500000000E+03 0.  0.
         25    1    1    2    0    0 -0.19937975558E+03  0.26243146279E+02  0.54641813713E+03  0.59551554996E+03  0.12500000000E+03 0.  0.
</event>
<event>
 4    0  0.2244970E-002  0.2154148E+03  0.7546771E-02  0.1137348E+00
         21   -1    0    0  502  501  0.00000000000E+00  0.00000000000E+00  0.11158280397E+03  0.11158280397E+03  0.00000000000E+00 0.  1.
         21   -1    0    0  501  502 -0.00000000000E+00 -0.00000000000E+00 -0.41586639633E+03  0.41586639633E+03  0.00000000000E+00 0.  1.
         25    1    1    2    0    0  0.60532139292E+01  0.13359148938E+03 -0.29116564946E+03  0.34392697315E+03  0.12500000000E+03 0.  0.
         25    1    1    2    0    0 -0.60532139292E+01 -0.13359148938E+03 -0.13117942892E+02  0.18352222715E+03  0.12500000000E+03 0.  0.
</event>
<event>
 4    0  0.2244970E-002  0.1922531E+03  0.7546771E-02  0.1156445E+00
         21   -1    0    0  502  501  0.00000000000E+00  0.00000000000E+00  0.52260107354E+03  0.52260107354E+03  0.00000000000E+00 0.  1.
         21   -1    0    0  501  502 -0.00000000000E+00 -0.00000000000E+00 -0.70725543692E+02  0.70725543692E+02  0.00000000000E+00 0.  1.
         25    1    1    2    0    0 -0.11270069608E+03  0.86099209698E+02  0.27987356651E+03  0.33774063131E+03  0.12500000000E+03 0.  0.
         25    1    1    2    0    0  0.11270069608E+03 -0.86099209698E+02  0.17200196334E+03  0.25558598592E+03  0.12500000000E+03 0.  0.
</event>
<event>
 4    0  0.2244970E-002  0.3051772E+03  0.7546771E-02  0.1082681E+00
         21   -1    0    0  502  501  0.00000000000E+00  0.00000000000E+00  0.10549010191E+04  0.10549010191E+04  0.00000000000E+00 0.  1.
         21   -1    0    0  501  502 -0.00000000000E+00 -0.00000000000E+00 -0.88286099030E+02  0.88286099030E+02  0.00000000000E+00 0.  1.
         25    1    1    2    0    0 -0.93310467195E+02 -0.22346812419E+03  0.22606445921E+03  0.35408330310E+03  0.12500000000E+03 0.  0.
         25    1    1    2    0    0  0.93310467195E+02  0.22346812419E+03  0.74055046081E+03  0.78910381499E+03  0.12500000000E+03 0.  0.
</event>
<event>
 4    0  0.2244970E-002  0.2214830E+03  0.7546771E-02  0.1132782E+00
         21   -1    0    0  502  501  0.00000000000E+00  0.00000000000E+00  0.12236368374E+04  0.12236368374E+04  0.00000000000E+00 0. -1.
         21   -1    0    0  501  502 -0.00000000000E+00 -0.00000000000E+00 -0.40089261801E+02  0.40089261801E+02  0.00000000000E+00 0. -1.
         25    1    1    2    0    0 -0.89016362424E+02  0.40887038005E+02  0.15133917356E+03  0.21937230479E+03  0.12500000000E+03 0.  0.
         25    1    1    2    0    0  0.89016362424E+02 -0.40887038005E+02  0.10322084020E+04  0.10443537944E+04  0.12500000000E+03 0.  0.
</event>
<event>
 4    0  0.2244970E-002  0.2722311E+03  0.7546771E-02  0.1100009E+00
         21   -1    0    0  502  501  0.00000000000E+00  0.00000000000E+00  0.32240707576E+03  0.32240707576E+03  0.00000000000E+00 0.  1.
         21   -1    0    0  501  502 -0.00000000000E+00 -0.00000000000E+00 -0.22986395850E+03  0.22986395850E+03  0.00000000000E+00 0.  1.
         25    1    1    2    0    0 -0.88320307682E+02 -0.91308093841E+02  0.25500714527E+03  0.31111298412E+03  0.12500000000E+03 0.  0.
         25    1    1    2    0    0  0.88320307682E+02  0.91308093841E+02 -0.16246402801E+03  0.24115805014E+03  0.12500000000E+03 0.  0.
</event>
<event>
 4    0  0.2244970E-002  0.3009576E+03  0.7546771E-02  0.1084763E+00
         21   -1    0    0  502  501  0.00000000000E+00  0.00000000000E+00  0.11655189006E+04  0.11655189006E+04  0.00000000000E+00 0.  1.
         21   -1    0    0  501  502 -0.00000000000E+00 -0.00000000000E+00 -0.77712585539E+02  0.77712585539E+02  0.00000000000E+00 0.  1.
         25    1    1    2    0    0  0.77564158517E+02 -0.14265218682E+03  0.88636159674E+02  0.22326489624E+03  0.12500000000E+03 0.  0.
         25    1    1    2    0    0 -0.77564158517E+02  0.14265218682E+03  0.99917015539E+03  0.10199665899E+04  0.12500000000E+03 0.  0.
</event>
<event>
 4    0  0.2244970E-002  0.2719517E+03  0.7546771E-02  0.1100168E+00
         21   -1    0    0  502  501  0.00000000000E+00  0.00000000000E+00  0.57785904912E+03  0.57785904912E+03  0.00000000000E+00 0.  1.
         21   -1    0    0  501  502 -0.00000000000E+00 -0.00000000000E+00 -0.12798571450E+03  0.12798571450E+03  0.00000000000E+00 0.  1.
         25    1    1    2    0    0 -0.22993210055E+03 -0.73842658453E+02  0.22927861227E+03  0.35568973996E+03  0.12500000000E+03 0.  0.
         25    1    1    2    0    0  0.22993210055E+03  0.73842658453E+02  0.22059472234E+03  0.35015502366E+03  0.12500000000E+03 0.  0.
</event>
<event>
 4    0  0.2244970E-002  0.2712190E+03  0.7546771E-02  0.1100584E+00
         21   -1    0    0  502  501  0.00000000000E+00  0.00000000000E+00  0.40008338887E+03  0.40008338887E+03  0.00000000000E+00 0.  1.
         21   -1    0    0  501  502 -0.00000000000E+00 -0.00000000000E+00 -0.18386108187E+03  0.18386108187E+03  0.00000000000E+00 0.  1.
         25    1    1    2    0    0 -0.40963915416E+02 -0.85712626771E+02  0.34618984244E+03  0.38012774664E+03  0.12500000000E+03 0.  0.
         25    1    1    2    0    0  0.40963915416E+02  0.85712626771E+02 -0.12996753544E+03  0.20381672410E+03  0.12500000000E+03 0.  0.
</event>
<event>
 4    0  0.2244970E-002  0.5430864E+03  0.7546771E-02  0.1003107E+00
         21   -1    0    0  502  501  0.00000000000E+00  0.00000000000E+00  0.79205644732E+03  0.79205644732E+03  0.00000000000E+00 0. -1.
         21   -1    0    0  501  502 -0.00000000000E+00 -0.00000000000E+00 -0.37237598179E+03  0.37237598179E+03  0.00000000000E+00 0. -1.
         25    1    1    2    0    0  0.38925183478E+03  0.35091137672E+03  0.13664174774E+03  0.55583428503E+03  0.12500000000E+03 0.  0.
         25    1    1    2    0    0 -0.38925183478E+03 -0.35091137672E+03  0.28303871779E+03  0.60859814407E+03  0.12500000000E+03 0.  0.
</event>
<event>
 4    0  0.2244970E-002  0.4631544E+03  0.7546771E-02  0.1023870E+00
         21   -1    0    0  502  501  0.00000000000E+00  0.00000000000E+00  0.70057684914E+03  0.70057684914E+03  0.00000000000E+00 0.  1.
         21   -1    0    0  501  502 -0.00000000000E+00 -0.00000000000E+00 -0.30619335525E+03  0.30619335525E+03  0.00000000000E+00 0.  1.
         25    1    1    2    0    0  0.58359679824E+02  0.24063884615E+02 -0.28263316666E+03  0.31542262073E+03  0.12500000000E+03 0.  0.
         25    1    1    2    0    0 -0.58359679824E+02 -0.24063884615E+02  0.67701666055E+03  0.69134758366E+03  0.12500000000E+03 0.  0.
</event>
<event>
 4    0  0.2244970E-002  0.1803542E+03  0.7546771E-02  0.1167461E+00
         21   -1    0    0  502  501  0.00000000000E+00  0.00000000000E+00  0.29146375927E+03  0.29146375927E+03  0.00000000000E+00 0.  1.
         21   -1    0    0  501  502 -0.00000000000E+00 -0.00000000000E+00 -0.11160096962E+03  0.11160096962E+03  0.00000000000E+00 0.  1.
         25    1    1    2    0    0 -0.86353388809E+02  0.75751218097E+02  0.21892360774E+02  0.17117076346E+03  0.12500000000E+03 0.  0.
         25    1    1    2    0    0  0.86353388809E+02 -0.75751218097E+02  0.15797042888E+03  0.23189396543E+03  0.12500000000E+03 0.  0.
</event>
<event>
 4    0  0.2244970E-002  0.1846843E+03  0.7546771E-02  0.1163345E+00
         21   -1    0    0  502  501  0.00000000000E+00  0.00000000000E+00  0.14378757656E+03  0.14378757656E+03  0.00000000000E+00 0. -1.
         21   -1    0    0  501  502 -0.00000000000E+00 -0.00000000000E+00 -0.23721315528E+03  0.23721315528E+03  0.00000000000E+00 0. -1.
         25    1    1    2    0    0 -0.11007444679E+03 -0.78827402122E+02 -0.59478372125E+02  0.19363062751E+03  0.12500000000E+03 0.  0.
         25    1    1    2    0    0  0.11007444679E+03  0.78827402122E+02 -0.33947206595E+02  0.18737010433E+03  0.12500000000E+03 0.  0.
</event>
<event>
 4    0  0.2244970E-002  0.2271755E+03  0.7546771E-02  0.1128644E+00
         21   -1    0    0  502  501  0.00000000000E+00  0.00000000000E+00  0.76629871806E+03  0.76629871806E+03  0.00000000000E+00 0. -1.
         21   -1    0    0  501  502 -0.00000000000E+00 -0.00000000000E+00 -0.67348023808E+02  0.67348023808E+02  0.00000000000E+00 0. -1.
         25    1    1    2    0    0 -0.14944131392E+03  0.11662282859E+03  0.33648653373E+03  0.40593321844E+03  0.12500000000E+03 0.  0.
         25    1    1    2    0    0  0.14944131392E+03 -0.11662282859E+03  0.36246416053E+03  0.42771352343E+03  0.12500000000E+03 0.  0.
</event>
<event>
 4    0  0.2244970E-002  0.3137341E+03  0.7546771E-02  0.1078570E+00
         21   -1    0    0  502  501  0.00000000000E+00  0.00000000000E+00  0.14456464556E+03  0.14456464556E+03  0.00000000000E+00 0.  1.
         21   -1    0    0  501  502 -0.00000000000E+00 -0.00000000000E+00 -0.68086548664E+03  0.68086548664E+03  0.00000000000E+00 0.  1.
         25    1    1    2    0    0 -0.19891876307E+03  0.74164061313E+02 -0.52369186276E+03  0.57874618739E+03  0.12500000000E+03 0.  0.
         25    1    1    2    0    0  0.19891876307E+03 -0.74164061313E+02 -0.12608978326E+02  0.24668394481E+03  0.12500000000E+03 0.  0.
</event>
<event>
 4    0  0.2244970E-002  0.2531166E+03  0.7546771E-02  0.1111351E+00
         21   -1    0    0  502  501  0.00000000000E+00  0.00000000000E+00  0.37113145228E+03  0.37113145228E+03  0.00000000000E+00 0.  1.
         21   -1    0    0  501  502 -0.00000000000E+00 -0.00000000000E+00 -0.17262890745E+03  0.17262890745E+03  0.00000000000E+00 0.  1.
         25    1    1    2    0    0  0.52737939442E+02  0.21100953733E+03  0.63036961661E+02  0.25865995755E+03  0.12500000000E+03 0.  0.
         25    1    1    2    0    0 -0.52737939442E+02 -0.21100953733E+03  0.13546558317E+03  0.28510040218E+03  0.12500000000E+03 0.  0.
</event>
<event>
 4    0  0.2244970E-002  0.1994112E+03  0.7546771E-02  0.1150237E+00
         21   -1    0    0  502  501  0.00000000000E+00  0.00000000000E+00  0.13484386739E+04  0.13484386739E+04  0.00000000000E+00 0.  1.
         21   -1    0    0  501  502 -0.00000000000E+00 -0.00000000000E+00 -0.29489545786E+02  0.29489545786E+02  0.00000000000E+00 0.  1.
         25    1    1    2    0    0  0.69198728686E+02  0.48806255943E+02  0.11095437672E+04  0.11197691217E+04  0.12500000000E+03 0.  0.
         25    1    1    2    0    0 -0.69198728686E+02 -0.48806255943E+02  0.20940536090E+03  0.25815909793E+03  0.12500000000E+03 0.  0.
</event>
<event>
 4    0  0.2244970E-002  0.1643151E+03  0.7546771E-02  0.1183909E+00
         21   -1    0    0  502  501  0.00000000000E+00  0.00000000000E+00  0.50231555528E+03  0.50231555528E+03  0.00000000000E+00 0. -1.
         21   -1    0    0  501  502 -0.00000000000E+00 -0.00000000000E+00 -0.53749985149E+02  0.53749985149E+02  0.00000000000E+00 0. -1.
         25    1    1    2    0    0  0.92534730460E+00  0.38391695210E+02  0.55926641165E+02  0.14222365387E+03  0.12500000000E+03 0.  0.
         25    1    1    2    0    0 -0.92534730460E+00 -0.38391695210E+02  0.39263892897E+03  0.41384188656E+03  0.12500000000E+03 0.  0.
</event>
<event>
 4    0  0.2244970E-002  0.3195961E+03  0.7546771E-02  0.1075835E+00
         21   -1    0    0  502  501  0.00000000000E+00  0.00000000000E+00  0.22014492713E+03  0.22014492713E+03  0.00000000000E+00 0.  1.
         21   -1    0    0  501  502 -0.00000000000E+00 -0.00000000000E+00 -0.46397467531E+03  0.46397467531E+03  0.00000000000E+00 0.  1.
         25    1    1    2    0    0  0.13013764881E+03  0.21289689390E+03  0.44774588487E+02  0.28264935670E+03  0.12500000000E+03 0.  0.
         25    1    1    2    0    0 -0.13013764881E+03 -0.21289689390E+03 -0.28860433667E+03  0.40147024574E+03  0.12500000000E+03 0.  0.
</event>
<event>
 4    0  0.2244970E-002  0.1799947E+03  0.7546771E-02  0.1167808E+00
         21   -1    0    0  502  501  0.00000000000E+00  0.00000000000E+00  0.11316793950E+03  0.11316793950E+03  0.00000000000E+00 0. -1.
         21   -1    0    0  501  502 -0.00000000000E+00 -0.00000000000E+00 -0.28628322441E+03  0.28628322441E+03  0.00000000000E+00 0. -1.
         25    1    1    2    0    0  0.80285274389E+02  0.32310647452E+02  0.20354514325E+02  0.15339168646E+03  0.12500000000E+03 0.  0.
         25    1    1    2    0    0 -0.80285274389E+02 -0.32310647452E+02 -0.19346979924E+03  0.24605947744E+03  0.12500000000E+03 0.  0.
</event>
<event>
 4    0  0.2244970E-002  0.3245374E+03  0.7546771E-02  0.1073580E+00
         21   -1    0    0  502  501  0.00000000000E+00  0.00000000000E+00  0.17746196418E+03  0.17746196418E+03  0.00000000000E+00 0.  1.
         21   -1    0    0  501  502 -0.00000000000E+00 -0.00000000000E+00 -0.59350472461E+03  0.59350472461E+03  0.00000000000E+00 0.  1.
         25    1    1    2    0    0  0.23908397727E+03  0.17088998542E+03 -0.13942717483E+03  0.34846731897E+03  0.12500000000E+03 0.  0.
         25    1    1    2    0    0 -0.23908397727E+03 -0.17088998542E+03 -0.27661558560E+03  0.42249936982E+03  0.12500000000E+03 0.  0.
</event>
<event>
 4    0  0.2244970E-002  0.5202807E+03  0.7546771E-02  0.1008617E+00
         21   -1    0    0  502  501  0.00000000000E+00  0.00000000000E+00  0.15947140285E+03  0.15947140285E+03  0.00000000000E+00 0. -1.
         21   -1    0    0  501  502 -0.00000000000E+00 -0.00000000000E+00 -0.16974328336E+04  0.16974328336E+04  0.00000000000E+00 0. -1.
         25    1    1    2    0    0 -0.46452357956E+03 -0.18445018063E+03 -0.89844120843E+03  0.10356764119E+04  0.12500000000E+03 0.  0.
         25    1    1    2    0    0  0.46452357956E+03  0.18445018063E+03 -0.63952022234E+03  0.82122782459E+03  0.12500000000E+03 0.  0.
</event>
<event>
 4    0  0.2244970E-002  0.2324854E+03  0.7546771E-02  0.1124903E+00
         21   -1    0    0  502  501  0.00000000000E+00  0.00000000000E+00  0.25074146836E+03  0.25074146836E+03  0.00000000000E+00 0.  1.
         21   -1    0    0  501  502 -0.00000000000E+00 -0.00000000000E+00 -0.21555853468E+03  0.21555853468E+03  0.00000000000E+00 0.  1.
         25    1    1    2    0    0 -0.15416569956E+03 -0.82550909367E+02 -0.71220984575E+02  0.22644898808E+03  0.12500000000E+03 0.  0.
         25    1    1    2    0    0  0.15416569956E+03  0.82550909367E+02  0.10640391825E+03  0.23985101496E+03  0.12500000000E+03 0.  0.
</event>
<event>
 4    0  0.2244970E-002  0.2823611E+03  0.7546771E-02  0.1094406E+00
         21   -1    0    0  502  501  0.00000000000E+00  0.00000000000E+00  0.21232353073E+03  0.21232353073E+03  0.00000000000E+00 0. -1.
         21   -1    0    0  501  502 -0.00000000000E+00 -0.00000000000E+00 -0.37550144467E+03  0.37550144467E+03  0.00000000000E+00 0. -1.
         25    1    1    2    0    0 -0.18082723256E+03  0.13191963380E+03  0.41579834272E+02  0.25972131302E+03  0.12500000000E+03 0.  0.
         25    1    1    2    0    0  0.18082723256E+03 -0.13191963380E+03 -0.20475774821E+03  0.32810366238E+03  0.12500000000E+03 0.  0.
</event>
<event>
 4    0  0.2244970E-002  0.2228625E+03  0.7546771E-02  0.1131767E+00
         21   -1    0    0  502  501  0.00000000000E+00  0.00000000000E+00  0.17303615450E+03  0.17303615450E+03  0.00000000000E+00 0.  1.
         21   -1    0    0  501  502 -0.00000000000E+00 -0.00000000000E+00 -0.28703656593E+03  0.28703656593E+03  0.00000000000E+00 0.  1.
         25    1    1    2    0    0 -0.10695897966E+03  0.14632156503E+03 -0.21356325864E+02  0.22120424132E+03  0.12500000000E+03 0.  0.
         25    1    1    2    0    0  0.10695897966E+03 -0.14632156503E+03 -0.92644085564E+02  0.23886847911E+03  0.12500000000E+03 0.  0.
</event>
<event>
 4    0  0.2244970E-002  0.1718157E+03  0.7546771E-02  0.1175968E+00
         21   -1    0    0  502  501  0.00000000000E+00  0.00000000000E+00  0.32497957785E+03  0.32497957785E+03  0.00000000000E+00 0.  1.
         21   -1    0    0  501  502 -0.00000000000E+00 -0.00000000000E+00 -0.90838398995E+02  0.90838398995E+02  0.00000000000E+00 0.  1.
         25    1    1    2    0    0 -0.11308915652E+03  0.32180765157E+02  0.12725716472E+03  0.21364490385E+03  0.12500000000E+03 0.  0.
         25    1    1    2    0    0  0.11308915652E+03 -0.32180765157E+02  0.10688401414E+03  0.20217307300E+03  0.12500000000E+03 0.  0.
</event>
<event>
 4    0  0.2244970E-002  0.2155492E+03  0.7546771E-02  0.1137245E+00
         21   -1    0    0  502  501  0.00000000000E+00  0.00000000000E+00  0.32872281415E+03  0.32872281415E+03  0.00000000000E+00 0.  1.
         21   -1    0    0  501  502 -0.00000000000E+00 -0.00000000000E+00 -0.14133928676E+03  0.14133928676E+03  0.00000000000E+00 0.  1.
         25    1    1    2    0    0 -0.13687426893E+03  0.23609831249E+02  0.21084806537E+03  0.28173373298E+03  0.12500000000E+03 0.  0.
         25    1    1    2    0    0  0.13687426893E+03 -0.23609831249E+02 -0.23464537986E+02  0.18832836794E+03  0.12500000000E+03 0.  0.
</event>
<event>
 4    0  0.2244970E-002  0.3389528E+03  0.7546771E-02  0.1067243E+00
         21   -1    0    0  502  501  0.00000000000E+00  0.00000000000E+00  0.12244231959E+03  0.12244231959E+03  0.00000000000E+00 0. -1.
         21   -1    0    0  501  502 -0.00000000000E+00 -0.00000000000E+00 -0.93831093911E+03  0.93831093911E+03  0.00000000000E+00 0. -1.
         25    1    1    2    0    0  0.66668722790E+02  0.12946621466E+03 -0.84510720245E+03  0.86662414169E+03  0.12500000000E+03 0.  0.
         25    1    1    2    0    0 -0.66668722790E+02 -0.12946621466E+03  0.29238582923E+02  0.19412911700E+03  0.12500000000E+03 0.  0.
</event>
<event>
 4    0  0.2244970E-002  0.1991326E+03  0.7546771E-02  0.1150473E+00
         21   -1    0    0  502  501  0.00000000000E+00  0.00000000000E+00  0.72229311174E+02  0.72229311174E+02  0.00000000000E+00 0.  1.
         21   -1    0    0  501  502 -0.00000000000E+00 -0.00000000000E+00 -0.54899876254E+03  0.54899876254E+03  0.00000000000E+00 0.  1.
         25    1    1    2    0    0  0.54067522744E+02 -0.33906129386E+02 -0.45873525523E+03  0.47972487638E+03  0.12500000000E+03 0.  0.
         25    1    1    2    0    0 -0.54067522744E+02  0.33906129386E+02 -0.18034196136E+02  0.14150319733E+03  0.12500000000E+03 0.  0.
</event>
<event>
 4    0  0.2244970E-002  0.2160395E+03  0.7546771E-02  0.1136871E+00
         21   -1    0    0  502  501  0.00000000000E+00  0.00000000000E+00  0.71714173009E+02  0.71714173009E+02  0.00000000000E+00 0. -1.
         21   -1    0    0  501  502 -0.00000000000E+00 -0.00000000000E+00 -0.65082082801E+03  0.65082082801E+03  0.00000000000E+00 0. -1.
         25    1    1    2    0    0  0.52983323119E+02  0.98236420670E+02 -0.61550289609E+02  0.17852469024E+03  0.12500000000E+03 0.  0.
         25    1    1    2    0    0 -0.52983323119E+02 -0.98236420670E+02 -0.51755636539E+03  0.54401031078E+03  0.12500000000E+03 0.  0.
</event>
<event>
 4    0  0.2244970E-002  0.3416702E+03  0.7546771E-02  0.1066087E+00
         21   -1    0    0  502  501  0.00000000000E+00  0.00000000000E+00  0.60742580104E+03  0.60742580104E+03  0.00000000000E+00 0.  1.
         21   -1    0    0  501  502 -0.00000000000E+00 -0.00000000000E+00 -0.19218565475E+03  0.19218565475E+03  0.00000000000E+00 0.  1.
         25    1    1    2    0    0  0.40799365241E+02 -0.12387143487E+03  0.54697355835E+03  0.57603280646E+03  0.12500000000E+03 0.  0.
         25    1    1    2    0    0 -0.40799365241E+02  0.12387143487E+03 -0.13173341206E+03  0.22357864933E+03  0.12500000000E+03 0.  0.
</event>
<event>
 4    0  0.2244970E-002  0.1811874E+03  0.7546771E-02  0.1166659E+00
         21   -1    0    0  502  501  0.00000000000E+00  0.00000000000E+00  0.31113545515E+03  0.31113545515E+03  0.00000000000E+00 0.  1.
         21   -1    0    0  501  502 -0.00000000000E+00 -0.00000000000E+00 -0.10551309576E+03  0.10551309576E+03  0.00000000000E+00 0.  1.
         25    1    1    2    0    0  0.26033997410E+02 -0.12555700829E+03  0.71082170140E+02  0.19266552952E+03  0.12500000000E+03 0.  0.
         25    1    1    2    0    0 -0.26033997410E+02  0.12555700829E+03  0.13454018925E+03  0.22398302140E+03  0.12500000000E+03 0.  0.
</event>
<event>
 4    0  0.2244970E-002  0.1775423E+03  0.7546771E-02  0.1170203E+00
         21   -1    0    0  502  501  0.00000000000E+00  0.00000000000E+00  0.98155264421E+03  0.98155264421E+03  0.00000000000E+00 0. -1.
         21   -1    0    0  501  502 -0.00000000000E+00 -0.00000000000E+00 -0.32113690290E+02  0.32113690290E+02  0.00000000000E+00 0. -1.
         25    1    1    2    0    0 -0.28746354878E+02  0.39442152359E+02  0.80658256977E+03  0.81766892943E+03  0.12500000000E+03 0.  0.
         25    1    1    2    0    0  0.28746354878E+02 -0.39442152359E+02  0.14285638415E+03  0.19599740507E+03  0.12500000000E+03 0.  0.
</event>
<event>
 4    0  0.2244970E-002  0.2399189E+03  0.7546771E-02  0.1119847E+00
         21   -1    0    0  502  501  0.00000000000E+00  0.00000000000E+00  0.98547529084E+02  0.98547529084E+02  0.00000000000E+00 0. -1.
         21   -1    0    0  501  502 -0.00000000000E+00 -0.00000000000E+00 -0.58409435388E+03  0.58409435388E+03  0.00000000000E+00 0. -1.
         25    1    1    2    0    0 -0.59698501232E+02  0.19586447000E+03 -0.24710109657E+03  0.34439911960E+03  0.12500000000E+03 0.  0.
         25    1    1    2    0    0  0.59698501232E+02 -0.19586447000E+03 -0.23844572823E+03  0.33824276336E+03  0.12500000000E+03 0.  0.
</event>
<event>
 4    0  0.2244970E-002  0.2098178E+03  0.7546771E-02  0.1141710E+00
         21   -1    0    0  502  501  0.00000000000E+00  0.00000000000E+00  0.60130844029E+03  0.60130844029E+03  0.00000000000E+00 0. -1.
         21   -1    0    0  501  502 -0.00000000000E+00 -0.00000000000E+00 -0.73212887341E+02  0.73212887341E+02  0.00000000000E+00 0. -1.
         25    1    1    2    0    0 -0.76662753691E+01 -0.16676409257E+03  0.22706042097E+03  0.30830256100E+03  0.12500000000E+03 0.  0.
         25    1    1    2    0    0  0.76662753691E+01  0.16676409257E+03  0.30103513198E+03  0.36621876663E+03  0.12500000000E+03 0.  0.
</event>
<event>
 4    0  0.2244970E-002  0.1807156E+03  0.7546771E-02  0.1167112E+00
         21   -1    0    0  502  501  0.00000000000E+00  0.00000000000E+00  0.32625285454E+03  0.32625285454E+03  0.00000000000E+00 0.  1.
         21   -1    0    0  501  502 -0.00000000000E+00 -0.00000000000E+00 -0.10010069835E+03  0.10010069835E+03  0.00000000000E+00 0.  1.
         25    1    1    2    0    0  0.43196025186E+01 -0.47817257805E+02 -0.30082016519E+02  0.13724094443E+03  0.12500000000E+03 0.  0.
         25    1    1    2    0    0 -0.43196025186E+01  0.47817257805E+02  0.25623417271E+03  0.28911260847E+03  0.12500000000E+03 0.  0.
</event>
<event>
 4    0  0.2244970E-002  0.2136743E+03  0.7546771E-02  0.1138689E+00
         21   -1    0    0  502  501  0.00000000000E+00  0.00000000000E+00  0.18548624322E+03  0.18548624322E+03  0.00000000000E+00 0. -1.
         21   -1    0    0  501  502 -0.00000000000E+00 -0.00000000000E+00 -0.24614598990E+03  0.24614598990E+03  0.00000000000E+00 0. -1.
         25    1    1    2    0    0  0.55683059686E+02  0.15498314366E+03  0.24167602330E+02  0.20815727458E+03  0.12500000000E+03 0.  0.
         25    1    1    2    0    0 -0.55683059686E+02 -0.15498314366E+03 -0.84827349004E+02  0.22347495854E+03  0.12500000000E+03 0.  0.
</event>
<event>
 4    0  0.2244970E-002  0.2227625E+03  0.7546771E-02  0.1131840E+00
         21   -1    0    0  502  501  0.00000000000E+00  0.00000000000E+00  0.71937336495E+02  0.71937336495E+02  0.00000000000E+00 0.  1.
         21   -1    0    0  501  502 -0.00000000000E+00 -0.00000000000E+00 -0.68981025149E+03  0.68981025149E+03  0.00000000000E+00 0.  1.
         25    1    1    2    0    0  0.45184126747E+02  0.14013060316E+03 -0.11915968640E+03  0.22694101021E+03  0.12500000000E+03 0.  0.
         25    1    1    2    0    0 -0.45184126747E+02 -0.14013060316E+03 -0.49871322860E+03  0.53480657777E+03  0.12500000000E+03 0.  0.
</event>
<event>
 4    0  0.2244970E-002  0.2097870E+03  0.7546771E-02  0.1141735E+00
         21   -1    0    0  502  501  0.00000000000E+00  0.00000000000E+00  0.13143301157E+03  0.13143301157E+03  0.00000000000E+00 0.  1.
         21   -1    0    0  501  502 -0.00000000000E+00 -0.00000000000E+00 -0.33485192462E+03  0.33485192462E+03  0.00000000000E+00 0.  1.
         25    1    1    2    0    0 -0.13946731200E+03 -0.72222915041E+02 -0.16947609233E+03  0.26270596956E+03  0.12500000000E+03 0.  0.
         25    1    1    2    0    0  0.13946731200E+03  0.72222915041E+02 -0.33942820723E+02  0.20357896663E+03  0.12500000000E+03 0.  0.
</event>
<event>
 4    0  0.2244970E-002  0.2030651E+03  0.7546771E-02  0.1147178E+00
         21   -1    0    0  502  501  0.00000000000E+00  0.00000000000E+00  0.83439189083E+03  0.83439189083E+03  0.00000000000E+00 0.  1.
         21   -1    0    0  501  502 -0.00000000000E+00 -0.00000000000E+00 -0.49419743866E+02  0.49419743866E+02  0.00000000000E+00 0.  1.
         25    1    1    2    0    0  0.61045885443E+01  0.88844353971E+02  0.10312926650E+03  0.18490870948E+03  0.12500000000E+03 0.  0.
         25    1    1    2    0    0 -0.61045885443E+01 -0.88844353971E+02  0.68184288046E+03  0.69890292521E+03  0.12500000000E+03 0.  0.
</event>
<event>
 4    0  0.2244970E-002  0.2266754E+03  0.7546771E-02  0.1129002E+00
         21   -1    0    0  502  501  0.00000000000E+00  0.00000000000E+00  0.39380325647E+03  0.39380325647E+03  0.00000000000E+00 0.  1.
         21   -1    0    0  501  502 -0.00000000000E+00 -0.00000000000E+00 -0.13047564361E+03  0.13047564361E+03  0.00000000000E+00 0.  1.
         25    1    1    2    0    0  0.99806629395E+02  0.14606590642E+03  0.54431086160E+02  0.22334805893E+03  0.12500000000E+03 0.  0.
         25    1    1    2    0    0 -0.99806629395E+02 -0.14606590642E+03  0.20889652669E+03  0.30093084115E+03  0.12500000000E+03 0.  0.
</event>
<event>
 4    0  0.2244970E-002  0.5353499E+03  0.7546771E-02  0.1004943E+00
         21   -1    0    0  502  501  0.00000000000E+00  0.00000000000E+00  0.63359439789E+03  0.63359439789E+03  0.00000000000E+00 0. -1.
         21   -1    0    0  501  502 -0.00000000000E+00 -0.00000000000E+00 -0.45233910271E+03  0.45233910271E+03  0.00000000000E+00 0. -1.
         25    1    1    2    0    0 -0.11859668404E+03  0.30662451631E+03  0.49996721078E+03  0.61129042142E+03  0.12500000000E+03 0.  0.
         25    1    1    2    0    0  0.11859668404E+03 -0.30662451631E+03 -0.31871191560E+03  0.47464307918E+03  0.12500000000E+03 0.  0.
</event>
<event>
 4    0  0.2244970E-002  0.2835283E+03  0.7546771E-02  0.1093777E+00
         21   -1    0    0  502  501  0.00000000000E+00  0.00000000000E+00  0.20590672831E+03  0.20590672831E+03  0.00000000000E+00 0.  1.
         21   -1    0    0  501  502 -0.00000000000E+00 -0.00000000000E+00 -0.39041114167E+03  0.39041114167E+03  0.00000000000E+00 0.  1.
         25    1    1    2    0    0  0.17840211865E+02 -0.11275580292E+03  0.14692922890E+03  0.22415472905E+03  0.12500000000E+03 0.  0.
         25    1    1    2    0    0 -0.17840211865E+02  0.11275580292E+03 -0.33143364226E+03  0.37216314093E+03  0.12500000000E+03 0.  0.
</event>
<event>
 4    0  0.2244970E-002  0.2621319E+03  0.7546771E-02  0.1105869E+00
         21   -1    0    0  502  501  0.00000000000E+00  0.00000000000E+00  0.92566793462E+03  0.92566793462E+03  0.00000000000E+00 0. -1.
         21   -1    0    0  501  502 -0.00000000000E+00 -0.00000000000E+00 -0.74230847881E+02  0.74230847881E+02  0.00000000000E+00 0. -1.
         25    1    1    2    0    0 -0.57637157905E+02  0.16346527896E+03  0.71525032336E+03  0.74649244100E+03  0.12500000000E+03 0.  0.
         25    1    1    2    0    0  0.57637157905E+02 -0.16346527896E+03  0.13618676338E+03  0.25340634150E+03  0.12500000000E+03 0.  0.
</event>
<event>
 4    0  0.2244970E-002  0.2035091E+03  0.7546771E-02  0.1146812E+00
         21   -1    0    0  502  501  0.00000000000E+00  0.00000000000E+00  0.45485941522E+03  0.45485941522E+03  0.00000000000E+00 0.  1.
         21   -1    0    0  501  502 -0.00000000000E+00 -0.00000000000E+00 -0.91052248802E+02  0.91052248802E+02  0.00000000000E+00 0.  1.
         25    1    1    2    0    0  0.13807297333E+03 -0.20547086616E+02  0.28840091492E+03  0.34392792335E+03  0.12500000000E+03 0.  0.
         25    1    1    2    0    0 -0.13807297333E+03  0.20547086616E+02  0.75406251498E+02  0.20198374067E+03  0.12500000000E+03 0.  0.
</event>
<event>
 4    0  0.2244970E-002  0.3034625E+03  0.7546771E-02  0.1083522E+00
         21   -1    0    0  502  501  0.00000000000E+00  0.00000000000E+00  0.66499695722E+02  0.66499695722E+02  0.00000000000E+00 0.  1.
         21   -1    0    0  501  502 -0.00000000000E+00 -0.00000000000E+00 -0.13848105567E+04  0.13848105567E+04  0.00000000000E+00 0. -1.
         25    1    1    2    0    0 -0.33660247110E+02  0.25747040686E+03 -0.43179207382E+03  0.51912755432E+03  0.12500000000E+03 0.  0.
         25    1    1    2    0    0  0.33660247110E+02 -0.25747040686E+03 -0.88651878713E+03  0.93218269807E+03  0.12500000000E+03 0.  0.
</event>
<event>
 4    0  0.2244970E-002  0.2143300E+03  0.7546771E-02  0.1138182E+00
         21   -1    0    0  502  501  0.00000000000E+00  0.00000000000E+00  0.41364259893E+03  0.41364259893E+03  0.00000000000E+00 0. -1.
         21   -1    0    0  501  502 -0.00000000000E+00 -0.00000000000E+00 -0.11105565259E+03  0.11105565259E+03  0.00000000000E+00 0. -1.
         25    1    1    2    0    0 -0.14048254149E+03  0.83966899781E+02  0.78603828609E+02  0.22042991311E+03  0.12500000000E+03 0.  0.
         25    1    1    2    0    0  0.14048254149E+03 -0.83966899781E+02  0.22398311773E+03  0.30426833840E+03  0.12500000000E+03 0.  0.
</event>
<event>
 4    0  0.2244970E-002  0.3936676E+03  0.7546771E-02  0.1045995E+00
         21   -1    0    0  502  501  0.00000000000E+00  0.00000000000E+00  0.18262967969E+03  0.18262967969E+03  0.00000000000E+00 0. -1.
         21   -1    0    0  501  502 -0.00000000000E+00 -0.00000000000E+00 -0.84857045310E+03  0.84857045310E+03  0.00000000000E+00 0. -1.
         25    1    1    2    0    0  0.29295387496E+03 -0.22703101186E+03 -0.39131016394E+03  0.55327542653E+03  0.12500000000E+03 0.  0.
         25    1    1    2    0    0 -0.29295387496E+03  0.22703101186E+03 -0.27463060947E+03  0.47792470626E+03  0.12500000000E+03 0.  0.
</event>
<event>
 4    0  0.2244970E-002  0.2844603E+03  0.7546771E-02  0.1093277E+00
         21   -1    0    0  502  501  0.00000000000E+00  0.00000000000E+00  0.17378515819E+03  0.17378515819E+03  0.00000000000E+00 0. -1.
         21   -1    0    0  501  502 -0.00000000000E+00 -0.00000000000E+00 -0.46561893244E+03  0.46561893244E+03  0.00000000000E+00 0. -1.
         25    1    1    2    0    0 -0.15877009146E+03 -0.15665853578E+03 -0.58005804964E+01  0.25575082699E+03  0.12500000000E+03 0.  0.
         25    1    1    2    0    0  0.15877009146E+03  0.15665853578E+03 -0.28603319375E+03  0.38365326364E+03  0.12500000000E+03 0.  0.
</event>
<event>
 4    0  0.2244970E-002  0.2925036E+03  0.7546771E-02  0.1089049E+00
         21   -1    0    0  502  501  0.00000000000E+00  0.00000000000E+00  0.42586415992E+03  0.42586415992E+03  0.00000000000E+00 0. -1.
         21   -1    0    0  501  502 -0.00000000000E+00 -0.00000000000E+00 -0.20090531532E+03  0.20090531532E+03  0.00000000000E+00 0. -1.
         25    1    1    2    0    0  0.21272818462E+03 -0.11053831023E+03 -0.71201319377E+01  0.27045830518E+03  0.12500000000E+03 0.  0.
         25    1    1    2    0    0 -0.21272818462E+03  0.11053831023E+03  0.23207897653E+03  0.35631117006E+03  0.12500000000E+03 0.  0.
</event>
<event>
 4    0  0.2244970E-002  0.1798312E+03  0.7546771E-02  0.1167966E+00
         21   -1    0    0  502  501  0.00000000000E+00  0.00000000000E+00  0.25118327142E+02  0.25118327142E+02  0.00000000000E+00 0.  1.
         21   -1    0    0  501  502 -0.00000000000E+00 -0.00000000000E+00 -0.12874768822E+04  0.12874768822E+04  0.00000000000E+00 0.  1.
         25    1    1    2    0    0  0.16670130373E+02 -0.12625004722E+03 -0.54979434042E+03  0.57802749452E+03  0.12500000000E+03 0.  0.
         25    1    1    2    0    0 -0.16670130373E+02  0.12625004722E+03 -0.71256421462E+03  0.73456771480E+03  0.12500000000E+03 0.  0.
</event>
<event>
 4    0  0.2244970E-002  0.2236654E+03  0.7546771E-02  0.1131179E+00
         21   -1    0    0  502  501  0.00000000000E+00  0.00000000000E+00  0.11314080681E+03  0.11314080681E+03  0.00000000000E+00 0. -1.
         21   -1    0    0  501  502 -0.00000000000E+00 -0.00000000000E+00 -0.44215880553E+03  0.44215880553E+03  0.00000000000E+00 0. -1.
         25    1    1    2    0    0 -0.17360310664E+03 -0.29230957179E+02 -0.92033028588E+02  0.23470740475E+03  0.12500000000E+03 0.  0.
         25    1    1    2    0    0  0.17360310664E+03  0.29230957179E+02 -0.23698497013E+03  0.32059220758E+03  0.12500000000E+03 0.  0.
</event>
<event>
 4    0  0.2244970E-002  0.2216409E+03  0.7546771E-02  0.1132666E+00
         21   -1    0    0  502  501  0.00000000000E+00  0.00000000000E+00  0.58747074008E+03  0.58747074008E+03  0.00000000000E+00 0.  1.
         21   -1    0    0  501  502 -0.00000000000E+00 -0.00000000000E+00 -0.83620661205E+02  0.83620661205E+02  0.00000000000E+00 0.  1.
         25    1    1    2    0    0  0.41289402450E+02  0.12766444844E+03  0.63464300356E+02  0.19405087882E+03  0.12500000000E+03 0.  0.
         25    1    1    2    0    0 -0.41289402450E+02 -0.12766444844E+03  0.44038577852E+03  0.47704052246E+03  0.12500000000E+03 0.  0.
</event>
<event>
 4    0  0.2244970E-002  0.3891439E+03  0.7546771E-02  0.1047605E+00
         21   -1    0    0  502  501  0.00000000000E+00  0.00000000000E+00  0.45832000911E+03  0.45832000911E+03  0.00000000000E+00 0.  1.
         21   -1    0    0  501  502 -0.00000000000E+00 -0.00000000000E+00 -0.33040881553E+03  0.33040881553E+03  0.00000000000E+00 0.  1.
         25    1    1    2    0    0  0.14231770887E+03 -0.81641783246E+02 -0.27045345520E+03  0.34013200740E+03  0.12500000000E+03 0.  0.
         25    1    1    2    0    0 -0.14231770887E+03  0.81641783246E+02  0.39836464879E+03  0.44859681724E+03  0.12500000000E+03 0.  0.
</event>
<event>
 4    0  0.2244970E-002  0.1875976E+03  0.7546771E-02  0.1160646E+00
         21   -1    0    0  502  501  0.00000000000E+00  0.00000000000E+00  0.17108314787E+02  0.17108314787E+02  0.00000000000E+00 0. -1.
         21   -1    0    0  501  502 -0.00000000000E+00 -0.00000000000E+00 -0.20570616137E+04  0.20570616137E+04  0.00000000000E+00 0. -1.
         25    1    1    2    0    0  0.81951376042E+02 -0.20279966812E+02 -0.16365814568E+04  0.16435179250E+04  0.12500000000E+03 0.  0.
         25    1    1    2    0    0 -0.81951376042E+02  0.20279966812E+02 -0.40337184212E+03  0.43065200348E+03  0.12500000000E+03 0.  0.
</event>
<event>
 4    0  0.2244970E-002  0.2769214E+03  0.7546771E-02  0.1097382E+00
         21   -1    0    0  502  501  0.00000000000E+00  0.00000000000E+00  0.13179629520E+03  0.13179629520E+03  0.00000000000E+00 0.  1.
         21   -1    0    0  501  502 -0.00000000000E+00 -0.00000000000E+00 -0.58184846282E+03  0.58184846282E+03  0.00000000000E+00 0.  1.
         25    1    1    2    0    0 -0.14441961374E+03 -0.26217343515E+02 -0.48116912616E+03  0.51835615353E+03  0.12500000000E+03 0.  0.
         25    1    1    2    0    0  0.14441961374E+03  0.26217343515E+02  0.31116958539E+02  0.19528860449E+03  0.12500000000E+03 0.  0.
</event>
<event>
 4    0  0.2244970E-002  0.3862232E+03  0.7546771E-02  0.1048657E+00
         21   -1    0    0  502  501  0.00000000000E+00  0.00000000000E+00  0.12031159924E+04  0.12031159924E+04  0.00000000000E+00 0.  1.
         21   -1    0    0  501  502 -0.00000000000E+00 -0.00000000000E+00 -0.12398501000E+03  0.12398501000E+03  0.00000000000E+00 0.  1.
         25    1    1    2    0    0 -0.20544750341E+03  0.25089574813E+03  0.82902492210E+03  0.89892417620E+03  0.12500000000E+03 0.  0.
         25    1    1    2    0    0  0.20544750341E+03 -0.25089574813E+03  0.25010606030E+03  0.42817682619E+03  0.12500000000E+03 0.  0.
</event>
<event>
 4    0  0.2244970E-002  0.1928306E+03  0.7546771E-02  0.1155933E+00
         21   -1    0    0  502  501  0.00000000000E+00  0.00000000000E+00  0.13886843257E+03  0.13886843257E+03  0.00000000000E+00 0.  1.
         21   -1    0    0  501  502 -0.00000000000E+00 -0.00000000000E+00 -0.26776170450E+03  0.26776170450E+03  0.00000000000E+00 0.  1.
         25    1    1    2    0    0 -0.32934497948E+02  0.42177469909E+02 -0.20861057143E+03  0.24901202910E+03  0.12500000000E+03 0.  0.
         25    1    1    2    0    0  0.32934497948E+02 -0.42177469909E+02  0.79717299497E+02  0.15761810798E+03  0.12500000000E+03 0.  0.
</event>
<event>
 4    0  0.2244970E-002  0.1984214E+03  0.7546771E-02  0.1151078E+00
         21   -1    0    0  502  501  0.00000000000E+00  0.00000000000E+00  0.23742106187E+04  0.23742106187E+04  0.00000000000E+00 0. -1.
         21   -1    0    0  501  502 -0.00000000000E+00 -0.00000000000E+00 -0.16582799918E+02  0.16582799918E+02  0.00000000000E+00 0. -1.
         25    1    1    2    0    0  0.66185778076E+02  0.33440572972E+02  0.19926219629E+04  0.19979154426E+04  0.12500000000E+03 0.  0.
         25    1    1    2    0    0 -0.66185778076E+02 -0.33440572972E+02  0.36500585597E+03  0.39287797601E+03  0.12500000000E+03 0.  0.
</event>
<event>
 4    0  0.2244970E-002  0.1956251E+03  0.7546771E-02  0.1153483E+00
         21   -1    0    0  502  501  0.00000000000E+00  0.00000000000E+00  0.45125642993E+02  0.45125642993E+02  0.00000000000E+00 0. -1.
         21   -1    0    0  501  502 -0.00000000000E+00 -0.00000000000E+00 -0.84805874163E+03  0.84805874163E+03  0.00000000000E+00 0. -1.
         25    1    1    2    0    0 -0.95522279329E+02 -0.56231392960E+01 -0.66659807446E+03  0.68493365987E+03  0.12500000000E+03 0.  0.
         25    1    1    2    0    0  0.95522279329E+02  0.56231392960E+01 -0.13633502417E+03  0.20825072475E+03  0.12500000000E+03 0.  0.
</event>
<event>
 4    0  0.2244970E-002  0.2762201E+03  0.7546771E-02  0.1097772E+00
         21   -1    0    0  502  501  0.00000000000E+00  0.00000000000E+00  0.43023927424E+02  0.43023927424E+02  0.00000000000E+00 0. -1.
         21   -1    0    0  501  502 -0.00000000000E+00 -0.00000000000E+00 -0.17733748411E+04  0.17733748411E+04  0.00000000000E+00 0. -1.
         25    1    1    2    0    0 -0.69896285651E+02  0.21248531576E+03 -0.52606864644E+03  0.58515700537E+03  0.12500000000E+03 0.  0.
         25    1    1    2    0    0  0.69896285651E+02 -0.21248531576E+03 -0.12042822672E+04  0.12312417631E+04  0.12500000000E+03 0.  0.
</event>
<event>
 4    0  0.2244970E-002  0.2613098E+03  0.7546771E-02  0.1106359E+00
         21   -1    0    0  502  501  0.00000000000E+00  0.00000000000E+00  0.23361510967E+03  0.23361510967E+03  0.00000000000E+00 0. -1.
         21   -1    0    0  501  502 -0.00000000000E+00 -0.00000000000E+00 -0.29228775103E+03  0.29228775103E+03  0.00000000000E+00 0. -1.
         25    1    1    2    0    0 -0.13084604261E+03 -0.18625783573E+03 -0.81935650345E-01  0.25968764882E+03  0.12500000000E+03 0.  0.
         25    1    1    2    0    0  0.13084604261E+03  0.18625783573E+03 -0.58590705714E+02  0.26621521187E+03  0.12500000000E+03 0.  0.
</event>
<event>
 4    0  0.2244970E-002  0.2415014E+03  0.7546771E-02  0.1118797E+00
         21   -1    0    0  502  501  0.00000000000E+00  0.00000000000E+00  0.48241962147E+03  0.48241962147E+03  0.00000000000E+00 0.  1.
         21   -1    0    0  501  502 -0.00000000000E+00 -0.00000000000E+00 -0.12089664487E+03  0.12089664487E+03  0.00000000000E+00 0.  1.
         25    1    1    2    0    0  0.45168500802E+02 -0.19017885378E+03  0.97065384053E+02  0.25150522593E+03  0.12500000000E+03 0.  0.
         25    1    1    2    0    0 -0.45168500802E+02  0.19017885378E+03  0.26445759255E+03  0.35181104040E+03  0.12500000000E+03 0.  0.
</event>
<event>
 4    0  0.2244970E-002  0.1946018E+03  0.7546771E-02  0.1154375E+00
         21   -1    0    0  502  501  0.00000000000E+00  0.00000000000E+00  0.45617116965E+02  0.45617116965E+02  0.00000000000E+00 0. -1.
         21   -1    0    0  501  502 -0.00000000000E+00 -0.00000000000E+00 -0.83016800676E+03  0.83016800676E+03  0.00000000000E+00 0. -1.
         25    1    1    2    0    0  0.74788446352E+02 -0.15972697217E+02 -0.10414089638E+03  0.17977420578E+03  0.12500000000E+03 0.  0.
         25    1    1    2    0    0 -0.74788446352E+02  0.15972697217E+02 -0.68040999341E+03  0.69601091794E+03  0.12500000000E+03 0.  0.
</event>
<event>
 4    0  0.2244970E-002  0.2046320E+03  0.7546771E-02  0.1145889E+00
         21   -1    0    0  502  501  0.00000000000E+00  0.00000000000E+00  0.27176357164E+03  0.27176357164E+03  0.00000000000E+00 0. -1.
         21   -1    0    0  501  502 -0.00000000000E+00 -0.00000000000E+00 -0.15408343521E+03  0.15408343521E+03  0.00000000000E+00 0. -1.
         25    1    1    2    0    0 -0.11268681914E+03 -0.24250391031E+02 -0.59627776929E+02  0.18018566107E+03  0.12500000000E+03 0.  0.
         25    1    1    2    0    0  0.11268681914E+03  0.24250391031E+02  0.17730791336E+03  0.24566134578E+03  0.12500000000E+03 0.  0.
</event>
<event>
 4    0  0.2244970E-002  0.2159228E+03  0.7546771E-02  0.1136960E+00
         21   -1    0    0  502  501  0.00000000000E+00  0.00000000000E+00  0.95235097728E+03  0.95235097728E+03  0.00000000000E+00 0. -1.
         21   -1    0    0  501  502 -0.00000000000E+00 -0.00000000000E+00 -0.48955317219E+02  0.48955317219E+02  0.00000000000E+00 0. -1.
         25    1    1    2    0    0  0.46968636694E+01  0.10377523630E+03  0.78129367378E+03  0.79802015318E+03  0.12500000000E+03 0.  0.
         25    1    1    2    0    0 -0.46968636694E+01 -0.10377523630E+03  0.12210198628E+03  0.20328614132E+03  0.12500000000E+03 0.  0.
</event>
<event>
 4    0  0.2244970E-002  0.1944995E+03  0.7546771E-02  0.1154465E+00
         21   -1    0    0  502  501  0.00000000000E+00  0.00000000000E+00  0.30149657405E+03  0.30149657405E+03  0.00000000000E+00 0.  1.
         21   -1    0    0  501  502 -0.00000000000E+00 -0.00000000000E+00 -0.12547428329E+03  0.12547428329E+03  0.00000000000E+00 0.  1.
         25    1    1    2    0    0  0.12669014856E+03 -0.70628943389E+02  0.50527580465E+02  0.19803251696E+03  0.12500000000E+03 0.  0.
         25    1    1    2    0    0 -0.12669014856E+03  0.70628943389E+02  0.12549471030E+03  0.22893834038E+03  0.12500000000E+03 0.  0.
</event>
<event>
 4    0  0.2244970E-002  0.2052193E+03  0.7546771E-02  0.1145409E+00
         21   -1    0    0  502  501  0.00000000000E+00  0.00000000000E+00  0.22882137504E+04  0.22882137504E+04  0.00000000000E+00 0.  1.
         21   -1    0    0  501  502 -0.00000000000E+00 -0.00000000000E+00 -0.18405162451E+02  0.18405162451E+02  0.00000000000E+00 0.  1.
         25    1    1    2    0    0  0.68636118943E+02 -0.13216465900E+03  0.76588970940E+03  0.79018381462E+03  0.12500000000E+03 0.  0.
         25    1    1    2    0    0 -0.68636118943E+02  0.13216465900E+03  0.15039188786E+04  0.15164350983E+04  0.12500000000E+03 0.  0.
</event>
<event>
 4    0  0.2244970E-002  0.2326174E+03  0.7546771E-02  0.1124811E+00
         21   -1    0    0  502  501  0.00000000000E+00  0.00000000000E+00  0.20431539824E+04  0.20431539824E+04  0.00000000000E+00 0. -1.
         21   -1    0    0  501  502 -0.00000000000E+00 -0.00000000000E+00 -0.26483983894E+02  0.26483983894E+02  0.00000000000E+00 0. -1.
         25    1    1    2    0    0 -0.11274667383E+03  0.11642752486E+03  0.51659644790E+03  0.55566543080E+03  0.12500000000E+03 0.  0.
         25    1    1    2    0    0  0.11274667383E+03 -0.11642752486E+03  0.15000735506E+04  0.15139725355E+04  0.12500000000E+03 0.  0.
</event>
<event>
 4    0  0.2244970E-002  0.3195318E+03  0.7546771E-02  0.1075865E+00
         21   -1    0    0  502  501  0.00000000000E+00  0.00000000000E+00  0.12785874641E+03  0.12785874641E+03  0.00000000000E+00 0. -1.
         21   -1    0    0  501  502 -0.00000000000E+00 -0.00000000000E+00 -0.79854172426E+03  0.79854172426E+03  0.00000000000E+00 0. -1.
         25    1    1    2    0    0  0.18202551349E+02  0.22614735612E+03 -0.64135925199E+02  0.26685647165E+03  0.12500000000E+03 0.  0.
         25    1    1    2    0    0 -0.18202551349E+02 -0.22614735612E+03 -0.60654705266E+03  0.65954399902E+03  0.12500000000E+03 0.  0.
</event>
<event>
 4    0  0.2244970E-002  0.1795117E+03  0.7546771E-02  0.1168276E+00
         21   -1    0    0  502  501  0.00000000000E+00  0.00000000000E+00  0.23419740396E+03  0.23419740396E+03  0.00000000000E+00 0. -1.
         21   -1    0    0  501  502 -0.00000000000E+00 -0.00000000000E+00 -0.13759519350E+03  0.13759519350E+03  0.00000000000E+00 0. -1.
         25    1    1    2    0    0 -0.66928350182E+01  0.87902930861E+02  0.14559874248E+03  0.21117697106E+03  0.12500000000E+03 0.  0.
         25    1    1    2    0    0  0.66928350182E+01 -0.87902930861E+02 -0.48996532014E+02  0.16061562640E+03  0.12500000000E+03 0.  0.
</event>
<event>
 4    0  0.2244970E-002  0.1876754E+03  0.7546771E-02  0.1160575E+00
         21   -1    0    0  502  501  0.00000000000E+00  0.00000000000E+00  0.61880194625E+02  0.61880194625E+02  0.00000000000E+00 0.  1.
         21   -1    0    0  501  502 -0.00000000000E+00 -0.00000000000E+00 -0.56919776960E+03  0.56919776960E+03  0.00000000000E+00 0.  1.
         25    1    1    2    0    0  0.11051100012E+03 -0.14604210116E+02 -0.39603538842E+03  0.42999417784E+03  0.12500000000E+03 0.  0.
         25    1    1    2    0    0 -0.11051100012E+03  0.14604210116E+02 -0.11128218655E+03  0.20108378638E+03  0.12500000000E+03 0.  0.
</event>
<event>
 4    0  0.2244970E-002  0.2252646E+03  0.7546771E-02  0.1130018E+00
         21   -1    0    0  502  501  0.00000000000E+00  0.00000000000E+00  0.84514905919E+03  0.84514905919E+03  0.00000000000E+00 0.  1.
         21   -1    0    0  501  502 -0.00000000000E+00 -0.00000000000E+00 -0.60041670624E+02  0.60041670624E+02  0.00000000000E+00 0.  1.
         25    1    1    2    0    0  0.43726110605E+02 -0.61584108988E+02  0.47967055682E+02  0.15372187112E+03  0.12500000000E+03 0.  0.
         25    1    1    2    0    0 -0.43726110605E+02  0.61584108988E+02  0.73714033289E+03  0.75146885870E+03  0.12500000000E+03 0.  0.
</event>
<event>
 4    0  0.2244970E-002  0.2226017E+03  0.7546771E-02  0.1131958E+00
         21   -1    0    0  502  501  0.00000000000E+00  0.00000000000E+00  0.34530200555E+03  0.34530200555E+03  0.00000000000E+00 0.  1.
         21   -1    0    0  501  502 -0.00000000000E+00 -0.00000000000E+00 -0.14350200262E+03  0.14350200262E+03  0.00000000000E+00 0.  1.
         25    1    1    2    0    0 -0.23714866874E+02  0.10558849406E+03 -0.62744488710E+02  0.17684229090E+03  0.12500000000E+03 0.  0.
         25    1    1    2    0    0  0.23714866874E+02 -0.10558849406E+03  0.26454449163E+03  0.31196171727E+03  0.12500000000E+03 0.  0.
</event>
<event>
 4    0  0.2244970E-002  0.3833016E+03  0.7546771E-02  0.1049720E+00
         21   -1    0    0  502  501  0.00000000000E+00  0.00000000000E+00  0.16496376341E+03  0.16496376341E+03  0.00000000000E+00 0.  1.
         21   -1    0    0  501  502 -0.00000000000E+00 -0.00000000000E+00 -0.89062052567E+03  0.89062052567E+03  0.00000000000E+00 0.  1.
         25    1    1    2    0    0 -0.28657308187E+03 -0.14975070373E+03 -0.13763825038E+03  0.37298618270E+03  0.12500000000E+03 0.  0.
         25    1    1    2    0    0  0.28657308187E+03  0.14975070373E+03 -0.58801851188E+03  0.68259810638E+03  0.12500000000E+03 0.  0.
</event>
<event>
 4    0  0.2244970E-002  0.1880775E+03  0.7546771E-02  0.1160207E+00
         21   -1    0    0  502  501  0.00000000000E+00  0.00000000000E+00  0.30200483004E+04  0.30200483004E+04  0.00000000000E+00 0.  1.
         21   -1    0    0  501  502 -0.00000000000E+00 -0.00000000000E+00 -0.11712773231E+02  0.11712773231E+02  0.00000000000E+00 0.  1.
         25    1    1    2    0    0 -0.46485522701E+02  0.10535920413E+03  0.85502646444E+03  0.87175496592E+03  0.12500000000E+03 0.  0.
         25    1    1    2    0    0  0.46485522701E+02 -0.10535920413E+03  0.21533090627E+04  0.21600061077E+04  0.12500000000E+03 0.  0.
</event>
<event>
 4    0  0.2244970E-002  0.1770205E+03  0.7546771E-02  0.1170718E+00
         21   -1    0    0  502  501  0.00000000000E+00  0.00000000000E+00  0.27919470647E+03  0.27919470647E+03  0.00000000000E+00 0.  1.
         21   -1    0    0  501  502 -0.00000000000E+00 -0.00000000000E+00 -0.11223799061E+03  0.11223799061E+03  0.00000000000E+00 0.  1.
         25    1    1    2    0    0  0.41727005513E+02 -0.11488133336E+03  0.52751253153E+02  0.18261040073E+03  0.12500000000E+03 0.  0.
         25    1    1    2    0    0 -0.41727005513E+02  0.11488133336E+03  0.11420546270E+03  0.20882229636E+03  0.12500000000E+03 0.  0.
</event>
<event>
 4    0  0.2244970E-002  0.2014546E+03  0.7546771E-02  0.1148518E+00
         21   -1    0    0  502  501  0.00000000000E+00  0.00000000000E+00  0.31469365724E+03  0.31469365724E+03  0.00000000000E+00 0.  1.
         21   -1    0    0  501  502 -0.00000000000E+00 -0.00000000000E+00 -0.12896339458E+03  0.12896339458E+03  0.00000000000E+00 0.  1.
         25    1    1    2    0    0 -0.39762718115E+02 -0.15064263159E+03  0.64052301001E+02  0.20976647365E+03  0.12500000000E+03 0.  0.
         25    1    1    2    0    0  0.39762718115E+02  0.15064263159E+03  0.12167796166E+03  0.23389057817E+03  0.12500000000E+03 0.  0.
</event>
<event>
 4    0  0.2244970E-002  0.2440895E+03  0.7546771E-02  0.1117098E+00
         21   -1    0    0  502  501  0.00000000000E+00  0.00000000000E+00  0.88613020596E+02  0.88613020596E+02  0.00000000000E+00 0.  1.
         21   -1    0    0  501  502 -0.00000000000E+00 -0.00000000000E+00 -0.67235828157E+03  0.67235828157E+03  0.00000000000E+00 0.  1.
         25    1    1    2    0    0  0.91694582669E+02  0.69282981611E+02 -0.18542078470E+02  0.17081228500E+03  0.12500000000E+03 0.  0.
         25    1    1    2    0    0 -0.91694582669E+02 -0.69282981611E+02 -0.56520318250E+03  0.59015901716E+03  0.12500000000E+03 0.  0.
</event>
<event>
 4    0  0.2244970E-002  0.2677800E+03  0.7546771E-02  0.1102557E+00
         21   -1    0    0  502  501  0.00000000000E+00  0.00000000000E+00  0.11192471274E+03  0.11192471274E+03  0.00000000000E+00 0. -1.
         21   -1    0    0  501  502 -0.00000000000E+00 -0.00000000000E+00 -0.64066371342E+03  0.64066371342E+03  0.00000000000E+00 0. -1.
         25    1    1    2    0    0 -0.23403540298E+03 -0.33464778672E+02 -0.28366994588E+03  0.38985394631E+03  0.12500000000E+03 0.  0.
         25    1    1    2    0    0  0.23403540298E+03  0.33464778672E+02 -0.24506905479E+03  0.36273447985E+03  0.12500000000E+03 0.  0.
</event>
<event>
 4    0  0.2244970E-002  0.1980541E+03  0.7546771E-02  0.1151391E+00
         21   -1    0    0  502  501  0.00000000000E+00  0.00000000000E+00  0.24353930306E+02  0.24353930306E+02  0.00000000000E+00 0.  1.
         21   -1    0    0  501  502 -0.00000000000E+00 -0.00000000000E+00 -0.16106401595E+04  0.16106401595E+04  0.00000000000E+00 0.  1.
         25    1    1    2    0    0 -0.40198658274E+02 -0.14474284770E+03 -0.66041545654E+03  0.68872345635E+03  0.12500000000E+03 0.  0.
         25    1    1    2    0    0  0.40198658274E+02  0.14474284770E+03 -0.92587077270E+03  0.94627063350E+03  0.12500000000E+03 0.  0.
</event>
<event>
 4    0  0.2244970E-002  0.2777657E+03  0.7546771E-02  0.1096916E+00
         21   -1    0    0  502  501  0.00000000000E+00  0.00000000000E+00  0.10760128651E+04  0.10760128651E+04  0.00000000000E+00 0.  1.
         21   -1    0    0  501  502 -0.00000000000E+00 -0.00000000000E+00 -0.71703380728E+02  0.71703380728E+02  0.00000000000E+00 0.  1.
         25    1    1    2    0    0 -0.19096853917E+03 -0.12566907676E+03  0.30327205455E+03  0.39982576065E+03  0.12500000000E+03 0.  0.
         25    1    1    2    0    0  0.19096853917E+03  0.12566907676E+03  0.70103742980E+03  0.74789048516E+03  0.12500000000E+03 0.  0.
</event>
<event>
 4    0  0.2244970E-002  0.2001492E+03  0.7546771E-02  0.1149613E+00
         21   -1    0    0  502  501  0.00000000000E+00  0.00000000000E+00  0.82589912123E+03  0.82589912123E+03  0.00000000000E+00 0. -1.
         21   -1    0    0  501  502 -0.00000000000E+00 -0.00000000000E+00 -0.48504344570E+02  0.48504344570E+02  0.00000000000E+00 0. -1.
         25    1    1    2    0    0 -0.14301545835E+03 -0.29272718984E+02  0.51079583157E+03  0.54575424409E+03  0.12500000000E+03 0.  0.
         25    1    1    2    0    0  0.14301545835E+03  0.29272718984E+02  0.26659894510E+03  0.32864922171E+03  0.12500000000E+03 0.  0.
</event>
<event>
 4    0  0.2244970E-002  0.2024167E+03  0.7546771E-02  0.1147716E+00
         21   -1    0    0  502  501  0.00000000000E+00  0.00000000000E+00  0.31655974995E+03  0.31655974995E+03  0.00000000000E+00 0. -1.
         21   -1    0    0  501  502 -0.00000000000E+00 -0.00000000000E+00 -0.12943058342E+03  0.12943058342E+03  0.00000000000E+00 0. -1.
         25    1    1    2    0    0 -0.10319770403E+03 -0.87110298806E+01 -0.39649620382E+02  0.16710098909E+03  0.12500000000E+03 0.  0.
         25    1    1    2    0    0  0.10319770403E+03  0.87110298806E+01  0.22677878692E+03  0.27888934428E+03  0.12500000000E+03 0.  0.
</event>
<event>
 4    0  0.2244970E-002  0.2030445E+03  0.7546771E-02  0.1147196E+00
         21   -1    0    0  502  501  0.00000000000E+00  0.00000000000E+00  0.81743576047E+03  0.81743576047E+03  0.00000000000E+00 0. -1.
         21   -1    0    0  501  502 -0.00000000000E+00 -0.00000000000E+00 -0.50434614366E+02  0.50434614366E+02  0.00000000000E+00 0. -1.
         25    1    1    2    0    0  0.11230820279E+03  0.69783438909E+02  0.57607128141E+03  0.60412414455E+03  0.12500000000E+03 0.  0.
         25    1    1    2    0    0 -0.11230820279E+03 -0.69783438909E+02  0.19092986470E+03  0.26374623029E+03  0.12500000000E+03 0.  0.
</event>
<event>
 4    0  0.2244970E-002  0.2862049E+03  0.7546771E-02  0.1092347E+00
         21   -1    0    0  502  501  0.00000000000E+00  0.00000000000E+00  0.86223475976E+03  0.86223475976E+03  0.00000000000E+00 0.  1.
         21   -1    0    0  501  502 -0.00000000000E+00 -0.00000000000E+00 -0.95001069744E+02  0.95001069744E+02  0.00000000000E+00 0.  1.
         25    1    1    2    0    0 -0.83681610712E+02  0.83781962173E+01 -0.23322179992E+02  0.15245238674E+03  0.12500000000E+03 0.  0.
         25    1    1    2    0    0  0.83681610712E+02 -0.83781962173E+01  0.79055587001E+03  0.80478344277E+03  0.12500000000E+03 0.  0.
</event>
<event>
 4    0  0.2244970E-002  0.1767044E+03  0.7546771E-02  0.1171031E+00
         21   -1    0    0  502  501  0.00000000000E+00  0.00000000000E+00  0.11397338597E+03  0.11397338597E+03  0.00000000000E+00 0.  1.
         21   -1    0    0  501  502 -0.00000000000E+00 -0.00000000000E+00 -0.27396254398E+03  0.27396254398E+03  0.00000000000E+00 0.  1.
         25    1    1    2    0    0 -0.59661957460E+02 -0.87391598088E+02 -0.71600671553E+01  0.16393018986E+03  0.12500000000E+03 0.  0.
         25    1    1    2    0    0  0.59661957460E+02  0.87391598088E+02 -0.15282909086E+03  0.22400574010E+03  0.12500000000E+03 0.  0.
</event>
<event>
 4    0  0.2244970E-002  0.1969192E+03  0.7546771E-02  0.1152365E+00
         21   -1    0    0  502  501  0.00000000000E+00  0.00000000000E+00  0.63860253537E+03  0.63860253537E+03  0.00000000000E+00 0. -1.
         21   -1    0    0  501  502 -0.00000000000E+00 -0.00000000000E+00 -0.60721900541E+02  0.60721900541E+02  0.00000000000E+00 0.  1.
         25    1    1    2    0    0  0.12954368012E+03  0.78922339067E+02  0.31008928248E+03  0.36713848037E+03  0.12500000000E+03 0.  0.
         25    1    1    2    0    0 -0.12954368012E+03 -0.78922339067E+02  0.26779135235E+03  0.33218595554E+03  0.12500000000E+03 0.  0.
</event>
<event>
 4    0  0.2244970E-002  0.1588002E+03  0.7546771E-02  0.1190058E+00
         21   -1    0    0  502  501  0.00000000000E+00  0.00000000000E+00  0.13396801114E+03  0.13396801114E+03  0.00000000000E+00 0. -1.
         21   -1    0    0  501  502 -0.00000000000E+00 -0.00000000000E+00 -0.18823532590E+03  0.18823532590E+03  0.00000000000E+00 0. -1.
         25    1    1    2    0    0  0.61156041095E+02 -0.74576337048E+02 -0.98330372132E+01  0.15818779988E+03  0.12500000000E+03 0.  0.
         25    1    1    2    0    0 -0.61156041095E+02  0.74576337048E+02 -0.44434277539E+02  0.16401553716E+03  0.12500000000E+03 0.  0.
</event>
<event>
 4    0  0.2244970E-002  0.1551233E+03  0.7546771E-02  0.1194315E+00
         21   -1    0    0  502  501  0.00000000000E+00  0.00000000000E+00  0.89066407624E+03  0.89066407624E+03  0.00000000000E+00 0.  1.
         21   -1    0    0  501  502 -0.00000000000E+00 -0.00000000000E+00 -0.27017190180E+02  0.27017190180E+02  0.00000000000E+00 0.  1.
         25    1    1    2    0    0 -0.46731822840E+02 -0.77118055235E+02  0.37998124354E+03  0.41005097629E+03  0.12500000000E+03 0.  0.
         25    1    1    2    0    0  0.46731822840E+02  0.77118055235E+02  0.48366564252E+03  0.50763029013E+03  0.12500000000E+03 0.  0.
</event>
<event>
 4    0  0.2244970E-002  0.2085003E+03  0.7546771E-02  0.1142759E+00
         21   -1    0    0  502  501  0.00000000000E+00  0.00000000000E+00  0.56304358450E+02  0.56304358450E+02  0.00000000000E+00 0.  1.
         21   -1    0    0  501  502 -0.00000000000E+00 -0.00000000000E+00 -0.77209629990E+03  0.77209629990E+03  0.00000000000E+00 0.  1.
         25    1    1    2    0    0  0.14226965363E+03 -0.78985781810E+02 -0.28442033149E+03  0.35071260747E+03  0.12500000000E+03 0.  0.
         25    1    1    2    0    0 -0.14226965363E+03  0.78985781810E+02 -0.43137160995E+03  0.47768805087E+03  0.12500000000E+03 0.  0.
</event>
<event>
 4    0  0.2244970E-002  0.2575682E+03  0.7546771E-02  0.1108613E+00
         21   -1    0    0  502  501  0.00000000000E+00  0.00000000000E+00  0.13528640051E+04  0.13528640051E+04  0.00000000000E+00 0. -1.
         21   -1    0    0  501  502 -0.00000000000E+00 -0.00000000000E+00 -0.49037728245E+02  0.49037728245E+02  0.00000000000E+00 0. -1.
         25    1    1    2    0    0 -0.16166083010E+03 -0.72814252160E+02  0.27403520501E+03  0.34950884523E+03  0.12500000000E+03 0.  0.
         25    1    1    2    0    0  0.16166083010E+03  0.72814252160E+02  0.10297910718E+04  0.10523928881E+04  0.12500000000E+03 0.  0.
</event>
<event>
 4    0  0.2244970E-002  0.3672294E+03  0.7546771E-02  0.1055757E+00
         21   -1    0    0  502  501  0.00000000000E+00  0.00000000000E+00  0.50717654862E+03  0.50717654862E+03  0.00000000000E+00 0. -1.
         21   -1    0    0  501  502 -0.00000000000E+00 -0.00000000000E+00 -0.26589836421E+03  0.26589836421E+03  0.00000000000E+00 0. -1.
         25    1    1    2    0    0  0.20310851830E+03  0.27497406726E+03  0.17186629628E+03  0.40252556648E+03  0.12500000000E+03 0.  0.
         25    1    1    2    0    0 -0.20310851830E+03 -0.27497406726E+03  0.69411888132E+02  0.37054934636E+03  0.12500000000E+03 0.  0.
</event>
<event>
 4    0  0.2244970E-002  0.5357683E+03  0.7546771E-02  0.1004843E+00
         21   -1    0    0  502  501  0.00000000000E+00  0.00000000000E+00  0.12221410361E+03  0.12221410361E+03  0.00000000000E+00 0. -1.
         21   -1    0    0  501  502 -0.00000000000E+00 -0.00000000000E+00 -0.23487275806E+04  0.23487275806E+04  0.00000000000E+00 0.  1.
         25    1    1    2    0    0 -0.30800094674E+03 -0.36401817353E+03 -0.15972314420E+04  0.16715702478E+04  0.12500000000E+03 0.  0.
         25    1    1    2    0    0  0.30800094674E+03  0.36401817353E+03 -0.62928203496E+03  0.79937143643E+03  0.12500000000E+03 0.  0.
</event>
<event>
 4    0  0.2244970E-002  0.4082080E+03  0.7546771E-02  0.1040974E+00
         21   -1    0    0  502  501  0.00000000000E+00  0.00000000000E+00  0.38037078912E+03  0.38037078912E+03  0.00000000000E+00 0.  1.
         21   -1    0    0  501  502 -0.00000000000E+00 -0.00000000000E+00 -0.43808241778E+03  0.43808241778E+03  0.00000000000E+00 0.  1.
         25    1    1    2    0    0  0.19139930212E+03  0.26565695238E+03  0.18095438257E+03  0.39443224738E+03  0.12500000000E+03 0.  0.
         25    1    1    2    0    0 -0.19139930212E+03 -0.26565695238E+03 -0.23866601123E+03  0.42402095952E+03  0.12500000000E+03 0.  0.
</event>
<event>
 4    0  0.2244970E-002  0.3421205E+03  0.7546771E-02  0.1065896E+00
         21   -1    0    0  502  501  0.00000000000E+00  0.00000000000E+00  0.68375706396E+02  0.68375706396E+02  0.00000000000E+00 0. -1.
         21   -1    0    0  501  502 -0.00000000000E+00 -0.00000000000E+00 -0.17118129667E+04  0.17118129667E+04  0.00000000000E+00 0. -1.
         25    1    1    2    0    0 -0.19443345436E+03  0.23921638972E+03 -0.10297336846E+04  0.10821299878E+04  0.12500000000E+03 0.  0.
         25    1    1    2    0    0  0.19443345436E+03 -0.23921638972E+03 -0.61370357564E+03  0.69805868524E+03  0.12500000000E+03 0.  0.
</event>
<event>
 4    0  0.2244970E-002  0.3407354E+03  0.7546771E-02  0.1066483E+00
         21   -1    0    0  502  501  0.00000000000E+00  0.00000000000E+00  0.48706941038E+03  0.48706941038E+03  0.00000000000E+00 0.  1.
         21   -1    0    0  501  502 -0.00000000000E+00 -0.00000000000E+00 -0.23836562484E+03  0.23836562484E+03  0.00000000000E+00 0.  1.
         25    1    1    2    0    0 -0.19162771206E+03  0.37126018303E+02  0.39021638595E+03  0.45386490185E+03  0.12500000000E+03 0.  0.
         25    1    1    2    0    0  0.19162771206E+03 -0.37126018303E+02 -0.14151260042E+03  0.27157013337E+03  0.12500000000E+03 0.  0.
</event>
<event>
 4    0  0.2244970E-002  0.2212715E+03  0.7546771E-02  0.1132939E+00
         21   -1    0    0  502  501  0.00000000000E+00  0.00000000000E+00  0.29137382439E+03  0.29137382439E+03  0.00000000000E+00 0.  1.
         21   -1    0    0  501  502 -0.00000000000E+00 -0.00000000000E+00 -0.16803526285E+03  0.16803526285E+03  0.00000000000E+00 0.  1.
         25    1    1    2    0    0  0.13105926098E+02  0.11823306743E+03  0.20545901345E+03  0.26830808736E+03  0.12500000000E+03 0.  0.
         25    1    1    2    0    0 -0.13105926098E+02 -0.11823306743E+03 -0.82120451907E+02  0.19110099988E+03  0.12500000000E+03 0.  0.
</event>
<event>
 4    0  0.2244970E-002  0.2404525E+03  0.7546771E-02  0.1119492E+00
         21   -1    0    0  502  501  0.00000000000E+00  0.00000000000E+00  0.36498771979E+03  0.36498771979E+03  0.00000000000E+00 0. -1.
         21   -1    0    0  501  502 -0.00000000000E+00 -0.00000000000E+00 -0.15840923470E+03  0.15840923470E+03  0.00000000000E+00 0. -1.
         25    1    1    2    0    0 -0.12147788972E+03 -0.29506775936E+02 -0.74099435200E+02  0.19168529890E+03  0.12500000000E+03 0.  0.
         25    1    1    2    0    0  0.12147788972E+03  0.29506775936E+02  0.28067792029E+03  0.33171165560E+03  0.12500000000E+03 0.  0.
</event>
<event>
 4    0  0.2244970E-002  0.1802657E+03  0.7546771E-02  0.1167546E+00
         21   -1    0    0  502  501  0.00000000000E+00  0.00000000000E+00  0.77847127183E+03  0.77847127183E+03  0.00000000000E+00 0. -1.
         21   -1    0    0  501  502 -0.00000000000E+00 -0.00000000000E+00 -0.41742974052E+02  0.41742974052E+02  0.00000000000E+00 0. -1.
         25    1    1    2    0    0  0.97119677763E+02  0.67066214559E+02  0.24499627229E+03  0.29929631200E+03  0.12500000000E+03 0.  0.
         25    1    1    2    0    0 -0.97119677763E+02 -0.67066214559E+02  0.49173202548E+03  0.52091793387E+03  0.12500000000E+03 0.  0.
</event>
<event>
 4    0  0.2244970E-002  0.1562727E+03  0.7546771E-02  0.1192970E+00
         21   -1    0    0  502  501  0.00000000000E+00  0.00000000000E+00  0.47427732130E+02  0.47427732130E+02  0.00000000000E+00 0.  1.
         21   -1    0    0  501  502 -0.00000000000E+00 -0.00000000000E+00 -0.51491308750E+03  0.51491308750E+03  0.00000000000E+00 0.  1.
         25    1    1    2    0    0  0.17781504996E+02 -0.82603523910E+02 -0.30697452743E+03  0.34204953526E+03  0.12500000000E+03 0.  0.
         25    1    1    2    0    0 -0.17781504996E+02  0.82603523910E+02 -0.16051082794E+03  0.22029128437E+03  0.12500000000E+03 0.  0.
</event>
<event>
 4    0  0.2244970E-002  0.1511273E+03  0.7546771E-02  0.1199095E+00
         21   -1    0    0  502  501  0.00000000000E+00  0.00000000000E+00  0.24777093417E+02  0.24777093417E+02  0.00000000000E+00 0.  1.
         21   -1    0    0  501  502 -0.00000000000E+00 -0.00000000000E+00 -0.92179682533E+03  0.92179682533E+03  0.00000000000E+00 0.  1.
         25    1    1    2    0    0 -0.76879961014E+02  0.33487929594E+02 -0.40620552912E+03  0.43319730115E+03  0.12500000000E+03 0.  0.
         25    1    1    2    0    0  0.76879961014E+02 -0.33487929594E+02 -0.49081420279E+03  0.51337661760E+03  0.12500000000E+03 0.  0.
</event>
<event>
 4    0  0.2244970E-002  0.2150480E+03  0.7546771E-02  0.1137630E+00
         21   -1    0    0  502  501  0.00000000000E+00  0.00000000000E+00  0.34141537982E+03  0.34141537982E+03  0.00000000000E+00 0.  1.
         21   -1    0    0  501  502 -0.00000000000E+00 -0.00000000000E+00 -0.13545272325E+03  0.13545272325E+03  0.00000000000E+00 0.  1.
         25    1    1    2    0    0  0.18358365869E+02  0.14659260059E+03  0.20695696773E+03  0.28334185472E+03  0.12500000000E+03 0.  0.
         25    1    1    2    0    0 -0.18358365869E+02 -0.14659260059E+03 -0.99431115765E+00  0.19352624835E+03  0.12500000000E+03 0.  0.
</event>
<event>
 4    0  0.2244970E-002  0.2771986E+03  0.7546771E-02  0.1097229E+00
         21   -1    0    0  502  501  0.00000000000E+00  0.00000000000E+00  0.34072988915E+03  0.34072988915E+03  0.00000000000E+00 0. -1.
         21   -1    0    0  501  502 -0.00000000000E+00 -0.00000000000E+00 -0.22551318728E+03  0.22551318728E+03  0.00000000000E+00 0. -1.
         25    1    1    2    0    0  0.13644811745E+03 -0.20129239795E+03  0.10416033919E+03  0.29259373625E+03  0.12500000000E+03 0.  0.
         25    1    1    2    0    0 -0.13644811745E+03  0.20129239795E+03  0.11056362678E+02  0.27364934019E+03  0.12500000000E+03 0.  0.
</event>
<event>
 4    0  0.2244970E-002  0.2185612E+03  0.7546771E-02  0.1134960E+00
         21   -1    0    0  502  501  0.00000000000E+00  0.00000000000E+00  0.37930361248E+03  0.37930361248E+03  0.00000000000E+00 0. -1.
         21   -1    0    0  501  502 -0.00000000000E+00 -0.00000000000E+00 -0.12593872332E+03  0.12593872332E+03  0.00000000000E+00 0. -1.
         25    1    1    2    0    0 -0.10735972255E+03  0.53344614254E+02 -0.27405219549E+02  0.17535051740E+03  0.12500000000E+03 0.  0.
         25    1    1    2    0    0  0.10735972255E+03 -0.53344614254E+02  0.28077010871E+03  0.32989181839E+03  0.12500000000E+03 0.  0.
</event>
<event>
 4    0  0.2244970E-002  0.2563327E+03  0.7546771E-02  0.1109367E+00
         21   -1    0    0  502  501  0.00000000000E+00  0.00000000000E+00  0.10975540008E+03  0.10975540008E+03  0.00000000000E+00 0. -1.
         21   -1    0    0  501  502 -0.00000000000E+00 -0.00000000000E+00 -0.59866262894E+03  0.59866262894E+03  0.00000000000E+00 0. -1.
         25    1    1    2    0    0  0.12229551605E+03 -0.13882405905E+01 -0.50342600473E+03  0.53293607750E+03  0.12500000000E+03 0.  0.
         25    1    1    2    0    0 -0.12229551605E+03  0.13882405905E+01  0.14518775866E+02  0.17548195152E+03  0.12500000000E+03 0.  0.
</event>
<event>
 4    0  0.2244970E-002  0.2473349E+03  0.7546771E-02  0.1115001E+00
         21   -1    0    0  502  501  0.00000000000E+00  0.00000000000E+00  0.29382690720E+03  0.29382690720E+03  0.00000000000E+00 0. -1.
         21   -1    0    0  501  502 -0.00000000000E+00 -0.00000000000E+00 -0.20819932228E+03  0.20819932228E+03  0.00000000000E+00 0. -1.
         25    1    1    2    0    0 -0.18914206061E+03 -0.94078894949E+02  0.11964285670E+02  0.24575130050E+03  0.12500000000E+03 0.  0.
         25    1    1    2    0    0  0.18914206061E+03  0.94078894949E+02  0.73663299255E+02  0.25627492898E+03  0.12500000000E+03 0.  0.
</event>
<event>
 4    0  0.2244970E-002  0.1568204E+03  0.7546771E-02  0.1192334E+00
         21   -1    0    0  502  501  0.00000000000E+00  0.00000000000E+00  0.34171949229E+02  0.34171949229E+02  0.00000000000E+00 0.  1.
         21   -1    0    0  501  502 -0.00000000000E+00 -0.00000000000E+00 -0.71967347814E+03  0.71967347814E+03  0.00000000000E+00 0.  1.
         25    1    1    2    0    0  0.26045730680E+02  0.79128592057E+02 -0.23451362335E+03  0.27849839084E+03  0.12500000000E+03 0.  0.
         25    1    1    2    0    0 -0.26045730680E+02 -0.79128592057E+02 -0.45098790557E+03  0.47534703653E+03  0.12500000000E+03 0.  0.
</event>
<event>
 4    0  0.2244970E-002  0.3078683E+03  0.7546771E-02  0.1081372E+00
         21   -1    0    0  502  501  0.00000000000E+00  0.00000000000E+00  0.36144075583E+03  0.36144075583E+03  0.00000000000E+00 0.  1.
         21   -1    0    0  501  502 -0.00000000000E+00 -0.00000000000E+00 -0.26223625069E+03  0.26223625069E+03  0.00000000000E+00 0.  1.
         25    1    1    2    0    0  0.11436623388E+03  0.16646858943E+03  0.24800175354E+03  0.34339670423E+03  0.12500000000E+03 0.  0.
         25    1    1    2    0    0 -0.11436623388E+03 -0.16646858943E+03 -0.14879724840E+03  0.28028030229E+03  0.12500000000E+03 0.  0.
</event>
<event>
 4    0  0.2244970E-002  0.2110647E+03  0.7546771E-02  0.1140726E+00
         21   -1    0    0  502  501  0.00000000000E+00  0.00000000000E+00  0.12919042321E+03  0.12919042321E+03  0.00000000000E+00 0.  1.
         21   -1    0    0  501  502 -0.00000000000E+00 -0.00000000000E+00 -0.34482671819E+03  0.34482671819E+03  0.00000000000E+00 0.  1.
         25    1    1    2    0    0  0.74178520519E+02  0.15127025528E+03 -0.13386809276E+03  0.24885901490E+03  0.12500000000E+03 0.  0.
         25    1    1    2    0    0 -0.74178520519E+02 -0.15127025528E+03 -0.81768202227E+02  0.22515812651E+03  0.12500000000E+03 0.  0.
</event>
<event>
 4    0  0.2244970E-002  0.1713290E+03  0.7546771E-02  0.1176469E+00
         21   -1    0    0  502  501  0.00000000000E+00  0.00000000000E+00  0.27354812108E+03  0.27354812108E+03  0.00000000000E+00 0. -1.
         21   -1    0    0  501  502 -0.00000000000E+00 -0.00000000000E+00 -0.10730693072E+03  0.10730693072E+03  0.00000000000E+00 0. -1.
         25    1    1    2    0    0 -0.72454614787E+02  0.27311431767E+02 -0.14619699249E+02  0.14776441085E+03  0.12500000000E+03 0.  0.
         25    1    1    2    0    0  0.72454614787E+02 -0.27311431767E+02  0.18086088961E+03  0.23309064095E+03  0.12500000000E+03 0.  0.
</event>
<event>
 4    0  0.2244970E-002  0.2113661E+03  0.7546771E-02  0.1140489E+00
         21   -1    0    0  502  501  0.00000000000E+00  0.00000000000E+00  0.12085403218E+04  0.12085403218E+04  0.00000000000E+00 0.  1.
         21   -1    0    0  501  502 -0.00000000000E+00 -0.00000000000E+00 -0.36966601532E+02  0.36966601532E+02  0.00000000000E+00 0.  1.
         25    1    1    2    0    0 -0.46594256649E+02  0.74250303615E+02  0.10164596854E+04  0.10278615785E+04  0.12500000000E+03 0.  0.
         25    1    1    2    0    0  0.46594256649E+02 -0.74250303615E+02  0.15511403478E+03  0.21764534483E+03  0.12500000000E+03 0.  0.
</event>
<event>
 4    0  0.2244970E-002  0.1535776E+03  0.7546771E-02  0.1196145E+00
         21   -1    0    0  502  501  0.00000000000E+00  0.00000000000E+00  0.34458831740E+03  0.34458831740E+03  0.00000000000E+00 0. -1.
         21   -1    0    0  501  502 -0.00000000000E+00 -0.00000000000E+00 -0.68447127179E+02  0.68447127179E+02  0.00000000000E+00 0. -1.
         25    1    1    2    0    0  0.81641782285E+02 -0.35974157643E+02  0.13975000722E+03  0.20764051905E+03  0.12500000000E+03 0.  0.
         25    1    1    2    0    0 -0.81641782285E+02  0.35974157643E+02  0.13639118300E+03  0.20539492553E+03  0.12500000000E+03 0.  0.
</event>
<event>
 4    0  0.2244970E-002  0.1890904E+03  0.7546771E-02  0.1159284E+00
         21   -1    0    0  502  501  0.00000000000E+00  0.00000000000E+00  0.13605966021E+04  0.13605966021E+04  0.00000000000E+00 0.  1.
         21   -1    0    0  501  502 -0.00000000000E+00 -0.00000000000E+00 -0.26279037261E+02  0.26279037261E+02  0.00000000000E+00 0.  1.
         25    1    1    2    0    0  0.10109823121E+03  0.54691500092E+02  0.97218227648E+03  0.98690191571E+03  0.12500000000E+03 0.  0.
         25    1    1    2    0    0 -0.10109823121E+03 -0.54691500092E+02  0.36213528839E+03  0.39997372368E+03  0.12500000000E+03 0.  0.
</event>
<event>
 4    0  0.2244970E-002  0.3002960E+03  0.7546771E-02  0.1085093E+00
         21   -1    0    0  502  501  0.00000000000E+00  0.00000000000E+00  0.38072699302E+03  0.38072699302E+03  0.00000000000E+00 0.  1.
         21   -1    0    0  501  502 -0.00000000000E+00 -0.00000000000E+00 -0.23685654784E+03  0.23685654784E+03  0.00000000000E+00 0.  1.
         25    1    1    2    0    0 -0.22085380589E+03 -0.15497004717E+03  0.28789090905E+02  0.29874057450E+03  0.12500000000E+03 0.  0.
         25    1    1    2    0    0  0.22085380589E+03  0.15497004717E+03  0.11508135428E+03  0.31884296636E+03  0.12500000000E+03 0.  0.
</event>
<event>
 4    0  0.2244970E-002  0.2307286E+03  0.7546771E-02  0.1126128E+00
         21   -1    0    0  502  501  0.00000000000E+00  0.00000000000E+00  0.53103487008E+02  0.53103487008E+02  0.00000000000E+00 0. -1.
         21   -1    0    0  501  502 -0.00000000000E+00 -0.00000000000E+00 -0.10024890556E+04  0.10024890556E+04  0.00000000000E+00 0. -1.
         25    1    1    2    0    0 -0.52028679654E+02 -0.93619252259E+02 -0.84452984699E+03  0.86042269284E+03  0.12500000000E+03 0.  0.
         25    1    1    2    0    0  0.52028679654E+02  0.93619252259E+02 -0.10485572158E+03  0.19516984974E+03  0.12500000000E+03 0.  0.
</event>
<event>
 4    0  0.2244970E-002  0.5411496E+03  0.7546771E-02  0.1003563E+00
         21   -1    0    0  502  501  0.00000000000E+00  0.00000000000E+00  0.72740687451E+03  0.72740687451E+03  0.00000000000E+00 0.  1.
         21   -1    0    0  501  502 -0.00000000000E+00 -0.00000000000E+00 -0.40258476764E+03  0.40258476764E+03  0.00000000000E+00 0.  1.
         25    1    1    2    0    0 -0.12211623658E+03 -0.43148836646E+03  0.45047359544E+03  0.64780093070E+03  0.12500000000E+03 0.  0.
         25    1    1    2    0    0  0.12211623658E+03  0.43148836646E+03 -0.12565148857E+03  0.48219071145E+03  0.12500000000E+03 0.  0.
</event>
<event>
 4    0  0.2244970E-002  0.4683756E+03  0.7546771E-02  0.1022380E+00
         21   -1    0    0  502  501  0.00000000000E+00  0.00000000000E+00  0.11053766366E+04  0.11053766366E+04  0.00000000000E+00 0.  1.
         21   -1    0    0  501  502 -0.00000000000E+00 -0.00000000000E+00 -0.19846240250E+03  0.19846240250E+03  0.00000000000E+00 0.  1.
         25    1    1    2    0    0 -0.41735632883E+03  0.75692451843E+02  0.23857129604E+03  0.50245090882E+03  0.12500000000E+03 0.  0.
         25    1    1    2    0    0  0.41735632883E+03 -0.75692451843E+02  0.66834293801E+03  0.80138813023E+03  0.12500000000E+03 0.  0.
</event>
<event>
 4    0  0.2244970E-002  0.1925238E+03  0.7546771E-02  0.1156205E+00
         21   -1    0    0  502  501  0.00000000000E+00  0.00000000000E+00  0.25306593279E+02  0.25306593279E+02  0.00000000000E+00 0.  1.
         21   -1    0    0  501  502 -0.00000000000E+00 -0.00000000000E+00 -0.14646548843E+04  0.14646548843E+04  0.00000000000E+00 0.  1.
         25    1    1    2    0    0  0.10486357481E+03  0.79952691846E+02 -0.47336809865E+03  0.50704157529E+03  0.12500000000E+03 0.  0.
         25    1    1    2    0    0 -0.10486357481E+03 -0.79952691846E+02 -0.96598019234E+03  0.98291990226E+03  0.12500000000E+03 0.  0.
</event>
<event>
 4    0  0.2244970E-002  0.2250124E+03  0.7546771E-02  0.1130200E+00
         21   -1    0    0  502  501  0.00000000000E+00  0.00000000000E+00  0.17381865830E+03  0.17381865830E+03  0.00000000000E+00 0.  1.
         21   -1    0    0  501  502 -0.00000000000E+00 -0.00000000000E+00 -0.29128403328E+03  0.29128403328E+03  0.00000000000E+00 0.  1.
         25    1    1    2    0    0  0.34473612617E+02  0.93995999770E+02  0.10461960886E+03  0.19129542728E+03  0.12500000000E+03 0.  0.
         25    1    1    2    0    0 -0.34473612617E+02 -0.93995999770E+02 -0.22208498384E+03  0.27380726430E+03  0.12500000000E+03 0.  0.
</event>
<event>
 4    0  0.2244970E-002  0.1904904E+03  0.7546771E-02  0.1158020E+00
         21   -1    0    0  502  501  0.00000000000E+00  0.00000000000E+00  0.28326396635E+03  0.28326396635E+03  0.00000000000E+00 0.  1.
         21   -1    0    0  501  502 -0.00000000000E+00 -0.00000000000E+00 -0.12810175244E+03  0.12810175244E+03  0.00000000000E+00 0.  1.
         25    1    1    2    0    0 -0.47795794470E+02 -0.15113498912E+02 -0.67880477815E+02  0.15081649474E+03  0.12500000000E+03 0.  0.
         25    1    1    2    0    0  0.47795794470E+02  0.15113498912E+02  0.22304269173E+03  0.26054922405E+03  0.12500000000E+03 0.  0.
</event>
<event>
 4    0  0.2244970E-002  0.2263619E+03  0.7546771E-02  0.1129227E+00
         21   -1    0    0  502  501  0.00000000000E+00  0.00000000000E+00  0.66818783372E+02  0.66818783372E+02  0.00000000000E+00 0.  1.
         21   -1    0    0  501  502 -0.00000000000E+00 -0.00000000000E+00 -0.76684597938E+03  0.76684597938E+03  0.00000000000E+00 0.  1.
         25    1    1    2    0    0 -0.14182750202E+03 -0.31850973120E+02 -0.12838785652E+03  0.23073354009E+03  0.12500000000E+03 0.  0.
         25    1    1    2    0    0  0.14182750202E+03  0.31850973120E+02 -0.57163933949E+03  0.60293122267E+03  0.12500000000E+03 0.  0.
</event>
<event>
 4    0  0.2244970E-002  0.1833263E+03  0.7546771E-02  0.1164622E+00
         21   -1    0    0  502  501  0.00000000000E+00  0.00000000000E+00  0.15615401285E+03  0.15615401285E+03  0.00000000000E+00 0. -1.
         21   -1    0    0  501  502 -0.00000000000E+00 -0.00000000000E+00 -0.21522692905E+03  0.21522692905E+03  0.00000000000E+00 0. -1.
         25    1    1    2    0    0 -0.48532696831E+02  0.11695191206E+03 -0.74269037167E+02  0.19280576308E+03  0.12500000000E+03 0.  0.
         25    1    1    2    0    0  0.48532696831E+02 -0.11695191206E+03  0.15196120972E+02  0.17857517882E+03  0.12500000000E+03 0.  0.
</event>
<event>
 4    0  0.2244970E-002  0.1814353E+03  0.7546771E-02  0.1166421E+00
         21   -1    0    0  502  501  0.00000000000E+00  0.00000000000E+00  0.22876613626E+04  0.22876613626E+04  0.00000000000E+00 0. -1.
         21   -1    0    0  501  502 -0.00000000000E+00 -0.00000000000E+00 -0.14389696098E+02  0.14389696098E+02  0.00000000000E+00 0. -1.
         25    1    1    2    0    0 -0.11654157247E+03 -0.18708425538E+02  0.15044680471E+04  0.15142592407E+04  0.12500000000E+03 0.  0.
         25    1    1    2    0    0  0.11654157247E+03  0.18708425538E+02  0.76880361943E+03  0.78779181802E+03  0.12500000000E+03 0.  0.
</event>
<event>
 4    0  0.2244970E-002  0.2986660E+03  0.7546771E-02  0.1085909E+00
         21   -1    0    0  502  501  0.00000000000E+00  0.00000000000E+00  0.84848056025E+02  0.84848056025E+02  0.00000000000E+00 0. -1.
         21   -1    0    0  501  502 -0.00000000000E+00 -0.00000000000E+00 -0.10513074064E+04  0.10513074064E+04  0.00000000000E+00 0. -1.
         25    1    1    2    0    0 -0.53163564575E+01 -0.60382016015E+02 -0.98611294220E+03  0.99585038348E+03  0.12500000000E+03 0.  0.
         25    1    1    2    0    0  0.53163564575E+01  0.60382016015E+02  0.19653591832E+02  0.14030507894E+03  0.12500000000E+03 0.  0.
</event>
<event>
 4    0  0.2244970E-002  0.1670978E+03  0.7546771E-02  0.1180909E+00
         21   -1    0    0  502  501  0.00000000000E+00  0.00000000000E+00  0.22208979834E+02  0.22208979834E+02  0.00000000000E+00 0. -1.
         21   -1    0    0  501  502 -0.00000000000E+00 -0.00000000000E+00 -0.12572247461E+04  0.12572247461E+04  0.00000000000E+00 0. -1.
         25    1    1    2    0    0 -0.67308845291E+02 -0.79966719160E+02 -0.75928902033E+03  0.77657580005E+03  0.12500000000E+03 0.  0.
         25    1    1    2    0    0  0.67308845291E+02  0.79966719160E+02 -0.47572674596E+03  0.50285792591E+03  0.12500000000E+03 0.  0.
</event>
<event>
 4    0  0.2244970E-002  0.2411535E+03  0.7546771E-02  0.1119027E+00
         21   -1    0    0  502  501  0.00000000000E+00  0.00000000000E+00  0.31584604527E+03  0.31584604527E+03  0.00000000000E+00 0. -1.
         21   -1    0    0  501  502 -0.00000000000E+00 -0.00000000000E+00 -0.18412460238E+03  0.18412460238E+03  0.00000000000E+00 0. -1.
         25    1    1    2    0    0  0.61954552185E+02  0.19356503384E+03  0.29590189866E+02  0.24042954935E+03  0.12500000000E+03 0.  0.
         25    1    1    2    0    0 -0.61954552185E+02 -0.19356503384E+03  0.10213125302E+03  0.25954109830E+03  0.12500000000E+03 0.  0.
</event>
<event>
 4    0  0.2244970E-002  0.1780436E+03  0.7546771E-02  0.1169710E+00
         21   -1    0    0  502  501  0.00000000000E+00  0.00000000000E+00  0.94879865296E+02  0.94879865296E+02  0.00000000000E+00 0. -1.
         21   -1    0    0  501  502 -0.00000000000E+00 -0.00000000000E+00 -0.33410177395E+03  0.33410177395E+03  0.00000000000E+00 0. -1.
         25    1    1    2    0    0 -0.22801630266E+02 -0.69442038779E+02 -0.24441570659E+03  0.28408827628E+03  0.12500000000E+03 0.  0.
         25    1    1    2    0    0  0.22801630266E+02  0.69442038779E+02  0.51937979410E+01  0.14489336296E+03  0.12500000000E+03 0.  0.
</event>
<event>
 4    0  0.2244970E-002  0.1857332E+03  0.7546771E-02  0.1162367E+00
         21   -1    0    0  502  501  0.00000000000E+00  0.00000000000E+00  0.39115512854E+03  0.39115512854E+03  0.00000000000E+00 0.  1.
         21   -1    0    0  501  502 -0.00000000000E+00 -0.00000000000E+00 -0.88192149624E+02  0.88192149624E+02  0.00000000000E+00 0.  1.
         25    1    1    2    0    0 -0.10126365221E+03  0.34198291815E+02  0.26284668764E+03  0.31006004519E+03  0.12500000000E+03 0.  0.
         25    1    1    2    0    0  0.10126365221E+03 -0.34198291815E+02  0.40116291276E+02  0.16928723297E+03  0.12500000000E+03 0.  0.
</event>
<event>
 4    0  0.2244970E-002  0.2567854E+03  0.7546771E-02  0.1109090E+00
         21   -1    0    0  502  501  0.00000000000E+00  0.00000000000E+00  0.99045678618E+02  0.99045678618E+02  0.00000000000E+00 0. -1.
         21   -1    0    0  501  502 -0.00000000000E+00 -0.00000000000E+00 -0.66574097680E+03  0.66574097680E+03  0.00000000000E+00 0. -1.
         25    1    1    2    0    0  0.79534100942E+02 -0.11736933906E+03 -0.54218887980E+03  0.57419074909E+03  0.12500000000E+03 0.  0.
         25    1    1    2    0    0 -0.79534100942E+02  0.11736933906E+03 -0.24506418379E+02  0.19059590632E+03  0.12500000000E+03 0.  0.
</event>
<event>
 4    0  0.2244970E-002  0.2012298E+03  0.7546771E-02  0.1148706E+00
         21   -1    0    0  502  501  0.00000000000E+00  0.00000000000E+00  0.13507756294E+03  0.13507756294E+03  0.00000000000E+00 0.  1.
         21   -1    0    0  501  502 -0.00000000000E+00 -0.00000000000E+00 -0.29977925106E+03  0.29977925106E+03  0.00000000000E+00 0.  1.
         25    1    1    2    0    0 -0.14686363835E+03 -0.38715328216E+02 -0.36500982360E+02  0.20006280669E+03  0.12500000000E+03 0.  0.
         25    1    1    2    0    0  0.14686363835E+03  0.38715328216E+02 -0.12820070576E+03  0.23479400730E+03  0.12500000000E+03 0.  0.
</event>
<event>
 4    0  0.2244970E-002  0.1927094E+03  0.7546771E-02  0.1156040E+00
         21   -1    0    0  502  501  0.00000000000E+00  0.00000000000E+00  0.13010265487E+03  0.13010265487E+03  0.00000000000E+00 0. -1.
         21   -1    0    0  501  502 -0.00000000000E+00 -0.00000000000E+00 -0.28544315087E+03  0.28544315087E+03  0.00000000000E+00 0. -1.
         25    1    1    2    0    0  0.58558715204E+02  0.83577287603E+02 -0.19125003489E+03  0.25023161666E+03  0.12500000000E+03 0.  0.
         25    1    1    2    0    0 -0.58558715204E+02 -0.83577287603E+02  0.35909538884E+02  0.16531418908E+03  0.12500000000E+03 0.  0.
</event>
<event>
 4    0  0.2244970E-002  0.2334212E+03  0.7546771E-02  0.1124255E+00
         21   -1    0    0  502  501  0.00000000000E+00  0.00000000000E+00  0.25226709134E+03  0.25226709134E+03  0.00000000000E+00 0. -1.
         21   -1    0    0  501  502 -0.00000000000E+00 -0.00000000000E+00 -0.21598324829E+03  0.21598324829E+03  0.00000000000E+00 0. -1.
         25    1    1    2    0    0 -0.18910872671E+03  0.54783655255E+02  0.82579439302E+01  0.23335927888E+03  0.12500000000E+03 0.  0.
         25    1    1    2    0    0  0.18910872671E+03 -0.54783655255E+02  0.28025899116E+02  0.23489106076E+03  0.12500000000E+03 0.  0.
</event>
<event>
 4    0  0.2244970E-002  0.5952870E+03  0.7546771E-02  0.9915233E-01
         21   -1    0    0  502  501  0.00000000000E+00  0.00000000000E+00  0.12597511844E+04  0.12597511844E+04  0.00000000000E+00 0.  1.
         21   -1    0    0  501  502 -0.00000000000E+00 -0.00000000000E+00 -0.28129886631E+03  0.28129886631E+03  0.00000000000E+00 0.  1.
         25    1    1    2    0    0  0.39349499114E+03 -0.36036168985E+03  0.79013087015E+03  0.96157716671E+03  0.12500000000E+03 0.  0.
         25    1    1    2    0    0 -0.39349499114E+03  0.36036168985E+03  0.18832144795E+03  0.57947288402E+03  0.12500000000E+03 0.  0.
</event>
<event>
 4    0  0.2244970E-002  0.2598595E+03  0.7546771E-02  0.1107228E+00
         21   -1    0    0  502  501  0.00000000000E+00  0.00000000000E+00  0.22726200542E+03  0.22726200542E+03  0.00000000000E+00 0. -1.
         21   -1    0    0  501  502 -0.00000000000E+00 -0.00000000000E+00 -0.29713275238E+03  0.29713275238E+03  0.00000000000E+00 0. -1.
         25    1    1    2    0    0  0.14010776164E+03 -0.17285411621E+03 -0.84296394787E+02  0.26877427804E+03  0.12500000000E+03 0.  0.
         25    1    1    2    0    0 -0.14010776164E+03  0.17285411621E+03  0.14425647828E+02  0.25562047977E+03  0.12500000000E+03 0.  0.
</event>
<event>
 4    0  0.2244970E-002  0.1841022E+03  0.7546771E-02  0.1163891E+00
         21   -1    0    0  502  501  0.00000000000E+00  0.00000000000E+00  0.17284139904E+03  0.17284139904E+03  0.00000000000E+00 0. -1.
         21   -1    0    0  501  502 -0.00000000000E+00 -0.00000000000E+00 -0.19609663511E+03  0.19609663511E+03  0.00000000000E+00 0. -1.
         25    1    1    2    0    0 -0.33476418262E+02 -0.11533524724E+03 -0.73765106810E+02  0.18838572350E+03  0.12500000000E+03 0.  0.
         25    1    1    2    0    0  0.33476418262E+02  0.11533524724E+03  0.50509870739E+02  0.18055231064E+03  0.12500000000E+03 0.  0.
</event>
<event>
 4    0  0.2244970E-002  0.2464261E+03  0.7546771E-02  0.1115584E+00
         21   -1    0    0  502  501  0.00000000000E+00  0.00000000000E+00  0.96983974333E+03  0.96983974333E+03  0.00000000000E+00 0.  1.
         21   -1    0    0  501  502 -0.00000000000E+00 -0.00000000000E+00 -0.62614302734E+02  0.62614302734E+02  0.00000000000E+00 0.  1.
         25    1    1    2    0    0 -0.58057153409E+02 -0.24284526473E+02  0.87851453495E+03  0.88959156887E+03  0.12500000000E+03 0.  0.
         25    1    1    2    0    0  0.58057153409E+02  0.24284526473E+02  0.28710905652E+02  0.14286247720E+03  0.12500000000E+03 0.  0.
</event>
<event>
 4    0  0.2244970E-002  0.2054042E+03  0.7546771E-02  0.1145258E+00
         21   -1    0    0  502  501  0.00000000000E+00  0.00000000000E+00  0.34693327533E+03  0.34693327533E+03  0.00000000000E+00 0. -1.
         21   -1    0    0  501  502 -0.00000000000E+00 -0.00000000000E+00 -0.12161094489E+03  0.12161094489E+03  0.00000000000E+00 0. -1.
         25    1    1    2    0    0 -0.75732902494E+02  0.73107103522E+02 -0.29269936665E+02  0.16601762044E+03  0.12500000000E+03 0.  0.
         25    1    1    2    0    0  0.75732902494E+02 -0.73107103522E+02  0.25459226710E+03  0.30252659978E+03  0.12500000000E+03 0.  0.
</event>
<event>
 4    0  0.2244970E-002  0.1835242E+03  0.7546771E-02  0.1164435E+00
         21   -1    0    0  502  501  0.00000000000E+00  0.00000000000E+00  0.95547765677E+03  0.95547765677E+03  0.00000000000E+00 0.  1.
         21   -1    0    0  501  502 -0.00000000000E+00 -0.00000000000E+00 -0.35250551924E+02  0.35250551924E+02  0.00000000000E+00 0.  1.
         25    1    1    2    0    0  0.12382284599E+03  0.99826746000E+01  0.32183866248E+03  0.36692897903E+03  0.12500000000E+03 0.  0.
         25    1    1    2    0    0 -0.12382284599E+03 -0.99826746000E+01  0.59838844237E+03  0.62379922967E+03  0.12500000000E+03 0.  0.
</event>
<event>
 4    0  0.2244970E-002  0.1702735E+03  0.7546771E-02  0.1177563E+00
         21   -1    0    0  502  501  0.00000000000E+00  0.00000000000E+00  0.11704663672E+04  0.11704663672E+04  0.00000000000E+00 0. -1.
         21   -1    0    0  501  502 -0.00000000000E+00 -0.00000000000E+00 -0.24770519344E+02  0.24770519344E+02  0.00000000000E+00 0. -1.
         25    1    1    2    0    0 -0.10328526973E+03  0.47958856408E+02  0.64305717060E+03  0.66491760655E+03  0.12500000000E+03 0.  0.
         25    1    1    2    0    0  0.10328526973E+03 -0.47958856408E+02  0.50263867728E+03  0.53031928001E+03  0.12500000000E+03 0.  0.
</event>
<event>
 4    0  0.2244970E-002  0.2199162E+03  0.7546771E-02  0.1133946E+00
         21   -1    0    0  502  501  0.00000000000E+00  0.00000000000E+00  0.61833482991E+02  0.61833482991E+02  0.00000000000E+00 0.  1.
         21   -1    0    0  501  502 -0.00000000000E+00 -0.00000000000E+00 -0.78215158659E+03  0.78215158659E+03  0.00000000000E+00 0.  1.
         25    1    1    2    0    0  0.42791315667E+01  0.70287834315E+01 -0.70699567811E+03  0.71800808048E+03  0.12500000000E+03 0.  0.
         25    1    1    2    0    0 -0.42791315667E+01 -0.70287834315E+01 -0.13322425491E+02  0.12597698911E+03  0.12500000000E+03 0.  0.
</event>
<event>
 4    0  0.2244970E-002  0.3357828E+03  0.7546771E-02  0.1068606E+00
         21   -1    0    0  502  501  0.00000000000E+00  0.00000000000E+00  0.20583489799E+03  0.20583489799E+03  0.00000000000E+00 0.  1.
         21   -1    0    0  501  502 -0.00000000000E+00 -0.00000000000E+00 -0.54776959464E+03  0.54776959464E+03  0.00000000000E+00 0.  1.
         25    1    1    2    0    0 -0.24072472368E+03 -0.19787300615E+03 -0.16558805595E+03  0.37436148764E+03  0.12500000000E+03 0.  0.
         25    1    1    2    0    0  0.24072472368E+03  0.19787300615E+03 -0.17634664070E+03  0.37924300499E+03  0.12500000000E+03 0.  0.
</event>
<event>
 4    0  0.2244970E-002  0.3208426E+03  0.7546771E-02  0.1075262E+00
         21   -1    0    0  502  501  0.00000000000E+00  0.00000000000E+00  0.97807792613E+02  0.97807792613E+02  0.00000000000E+00 0.  1.
         21   -1    0    0  501  502 -0.00000000000E+00 -0.00000000000E+00 -0.10524718041E+04  0.10524718041E+04  0.00000000000E+00 0.  1.
         25    1    1    2    0    0  0.26233791839E+03 -0.39026572780E+01 -0.23365465505E+03  0.37290201392E+03  0.12500000000E+03 0.  0.
         25    1    1    2    0    0 -0.26233791839E+03  0.39026572780E+01 -0.72100935648E+03  0.77737758283E+03  0.12500000000E+03 0.  0.
</event>
<event>
 4    0  0.2244970E-002  0.1867754E+03  0.7546771E-02  0.1161402E+00
         21   -1    0    0  502  501  0.00000000000E+00  0.00000000000E+00  0.36712709321E+02  0.36712709321E+02  0.00000000000E+00 0.  1.
         21   -1    0    0  501  502 -0.00000000000E+00 -0.00000000000E+00 -0.95021740775E+03  0.95021740775E+03  0.00000000000E+00 0. -1.
         25    1    1    2    0    0  0.14293219741E+01  0.13737007112E+03 -0.50875903119E+03  0.54160255835E+03  0.12500000000E+03 0.  0.
         25    1    1    2    0    0 -0.14293219741E+01 -0.13737007112E+03 -0.40474566724E+03  0.44532755872E+03  0.12500000000E+03 0.  0.
</event>
<event>
 4    0  0.2244970E-002  0.2265691E+03  0.7546771E-02  0.1129078E+00
         21   -1    0    0  502  501  0.00000000000E+00  0.00000000000E+00  0.24221541335E+03  0.24221541335E+03  0.00000000000E+00 0. -1.
         21   -1    0    0  501  502 -0.00000000000E+00 -0.00000000000E+00 -0.21193353813E+03  0.21193353813E+03  0.00000000000E+00 0. -1.
         25    1    1    2    0    0 -0.13918937535E+03  0.90567158794E+02  0.10552232672E+03  0.23310095216E+03  0.12500000000E+03 0.  0.
         25    1    1    2    0    0  0.13918937535E+03 -0.90567158794E+02 -0.75240451498E+02  0.22104799932E+03  0.12500000000E+03 0.  0.
</event>
<event>
 4    0  0.2244970E-002  0.2109413E+03  0.7546771E-02  0.1140823E+00
         21   -1    0    0  502  501  0.00000000000E+00  0.00000000000E+00  0.35242656601E+03  0.35242656601E+03  0.00000000000E+00 0. -1.
         21   -1    0    0  501  502 -0.00000000000E+00 -0.00000000000E+00 -0.12625679390E+03  0.12625679390E+03  0.00000000000E+00 0. -1.
         25    1    1    2    0    0  0.46672568796E+01  0.46365023077E+02  0.29848510051E+03  0.32694013807E+03  0.12500000000E+03 0.  0.
         25    1    1    2    0    0 -0.46672568796E+01 -0.46365023077E+02 -0.72315328402E+02  0.15174322184E+03  0.12500000000E+03 0.  0.
</event>
<event>
 4    0  0.2244970E-002  0.2572465E+03  0.7546771E-02  0.1108809E+00
         21   -1    0    0  502  501  0.00000000000E+00  0.00000000000E+00  0.21469309197E+03  0.21469309197E+03  0.00000000000E+00 0.  1.
         21   -1    0    0  501  502 -0.00000000000E+00 -0.00000000000E+00 -0.30823415754E+03  0.30823415754E+03  0.00000000000E+00 0.  1.
         25    1    1    2    0    0 -0.10531324381E+03 -0.96848772848E+02  0.12950907564E+03  0.22993078262E+03  0.12500000000E+03 0.  0.
         25    1    1    2    0    0  0.10531324381E+03  0.96848772848E+02 -0.22305014120E+03  0.29299646689E+03  0.12500000000E+03 0.  0.
</event>
<event>
 4    0  0.2244970E-002  0.1657310E+03  0.7546771E-02  0.1182374E+00
         21   -1    0    0  502  501  0.00000000000E+00  0.00000000000E+00  0.38377739906E+02  0.38377739906E+02  0.00000000000E+00 0. -1.
         21   -1    0    0  501  502 -0.00000000000E+00 -0.00000000000E+00 -0.71569520545E+03  0.71569520545E+03  0.00000000000E+00 0. -1.
         25    1    1    2    0    0  0.67314870980E+02 -0.32542033797E+02 -0.51853395148E+03  0.53860257580E+03  0.12500000000E+03 0.  0.
         25    1    1    2    0    0 -0.67314870980E+02  0.32542033797E+02 -0.15878351406E+03  0.21547036956E+03  0.12500000000E+03 0.  0.
</event>
<event>
 4    0  0.2244970E-002  0.1445081E+03  0.7546771E-02  0.1207388E+00
         21   -1    0    0  502  501  0.00000000000E+00  0.00000000000E+00  0.25694578732E+03  0.25694578732E+03  0.00000000000E+00 0.  1.
         21   -1    0    0  501  502 -0.00000000000E+00 -0.00000000000E+00 -0.81272413408E+02  0.81272413408E+02  0.00000000000E+00 0.  1.
         25    1    1    2    0    0 -0.52684856904E+02  0.10105018612E+02  0.14492467820E+03  0.19876108245E+03  0.12500000000E+03 0.  0.
         25    1    1    2    0    0  0.52684856904E+02 -0.10105018612E+02  0.30748695711E+02  0.13945711827E+03  0.12500000000E+03 0.  0.
</event>
<event>
 4    0  0.2244970E-002  0.1560771E+03  0.7546771E-02  0.1193198E+00
         21   -1    0    0  502  501  0.00000000000E+00  0.00000000000E+00  0.58679332307E+03  0.58679332307E+03  0.00000000000E+00 0. -1.
         21   -1    0    0  501  502 -0.00000000000E+00 -0.00000000000E+00 -0.41513854896E+02  0.41513854896E+02  0.00000000000E+00 0. -1.
         25    1    1    2    0    0 -0.50937030771E+02 -0.65560687658E+02  0.18624658266E+03  0.23917686849E+03  0.12500000000E+03 0.  0.
         25    1    1    2    0    0  0.50937030771E+02  0.65560687658E+02  0.35903288552E+03  0.38913030947E+03  0.12500000000E+03 0.  0.
</event>
<event>
 4    0  0.2244970E-002  0.1973020E+03  0.7546771E-02  0.1152036E+00
         21   -1    0    0  502  501  0.00000000000E+00  0.00000000000E+00  0.88839059024E+03  0.88839059024E+03  0.00000000000E+00 0. -1.
         21   -1    0    0  501  502 -0.00000000000E+00 -0.00000000000E+00 -0.43818636406E+02  0.43818636406E+02  0.00000000000E+00 0. -1.
         25    1    1    2    0    0 -0.60357004236E+02 -0.19412692962E+02  0.75033748726E+03  0.76331590144E+03  0.12500000000E+03 0.  0.
         25    1    1    2    0    0  0.60357004236E+02  0.19412692962E+02  0.94234466579E+02  0.16889332521E+03  0.12500000000E+03 0.  0.
</event>
<event>
 4    0  0.2244970E-002  0.2107775E+03  0.7546771E-02  0.1140952E+00
         21   -1    0    0  502  501  0.00000000000E+00  0.00000000000E+00  0.32820996680E+03  0.32820996680E+03  0.00000000000E+00 0.  1.
         21   -1    0    0  501  502 -0.00000000000E+00 -0.00000000000E+00 -0.13536204865E+03  0.13536204865E+03  0.00000000000E+00 0.  1.
         25    1    1    2    0    0  0.13097121187E+03 -0.31486686831E+02  0.20994766094E+03  0.27901234761E+03  0.12500000000E+03 0.  0.
         25    1    1    2    0    0 -0.13097121187E+03  0.31486686831E+02 -0.17099742785E+02  0.18455966783E+03  0.12500000000E+03 0.  0.
</event>
<event>
 4    0  0.2244970E-002  0.2350439E+03  0.7546771E-02  0.1123139E+00
         21   -1    0    0  502  501  0.00000000000E+00  0.00000000000E+00  0.45531215649E+02  0.45531215649E+02  0.00000000000E+00 0. -1.
         21   -1    0    0  501  502 -0.00000000000E+00 -0.00000000000E+00 -0.12133569340E+04  0.12133569340E+04  0.00000000000E+00 0. -1.
         25    1    1    2    0    0 -0.62897516424E+02 -0.33188570167E+02 -0.86044886261E+02  0.16758968111E+03  0.12500000000E+03 0.  0.
         25    1    1    2    0    0  0.62897516424E+02  0.33188570167E+02 -0.10817808321E+04  0.10912984686E+04  0.12500000000E+03 0.  0.
</event>
<event>
 4    0  0.2244970E-002  0.2452910E+03  0.7546771E-02  0.1116317E+00
         21   -1    0    0  502  501  0.00000000000E+00  0.00000000000E+00  0.20736781440E+03  0.20736781440E+03  0.00000000000E+00 0. -1.
         21   -1    0    0  501  502 -0.00000000000E+00 -0.00000000000E+00 -0.29014947675E+03  0.29014947675E+03  0.00000000000E+00 0. -1.
         25    1    1    2    0    0  0.17394818556E+03 -0.48060386992E+02  0.69586018732E+02  0.23029326099E+03  0.12500000000E+03 0.  0.
         25    1    1    2    0    0 -0.17394818556E+03  0.48060386992E+02 -0.15236768109E+03  0.26722403016E+03  0.12500000000E+03 0.  0.
</event>
<event>
 4    0  0.2244970E-002  0.2410983E+03  0.7546771E-02  0.1119063E+00
         21   -1    0    0  502  501  0.00000000000E+00  0.00000000000E+00  0.19632105349E+03  0.19632105349E+03  0.00000000000E+00 0. -1.
         21   -1    0    0  501  502 -0.00000000000E+00 -0.00000000000E+00 -0.29608842433E+03  0.29608842433E+03  0.00000000000E+00 0. -1.
         25    1    1    2    0    0  0.34799455115E+02  0.77559931495E+02  0.14191566512E+03  0.20734416089E+03  0.12500000000E+03 0.  0.
         25    1    1    2    0    0 -0.34799455115E+02 -0.77559931495E+02 -0.24168303596E+03  0.28506531694E+03  0.12500000000E+03 0.  0.
</event>
<event>
 4    0  0.2244970E-002  0.1881788E+03  0.7546771E-02  0.1160114E+00
         21   -1    0    0  502  501  0.00000000000E+00  0.00000000000E+00  0.48936971587E+02  0.48936971587E+02  0.00000000000E+00 0.  1.
         21   -1    0    0  501  502 -0.00000000000E+00 -0.00000000000E+00 -0.72360994645E+03  0.72360994645E+03  0.00000000000E+00 0.  1.
         25    1    1    2    0    0  0.10861640025E+03 -0.16656092230E+02 -0.15708089460E+03  0.22885444120E+03  0.12500000000E+03 0.  0.
         25    1    1    2    0    0 -0.10861640025E+03  0.16656092230E+02 -0.51759208027E+03  0.54369247683E+03  0.12500000000E+03 0.  0.
</event>
<event>
 4    0  0.2244970E-002  0.1643211E+03  0.7546771E-02  0.1183903E+00
         21   -1    0    0  502  501  0.00000000000E+00  0.00000000000E+00  0.17459625094E+02  0.17459625094E+02  0.00000000000E+00 0.  1.
         21   -1    0    0  501  502 -0.00000000000E+00 -0.00000000000E+00 -0.15465064828E+04  0.15465064828E+04  0.00000000000E+00 0.  1.
         25    1    1    2    0    0 -0.29464845160E+01 -0.10247092478E+03 -0.62436263838E+03  0.64495168532E+03  0.12500000000E+03 0.  0.
         25    1    1    2    0    0  0.29464845160E+01  0.10247092478E+03 -0.90468421934E+03  0.91901442259E+03  0.12500000000E+03 0.  0.
</event>
<event>
 4    0  0.2244970E-002  0.1856659E+03  0.7546771E-02  0.1162430E+00
         21   -1    0    0  502  501  0.00000000000E+00  0.00000000000E+00  0.14807792963E+03  0.14807792963E+03  0.00000000000E+00 0.  1.
         21   -1    0    0  501  502 -0.00000000000E+00 -0.00000000000E+00 -0.23279505757E+03  0.23279505757E+03  0.00000000000E+00 0.  1.
         25    1    1    2    0    0 -0.46720641725E+02 -0.12845199763E+03 -0.29220215173E+02  0.18751414622E+03  0.12500000000E+03 0.  0.
         25    1    1    2    0    0  0.46720641725E+02  0.12845199763E+03 -0.55496912770E+02  0.19335884098E+03  0.12500000000E+03 0.  0.
</event>
<event>
 4    0  0.2244970E-002  0.4088522E+03  0.7546771E-02  0.1040757E+00
         21   -1    0    0  502  501  0.00000000000E+00  0.00000000000E+00  0.84421182073E+02  0.84421182073E+02  0.00000000000E+00 0.  1.
         21   -1    0    0  501  502 -0.00000000000E+00 -0.00000000000E+00 -0.19800731679E+04  0.19800731679E+04  0.00000000000E+00 0.  1.
         25    1    1    2    0    0  0.40996743756E+02  0.30070780094E+03 -0.33234120751E+03  0.46709912519E+03  0.12500000000E+03 0.  0.
         25    1    1    2    0    0 -0.40996743756E+02 -0.30070780094E+03 -0.15633107784E+04  0.15973952248E+04  0.12500000000E+03 0.  0.
</event>
<event>
 4    0  0.2244970E-002  0.2355024E+03  0.7546771E-02  0.1122826E+00
         21   -1    0    0  502  501  0.00000000000E+00  0.00000000000E+00  0.16297566814E+03  0.16297566814E+03  0.00000000000E+00 0.  1.
         21   -1    0    0  501  502 -0.00000000000E+00 -0.00000000000E+00 -0.34030478343E+03  0.34030478343E+03  0.00000000000E+00 0.  1.
         25    1    1    2    0    0 -0.15575579254E+02 -0.14172931302E+03 -0.23790120110E+03  0.30422323764E+03  0.12500000000E+03 0.  0.
         25    1    1    2    0    0  0.15575579254E+02  0.14172931302E+03  0.60572085807E+02  0.19905721393E+03  0.12500000000E+03 0.  0.
</event>
<event>
 4    0  0.2244970E-002  0.4542679E+03  0.7546771E-02  0.1026457E+00
         21   -1    0    0  502  501  0.00000000000E+00  0.00000000000E+00  0.69527822193E+03  0.69527822193E+03  0.00000000000E+00 0. -1.
         21   -1    0    0  501  502 -0.00000000000E+00 -0.00000000000E+00 -0.29680108743E+03  0.29680108743E+03  0.00000000000E+00 0. -1.
         25    1    1    2    0    0  0.37723723206E+03 -0.19563232877E+03  0.89203435848E+02  0.45184310361E+03  0.12500000000E+03 0.  0.
         25    1    1    2    0    0 -0.37723723206E+03  0.19563232877E+03  0.30927369865E+03  0.54023620574E+03  0.12500000000E+03 0.  0.
</event>
<event>
 4    0  0.2244970E-002  0.2916744E+03  0.7546771E-02  0.1089478E+00
         21   -1    0    0  502  501  0.00000000000E+00  0.00000000000E+00  0.27496041540E+03  0.27496041540E+03  0.00000000000E+00 0. -1.
         21   -1    0    0  501  502 -0.00000000000E+00 -0.00000000000E+00 -0.30940437287E+03  0.30940437287E+03  0.00000000000E+00 0. -1.
         25    1    1    2    0    0 -0.21076195869E+03  0.36127164880E+02 -0.17151354247E+03  0.30127673412E+03  0.12500000000E+03 0.  0.
         25    1    1    2    0    0  0.21076195869E+03 -0.36127164880E+02  0.13706958500E+03  0.28308805415E+03  0.12500000000E+03 0.  0.
</event>
<event>
 4    0  0.2244970E-002  0.2042402E+03  0.7546771E-02  0.1146210E+00
         21   -1    0    0  502  501  0.00000000000E+00  0.00000000000E+00  0.45272775049E+03  0.45272775049E+03  0.00000000000E+00 0.  1.
         21   -1    0    0  501  502 -0.00000000000E+00 -0.00000000000E+00 -0.92139362667E+02  0.92139362667E+02  0.00000000000E+00 0.  1.
         25    1    1    2    0    0  0.54203636913E+02  0.12609489052E+03  0.29387922718E+03  0.34760315856E+03  0.12500000000E+03 0.  0.
         25    1    1    2    0    0 -0.54203636913E+02 -0.12609489052E+03  0.66709160641E+02  0.19726395460E+03  0.12500000000E+03 0.  0.
</event>
<event>
 4    0  0.2244970E-002  0.2403429E+03  0.7546771E-02  0.1119565E+00
         21   -1    0    0  502  501  0.00000000000E+00  0.00000000000E+00  0.53128510966E+03  0.53128510966E+03  0.00000000000E+00 0. -1.
         21   -1    0    0  501  502 -0.00000000000E+00 -0.00000000000E+00 -0.10872642363E+03  0.10872642363E+03  0.00000000000E+00 0. -1.
         25    1    1    2    0    0  0.49883061599E+02 -0.11270703347E+03  0.42985108259E+03  0.46431470840E+03  0.12500000000E+03 0.  0.
         25    1    1    2    0    0 -0.49883061599E+02  0.11270703347E+03 -0.72923965640E+01  0.17569682489E+03  0.12500000000E+03 0.  0.
</event>
<event>
 4    0  0.2244970E-002  0.2382690E+03  0.7546771E-02  0.1120951E+00
         21   -1    0    0  502  501  0.00000000000E+00  0.00000000000E+00  0.47661003031E+03  0.47661003031E+03  0.00000000000E+00 0. -1.
         21   -1    0    0  501  502 -0.00000000000E+00 -0.00000000000E+00 -0.11911653867E+03  0.11911653867E+03  0.00000000000E+00 0. -1.
         25    1    1    2    0    0  0.72810871145E+02 -0.57460300197E+02 -0.46773224344E+02  0.16252951600E+03  0.12500000000E+03 0.  0.
         25    1    1    2    0    0 -0.72810871145E+02  0.57460300197E+02  0.40426671599E+03  0.43319705298E+03  0.12500000000E+03 0.  0.
</event>
<event>
 4    0  0.2244970E-002  0.1873834E+03  0.7546771E-02  0.1160843E+00
         21   -1    0    0  502  501  0.00000000000E+00  0.00000000000E+00  0.53162678713E+02  0.53162678713E+02  0.00000000000E+00 0.  1.
         21   -1    0    0  501  502 -0.00000000000E+00 -0.00000000000E+00 -0.66047328721E+03  0.66047328721E+03  0.00000000000E+00 0.  1.
         25    1    1    2    0    0  0.81294593374E+02 -0.49355311350E+02 -0.10906393906E+03  0.19121898565E+03  0.12500000000E+03 0.  0.
         25    1    1    2    0    0 -0.81294593374E+02  0.49355311350E+02 -0.49824666943E+03  0.52241698027E+03  0.12500000000E+03 0.  0.
</event>
<event>
 4    0  0.2244970E-002  0.2189078E+03  0.7546771E-02  0.1134700E+00
         21   -1    0    0  502  501  0.00000000000E+00  0.00000000000E+00  0.97984112430E+03  0.97984112430E+03  0.00000000000E+00 0. -1.
         21   -1    0    0  501  502 -0.00000000000E+00 -0.00000000000E+00 -0.48906508069E+02  0.48906508069E+02  0.00000000000E+00 0. -1.
         25    1    1    2    0    0 -0.48482431990E+02 -0.65565502942E+02  0.89171456675E+02  0.17385606136E+03  0.12500000000E+03 0.  0.
         25    1    1    2    0    0  0.48482431990E+02  0.65565502942E+02  0.84176315956E+03  0.85489157100E+03  0.12500000000E+03 0.  0.
</event>
<event>
 4    0  0.2244970E-002  0.2030266E+03  0.7546771E-02  0.1147210E+00
         21   -1    0    0  502  501  0.00000000000E+00  0.00000000000E+00  0.13829070500E+03  0.13829070500E+03  0.00000000000E+00 0. -1.
         21   -1    0    0  501  502 -0.00000000000E+00 -0.00000000000E+00 -0.29806631433E+03  0.29806631433E+03  0.00000000000E+00 0.  1.
         25    1    1    2    0    0  0.14438790346E+03 -0.67946546763E+02 -0.67625673549E+02  0.21368863237E+03  0.12500000000E+03 0.  0.
         25    1    1    2    0    0 -0.14438790346E+03  0.67946546763E+02 -0.92149935785E+02  0.22266838695E+03  0.12500000000E+03 0.  0.
</event>
<event>
 4    0  0.2244970E-002  0.2052408E+03  0.7546771E-02  0.1145391E+00
         21   -1    0    0  502  501  0.00000000000E+00  0.00000000000E+00  0.35071952428E+03  0.35071952428E+03  0.00000000000E+00 0.  1.
         21   -1    0    0  501  502 -0.00000000000E+00 -0.00000000000E+00 -0.12010672247E+03  0.12010672247E+03  0.00000000000E+00 0.  1.
         25    1    1    2    0    0  0.15187416670E+03  0.48317749403E+02  0.77291985136E+02  0.21679349248E+03  0.12500000000E+03 0.  0.
         25    1    1    2    0    0 -0.15187416670E+03 -0.48317749403E+02  0.15332081667E+03  0.25403275427E+03  0.12500000000E+03 0.  0.
</event>
<event>
 4    0  0.2244970E-002  0.2147842E+03  0.7546771E-02  0.1137832E+00
         21   -1    0    0  502  501  0.00000000000E+00  0.00000000000E+00  0.64711719471E+03  0.64711719471E+03  0.00000000000E+00 0. -1.
         21   -1    0    0  501  502 -0.00000000000E+00 -0.00000000000E+00 -0.71288897952E+02  0.71288897952E+02  0.00000000000E+00 0. -1.
         25    1    1    2    0    0 -0.33887787775E+02  0.83043715781E+02  0.37264038131E+02  0.15829797670E+03  0.12500000000E+03 0.  0.
         25    1    1    2    0    0  0.33887787775E+02 -0.83043715781E+02  0.53856425863E+03  0.56010811596E+03  0.12500000000E+03 0.  0.
</event>
<event>
 4    0  0.2244970E-002  0.1914965E+03  0.7546771E-02  0.1157118E+00
         21   -1    0    0  502  501  0.00000000000E+00  0.00000000000E+00  0.99133666723E+03  0.99133666723E+03  0.00000000000E+00 0. -1.
         21   -1    0    0  501  502 -0.00000000000E+00 -0.00000000000E+00 -0.36991377134E+02  0.36991377134E+02  0.00000000000E+00 0. -1.
         25    1    1    2    0    0 -0.11256668430E+03 -0.91090097047E+02  0.50077058849E+03  0.53606421863E+03  0.12500000000E+03 0.  0.
         25    1    1    2    0    0  0.11256668430E+03  0.91090097047E+02  0.45357470160E+03  0.49226382574E+03  0.12500000000E+03 0.  0.
</event>
<event>
 4    0  0.2244970E-002  0.2862762E+03  0.7546771E-02  0.1092310E+00
         21   -1    0    0  502  501  0.00000000000E+00  0.00000000000E+00  0.43919384298E+03  0.43919384298E+03  0.00000000000E+00 0.  1.
         21   -1    0    0  501  502 -0.00000000000E+00 -0.00000000000E+00 -0.18660116911E+03  0.18660116911E+03  0.00000000000E+00 0.  1.
         25    1    1    2    0    0 -0.17842816416E+03 -0.17544404220E+03  0.59705762556E+02  0.28601922976E+03  0.12500000000E+03 0.  0.
         25    1    1    2    0    0  0.17842816416E+03  0.17544404220E+03  0.19288691131E+03  0.33977578234E+03  0.12500000000E+03 0.  0.
</event>
<event>
 4    0  0.2244970E-002  0.2135383E+03  0.7546771E-02  0.1138794E+00
         21   -1    0    0  502  501  0.00000000000E+00  0.00000000000E+00  0.40318906728E+03  0.40318906728E+03  0.00000000000E+00 0. -1.
         21   -1    0    0  501  502 -0.00000000000E+00 -0.00000000000E+00 -0.11309482706E+03  0.11309482706E+03  0.00000000000E+00 0. -1.
         25    1    1    2    0    0 -0.16360182047E+03  0.32294265955E+01  0.76688106646E+02  0.21973176957E+03  0.12500000000E+03 0.  0.
         25    1    1    2    0    0  0.16360182047E+03 -0.32294265955E+01  0.21340613358E+03  0.29655212477E+03  0.12500000000E+03 0.  0.
</event>
<event>
 4    0  0.2244970E-002  0.2082627E+03  0.7546771E-02  0.1142949E+00
         21   -1    0    0  502  501  0.00000000000E+00  0.00000000000E+00  0.11138124627E+04  0.11138124627E+04  0.00000000000E+00 0.  1.
         21   -1    0    0  501  502 -0.00000000000E+00 -0.00000000000E+00 -0.38941358784E+02  0.38941358784E+02  0.00000000000E+00 0.  1.
         25    1    1    2    0    0 -0.10215145178E+03  0.55084938673E+02  0.86814410184E+03  0.88474202518E+03  0.12500000000E+03 0.  0.
         25    1    1    2    0    0  0.10215145178E+03 -0.55084938673E+02  0.20672700209E+03  0.26801179632E+03  0.12500000000E+03 0.  0.
</event>
<event>
 4    0  0.2244970E-002  0.4436639E+03  0.7546771E-02  0.1029629E+00
         21   -1    0    0  502  501  0.00000000000E+00  0.00000000000E+00  0.25958377769E+03  0.25958377769E+03  0.00000000000E+00 0.  1.
         21   -1    0    0  501  502 -0.00000000000E+00 -0.00000000000E+00 -0.75828196825E+03  0.75828196825E+03  0.00000000000E+00 0.  1.
         25    1    1    2    0    0  0.34040732492E+03  0.11038298070E+03  0.15112547977E+02  0.37936122416E+03  0.12500000000E+03 0.  0.
         25    1    1    2    0    0 -0.34040732492E+03 -0.11038298070E+03 -0.51381073854E+03  0.63850452177E+03  0.12500000000E+03 0.  0.
</event>
<event>
 4    0  0.2244970E-002  0.2136554E+03  0.7546771E-02  0.1138704E+00
         21   -1    0    0  502  501  0.00000000000E+00  0.00000000000E+00  0.13764546676E+03  0.13764546676E+03  0.00000000000E+00 0. -1.
         21   -1    0    0  501  502 -0.00000000000E+00 -0.00000000000E+00 -0.33163912472E+03  0.33163912472E+03  0.00000000000E+00 0. -1.
         25    1    1    2    0    0  0.97535496457E+02 -0.14429620330E+02 -0.25347882924E+03  0.29932908961E+03  0.12500000000E+03 0.  0.
         25    1    1    2    0    0 -0.97535496457E+02  0.14429620330E+02  0.59485171285E+02  0.16995550187E+03  0.12500000000E+03 0.  0.
</event>
<event>
 4    0  0.2244970E-002  0.3014973E+03  0.7546771E-02  0.1084495E+00
         21   -1    0    0  502  501  0.00000000000E+00  0.00000000000E+00  0.16161356424E+04  0.16161356424E+04  0.00000000000E+00 0. -1.
         21   -1    0    0  501  502 -0.00000000000E+00 -0.00000000000E+00 -0.56245656427E+02  0.56245656427E+02  0.00000000000E+00 0. -1.
         25    1    1    2    0    0  0.14364152028E+03  0.20285538528E+03  0.45778858400E+03  0.53570381866E+03  0.12500000000E+03 0.  0.
         25    1    1    2    0    0 -0.14364152028E+03 -0.20285538528E+03  0.11021014019E+04  0.11366774801E+04  0.12500000000E+03 0.  0.
</event>
<event>
 4    0  0.2244970E-002  0.2627233E+03  0.7546771E-02  0.1105518E+00
         21   -1    0    0  502  501  0.00000000000E+00  0.00000000000E+00  0.10548985658E+03  0.10548985658E+03  0.00000000000E+00 0. -1.
         21   -1    0    0  501  502 -0.00000000000E+00 -0.00000000000E+00 -0.65431429619E+03  0.65431429619E+03  0.00000000000E+00 0. -1.
         25    1    1    2    0    0  0.12408406204E+03 -0.12672371712E+03 -0.60212548159E+02  0.22518060727E+03  0.12500000000E+03 0.  0.
         25    1    1    2    0    0 -0.12408406204E+03  0.12672371712E+03 -0.48861189145E+03  0.53462354550E+03  0.12500000000E+03 0.  0.
</event>
<event>
 4    0  0.2244970E-002  0.2919888E+03  0.7546771E-02  0.1089315E+00
         21   -1    0    0  502  501  0.00000000000E+00  0.00000000000E+00  0.55818988410E+03  0.55818988410E+03  0.00000000000E+00 0.  1.
         21   -1    0    0  501  502 -0.00000000000E+00 -0.00000000000E+00 -0.15273917375E+03  0.15273917375E+03  0.00000000000E+00 0.  1.
         25    1    1    2    0    0 -0.12056649859E+03  0.21847951135E+03  0.98264384650E+02  0.29588928124E+03  0.12500000000E+03 0.  0.
         25    1    1    2    0    0  0.12056649859E+03 -0.21847951135E+03  0.30718632570E+03  0.41503977660E+03  0.12500000000E+03 0.  0.
</event>
<event>
 4    0  0.2244970E-002  0.2192271E+03  0.7546771E-02  0.1134461E+00
         21   -1    0    0  502  501  0.00000000000E+00  0.00000000000E+00  0.81234919190E+02  0.81234919190E+02  0.00000000000E+00 0.  1.
         21   -1    0    0  501  502 -0.00000000000E+00 -0.00000000000E+00 -0.59162410563E+03  0.59162410563E+03  0.00000000000E+00 0.  1.
         25    1    1    2    0    0  0.59724252168E+02 -0.13662219266E+03 -0.41020546552E+03  0.45401116040E+03  0.12500000000E+03 0.  0.
         25    1    1    2    0    0 -0.59724252168E+02  0.13662219266E+03 -0.10018372093E+03  0.21884786443E+03  0.12500000000E+03 0.  0.
</event>
<event>
 4    0  0.2244970E-002  0.2192327E+03  0.7546771E-02  0.1134456E+00
         21   -1    0    0  502  501  0.00000000000E+00  0.00000000000E+00  0.10416035222E+04  0.10416035222E+04  0.00000000000E+00 0.  1.
         21   -1    0    0  501  502 -0.00000000000E+00 -0.00000000000E+00 -0.46143259742E+02  0.46143259742E+02  0.00000000000E+00 0.  1.
         25    1    1    2    0    0 -0.14053901090E+03 -0.50950954872E+01  0.77687083700E+03  0.79933126485E+03  0.12500000000E+03 0.  0.
         25    1    1    2    0    0  0.14053901090E+03  0.50950954872E+01  0.21858942549E+03  0.28841551713E+03  0.12500000000E+03 0.  0.
</event>
<event>
 4    0  0.2244970E-002  0.2484935E+03  0.7546771E-02  0.1114261E+00
         21   -1    0    0  502  501  0.00000000000E+00  0.00000000000E+00  0.11298277945E+03  0.11298277945E+03  0.00000000000E+00 0.  1.
         21   -1    0    0  501  502 -0.00000000000E+00 -0.00000000000E+00 -0.54653459999E+03  0.54653459999E+03  0.00000000000E+00 0.  1.
         25    1    1    2    0    0 -0.26350584910E+02  0.21279770462E+03 -0.23285336637E+03  0.34032764602E+03  0.12500000000E+03 0.  0.
         25    1    1    2    0    0  0.26350584910E+02 -0.21279770462E+03 -0.20069845416E+03  0.31918973342E+03  0.12500000000E+03 0.  0.
</event>
<event>
 4    0  0.2244970E-002  0.2600416E+03  0.7546771E-02  0.1107118E+00
         21   -1    0    0  502  501  0.00000000000E+00  0.00000000000E+00  0.17245269758E+04  0.17245269758E+04  0.00000000000E+00 0.  1.
         21   -1    0    0  501  502 -0.00000000000E+00 -0.00000000000E+00 -0.39211705508E+02  0.39211705508E+02  0.00000000000E+00 0.  1.
         25    1    1    2    0    0 -0.56313335268E+01  0.21746311054E+03  0.61079031955E+03  0.66031184362E+03  0.12500000000E+03 0.  0.
         25    1    1    2    0    0  0.56313335268E+01 -0.21746311054E+03  0.10745249507E+04  0.11034268376E+04  0.12500000000E+03 0.  0.
</event>
<event>
 4    0  0.2244970E-002  0.2882911E+03  0.7546771E-02  0.1091245E+00
         21   -1    0    0  502  501  0.00000000000E+00  0.00000000000E+00  0.22003840402E+03  0.22003840402E+03  0.00000000000E+00 0.  1.
         21   -1    0    0  501  502 -0.00000000000E+00 -0.00000000000E+00 -0.37771472721E+03  0.37771472721E+03  0.00000000000E+00 0.  1.
         25    1    1    2    0    0  0.11280312035E+03  0.21906534228E+03 -0.16415557037E+03  0.32138173475E+03  0.12500000000E+03 0.  0.
         25    1    1    2    0    0 -0.11280312035E+03 -0.21906534228E+03  0.64792471675E+01  0.27637139648E+03  0.12500000000E+03 0.  0.
</event>
<event>
 4    0  0.2244970E-002  0.2490289E+03  0.7546771E-02  0.1113920E+00
         21   -1    0    0  502  501  0.00000000000E+00  0.00000000000E+00  0.20417219894E+03  0.20417219894E+03  0.00000000000E+00 0.  1.
         21   -1    0    0  501  502 -0.00000000000E+00 -0.00000000000E+00 -0.30374075404E+03  0.30374075404E+03  0.00000000000E+00 0.  1.
         25    1    1    2    0    0  0.19087894057E+03 -0.19412140926E+02 -0.14959228443E+03  0.27352230755E+03  0.12500000000E+03 0.  0.
         25    1    1    2    0    0 -0.19087894057E+03  0.19412140926E+02  0.50023729327E+02  0.23439064543E+03  0.12500000000E+03 0.  0.
</event>
<event>
 4    0  0.2244970E-002  0.1838686E+03  0.7546771E-02  0.1164111E+00
         21   -1    0    0  502  501  0.00000000000E+00  0.00000000000E+00  0.27955616795E+03  0.27955616795E+03  0.00000000000E+00 0. -1.
         21   -1    0    0  501  502 -0.00000000000E+00 -0.00000000000E+00 -0.12093328550E+03  0.12093328550E+03  0.00000000000E+00 0. -1.
         25    1    1    2    0    0  0.30178216111E+02  0.14176852190E+02 -0.62981158935E+02  0.14388653254E+03  0.12500000000E+03 0.  0.
         25    1    1    2    0    0 -0.30178216111E+02 -0.14176852190E+02  0.22160404138E+03  0.25660292092E+03  0.12500000000E+03 0.  0.
</event>
<event>
 4    0  0.2244970E-002  0.2260113E+03  0.7546771E-02  0.1129479E+00
         21   -1    0    0  502  501  0.00000000000E+00  0.00000000000E+00  0.65101652002E+03  0.65101652002E+03  0.00000000000E+00 0.  1.
         21   -1    0    0  501  502 -0.00000000000E+00 -0.00000000000E+00 -0.78463600992E+02  0.78463600992E+02  0.00000000000E+00 0.  1.
         25    1    1    2    0    0  0.17560407354E+03 -0.24013285184E+02  0.18366695410E+03  0.28420411422E+03  0.12500000000E+03 0.  0.
         25    1    1    2    0    0 -0.17560407354E+03  0.24013285184E+02  0.38888596493E+03  0.44527600680E+03  0.12500000000E+03 0.  0.
</event>
<event>
 4    0  0.2244970E-002  0.2684222E+03  0.7546771E-02  0.1102186E+00
         21   -1    0    0  502  501  0.00000000000E+00  0.00000000000E+00  0.22772821238E+03  0.22772821238E+03  0.00000000000E+00 0. -1.
         21   -1    0    0  501  502 -0.00000000000E+00 -0.00000000000E+00 -0.31638795204E+03  0.31638795204E+03  0.00000000000E+00 0. -1.
         25    1    1    2    0    0 -0.56373600784E+02  0.29193294911E+02 -0.27633047968E+03  0.30986088061E+03  0.12500000000E+03 0.  0.
         25    1    1    2    0    0  0.56373600784E+02 -0.29193294911E+02  0.18767074002E+03  0.23425528381E+03  0.12500000000E+03 0.  0.
</event>
<event>
 4    0  0.2244970E-002  0.1464134E+03  0.7546771E-02  0.1204951E+00
         21   -1    0    0  502  501  0.00000000000E+00  0.00000000000E+00  0.61986142445E+02  0.61986142445E+02  0.00000000000E+00 0. -1.
         21   -1    0    0  501  502 -0.00000000000E+00 -0.00000000000E+00 -0.34583348597E+03  0.34583348597E+03  0.00000000000E+00 0. -1.
         25    1    1    2    0    0  0.46912605997E+02  0.80353567752E+01 -0.22486266597E+03  0.26163634707E+03  0.12500000000E+03 0.  0.
         25    1    1    2    0    0 -0.46912605997E+02 -0.80353567752E+01 -0.58984677558E+02  0.14618328135E+03  0.12500000000E+03 0.  0.
</event>
<event>
 4    0  0.2244970E-002  0.2688695E+03  0.7546771E-02  0.1101928E+00
         21   -1    0    0  502  501  0.00000000000E+00  0.00000000000E+00  0.21582724721E+04  0.21582724721E+04  0.00000000000E+00 0. -1.
         21   -1    0    0  501  502 -0.00000000000E+00 -0.00000000000E+00 -0.33494756196E+02  0.33494756196E+02  0.00000000000E+00 0. -1.
         25    1    1    2    0    0 -0.17956644416E+03 -0.15394556857E+03  0.11719435760E+04  0.12020898849E+04  0.12500000000E+03 0.  0.
         25    1    1    2    0    0  0.17956644416E+03  0.15394556857E+03  0.95283413993E+03  0.98967734346E+03  0.12500000000E+03 0.  0.
</event>
<event>
 4    0  0.2244970E-002  0.1681681E+03  0.7546771E-02  0.1179772E+00
         21   -1    0    0  502  501  0.00000000000E+00  0.00000000000E+00  0.12963622675E+03  0.12963622675E+03  0.00000000000E+00 0.  1.
         21   -1    0    0  501  502 -0.00000000000E+00 -0.00000000000E+00 -0.21815290420E+03  0.21815290420E+03  0.00000000000E+00 0.  1.
         25    1    1    2    0    0 -0.10912628734E+03  0.26792221335E+02 -0.49841226826E+02  0.17531548022E+03  0.12500000000E+03 0.  0.
         25    1    1    2    0    0  0.10912628734E+03 -0.26792221335E+02 -0.38675450623E+02  0.17247365072E+03  0.12500000000E+03 0.  0.
</event>
<event>
 4    0  0.2244970E-002  0.2197153E+03  0.7546771E-02  0.1134095E+00
         21   -1    0    0  502  501  0.00000000000E+00  0.00000000000E+00  0.58452171069E+03  0.58452171069E+03  0.00000000000E+00 0.  1.
         21   -1    0    0  501  502 -0.00000000000E+00 -0.00000000000E+00 -0.82588592209E+02  0.82588592209E+02  0.00000000000E+00 0. -1.
         25    1    1    2    0    0  0.16221877305E+03  0.67463000928E+02  0.31508171493E+03  0.38179532987E+03  0.12500000000E+03 0.  0.
         25    1    1    2    0    0 -0.16221877305E+03 -0.67463000928E+02  0.18685140354E+03  0.28531497302E+03  0.12500000000E+03 0.  0.
</event>
<event>
 4    0  0.2244970E-002  0.2213362E+03  0.7546771E-02  0.1132891E+00
         21   -1    0    0  502  501  0.00000000000E+00  0.00000000000E+00  0.15551791835E+02  0.15551791835E+02  0.00000000000E+00 0.  1.
         21   -1    0    0  501  502 -0.00000000000E+00 -0.00000000000E+00 -0.31501015951E+04  0.31501015951E+04  0.00000000000E+00 0.  1.
         25    1    1    2    0    0 -0.36958193696E+02 -0.16696882382E+03 -0.20263053518E+04  0.20373470188E+04  0.12500000000E+03 0.  0.
         25    1    1    2    0    0  0.36958193696E+02  0.16696882382E+03 -0.11082444515E+04  0.11283063682E+04  0.12500000000E+03 0.  0.
</event>
<event>
 4    0  0.2244970E-002  0.1834623E+03  0.7546771E-02  0.1164494E+00
         21   -1    0    0  502  501  0.00000000000E+00  0.00000000000E+00  0.19763753795E+03  0.19763753795E+03  0.00000000000E+00 0.  1.
         21   -1    0    0  501  502 -0.00000000000E+00 -0.00000000000E+00 -0.17030375999E+03  0.17030375999E+03  0.00000000000E+00 0.  1.
         25    1    1    2    0    0  0.99050278799E+02  0.84435930124E+02  0.46819527916E+02  0.18643350616E+03  0.12500000000E+03 0.  0.
         25    1    1    2    0    0 -0.99050278799E+02 -0.84435930124E+02 -0.19485749952E+02  0.18150779178E+03  0.12500000000E+03 0.  0.
</event>
<event>
 4    0  0.2244970E-002  0.2327555E+03  0.7546771E-02  0.1124715E+00
         21   -1    0    0  502  501  0.00000000000E+00  0.00000000000E+00  0.65429054757E+02  0.65429054757E+02  0.00000000000E+00 0.  1.
         21   -1    0    0  501  502 -0.00000000000E+00 -0.00000000000E+00 -0.82799801623E+03  0.82799801623E+03  0.00000000000E+00 0.  1.
         25    1    1    2    0    0 -0.18478440075E+03  0.29257897223E+02 -0.49561748895E+03  0.54430046359E+03  0.12500000000E+03 0.  0.
         25    1    1    2    0    0  0.18478440075E+03 -0.29257897223E+02 -0.26695147252E+03  0.34912660740E+03  0.12500000000E+03 0.  0.
</event>
<event>
 4    0  0.2244970E-002  0.2647521E+03  0.7546771E-02  0.1104321E+00
         21   -1    0    0  502  501  0.00000000000E+00  0.00000000000E+00  0.25270353196E+03  0.25270353196E+03  0.00000000000E+00 0.  1.
         21   -1    0    0  501  502 -0.00000000000E+00 -0.00000000000E+00 -0.27737515148E+03  0.27737515148E+03  0.00000000000E+00 0.  1.
         25    1    1    2    0    0  0.91575321821E+02  0.10096944463E+03  0.17731050310E+03  0.25621257351E+03  0.12500000000E+03 0.  0.
         25    1    1    2    0    0 -0.91575321821E+02 -0.10096944463E+03 -0.20198212261E+03  0.27386610993E+03  0.12500000000E+03 0.  0.
</event>
<event>
 4    0  0.2244970E-002  0.2203261E+03  0.7546771E-02  0.1133640E+00
         21   -1    0    0  502  501  0.00000000000E+00  0.00000000000E+00  0.23626790417E+03  0.23626790417E+03  0.00000000000E+00 0.  1.
         21   -1    0    0  501  502 -0.00000000000E+00 -0.00000000000E+00 -0.20545994669E+03  0.20545994669E+03  0.00000000000E+00 0.  1.
         25    1    1    2    0    0 -0.12935282442E+03  0.12639029323E+03  0.81057209978E+00  0.21984611990E+03  0.12500000000E+03 0.  0.
         25    1    1    2    0    0  0.12935282442E+03 -0.12639029323E+03  0.29997385377E+02  0.22188173097E+03  0.12500000000E+03 0.  0.
</event>
<event>
 4    0  0.2244970E-002  0.1913364E+03  0.7546771E-02  0.1157261E+00
         21   -1    0    0  502  501  0.00000000000E+00  0.00000000000E+00  0.25578349628E+04  0.25578349628E+04  0.00000000000E+00 0.  1.
         21   -1    0    0  501  502 -0.00000000000E+00 -0.00000000000E+00 -0.14312738217E+02  0.14312738217E+02  0.00000000000E+00 0.  1.
         25    1    1    2    0    0  0.13913082243E+03  0.10520572463E+02  0.15335174634E+04  0.15449171107E+04  0.12500000000E+03 0.  0.
         25    1    1    2    0    0 -0.13913082243E+03 -0.10520572463E+02  0.10100047612E+04  0.10272305904E+04  0.12500000000E+03 0.  0.
</event>
<event>
 4    0  0.2244970E-002  0.2208752E+03  0.7546771E-02  0.1133232E+00
         21   -1    0    0  502  501  0.00000000000E+00  0.00000000000E+00  0.75888518941E+02  0.75888518941E+02  0.00000000000E+00 0. -1.
         21   -1    0    0  501  502 -0.00000000000E+00 -0.00000000000E+00 -0.64286225543E+03  0.64286225543E+03  0.00000000000E+00 0. -1.
         25    1    1    2    0    0  0.12510141474E+03 -0.94414107258E+02 -0.13263121980E+03  0.24037559794E+03  0.12500000000E+03 0.  0.
         25    1    1    2    0    0 -0.12510141474E+03  0.94414107258E+02 -0.43434251669E+03  0.47837517643E+03  0.12500000000E+03 0.  0.
</event>
<event>
 4    0  0.2244970E-002  0.2492063E+03  0.7546771E-02  0.1113807E+00
         21   -1    0    0  502  501  0.00000000000E+00  0.00000000000E+00  0.60211763563E+03  0.60211763563E+03  0.00000000000E+00 0.  1.
         21   -1    0    0  501  502 -0.00000000000E+00 -0.00000000000E+00 -0.10314224056E+03  0.10314224056E+03  0.00000000000E+00 0.  1.
         25    1    1    2    0    0  0.44244997009E+02 -0.91095728084E+02  0.51879659343E+03  0.54316752184E+03  0.12500000000E+03 0.  0.
         25    1    1    2    0    0 -0.44244997009E+02  0.91095728084E+02 -0.19821198352E+02  0.16209235435E+03  0.12500000000E+03 0.  0.
</event>
<event>
 4    0  0.2244970E-002  0.2073259E+03  0.7546771E-02  0.1143701E+00
         21   -1    0    0  502  501  0.00000000000E+00  0.00000000000E+00  0.17805924576E+03  0.17805924576E+03  0.00000000000E+00 0. -1.
         21   -1    0    0  501  502 -0.00000000000E+00 -0.00000000000E+00 -0.24140301886E+03  0.24140301886E+03  0.00000000000E+00 0. -1.
         25    1    1    2    0    0  0.10632203484E+03 -0.10221173864E+03  0.44079575528E+02  0.19829176379E+03  0.12500000000E+03 0.  0.
         25    1    1    2    0    0 -0.10632203484E+03  0.10221173864E+03 -0.10742334863E+03  0.22117050083E+03  0.12500000000E+03 0.  0.
</event>
<event>
 4    0  0.2244970E-002  0.2906987E+03  0.7546771E-02  0.1089985E+00
         21   -1    0    0  502  501  0.00000000000E+00  0.00000000000E+00  0.56455696947E+03  0.56455696947E+03  0.00000000000E+00 0.  1.
         21   -1    0    0  501  502 -0.00000000000E+00 -0.00000000000E+00 -0.14968500525E+03  0.14968500525E+03  0.00000000000E+00 0.  1.
         25    1    1    2    0    0 -0.83221405708E+02 -0.24881804875E+03  0.19924191352E+03  0.35236141085E+03  0.12500000000E+03 0.  0.
         25    1    1    2    0    0  0.83221405708E+02  0.24881804875E+03  0.21563005070E+03  0.36188056388E+03  0.12500000000E+03 0.  0.
</event>
<event>
 4    0  0.2244970E-002  0.1905419E+03  0.7546771E-02  0.1157973E+00
         21   -1    0    0  502  501  0.00000000000E+00  0.00000000000E+00  0.17053023943E+03  0.17053023943E+03  0.00000000000E+00 0. -1.
         21   -1    0    0  501  502 -0.00000000000E+00 -0.00000000000E+00 -0.21290202218E+03  0.21290202218E+03  0.00000000000E+00 0. -1.
         25    1    1    2    0    0  0.12202455331E+03  0.37043481077E+02  0.45699477936E+02  0.18432485829E+03  0.12500000000E+03 0.  0.
         25    1    1    2    0    0 -0.12202455331E+03 -0.37043481077E+02 -0.88071260685E+02  0.19910740332E+03  0.12500000000E+03 0.  0.
</event>
<event>
 4    0  0.2244970E-002  0.1442678E+03  0.7546771E-02  0.1207699E+00
         21   -1    0    0  502  501  0.00000000000E+00  0.00000000000E+00  0.25310415505E+03  0.25310415505E+03  0.00000000000E+00 0.  1.
         21   -1    0    0  501  502 -0.00000000000E+00 -0.00000000000E+00 -0.82231776382E+02  0.82231776382E+02  0.00000000000E+00 0.  1.
         25    1    1    2    0    0  0.32730949825E+01  0.32223097664E+02  0.16020782685E+03  0.20576828949E+03  0.12500000000E+03 0.  0.
         25    1    1    2    0    0 -0.32730949825E+01 -0.32223097664E+02  0.10664551816E+02  0.12956764195E+03  0.12500000000E+03 0.  0.
</event>
<event>
 4    0  0.2244970E-002  0.1988474E+03  0.7546771E-02  0.1150715E+00
         21   -1    0    0  502  501  0.00000000000E+00  0.00000000000E+00  0.73579531878E+02  0.73579531878E+02  0.00000000000E+00 0. -1.
         21   -1    0    0  501  502 -0.00000000000E+00 -0.00000000000E+00 -0.53738179014E+03  0.53738179014E+03  0.00000000000E+00 0. -1.
         25    1    1    2    0    0  0.24117453465E+02  0.91528561046E+02 -0.41977827628E+03  0.44810482065E+03  0.12500000000E+03 0.  0.
         25    1    1    2    0    0 -0.24117453465E+02 -0.91528561046E+02 -0.44023981976E+02  0.16285650137E+03  0.12500000000E+03 0.  0.
</event>
<event>
 4    0  0.2244970E-002  0.3900939E+03  0.7546771E-02  0.1047265E+00
         21   -1    0    0  502  501  0.00000000000E+00  0.00000000000E+00  0.59407126372E+03  0.59407126372E+03  0.00000000000E+00 0.  1.
         21   -1    0    0  501  502 -0.00000000000E+00 -0.00000000000E+00 -0.25615314034E+03  0.25615314034E+03  0.00000000000E+00 0.  1.
         25    1    1    2    0    0 -0.19425471204E+03  0.20554059675E+03  0.42814634314E+03  0.52812509996E+03  0.12500000000E+03 0.  0.
         25    1    1    2    0    0  0.19425471204E+03 -0.20554059675E+03 -0.90228219764E+02  0.32209930411E+03  0.12500000000E+03 0.  0.
</event>
<event>
 4    0  0.2244970E-002  0.1764395E+03  0.7546771E-02  0.1171294E+00
         21   -1    0    0  502  501  0.00000000000E+00  0.00000000000E+00  0.37355419200E+03  0.37355419200E+03  0.00000000000E+00 0. -1.
         21   -1    0    0  501  502 -0.00000000000E+00 -0.00000000000E+00 -0.83337037762E+02  0.83337037762E+02  0.00000000000E+00 0. -1.
         25    1    1    2    0    0 -0.10807918738E+03 -0.45595866848E+02  0.91010107673E+02  0.19408228543E+03  0.12500000000E+03 0.  0.
         25    1    1    2    0    0  0.10807918738E+03  0.45595866848E+02  0.19920704656E+03  0.26280894433E+03  0.12500000000E+03 0.  0.
</event>
<event>
 4    0  0.2244970E-002  0.5040185E+03  0.7546771E-02  0.1012735E+00
         21   -1    0    0  502  501  0.00000000000E+00  0.00000000000E+00  0.62909670628E+03  0.62909670628E+03  0.00000000000E+00 0.  1.
         21   -1    0    0  501  502 -0.00000000000E+00 -0.00000000000E+00 -0.40380851409E+03  0.40380851409E+03  0.00000000000E+00 0. -1.
         25    1    1    2    0    0 -0.22992764676E+03 -0.75124769487E+02 -0.32196478212E+03  0.42165954829E+03  0.12500000000E+03 0.  0.
         25    1    1    2    0    0  0.22992764676E+03  0.75124769487E+02  0.54725297432E+03  0.61124567208E+03  0.12500000000E+03 0.  0.
</event>
<event>
 4    0  0.2244970E-002  0.2001971E+03  0.7546771E-02  0.1149573E+00
         21   -1    0    0  502  501  0.00000000000E+00  0.00000000000E+00  0.94772828544E+03  0.94772828544E+03  0.00000000000E+00 0. -1.
         21   -1    0    0  501  502 -0.00000000000E+00 -0.00000000000E+00 -0.42289430569E+02  0.42289430569E+02  0.00000000000E+00 0. -1.
         25    1    1    2    0    0  0.65205350208E+02  0.73146939225E+02  0.75404978015E+03  0.77059605719E+03  0.12500000000E+03 0.  0.
         25    1    1    2    0    0 -0.65205350208E+02 -0.73146939225E+02  0.15138907472E+03  0.21942165882E+03  0.12500000000E+03 0.  0.
</event>
<event>
 4    0  0.2244970E-002  0.1926401E+03  0.7546771E-02  0.1156101E+00
         21   -1    0    0  502  501  0.00000000000E+00  0.00000000000E+00  0.61390977952E+02  0.61390977952E+02  0.00000000000E+00 0. -1.
         21   -1    0    0  501  502 -0.00000000000E+00 -0.00000000000E+00 -0.60448971894E+03  0.60448971894E+03  0.00000000000E+00 0. -1.
         25    1    1    2    0    0 -0.32416540829E+02  0.14184230023E+03 -0.24086800141E+03  0.30791632688E+03  0.12500000000E+03 0.  0.
         25    1    1    2    0    0  0.32416540829E+02 -0.14184230023E+03 -0.30223073957E+03  0.35796437001E+03  0.12500000000E+03 0.  0.
</event>
<event>
 4    0  0.2244970E-002  0.2184380E+03  0.7546771E-02  0.1135053E+00
         21   -1    0    0  502  501  0.00000000000E+00  0.00000000000E+00  0.55866999265E+03  0.55866999265E+03  0.00000000000E+00 0.  1.
         21   -1    0    0  501  502 -0.00000000000E+00 -0.00000000000E+00 -0.85408509593E+02  0.85408509593E+02  0.00000000000E+00 0.  1.
         25    1    1    2    0    0 -0.87799027463E+02 -0.14315839681E+03  0.14471335975E+03  0.25449941511E+03  0.12500000000E+03 0.  0.
         25    1    1    2    0    0  0.87799027463E+02  0.14315839681E+03  0.32854812331E+03  0.38957908714E+03  0.12500000000E+03 0.  0.
</event>
<event>
 4    0  0.2244970E-002  0.2129839E+03  0.7546771E-02  0.1139225E+00
         21   -1    0    0  502  501  0.00000000000E+00  0.00000000000E+00  0.10468210788E+03  0.10468210788E+03  0.00000000000E+00 0. -1.
         21   -1    0    0  501  502 -0.00000000000E+00 -0.00000000000E+00 -0.43333223683E+03  0.43333223683E+03  0.00000000000E+00 0. -1.
         25    1    1    2    0    0  0.15976426093E+03  0.59526100486E+02 -0.19699745425E+03  0.28896534860E+03  0.12500000000E+03 0.  0.
         25    1    1    2    0    0 -0.15976426093E+03 -0.59526100486E+02 -0.13165267469E+03  0.24904899611E+03  0.12500000000E+03 0.  0.
</event>
<event>
 4    0  0.2244970E-002  0.1863112E+03  0.7546771E-02  0.1161831E+00
         21   -1    0    0  502  501  0.00000000000E+00  0.00000000000E+00  0.52442206264E+02  0.52442206264E+02  0.00000000000E+00 0.  1.
         21   -1    0    0  501  502 -0.00000000000E+00 -0.00000000000E+00 -0.66190680608E+03  0.66190680608E+03  0.00000000000E+00 0.  1.
         25    1    1    2    0    0 -0.87136564580E+02  0.54769692995E+02 -0.48142015853E+03  0.50792014057E+03  0.12500000000E+03 0.  0.
         25    1    1    2    0    0  0.87136564580E+02 -0.54769692995E+02 -0.12804444129E+03  0.20642887178E+03  0.12500000000E+03 0.  0.
</event>
<event>
 4    0  0.2244970E-002  0.2318135E+03  0.7546771E-02  0.1125370E+00
         21   -1    0    0  502  501  0.00000000000E+00  0.00000000000E+00  0.38486451437E+03  0.38486451437E+03  0.00000000000E+00 0. -1.
         21   -1    0    0  501  502 -0.00000000000E+00 -0.00000000000E+00 -0.13962708107E+03  0.13962708107E+03  0.00000000000E+00 0. -1.
         25    1    1    2    0    0  0.16350453399E+02  0.19372863684E+03  0.10256005980E+03  0.25286693719E+03  0.12500000000E+03 0.  0.
         25    1    1    2    0    0 -0.16350453399E+02 -0.19372863684E+03  0.14267737351E+03  0.27162465825E+03  0.12500000000E+03 0.  0.
</event>
<event>
 4    0  0.2244970E-002  0.2311618E+03  0.7546771E-02  0.1125825E+00
         21   -1    0    0  502  501  0.00000000000E+00  0.00000000000E+00  0.17055728924E+03  0.17055728924E+03  0.00000000000E+00 0. -1.
         21   -1    0    0  501  502 -0.00000000000E+00 -0.00000000000E+00 -0.31330094960E+03  0.31330094960E+03  0.00000000000E+00 0. -1.
         25    1    1    2    0    0  0.13741766091E+03  0.24478913657E+02  0.70314794547E+02  0.20012996046E+03  0.12500000000E+03 0.  0.
         25    1    1    2    0    0 -0.13741766091E+03 -0.24478913657E+02 -0.21305845491E+03  0.28372827838E+03  0.12500000000E+03 0.  0.
</event>
<event>
 4    0  0.2244970E-002  0.2987143E+03  0.7546771E-02  0.1085885E+00
         21   -1    0    0  502  501  0.00000000000E+00  0.00000000000E+00  0.39870344671E+03  0.39870344671E+03  0.00000000000E+00 0. -1.
         21   -1    0    0  501  502 -0.00000000000E+00 -0.00000000000E+00 -0.22380103451E+03  0.22380103451E+03  0.00000000000E+00 0. -1.
         25    1    1    2    0    0  0.53647245403E+02 -0.26559590568E+03  0.10166303671E+03  0.31524527766E+03  0.12500000000E+03 0.  0.
         25    1    1    2    0    0 -0.53647245403E+02  0.26559590568E+03  0.73239375495E+02  0.30725920356E+03  0.12500000000E+03 0.  0.
</event>
<event>
 4    0  0.2244970E-002  0.3003378E+03  0.7546771E-02  0.1085072E+00
         21   -1    0    0  502  501  0.00000000000E+00  0.00000000000E+00  0.50276076711E+03  0.50276076711E+03  0.00000000000E+00 0. -1.
         21   -1    0    0  501  502 -0.00000000000E+00 -0.00000000000E+00 -0.17941490542E+03  0.17941490542E+03  0.00000000000E+00 0.  1.
         25    1    1    2    0    0  0.16941099332E+02 -0.27238033542E+03  0.17301425497E+03  0.34646353401E+03  0.12500000000E+03 0.  0.
         25    1    1    2    0    0 -0.16941099332E+02  0.27238033542E+03  0.15033160671E+03  0.33571213852E+03  0.12500000000E+03 0.  0.
</event>
<event>
 4    0  0.2244970E-002  0.3086895E+03  0.7546771E-02  0.1080976E+00
         21   -1    0    0  502  501  0.00000000000E+00  0.00000000000E+00  0.49135545168E+03  0.49135545168E+03  0.00000000000E+00 0.  1.
         21   -1    0    0  501  502 -0.00000000000E+00 -0.00000000000E+00 -0.19393134796E+03  0.19393134796E+03  0.00000000000E+00 0.  1.
         25    1    1    2    0    0  0.34338127204E+02  0.12709479366E+03  0.42583731203E+03  0.46291965812E+03  0.12500000000E+03 0.  0.
         25    1    1    2    0    0 -0.34338127204E+02 -0.12709479366E+03 -0.12841320831E+03  0.22236714151E+03  0.12500000000E+03 0.  0.
</event>
<event>
 4    0  0.2244970E-002  0.3842331E+03  0.7546771E-02  0.1049380E+00
         21   -1    0    0  502  501  0.00000000000E+00  0.00000000000E+00  0.17206321394E+03  0.17206321394E+03  0.00000000000E+00 0. -1.
         21   -1    0    0  501  502 -0.00000000000E+00 -0.00000000000E+00 -0.85802818889E+03  0.85802818889E+03  0.00000000000E+00 0. -1.
         25    1    1    2    0    0 -0.24302681682E+03  0.26717636529E+03 -0.39600819771E+03  0.55035691738E+03  0.12500000000E+03 0.  0.
         25    1    1    2    0    0  0.24302681682E+03 -0.26717636529E+03 -0.28995677724E+03  0.47973448545E+03  0.12500000000E+03 0.  0.
</event>
<event>
 4    0  0.2244970E-002  0.1934685E+03  0.7546771E-02  0.1155370E+00
         21   -1    0    0  502  501  0.00000000000E+00  0.00000000000E+00  0.13938319206E+04  0.13938319206E+04  0.00000000000E+00 0.  1.
         21   -1    0    0  501  502 -0.00000000000E+00 -0.00000000000E+00 -0.26854077619E+02  0.26854077619E+02  0.00000000000E+00 0.  1.
         25    1    1    2    0    0  0.11750152066E+03  0.64410220358E+01  0.10110043912E+04  0.10254769492E+04  0.12500000000E+03 0.  0.
         25    1    1    2    0    0 -0.11750152066E+03 -0.64410220358E+01  0.35597345172E+03  0.39520904905E+03  0.12500000000E+03 0.  0.
</event>
<event>
 4    0  0.2244970E-002  0.2358623E+03  0.7546771E-02  0.1122580E+00
         21   -1    0    0  502  501  0.00000000000E+00  0.00000000000E+00  0.14579812768E+03  0.14579812768E+03  0.00000000000E+00 0. -1.
         21   -1    0    0  501  502 -0.00000000000E+00 -0.00000000000E+00 -0.38156198261E+03  0.38156198261E+03  0.00000000000E+00 0. -1.
         25    1    1    2    0    0  0.16346900820E+03 -0.11296588968E+03 -0.14343888721E+03  0.27510565832E+03  0.12500000000E+03 0.  0.
         25    1    1    2    0    0 -0.16346900820E+03  0.11296588968E+03 -0.92324967725E+02  0.25225445197E+03  0.12500000000E+03 0.  0.
</event>
<event>
 4    0  0.2244970E-002  0.1878348E+03  0.7546771E-02  0.1160429E+00
         21   -1    0    0  502  501  0.00000000000E+00  0.00000000000E+00  0.62672353749E+02  0.62672353749E+02  0.00000000000E+00 0.  1.
         21   -1    0    0  501  502 -0.00000000000E+00 -0.00000000000E+00 -0.56295820093E+03  0.56295820093E+03  0.00000000000E+00 0.  1.
         25    1    1    2    0    0  0.24827702692E+02  0.12299353497E+03 -0.35431992526E+03  0.39612047903E+03  0.12500000000E+03 0.  0.
         25    1    1    2    0    0 -0.24827702692E+02 -0.12299353497E+03 -0.14596592192E+03  0.22951007566E+03  0.12500000000E+03 0.  0.
</event>
<event>
 4    0  0.2244970E-002  0.2261492E+03  0.7546771E-02  0.1129380E+00
         21   -1    0    0  502  501  0.00000000000E+00  0.00000000000E+00  0.20889109895E+03  0.20889109895E+03  0.00000000000E+00 0.  1.
         21   -1    0    0  501  502 -0.00000000000E+00 -0.00000000000E+00 -0.24483306546E+03  0.24483306546E+03  0.00000000000E+00 0.  1.
         25    1    1    2    0    0  0.48422859744E+01  0.18750519977E+03 -0.36380959534E+02  0.22832043687E+03  0.12500000000E+03 0.  0.
         25    1    1    2    0    0 -0.48422859744E+01 -0.18750519977E+03  0.43899302522E+00  0.22540372754E+03  0.12500000000E+03 0.  0.
</event>
<event>
 4    0  0.2244970E-002  0.2131093E+03  0.7546771E-02  0.1139127E+00
         21   -1    0    0  502  501  0.00000000000E+00  0.00000000000E+00  0.20805658537E+03  0.20805658537E+03  0.00000000000E+00 0.  1.
         21   -1    0    0  501  502 -0.00000000000E+00 -0.00000000000E+00 -0.21828471301E+03  0.21828471301E+03  0.00000000000E+00 0.  1.
         25    1    1    2    0    0 -0.27692513979E+02 -0.43725070061E+02 -0.16981812551E+03  0.21712197686E+03  0.12500000000E+03 0.  0.
         25    1    1    2    0    0  0.27692513979E+02  0.43725070061E+02  0.15958999787E+03  0.20921932153E+03  0.12500000000E+03 0.  0.
</event>
<event>
 4    0  0.2244970E-002  0.2406176E+03  0.7546771E-02  0.1119382E+00
         21   -1    0    0  502  501  0.00000000000E+00  0.00000000000E+00  0.92898095818E+03  0.92898095818E+03  0.00000000000E+00 0. -1.
         21   -1    0    0  501  502 -0.00000000000E+00 -0.00000000000E+00 -0.62322936177E+02  0.62322936177E+02  0.00000000000E+00 0.  1.
         25    1    1    2    0    0  0.20475195647E+03  0.13456431412E+02  0.40667862524E+03  0.47235256266E+03  0.12500000000E+03 0.  0.
         25    1    1    2    0    0 -0.20475195647E+03 -0.13456431412E+02  0.45997939677E+03  0.51895133170E+03  0.12500000000E+03 0.  0.
</event>
<event>
 4    0  0.2244970E-002  0.1979893E+03  0.7546771E-02  0.1151447E+00
         21   -1    0    0  502  501  0.00000000000E+00  0.00000000000E+00  0.22208258244E+04  0.22208258244E+04  0.00000000000E+00 0.  1.
         21   -1    0    0  501  502 -0.00000000000E+00 -0.00000000000E+00 -0.17650978583E+02  0.17650978583E+02  0.00000000000E+00 0.  1.
         25    1    1    2    0    0 -0.94934472984E+02  0.68299953407E+02  0.53919485402E+03  0.56571505937E+03  0.12500000000E+03 0.  0.
         25    1    1    2    0    0  0.94934472984E+02 -0.68299953407E+02  0.16639799918E+04  0.16727617437E+04  0.12500000000E+03 0.  0.
</event>
<event>
 4    0  0.2244970E-002  0.3105307E+03  0.7546771E-02  0.1080092E+00
         21   -1    0    0  502  501  0.00000000000E+00  0.00000000000E+00  0.25527991142E+03  0.25527991142E+03  0.00000000000E+00 0. -1.
         21   -1    0    0  501  502 -0.00000000000E+00 -0.00000000000E+00 -0.37773962350E+03  0.37773962350E+03  0.00000000000E+00 0. -1.
         25    1    1    2    0    0  0.12390708319E+03  0.32635940103E+02  0.19740029340E+03  0.26647691398E+03  0.12500000000E+03 0.  0.
         25    1    1    2    0    0 -0.12390708319E+03 -0.32635940103E+02 -0.31986000549E+03  0.36654262093E+03  0.12500000000E+03 0.  0.
</event>
<event>
 4    0  0.2244970E-002  0.2123887E+03  0.7546771E-02  0.1139688E+00
         21   -1    0    0  502  501  0.00000000000E+00  0.00000000000E+00  0.31904795715E+03  0.31904795715E+03  0.00000000000E+00 0.  1.
         21   -1    0    0  501  502 -0.00000000000E+00 -0.00000000000E+00 -0.14138609514E+03  0.14138609514E+03  0.00000000000E+00 0.  1.
         25    1    1    2    0    0  0.74445273237E+02  0.44458411996E+02 -0.71816813595E+02  0.16822991357E+03  0.12500000000E+03 0.  0.
         25    1    1    2    0    0 -0.74445273237E+02 -0.44458411996E+02  0.24947867560E+03  0.29220413872E+03  0.12500000000E+03 0.  0.
</event>
<event>
 4    0  0.2244970E-002  0.2826160E+03  0.7546771E-02  0.1094269E+00
         21   -1    0    0  502  501  0.00000000000E+00  0.00000000000E+00  0.27151458452E+03  0.27151458452E+03  0.00000000000E+00 0. -1.
         21   -1    0    0  501  502 -0.00000000000E+00 -0.00000000000E+00 -0.29417135424E+03  0.29417135424E+03  0.00000000000E+00 0. -1.
         25    1    1    2    0    0  0.54822566157E+02  0.24730546544E+03 -0.23041581517E+01  0.28248153239E+03  0.12500000000E+03 0.  0.
         25    1    1    2    0    0 -0.54822566157E+02 -0.24730546544E+03 -0.20352611565E+02  0.28320440638E+03  0.12500000000E+03 0.  0.
</event>
<event>
 4    0  0.2244970E-002  0.2101012E+03  0.7546771E-02  0.1141486E+00
         21   -1    0    0  502  501  0.00000000000E+00  0.00000000000E+00  0.18379087940E+04  0.18379087940E+04  0.00000000000E+00 0. -1.
         21   -1    0    0  501  502 -0.00000000000E+00 -0.00000000000E+00 -0.24017798485E+02  0.24017798485E+02  0.00000000000E+00 0. -1.
         25    1    1    2    0    0 -0.11739522492E+03 -0.13840527138E+02  0.37256481137E+03  0.41036902624E+03  0.12500000000E+03 0.  0.
         25    1    1    2    0    0  0.11739522492E+03  0.13840527138E+02  0.14413261841E+04  0.14515575662E+04  0.12500000000E+03 0.  0.
</event>
<event>
 4    0  0.2244970E-002  0.2726460E+03  0.7546771E-02  0.1099775E+00
         21   -1    0    0  502  501  0.00000000000E+00  0.00000000000E+00  0.56221649939E+03  0.56221649939E+03  0.00000000000E+00 0.  1.
         21   -1    0    0  501  502 -0.00000000000E+00 -0.00000000000E+00 -0.13221921818E+03  0.13221921818E+03  0.00000000000E+00 0.  1.
         25    1    1    2    0    0  0.21807272875E+03 -0.60569281570E+02  0.10480878777E+03  0.27898787588E+03  0.12500000000E+03 0.  0.
         25    1    1    2    0    0 -0.21807272875E+03  0.60569281570E+02  0.32518849344E+03  0.41544784169E+03  0.12500000000E+03 0.  0.
</event>
<event>
 4    0  0.2244970E-002  0.2154970E+03  0.7546771E-02  0.1137285E+00
         21   -1    0    0  502  501  0.00000000000E+00  0.00000000000E+00  0.86164136926E+02  0.86164136926E+02  0.00000000000E+00 0. -1.
         21   -1    0    0  501  502 -0.00000000000E+00 -0.00000000000E+00 -0.53895939218E+03  0.53895939218E+03  0.00000000000E+00 0. -1.
         25    1    1    2    0    0 -0.94319036469E+02  0.14605799419E+03 -0.19131800772E+03  0.28715256988E+03  0.12500000000E+03 0.  0.
         25    1    1    2    0    0  0.94319036469E+02 -0.14605799419E+03 -0.26147724754E+03  0.33797095923E+03  0.12500000000E+03 0.  0.
</event>
<event>
 4    0  0.2244970E-002  0.2809465E+03  0.7546771E-02  0.1095173E+00
         21   -1    0    0  502  501  0.00000000000E+00  0.00000000000E+00  0.10789965199E+03  0.10789965199E+03  0.00000000000E+00 0.  1.
         21   -1    0    0  501  502 -0.00000000000E+00 -0.00000000000E+00 -0.73152149476E+03  0.73152149476E+03  0.00000000000E+00 0.  1.
         25    1    1    2    0    0  0.10828429506E+03  0.22098915622E+03 -0.23355166373E+03  0.36157029103E+03  0.12500000000E+03 0.  0.
         25    1    1    2    0    0 -0.10828429506E+03 -0.22098915622E+03 -0.39007017905E+03  0.47785085572E+03  0.12500000000E+03 0.  0.
</event>
<event>
 4    0  0.2244970E-002  0.1988391E+03  0.7546771E-02  0.1150722E+00
         21   -1    0    0  502  501  0.00000000000E+00  0.00000000000E+00  0.17817388091E+03  0.17817388091E+03  0.00000000000E+00 0.  1.
         21   -1    0    0  501  502 -0.00000000000E+00 -0.00000000000E+00 -0.22190114008E+03  0.22190114008E+03  0.00000000000E+00 0.  1.
         25    1    1    2    0    0 -0.24575154714E+02  0.44284594838E+02 -0.16885008049E+03  0.21610278399E+03  0.12500000000E+03 0.  0.
         25    1    1    2    0    0  0.24575154714E+02 -0.44284594838E+02  0.12512282132E+03  0.18397223699E+03  0.12500000000E+03 0.  0.
</event>
<event>
 4    0  0.2244970E-002  0.2274939E+03  0.7546771E-02  0.1128416E+00
         21   -1    0    0  502  501  0.00000000000E+00  0.00000000000E+00  0.77133937725E+03  0.77133937725E+03  0.00000000000E+00 0.  1.
         21   -1    0    0  501  502 -0.00000000000E+00 -0.00000000000E+00 -0.67095597708E+02  0.67095597708E+02  0.00000000000E+00 0.  1.
         25    1    1    2    0    0 -0.14069872930E+03  0.10825460739E+03  0.47728453319E+03  0.52434789794E+03  0.12500000000E+03 0.  0.
         25    1    1    2    0    0  0.14069872930E+03 -0.10825460739E+03  0.22695924635E+03  0.31408707702E+03  0.12500000000E+03 0.  0.
</event>
<event>
 4    0  0.2244970E-002  0.2460784E+03  0.7546771E-02  0.1115809E+00
         21   -1    0    0  502  501  0.00000000000E+00  0.00000000000E+00  0.54725545803E+03  0.54725545803E+03  0.00000000000E+00 0.  1.
         21   -1    0    0  501  502 -0.00000000000E+00 -0.00000000000E+00 -0.11065141580E+03  0.11065141580E+03  0.00000000000E+00 0.  1.
         25    1    1    2    0    0  0.11306818875E+03 -0.16110175094E+03  0.32348740189E+03  0.39875718005E+03  0.12500000000E+03 0.  0.
         25    1    1    2    0    0 -0.11306818875E+03  0.16110175094E+03  0.11311664034E+03  0.25914969378E+03  0.12500000000E+03 0.  0.
</event>
<event>
 4    0  0.2244970E-002  0.2699179E+03  0.7546771E-02  0.1101327E+00
         21   -1    0    0  502  501  0.00000000000E+00  0.00000000000E+00  0.31996720520E+04  0.31996720520E+04  0.00000000000E+00 0. -1.
         21   -1    0    0  501  502 -0.00000000000E+00 -0.00000000000E+00 -0.22769730445E+02  0.22769730445E+02  0.00000000000E+00 0. -1.
         25    1    1    2    0    0  0.14684580526E+03 -0.53412865097E+02  0.50713350705E+03  0.54518438959E+03  0.12500000000E+03 0.  0.
         25    1    1    2    0    0 -0.14684580526E+03  0.53412865097E+02  0.26697688145E+04  0.26772573929E+04  0.12500000000E+03 0.  0.
</event>
<event>
 4    0  0.2244970E-002  0.3056931E+03  0.7546771E-02  0.1082429E+00
         21   -1    0    0  502  501  0.00000000000E+00  0.00000000000E+00  0.48021331825E+03  0.48021331825E+03  0.00000000000E+00 0.  1.
         21   -1    0    0  501  502 -0.00000000000E+00 -0.00000000000E+00 -0.19459741672E+03  0.19459741672E+03  0.00000000000E+00 0.  1.
         25    1    1    2    0    0  0.18719598487E+03 -0.12542293478E+03  0.32433868402E+03  0.41423885775E+03  0.12500000000E+03 0.  0.
         25    1    1    2    0    0 -0.18719598487E+03  0.12542293478E+03 -0.38722782490E+02  0.26057187723E+03  0.12500000000E+03 0.  0.
</event>
<event>
 4    0  0.2244970E-002  0.1909804E+03  0.7546771E-02  0.1157580E+00
         21   -1    0    0  502  501  0.00000000000E+00  0.00000000000E+00  0.25206434260E+04  0.25206434260E+04  0.00000000000E+00 0.  1.
         21   -1    0    0  501  502 -0.00000000000E+00 -0.00000000000E+00 -0.14469918583E+02  0.14469918583E+02  0.00000000000E+00 0.  1.
         25    1    1    2    0    0  0.75480004963E+01  0.14328676538E+03  0.11459770303E+04  0.11616696705E+04  0.12500000000E+03 0.  0.
         25    1    1    2    0    0 -0.75480004963E+01 -0.14328676538E+03  0.13601964771E+04  0.13734436740E+04  0.12500000000E+03 0.  0.
</event>
<event>
 4    0  0.2244970E-002  0.1745178E+03  0.7546771E-02  0.1173217E+00
         21   -1    0    0  502  501  0.00000000000E+00  0.00000000000E+00  0.20318519581E+03  0.20318519581E+03  0.00000000000E+00 0.  1.
         21   -1    0    0  501  502 -0.00000000000E+00 -0.00000000000E+00 -0.14989514904E+03  0.14989514904E+03  0.00000000000E+00 0.  1.
         25    1    1    2    0    0 -0.60777231819E+02  0.10536810493E+03  0.32643814798E+02  0.17744556373E+03  0.12500000000E+03 0.  0.
         25    1    1    2    0    0  0.60777231819E+02 -0.10536810493E+03  0.20646231969E+02  0.17563478112E+03  0.12500000000E+03 0.  0.
</event>
<event>
 4    0  0.2244970E-002  0.1771425E+03  0.7546771E-02  0.1170598E+00
         21   -1    0    0  502  501  0.00000000000E+00  0.00000000000E+00  0.34741358352E+03  0.34741358352E+03  0.00000000000E+00 0.  1.
         21   -1    0    0  501  502 -0.00000000000E+00 -0.00000000000E+00 -0.90323073041E+02  0.90323073041E+02  0.00000000000E+00 0.  1.
         25    1    1    2    0    0  0.43806479305E+02  0.72994854590E+02  0.24250557175E+03  0.28579924555E+03  0.12500000000E+03 0.  0.
         25    1    1    2    0    0 -0.43806479305E+02 -0.72994854590E+02  0.14584938721E+02  0.15193741101E+03  0.12500000000E+03 0.  0.
</event>
<event>
 4    0  0.2244970E-002  0.1953582E+03  0.7546771E-02  0.1153715E+00
         21   -1    0    0  502  501  0.00000000000E+00  0.00000000000E+00  0.30210376380E+03  0.30210376380E+03  0.00000000000E+00 0.  1.
         21   -1    0    0  501  502 -0.00000000000E+00 -0.00000000000E+00 -0.12633025031E+03  0.12633025031E+03  0.00000000000E+00 0.  1.
         25    1    1    2    0    0 -0.54465526705E+02  0.13484008401E+03  0.46982909614E+02  0.19743539614E+03  0.12500000000E+03 0.  0.
         25    1    1    2    0    0  0.54465526705E+02 -0.13484008401E+03  0.12879060388E+03  0.23099861796E+03  0.12500000000E+03 0.  0.
</event>
<event>
 4    0  0.2244970E-002  0.2173006E+03  0.7546771E-02  0.1135912E+00
         21   -1    0    0  502  501  0.00000000000E+00  0.00000000000E+00  0.37765154229E+02  0.37765154229E+02  0.00000000000E+00 0. -1.
         21   -1    0    0  501  502 -0.00000000000E+00 -0.00000000000E+00 -0.12503473978E+04  0.12503473978E+04  0.00000000000E+00 0.  1.
         25    1    1    2    0    0 -0.14450006379E+02  0.16384230047E+03 -0.80602907477E+03  0.83208231052E+03  0.12500000000E+03 0.  0.
         25    1    1    2    0    0  0.14450006379E+02 -0.16384230047E+03 -0.40655316878E+03  0.45603024149E+03  0.12500000000E+03 0.  0.
</event>
<event>
 4    0  0.2244970E-002  0.2522623E+03  0.7546771E-02  0.1111883E+00
         21   -1    0    0  502  501  0.00000000000E+00  0.00000000000E+00  0.83953940772E+02  0.83953940772E+02  0.00000000000E+00 0. -1.
         21   -1    0    0  501  502 -0.00000000000E+00 -0.00000000000E+00 -0.75799028729E+03  0.75799028729E+03  0.00000000000E+00 0. -1.
         25    1    1    2    0    0 -0.10370607895E+03 -0.17811582988E+03 -0.46112784339E+03  0.52033074829E+03  0.12500000000E+03 0.  0.
         25    1    1    2    0    0  0.10370607895E+03  0.17811582988E+03 -0.21290850312E+03  0.32161347977E+03  0.12500000000E+03 0.  0.
</event>
<event>
 4    0  0.2244970E-002  0.2629448E+03  0.7546771E-02  0.1105387E+00
         21   -1    0    0  502  501  0.00000000000E+00  0.00000000000E+00  0.39204257727E+03  0.39204257727E+03  0.00000000000E+00 0. -1.
         21   -1    0    0  501  502 -0.00000000000E+00 -0.00000000000E+00 -0.17635824779E+03  0.17635824779E+03  0.00000000000E+00 0. -1.
         25    1    1    2    0    0  0.13995376727E+03 -0.10469340194E+03 -0.55957875278E+02  0.22204515123E+03  0.12500000000E+03 0.  0.
         25    1    1    2    0    0 -0.13995376727E+03  0.10469340194E+03  0.27164220476E+03  0.34635567382E+03  0.12500000000E+03 0.  0.
</event>
<event>
 4    0  0.2244970E-002  0.1772103E+03  0.7546771E-02  0.1170531E+00
         21   -1    0    0  502  501  0.00000000000E+00  0.00000000000E+00  0.49429290320E+02  0.49429290320E+02  0.00000000000E+00 0.  1.
         21   -1    0    0  501  502 -0.00000000000E+00 -0.00000000000E+00 -0.63532156969E+03  0.63532156969E+03  0.00000000000E+00 0.  1.
         25    1    1    2    0    0  0.10239620822E+03 -0.70901301902E+02 -0.26140514059E+03  0.31538805557E+03  0.12500000000E+03 0.  0.
         25    1    1    2    0    0 -0.10239620822E+03  0.70901301902E+02 -0.32448713879E+03  0.36936280445E+03  0.12500000000E+03 0.  0.
</event>
<event>
 4    0  0.2244970E-002  0.2765931E+03  0.7546771E-02  0.1097564E+00
         21   -1    0    0  502  501  0.00000000000E+00  0.00000000000E+00  0.19089276442E+04  0.19089276442E+04  0.00000000000E+00 0.  1.
         21   -1    0    0  501  502 -0.00000000000E+00 -0.00000000000E+00 -0.40076810816E+02  0.40076810816E+02  0.00000000000E+00 0.  1.
         25    1    1    2    0    0  0.11765988559E+03 -0.13374842982E+02  0.16970733834E+04  0.17057859783E+04  0.12500000000E+03 0.  0.
         25    1    1    2    0    0 -0.11765988559E+03  0.13374842982E+02  0.17177745002E+03  0.24321847676E+03  0.12500000000E+03 0.  0.
</event>
<event>
 4    0  0.2244970E-002  0.2078984E+03  0.7546771E-02  0.1143241E+00
         21   -1    0    0  502  501  0.00000000000E+00  0.00000000000E+00  0.15335894930E+03  0.15335894930E+03  0.00000000000E+00 0. -1.
         21   -1    0    0  501  502 -0.00000000000E+00 -0.00000000000E+00 -0.28183391057E+03  0.28183391057E+03  0.00000000000E+00 0. -1.
         25    1    1    2    0    0  0.12285196957E+03  0.10212511285E+03 -0.16564914363E+02  0.20352282793E+03  0.12500000000E+03 0.  0.
         25    1    1    2    0    0 -0.12285196957E+03 -0.10212511285E+03 -0.11191004690E+03  0.23167003194E+03  0.12500000000E+03 0.  0.
</event>
<event>
 4    0  0.2244970E-002  0.2416082E+03  0.7546771E-02  0.1118726E+00
         21   -1    0    0  502  501  0.00000000000E+00  0.00000000000E+00  0.43852752348E+02  0.43852752348E+02  0.00000000000E+00 0. -1.
         21   -1    0    0  501  502 -0.00000000000E+00 -0.00000000000E+00 -0.13311486047E+04  0.13311486047E+04  0.00000000000E+00 0. -1.
         25    1    1    2    0    0  0.12779782760E+03  0.15518391079E+03 -0.50614137226E+03  0.55876508447E+03  0.12500000000E+03 0.  0.
         25    1    1    2    0    0 -0.12779782760E+03 -0.15518391079E+03 -0.78115448010E+03  0.81623627258E+03  0.12500000000E+03 0.  0.
</event>
<event>
 4    0  0.2244970E-002  0.3164540E+03  0.7546771E-02  0.1077293E+00
         21   -1    0    0  502  501  0.00000000000E+00  0.00000000000E+00  0.53736685462E+03  0.53736685462E+03  0.00000000000E+00 0. -1.
         21   -1    0    0  501  502 -0.00000000000E+00 -0.00000000000E+00 -0.18635899488E+03  0.18635899488E+03  0.00000000000E+00 0. -1.
         25    1    1    2    0    0  0.80292121265E+02  0.25521955566E+02  0.49367443723E+03  0.51617598252E+03  0.12500000000E+03 0.  0.
         25    1    1    2    0    0 -0.80292121265E+02 -0.25521955566E+02 -0.14266657749E+03  0.20754986698E+03  0.12500000000E+03 0.  0.
</event>
<event>
 4    0  0.2244970E-002  0.2006685E+03  0.7546771E-02  0.1149176E+00
         21   -1    0    0  502  501  0.00000000000E+00  0.00000000000E+00  0.31953130229E+03  0.31953130229E+03  0.00000000000E+00 0.  1.
         21   -1    0    0  501  502 -0.00000000000E+00 -0.00000000000E+00 -0.12602164494E+03  0.12602164494E+03  0.00000000000E+00 0.  1.
         25    1    1    2    0    0  0.13523132977E+03  0.71602375634E+01  0.86091828873E+01  0.18449363020E+03  0.12500000000E+03 0.  0.
         25    1    1    2    0    0 -0.13523132977E+03 -0.71602375634E+01  0.18490047447E+03  0.26105931704E+03  0.12500000000E+03 0.  0.
</event>
<event>
 4    0  0.2244970E-002  0.2063976E+03  0.7546771E-02  0.1144451E+00
         21   -1    0    0  502  501  0.00000000000E+00  0.00000000000E+00  0.81748234850E+02  0.81748234850E+02  0.00000000000E+00 0. -1.
         21   -1    0    0  501  502 -0.00000000000E+00 -0.00000000000E+00 -0.52111202686E+03  0.52111202686E+03  0.00000000000E+00 0. -1.
         25    1    1    2    0    0  0.10929122855E+03  0.76019388412E+02 -0.79210708304E+02  0.19905490791E+03  0.12500000000E+03 0.  0.
         25    1    1    2    0    0 -0.10929122855E+03 -0.76019388412E+02 -0.36015308371E+03  0.40380535380E+03  0.12500000000E+03 0.  0.
</event>
<event>
 4    0  0.2244970E-002  0.3342928E+03  0.7546771E-02  0.1069253E+00
         21   -1    0    0  502  501  0.00000000000E+00  0.00000000000E+00  0.28815487880E+04  0.28815487880E+04  0.00000000000E+00 0. -1.
         21   -1    0    0  501  502 -0.00000000000E+00 -0.00000000000E+00 -0.38781798774E+02  0.38781798774E+02  0.00000000000E+00 0. -1.
         25    1    1    2    0    0  0.15880738741E+03 -0.63804600163E+02  0.25506065533E+04  0.25593963357E+04  0.12500000000E+03 0.  0.
         25    1    1    2    0    0 -0.15880738741E+03  0.63804600163E+02  0.29216043590E+03  0.36093425108E+03  0.12500000000E+03 0.  0.
</event>
<event>
 4    0  0.2244970E-002  0.1778282E+03  0.7546771E-02  0.1169922E+00
         21   -1    0    0  502  501  0.00000000000E+00  0.00000000000E+00  0.83017465717E+02  0.83017465717E+02  0.00000000000E+00 0. -1.
         21   -1    0    0  501  502 -0.00000000000E+00 -0.00000000000E+00 -0.38091815226E+03  0.38091815226E+03  0.00000000000E+00 0. -1.
         25    1    1    2    0    0 -0.32724297767E+02 -0.11997348001E+03 -0.17907560912E+03  0.25131173740E+03  0.12500000000E+03 0.  0.
         25    1    1    2    0    0  0.32724297767E+02  0.11997348001E+03 -0.11882507742E+03  0.21262388058E+03  0.12500000000E+03 0.  0.
</event>
<event>
 4    0  0.2244970E-002  0.1884380E+03  0.7546771E-02  0.1159878E+00
         21   -1    0    0  502  501  0.00000000000E+00  0.00000000000E+00  0.28555365800E+03  0.28555365800E+03  0.00000000000E+00 0. -1.
         21   -1    0    0  501  502 -0.00000000000E+00 -0.00000000000E+00 -0.12435102301E+03  0.12435102301E+03  0.00000000000E+00 0. -1.
         25    1    1    2    0    0 -0.39760963458E+02 -0.36249011129E+02  0.22236591563E+03  0.26070390380E+03  0.12500000000E+03 0.  0.
         25    1    1    2    0    0  0.39760963458E+02  0.36249011129E+02 -0.61163280629E+02  0.14920077721E+03  0.12500000000E+03 0.  0.
</event>
<event>
 4    0  0.2244970E-002  0.2024911E+03  0.7546771E-02  0.1147654E+00
         21   -1    0    0  502  501  0.00000000000E+00  0.00000000000E+00  0.46670289416E+02  0.46670289416E+02  0.00000000000E+00 0. -1.
         21   -1    0    0  501  502 -0.00000000000E+00 -0.00000000000E+00 -0.87856019073E+03  0.87856019073E+03  0.00000000000E+00 0. -1.
         25    1    1    2    0    0  0.65376883783E+01  0.82846983099E+02 -0.10544424362E+03  0.18343896121E+03  0.12500000000E+03 0.  0.
         25    1    1    2    0    0 -0.65376883783E+01 -0.82846983099E+02 -0.72644565770E+03  0.74179151894E+03  0.12500000000E+03 0.  0.
</event>
<event>
 4    0  0.2244970E-002  0.1932193E+03  0.7546771E-02  0.1155589E+00
         21   -1    0    0  502  501  0.00000000000E+00  0.00000000000E+00  0.35576152466E+04  0.35576152466E+04  0.00000000000E+00 0. -1.
         21   -1    0    0  501  502 -0.00000000000E+00 -0.00000000000E+00 -0.10494024378E+02  0.10494024378E+02  0.00000000000E+00 0. -1.
         25    1    1    2    0    0  0.47786026495E+02  0.92356050921E+00  0.48670208147E+03  0.50476556281E+03  0.12500000000E+03 0.  0.
         25    1    1    2    0    0 -0.47786026495E+02 -0.92356050921E+00  0.30604191407E+04  0.30633437082E+04  0.12500000000E+03 0.  0.
</event>
<event>
 4    0  0.2244970E-002  0.3816684E+03  0.7546771E-02  0.1050319E+00
         21   -1    0    0  502  501  0.00000000000E+00  0.00000000000E+00  0.21744645664E+04  0.21744645664E+04  0.00000000000E+00 0.  1.
         21   -1    0    0  501  502 -0.00000000000E+00 -0.00000000000E+00 -0.66991558469E+02  0.66991558469E+02  0.00000000000E+00 0.  1.
         25    1    1    2    0    0 -0.42385127649E+02 -0.33861104209E+03  0.71140012108E+03  0.79885484861E+03  0.12500000000E+03 0.  0.
         25    1    1    2    0    0  0.42385127649E+02  0.33861104209E+03  0.13960728869E+04  0.14426012763E+04  0.12500000000E+03 0.  0.
</event>
<event>
 4    0  0.2244970E-002  0.2255520E+03  0.7546771E-02  0.1129810E+00
         21   -1    0    0  502  501  0.00000000000E+00  0.00000000000E+00  0.96509611420E+02  0.96509611420E+02  0.00000000000E+00 0.  1.
         21   -1    0    0  501  502 -0.00000000000E+00 -0.00000000000E+00 -0.52713628492E+03  0.52713628492E+03  0.00000000000E+00 0.  1.
         25    1    1    2    0    0  0.10357269584E+03  0.12948823858E+03 -0.33705245021E+03  0.39588364635E+03  0.12500000000E+03 0.  0.
         25    1    1    2    0    0 -0.10357269584E+03 -0.12948823858E+03 -0.93574223288E+02  0.22776224999E+03  0.12500000000E+03 0.  0.
</event>
<event>
 4    0  0.2244970E-002  0.2161208E+03  0.7546771E-02  0.1136809E+00
         21   -1    0    0  502  501  0.00000000000E+00  0.00000000000E+00  0.53727735525E+02  0.53727735525E+02  0.00000000000E+00 0.  1.
         21   -1    0    0  501  502 -0.00000000000E+00 -0.00000000000E+00 -0.86935001166E+03  0.86935001166E+03  0.00000000000E+00 0.  1.
         25    1    1    2    0    0  0.57452169713E+02 -0.97043866197E+02 -0.11840583399E+03  0.20582323798E+03  0.12500000000E+03 0.  0.
         25    1    1    2    0    0 -0.57452169713E+02  0.97043866197E+02 -0.69721644214E+03  0.71725450920E+03  0.12500000000E+03 0.  0.
</event>
<event>
 4    0  0.2244970E-002  0.1830615E+03  0.7546771E-02  0.1164873E+00
         21   -1    0    0  502  501  0.00000000000E+00  0.00000000000E+00  0.74504401449E+02  0.74504401449E+02  0.00000000000E+00 0. -1.
         21   -1    0    0  501  502 -0.00000000000E+00 -0.00000000000E+00 -0.44979262075E+03  0.44979262075E+03  0.00000000000E+00 0. -1.
         25    1    1    2    0    0 -0.42707147169E+02  0.13207492864E+02 -0.36814838916E+03  0.39135223869E+03  0.12500000000E+03 0.  0.
         25    1    1    2    0    0  0.42707147169E+02 -0.13207492864E+02 -0.71398301398E+01  0.13294478351E+03  0.12500000000E+03 0.  0.
</event>
<event>
 4    0  0.2244970E-002  0.2593255E+03  0.7546771E-02  0.1107549E+00
         21   -1    0    0  502  501  0.00000000000E+00  0.00000000000E+00  0.94560254593E+02  0.94560254593E+02  0.00000000000E+00 0.  1.
         21   -1    0    0  501  502 -0.00000000000E+00 -0.00000000000E+00 -0.71118384006E+03  0.71118384006E+03  0.00000000000E+00 0. -1.
         25    1    1    2    0    0  0.22302608556E+03 -0.20007118669E+02 -0.24846920791E+03  0.35707543589E+03  0.12500000000E+03 0.  0.
         25    1    1    2    0    0 -0.22302608556E+03  0.20007118669E+02 -0.36815437755E+03  0.44866865875E+03  0.12500000000E+03 0.  0.
</event>
<event>
 4    0  0.2244970E-002  0.1761850E+03  0.7546771E-02  0.1171547E+00
         21   -1    0    0  502  501  0.00000000000E+00  0.00000000000E+00  0.13840344366E+03  0.13840344366E+03  0.00000000000E+00 0. -1.
         21   -1    0    0  501  502 -0.00000000000E+00 -0.00000000000E+00 -0.22428017800E+03  0.22428017800E+03  0.00000000000E+00 0. -1.
         25    1    1    2    0    0 -0.92095479229E+02  0.39271026948E+02 -0.11852037382E+03  0.19923822390E+03  0.12500000000E+03 0.  0.
         25    1    1    2    0    0  0.92095479229E+02 -0.39271026948E+02  0.32643639469E+02  0.16344539776E+03  0.12500000000E+03 0.  0.
</event>
<event>
 4    0  0.2244970E-002  0.2073780E+03  0.7546771E-02  0.1143659E+00
         21   -1    0    0  502  501  0.00000000000E+00  0.00000000000E+00  0.62240910251E+03  0.62240910251E+03  0.00000000000E+00 0. -1.
         21   -1    0    0  501  502 -0.00000000000E+00 -0.00000000000E+00 -0.69095467540E+02  0.69095467540E+02  0.00000000000E+00 0. -1.
         25    1    1    2    0    0 -0.11414029077E+03  0.18066413079E+02  0.47411405083E+03  0.50374947588E+03  0.12500000000E+03 0.  0.
         25    1    1    2    0    0  0.11414029077E+03 -0.18066413079E+02  0.79199584140E+02  0.18775509417E+03  0.12500000000E+03 0.  0.
</event>
<event>
 4    0  0.2244970E-002  0.2015805E+03  0.7546771E-02  0.1148412E+00
         21   -1    0    0  502  501  0.00000000000E+00  0.00000000000E+00  0.60071690975E+02  0.60071690975E+02  0.00000000000E+00 0.  1.
         21   -1    0    0  501  502 -0.00000000000E+00 -0.00000000000E+00 -0.67643648412E+03  0.67643648412E+03  0.00000000000E+00 0.  1.
         25    1    1    2    0    0 -0.12605259348E+03 -0.52506155153E+02 -0.45391214343E+03  0.49021157331E+03  0.12500000000E+03 0.  0.
         25    1    1    2    0    0  0.12605259348E+03  0.52506155153E+02 -0.16245264971E+03  0.24629660178E+03  0.12500000000E+03 0.  0.
</event>
<event>
 4    0  0.2244970E-002  0.2919233E+03  0.7546771E-02  0.1089349E+00
         21   -1    0    0  502  501  0.00000000000E+00  0.00000000000E+00  0.63289972507E+03  0.63289972507E+03  0.00000000000E+00 0. -1.
         21   -1    0    0  501  502 -0.00000000000E+00 -0.00000000000E+00 -0.13464888205E+03  0.13464888205E+03  0.00000000000E+00 0. -1.
         25    1    1    2    0    0  0.22282908161E+03 -0.10249234047E+03  0.12141729319E+03  0.30087312700E+03  0.12500000000E+03 0.  0.
         25    1    1    2    0    0 -0.22282908161E+03  0.10249234047E+03  0.37683354984E+03  0.46667548012E+03  0.12500000000E+03 0.  0.
</event>
<event>
 4    0  0.2244970E-002  0.2348494E+03  0.7546771E-02  0.1123272E+00
         21   -1    0    0  502  501  0.00000000000E+00  0.00000000000E+00  0.61606629587E+03  0.61606629587E+03  0.00000000000E+00 0.  1.
         21   -1    0    0  501  502 -0.00000000000E+00 -0.00000000000E+00 -0.89526497411E+02  0.89526497411E+02  0.00000000000E+00 0.  1.
         25    1    1    2    0    0  0.26062872532E+02  0.95600684986E+01 -0.32475910727E+02  0.13209978430E+03  0.12500000000E+03 0.  0.
         25    1    1    2    0    0 -0.26062872532E+02 -0.95600684986E+01  0.55901570918E+03  0.57349300898E+03  0.12500000000E+03 0.  0.
</event>
<event>
 4    0  0.2244970E-002  0.3558311E+03  0.7546771E-02  0.1060247E+00
         21   -1    0    0  502  501  0.00000000000E+00  0.00000000000E+00  0.12801505686E+03  0.12801505686E+03  0.00000000000E+00 0. -1.
         21   -1    0    0  501  502 -0.00000000000E+00 -0.00000000000E+00 -0.98906930330E+03  0.98906930330E+03  0.00000000000E+00 0. -1.
         25    1    1    2    0    0  0.29292769590E+03  0.32293563707E+02 -0.18663824367E+03  0.37055140437E+03  0.12500000000E+03 0.  0.
         25    1    1    2    0    0 -0.29292769590E+03 -0.32293563707E+02 -0.67441600277E+03  0.74653295579E+03  0.12500000000E+03 0.  0.
</event>
<event>
 4    0  0.2244970E-002  0.2303083E+03  0.7546771E-02  0.1126423E+00
         21   -1    0    0  502  501  0.00000000000E+00  0.00000000000E+00  0.11697286349E+03  0.11697286349E+03  0.00000000000E+00 0. -1.
         21   -1    0    0  501  502 -0.00000000000E+00 -0.00000000000E+00 -0.45345471567E+03  0.45345471567E+03  0.00000000000E+00 0. -1.
         25    1    1    2    0    0 -0.68351699610E+02 -0.17690042508E+03 -0.21541700450E+03  0.31304185194E+03  0.12500000000E+03 0.  0.
         25    1    1    2    0    0  0.68351699610E+02  0.17690042508E+03 -0.12106484768E+03  0.25738572722E+03  0.12500000000E+03 0.  0.
</event>
<event>
 4    0  0.2244970E-002  0.2118550E+03  0.7546771E-02  0.1140105E+00
         21   -1    0    0  502  501  0.00000000000E+00  0.00000000000E+00  0.99722901913E+02  0.99722901913E+02  0.00000000000E+00 0.  1.
         21   -1    0    0  501  502 -0.00000000000E+00 -0.00000000000E+00 -0.45007236631E+03  0.45007236631E+03  0.00000000000E+00 0.  1.
         25    1    1    2    0    0  0.12672707362E+03 -0.11395973046E+03 -0.15632855558E+03  0.26288816756E+03  0.12500000000E+03 0.  0.
         25    1    1    2    0    0 -0.12672707362E+03  0.11395973046E+03 -0.19402090882E+03  0.28690710067E+03  0.12500000000E+03 0.  0.
</event>
<event>
 4    0  0.2244970E-002  0.2475735E+03  0.7546771E-02  0.1114848E+00
         21   -1    0    0  502  501  0.00000000000E+00  0.00000000000E+00  0.34082173456E+03  0.34082173456E+03  0.00000000000E+00 0.  1.
         21   -1    0    0  501  502 -0.00000000000E+00 -0.00000000000E+00 -0.17983787766E+03  0.17983787766E+03  0.00000000000E+00 0.  1.
         25    1    1    2    0    0 -0.17055224847E+03 -0.10691128573E+03  0.15594986737E+03  0.28366080732E+03  0.12500000000E+03 0.  0.
         25    1    1    2    0    0  0.17055224847E+03  0.10691128573E+03  0.50339895341E+01  0.23699880490E+03  0.12500000000E+03 0.  0.
</event>
<event>
 4    0  0.2244970E-002  0.2003007E+03  0.7546771E-02  0.1149486E+00
         21   -1    0    0  502  501  0.00000000000E+00  0.00000000000E+00  0.41618910239E+02  0.41618910239E+02  0.00000000000E+00 0.  1.
         21   -1    0    0  501  502 -0.00000000000E+00 -0.00000000000E+00 -0.96399382347E+03  0.96399382347E+03  0.00000000000E+00 0.  1.
         25    1    1    2    0    0  0.13953990148E+03  0.66432405999E+02 -0.52322301437E+03  0.55970704073E+03  0.12500000000E+03 0.  0.
         25    1    1    2    0    0 -0.13953990148E+03 -0.66432405999E+02 -0.39915189886E+03  0.44590569298E+03  0.12500000000E+03 0.  0.
</event>
<event>
 4    0  0.2244970E-002  0.1950065E+03  0.7546771E-02  0.1154022E+00
         21   -1    0    0  502  501  0.00000000000E+00  0.00000000000E+00  0.80437847938E+02  0.80437847938E+02  0.00000000000E+00 0. -1.
         21   -1    0    0  501  502 -0.00000000000E+00 -0.00000000000E+00 -0.47275694880E+03  0.47275694880E+03  0.00000000000E+00 0. -1.
         25    1    1    2    0    0 -0.10696881520E+03  0.41860627441E+01 -0.47784398876E+02  0.17137152424E+03  0.12500000000E+03 0.  0.
         25    1    1    2    0    0  0.10696881520E+03 -0.41860627441E+01 -0.34453470199E+03  0.38182327249E+03  0.12500000000E+03 0.  0.
</event>
<event>
 4    0  0.2244970E-002  0.1398371E+03  0.7546771E-02  0.1213548E+00
         21   -1    0    0  502  501  0.00000000000E+00  0.00000000000E+00  0.13963674376E+03  0.13963674376E+03  0.00000000000E+00 0.  1.
         21   -1    0    0  501  502 -0.00000000000E+00 -0.00000000000E+00 -0.14003776815E+03  0.14003776815E+03  0.00000000000E+00 0.  1.
         25    1    1    2    0    0  0.62184676272E+02  0.28067783969E+01 -0.75901057381E+01  0.13984785187E+03  0.12500000000E+03 0.  0.
         25    1    1    2    0    0 -0.62184676272E+02 -0.28067783969E+01  0.71890813440E+01  0.13982666004E+03  0.12500000000E+03 0.  0.
</event>
<event>
 4    0  0.2244970E-002  0.2466367E+03  0.7546771E-02  0.1115449E+00
         21   -1    0    0  502  501  0.00000000000E+00  0.00000000000E+00  0.73801639436E+02  0.73801639436E+02  0.00000000000E+00 0. -1.
         21   -1    0    0  501  502 -0.00000000000E+00 -0.00000000000E+00 -0.82423181205E+03  0.82423181205E+03  0.00000000000E+00 0. -1.
         25    1    1    2    0    0  0.47544789790E+02  0.14083846565E+03 -0.98462056868E+02  0.21775159491E+03  0.12500000000E+03 0.  0.
         25    1    1    2    0    0 -0.47544789790E+02 -0.14083846565E+03 -0.65196811575E+03  0.68028185658E+03  0.12500000000E+03 0.  0.
</event>
<event>
 4    0  0.2244970E-002  0.2092797E+03  0.7546771E-02  0.1142138E+00
         21   -1    0    0  502  501  0.00000000000E+00  0.00000000000E+00  0.21107898544E+02  0.21107898544E+02  0.00000000000E+00 0. -1.
         21   -1    0    0  501  502 -0.00000000000E+00 -0.00000000000E+00 -0.20749581197E+04  0.20749581197E+04  0.00000000000E+00 0. -1.
         25    1    1    2    0    0  0.10301490722E+03 -0.13128657014E+03 -0.11171728488E+04  0.11364631137E+04  0.12500000000E+03 0.  0.
         25    1    1    2    0    0 -0.10301490722E+03  0.13128657014E+03 -0.93667737237E+03  0.95960290460E+03  0.12500000000E+03 0.  0.
</event>
<event>
 4    0  0.2244970E-002  0.2154127E+03  0.7546771E-02  0.1137350E+00
         21   -1    0    0  502  501  0.00000000000E+00  0.00000000000E+00  0.36816180315E+03  0.36816180315E+03  0.00000000000E+00 0.  1.
         21   -1    0    0  501  502 -0.00000000000E+00 -0.00000000000E+00 -0.12603864458E+03  0.12603864458E+03  0.00000000000E+00 0.  1.
         25    1    1    2    0    0 -0.24835490346E+01  0.19206644468E+01  0.32227170663E+03  0.34567891151E+03  0.12500000000E+03 0.  0.
         25    1    1    2    0    0  0.24835490346E+01 -0.19206644468E+01 -0.80148548049E+02  0.14852153622E+03  0.12500000000E+03 0.  0.
</event>
<event>
 4    0  0.2244970E-002  0.2390680E+03  0.7546771E-02  0.1120415E+00
         21   -1    0    0  502  501  0.00000000000E+00  0.00000000000E+00  0.92805165850E+03  0.92805165850E+03  0.00000000000E+00 0.  1.
         21   -1    0    0  501  502 -0.00000000000E+00 -0.00000000000E+00 -0.61584388596E+02  0.61584388596E+02  0.00000000000E+00 0.  1.
         25    1    1    2    0    0 -0.17877907626E+03 -0.70059599417E+02  0.57449800666E+03  0.61850082072E+03  0.12500000000E+03 0.  0.
         25    1    1    2    0    0  0.17877907626E+03  0.70059599417E+02  0.29196926325E+03  0.37113522638E+03  0.12500000000E+03 0.  0.
</event>
<event>
 4    0  0.2244970E-002  0.1788682E+03  0.7546771E-02  0.1168903E+00
         21   -1    0    0  502  501  0.00000000000E+00  0.00000000000E+00  0.20315436547E+03  0.20315436547E+03  0.00000000000E+00 0. -1.
         21   -1    0    0  501  502 -0.00000000000E+00 -0.00000000000E+00 -0.15748532030E+03  0.15748532030E+03  0.00000000000E+00 0. -1.
         25    1    1    2    0    0 -0.94272638497E+02  0.79411232640E+02 -0.11727180119E+02  0.17594317546E+03  0.12500000000E+03 0.  0.
         25    1    1    2    0    0  0.94272638497E+02 -0.79411232640E+02  0.57396225289E+02  0.18469651030E+03  0.12500000000E+03 0.  0.
</event>
<event>
 4    0  0.2244970E-002  0.1880823E+03  0.7546771E-02  0.1160202E+00
         21   -1    0    0  502  501  0.00000000000E+00  0.00000000000E+00  0.54968241194E+02  0.54968241194E+02  0.00000000000E+00 0. -1.
         21   -1    0    0  501  502 -0.00000000000E+00 -0.00000000000E+00 -0.64355262970E+03  0.64355262970E+03  0.00000000000E+00 0. -1.
         25    1    1    2    0    0 -0.27813446539E+02 -0.11406748426E+03 -0.43771091258E+03  0.47010724496E+03  0.12500000000E+03 0.  0.
         25    1    1    2    0    0  0.27813446539E+02  0.11406748426E+03 -0.15087347592E+03  0.22841362593E+03  0.12500000000E+03 0.  0.
</event>
<event>
 4    0  0.2244970E-002  0.1788126E+03  0.7546771E-02  0.1168957E+00
         21   -1    0    0  502  501  0.00000000000E+00  0.00000000000E+00  0.12085478900E+03  0.12085478900E+03  0.00000000000E+00 0. -1.
         21   -1    0    0  501  502 -0.00000000000E+00 -0.00000000000E+00 -0.26456508668E+03  0.26456508668E+03  0.00000000000E+00 0. -1.
         25    1    1    2    0    0 -0.23710044877E+02 -0.98689957339E+02  0.11951583431E+02  0.16146118498E+03  0.12500000000E+03 0.  0.
         25    1    1    2    0    0  0.23710044877E+02  0.98689957339E+02 -0.15566188112E+03  0.22395869070E+03  0.12500000000E+03 0.  0.
</event>
<event>
 4    0  0.2244970E-002  0.2431919E+03  0.7546771E-02  0.1117685E+00
         21   -1    0    0  502  501  0.00000000000E+00  0.00000000000E+00  0.94204095729E+02  0.94204095729E+02  0.00000000000E+00 0. -1.
         21   -1    0    0  501  502 -0.00000000000E+00 -0.00000000000E+00 -0.62781034103E+03  0.62781034103E+03  0.00000000000E+00 0. -1.
         25    1    1    2    0    0 -0.13740351808E+03  0.82282774626E+02 -0.68379176390E+02  0.21436159531E+03  0.12500000000E+03 0.  0.
         25    1    1    2    0    0  0.13740351808E+03 -0.82282774626E+02 -0.46522706891E+03  0.50765284145E+03  0.12500000000E+03 0.  0.
</event>
<event>
 4    0  0.2244970E-002  0.1855956E+03  0.7546771E-02  0.1162495E+00
         21   -1    0    0  502  501  0.00000000000E+00  0.00000000000E+00  0.10381750252E+03  0.10381750252E+03  0.00000000000E+00 0. -1.
         21   -1    0    0  501  502 -0.00000000000E+00 -0.00000000000E+00 -0.33179115697E+03  0.33179115697E+03  0.00000000000E+00 0. -1.
         25    1    1    2    0    0  0.84567354477E+02 -0.10027650112E+02  0.12236044545E+02  0.15174620917E+03  0.12500000000E+03 0.  0.
         25    1    1    2    0    0 -0.84567354477E+02  0.10027650112E+02 -0.24020969900E+03  0.28386245032E+03  0.12500000000E+03 0.  0.
</event>
<event>
 4    0  0.2244970E-002  0.2097806E+03  0.7546771E-02  0.1141740E+00
         21   -1    0    0  502  501  0.00000000000E+00  0.00000000000E+00  0.49553737539E+03  0.49553737539E+03  0.00000000000E+00 0.  1.
         21   -1    0    0  501  502 -0.00000000000E+00 -0.00000000000E+00 -0.88808458835E+02  0.88808458835E+02  0.00000000000E+00 0.  1.
         25    1    1    2    0    0  0.95311483767E+02  0.13459634191E+03  0.25125691902E+03  0.32550805451E+03  0.12500000000E+03 0.  0.
         25    1    1    2    0    0 -0.95311483767E+02 -0.13459634191E+03  0.15547199753E+03  0.25883777972E+03  0.12500000000E+03 0.  0.
</event>
<event>
 4    0  0.2244970E-002  0.1809587E+03  0.7546771E-02  0.1166878E+00
         21   -1    0    0  502  501  0.00000000000E+00  0.00000000000E+00  0.59273246823E+02  0.59273246823E+02  0.00000000000E+00 0.  1.
         21   -1    0    0  501  502 -0.00000000000E+00 -0.00000000000E+00 -0.55245924767E+03  0.55245924767E+03  0.00000000000E+00 0.  1.
         25    1    1    2    0    0 -0.36057019593E+02  0.11347119976E+03 -0.15486291642E+03  0.23191236431E+03  0.12500000000E+03 0.  0.
         25    1    1    2    0    0  0.36057019593E+02 -0.11347119976E+03 -0.33832308442E+03  0.37982013018E+03  0.12500000000E+03 0.  0.
</event>
<event>
 4    0  0.2244970E-002  0.1769605E+03  0.7546771E-02  0.1170778E+00
         21   -1    0    0  502  501  0.00000000000E+00  0.00000000000E+00  0.25606339552E+03  0.25606339552E+03  0.00000000000E+00 0.  1.
         21   -1    0    0  501  502 -0.00000000000E+00 -0.00000000000E+00 -0.12229395371E+03  0.12229395371E+03  0.00000000000E+00 0.  1.
         25    1    1    2    0    0  0.65084480110E+02 -0.16576650888E+02  0.17991684366E+03  0.22914154040E+03  0.12500000000E+03 0.  0.
         25    1    1    2    0    0 -0.65084480110E+02  0.16576650888E+02 -0.46147401852E+02  0.14921580883E+03  0.12500000000E+03 0.  0.
</event>
<event>
 4    0  0.2244970E-002  0.2579912E+03  0.7546771E-02  0.1108356E+00
         21   -1    0    0  502  501  0.00000000000E+00  0.00000000000E+00  0.53699200738E+03  0.53699200738E+03  0.00000000000E+00 0. -1.
         21   -1    0    0  501  502 -0.00000000000E+00 -0.00000000000E+00 -0.12394867719E+03  0.12394867719E+03  0.00000000000E+00 0. -1.
         25    1    1    2    0    0  0.91804419751E+02  0.86088827095E+02 -0.33445015238E+02  0.18050735908E+03  0.12500000000E+03 0.  0.
         25    1    1    2    0    0 -0.91804419751E+02 -0.86088827095E+02  0.44648834543E+03  0.48043332549E+03  0.12500000000E+03 0.  0.
</event>
<event>
 4    0  0.2244970E-002  0.2188636E+03  0.7546771E-02  0.1134733E+00
         21   -1    0    0  502  501  0.00000000000E+00  0.00000000000E+00  0.47319445269E+02  0.47319445269E+02  0.00000000000E+00 0. -1.
         21   -1    0    0  501  502 -0.00000000000E+00 -0.00000000000E+00 -0.10122954263E+04  0.10122954263E+04  0.00000000000E+00 0. -1.
         25    1    1    2    0    0 -0.15304849445E+02  0.17032693463E+03 -0.34922179470E+03  0.40844383331E+03  0.12500000000E+03 0.  0.
         25    1    1    2    0    0  0.15304849445E+02 -0.17032693463E+03 -0.61575418633E+03  0.65117103825E+03  0.12500000000E+03 0.  0.
</event>
<event>
 4    0  0.2244970E-002  0.2040002E+03  0.7546771E-02  0.1146407E+00
         21   -1    0    0  502  501  0.00000000000E+00  0.00000000000E+00  0.19947517973E+03  0.19947517973E+03  0.00000000000E+00 0.  1.
         21   -1    0    0  501  502 -0.00000000000E+00 -0.00000000000E+00 -0.20862780344E+03  0.20862780344E+03  0.00000000000E+00 0.  1.
         25    1    1    2    0    0 -0.37619574410E+02 -0.78903576160E+02  0.13092016875E+03  0.20101267944E+03  0.12500000000E+03 0.  0.
         25    1    1    2    0    0  0.37619574410E+02  0.78903576160E+02 -0.14007279246E+03  0.20709030373E+03  0.12500000000E+03 0.  0.
</event>
<event>
 4    0  0.2244970E-002  0.1938837E+03  0.7546771E-02  0.1155004E+00
         21   -1    0    0  502  501  0.00000000000E+00  0.00000000000E+00  0.34474954617E+03  0.34474954617E+03  0.00000000000E+00 0. -1.
         21   -1    0    0  501  502 -0.00000000000E+00 -0.00000000000E+00 -0.10903823935E+03  0.10903823935E+03  0.00000000000E+00 0. -1.
         25    1    1    2    0    0  0.76786684874E+02  0.76116912668E+02  0.23648484263E+03  0.28851353549E+03  0.12500000000E+03 0.  0.
         25    1    1    2    0    0 -0.76786684874E+02 -0.76116912668E+02 -0.77353580855E+00  0.16527425004E+03  0.12500000000E+03 0.  0.
</event>
<event>
 4    0  0.2244970E-002  0.3690938E+03  0.7546771E-02  0.1055040E+00
         21   -1    0    0  502  501  0.00000000000E+00  0.00000000000E+00  0.37705683679E+03  0.37705683679E+03  0.00000000000E+00 0.  1.
         21   -1    0    0  501  502 -0.00000000000E+00 -0.00000000000E+00 -0.36129896046E+03  0.36129896046E+03  0.00000000000E+00 0.  1.
         25    1    1    2    0    0 -0.70791310075E+02 -0.23411465004E+03 -0.23872167512E+03  0.36391498611E+03  0.12500000000E+03 0.  0.
         25    1    1    2    0    0  0.70791310075E+02  0.23411465004E+03  0.25447955144E+03  0.37444081114E+03  0.12500000000E+03 0.  0.
</event>
<event>
 4    0  0.2244970E-002  0.5793873E+03  0.7546771E-02  0.9949118E-01
         21   -1    0    0  502  501  0.00000000000E+00  0.00000000000E+00  0.16756068328E+04  0.16756068328E+04  0.00000000000E+00 0. -1.
         21   -1    0    0  501  502 -0.00000000000E+00 -0.00000000000E+00 -0.20033915810E+03  0.20033915810E+03  0.00000000000E+00 0. -1.
         25    1    1    2    0    0 -0.92337435040E+02  0.55803100651E+03  0.71848854468E+03  0.92291689494E+03  0.12500000000E+03 0.  0.
         25    1    1    2    0    0  0.92337435040E+02 -0.55803100651E+03  0.75677913006E+03  0.95302909600E+03  0.12500000000E+03 0.  0.
</event>
<event>
 4    0  0.2244970E-002  0.2160826E+03  0.7546771E-02  0.1136838E+00
         21   -1    0    0  502  501  0.00000000000E+00  0.00000000000E+00  0.45372479596E+02  0.45372479596E+02  0.00000000000E+00 0. -1.
         21   -1    0    0  501  502 -0.00000000000E+00 -0.00000000000E+00 -0.10290753873E+04  0.10290753873E+04  0.00000000000E+00 0. -1.
         25    1    1    2    0    0  0.75387869839E+02  0.61682512715E+02 -0.85706554169E+03  0.87159302777E+03  0.12500000000E+03 0.  0.
         25    1    1    2    0    0 -0.75387869839E+02 -0.61682512715E+02 -0.12663736605E+03  0.20285483917E+03  0.12500000000E+03 0.  0.
</event>
<event>
 4    0  0.2244970E-002  0.3189324E+03  0.7546771E-02  0.1076142E+00
         21   -1    0    0  502  501  0.00000000000E+00  0.00000000000E+00  0.96900204419E+03  0.96900204419E+03  0.00000000000E+00 0. -1.
         21   -1    0    0  501  502 -0.00000000000E+00 -0.00000000000E+00 -0.10497177040E+03  0.10497177040E+03  0.00000000000E+00 0. -1.
         25    1    1    2    0    0  0.28407735453E+03  0.45938541615E+02  0.52848060985E+03  0.61459502760E+03  0.12500000000E+03 0.  0.
         25    1    1    2    0    0 -0.28407735453E+03 -0.45938541615E+02  0.33554966393E+03  0.45937878698E+03  0.12500000000E+03 0.  0.
</event>
<event>
 4    0  0.2244970E-002  0.1762583E+03  0.7546771E-02  0.1171474E+00
         21   -1    0    0  502  501  0.00000000000E+00  0.00000000000E+00  0.30463631797E+04  0.30463631797E+04  0.00000000000E+00 0. -1.
         21   -1    0    0  501  502 -0.00000000000E+00 -0.00000000000E+00 -0.10198054012E+02  0.10198054012E+02  0.00000000000E+00 0. -1.
         25    1    1    2    0    0  0.10615892269E+03  0.51455945391E+02  0.11795318402E+04  0.11919890072E+04  0.12500000000E+03 0.  0.
         25    1    1    2    0    0 -0.10615892269E+03 -0.51455945391E+02  0.18566332855E+04  0.18645722265E+04  0.12500000000E+03 0.  0.
</event>
<event>
 4    0  0.2244970E-002  0.2214122E+03  0.7546771E-02  0.1132835E+00
         21   -1    0    0  502  501  0.00000000000E+00  0.00000000000E+00  0.29617322534E+03  0.29617322534E+03  0.00000000000E+00 0. -1.
         21   -1    0    0  501  502 -0.00000000000E+00 -0.00000000000E+00 -0.16552266137E+03  0.16552266137E+03  0.00000000000E+00 0. -1.
         25    1    1    2    0    0 -0.15767267246E+03 -0.64223638826E+02  0.13458695415E+03  0.25044759063E+03  0.12500000000E+03 0.  0.
         25    1    1    2    0    0  0.15767267246E+03  0.64223638826E+02 -0.39363901824E+01  0.21124829607E+03  0.12500000000E+03 0.  0.
</event>
<event>
 4    0  0.2244970E-002  0.1947857E+03  0.7546771E-02  0.1154214E+00
         21   -1    0    0  502  501  0.00000000000E+00  0.00000000000E+00  0.63022369015E+03  0.63022369015E+03  0.00000000000E+00 0. -1.
         21   -1    0    0  501  502 -0.00000000000E+00 -0.00000000000E+00 -0.60203168755E+02  0.60203168755E+02  0.00000000000E+00 0. -1.
         25    1    1    2    0    0 -0.14362804886E+03 -0.18607709631E+02  0.34991514796E+03  0.39879929043E+03  0.12500000000E+03 0.  0.
         25    1    1    2    0    0  0.14362804886E+03  0.18607709631E+02  0.22010537343E+03  0.29162756847E+03  0.12500000000E+03 0.  0.
</event>
<event>
 4    0  0.2244970E-002  0.3001060E+03  0.7546771E-02  0.1085188E+00
         21   -1    0    0  502  501  0.00000000000E+00  0.00000000000E+00  0.13654303641E+04  0.13654303641E+04  0.00000000000E+00 0.  1.
         21   -1    0    0  501  502 -0.00000000000E+00 -0.00000000000E+00 -0.65959865534E+02  0.65959865534E+02  0.00000000000E+00 0.  1.
         25    1    1    2    0    0  0.94794577995E+02 -0.10720746755E+03  0.95765634801E+02  0.21278042655E+03  0.12500000000E+03 0.  0.
         25    1    1    2    0    0 -0.94794577995E+02  0.10720746755E+03  0.12037048637E+04  0.12186098030E+04  0.12500000000E+03 0.  0.
</event>
<event>
 4    0  0.2244970E-002  0.3040416E+03  0.7546771E-02  0.1083238E+00
         21   -1    0    0  502  501  0.00000000000E+00  0.00000000000E+00  0.49542281616E+02  0.49542281616E+02  0.00000000000E+00 0. -1.
         21   -1    0    0  501  502 -0.00000000000E+00 -0.00000000000E+00 -0.18659066701E+04  0.18659066701E+04  0.00000000000E+00 0. -1.
         25    1    1    2    0    0 -0.18657341630E+03 -0.20314049601E+03 -0.82246034263E+03  0.87643694353E+03  0.12500000000E+03 0.  0.
         25    1    1    2    0    0  0.18657341630E+03  0.20314049601E+03 -0.99390404589E+03  0.10390120082E+04  0.12500000000E+03 0.  0.
</event>
<event>
 4    0  0.2244970E-002  0.2117750E+03  0.7546771E-02  0.1140168E+00
         21   -1    0    0  502  501  0.00000000000E+00  0.00000000000E+00  0.85571698581E+03  0.85571698581E+03  0.00000000000E+00 0. -1.
         21   -1    0    0  501  502 -0.00000000000E+00 -0.00000000000E+00 -0.52410594705E+02  0.52410594705E+02  0.00000000000E+00 0. -1.
         25    1    1    2    0    0 -0.12435784303E+03 -0.60007671448E+02  0.61774733283E+03  0.64521512767E+03  0.12500000000E+03 0.  0.
         25    1    1    2    0    0  0.12435784303E+03  0.60007671448E+02  0.18555905828E+03  0.26291245285E+03  0.12500000000E+03 0.  0.
</event>
<event>
 4    0  0.2244970E-002  0.3879817E+03  0.7546771E-02  0.1048022E+00
         21   -1    0    0  502  501  0.00000000000E+00  0.00000000000E+00  0.39954289110E+03  0.39954289110E+03  0.00000000000E+00 0. -1.
         21   -1    0    0  501  502 -0.00000000000E+00 -0.00000000000E+00 -0.37675509672E+03  0.37675509672E+03  0.00000000000E+00 0. -1.
         25    1    1    2    0    0 -0.35915989480E+02 -0.21843179490E+03 -0.28182359508E+03  0.37954175800E+03  0.12500000000E+03 0.  0.
         25    1    1    2    0    0  0.35915989480E+02  0.21843179490E+03  0.30461138945E+03  0.39675622983E+03  0.12500000000E+03 0.  0.
</event>
<event>
 4    0  0.2244970E-002  0.2445965E+03  0.7546771E-02  0.1116768E+00
         21   -1    0    0  502  501  0.00000000000E+00  0.00000000000E+00  0.18931192360E+03  0.18931192360E+03  0.00000000000E+00 0.  1.
         21   -1    0    0  501  502 -0.00000000000E+00 -0.00000000000E+00 -0.31602579457E+03  0.31602579457E+03  0.00000000000E+00 0.  1.
         25    1    1    2    0    0 -0.16148017629E+03  0.11545376667E+03 -0.13490333025E+03  0.27060917961E+03  0.12500000000E+03 0.  0.
         25    1    1    2    0    0  0.16148017629E+03 -0.11545376667E+03  0.81894592734E+01  0.23472853857E+03  0.12500000000E+03 0.  0.
</event>
<event>
 4    0  0.2244970E-002  0.2182023E+03  0.7546771E-02  0.1135230E+00
         21   -1    0    0  502  501  0.00000000000E+00  0.00000000000E+00  0.51582623142E+02  0.51582623142E+02  0.00000000000E+00 0. -1.
         21   -1    0    0  501  502 -0.00000000000E+00 -0.00000000000E+00 -0.92302905143E+03  0.92302905143E+03  0.00000000000E+00 0. -1.
         25    1    1    2    0    0  0.14095464844E+03  0.40119052046E+01 -0.68141342985E+03  0.70698908809E+03  0.12500000000E+03 0.  0.
         25    1    1    2    0    0 -0.14095464844E+03 -0.40119052046E+01 -0.19003299844E+03  0.26762258648E+03  0.12500000000E+03 0.  0.
</event>
<event>
 4    0  0.2244970E-002  0.1804893E+03  0.7546771E-02  0.1167330E+00
         21   -1    0    0  502  501  0.00000000000E+00  0.00000000000E+00  0.22333067211E+03  0.22333067211E+03  0.00000000000E+00 0. -1.
         21   -1    0    0  501  502 -0.00000000000E+00 -0.00000000000E+00 -0.14586609696E+03  0.14586609696E+03  0.00000000000E+00 0. -1.
         25    1    1    2    0    0 -0.26590134746E+02 -0.34841081715E+02  0.16412212393E+03  0.21090758119E+03  0.12500000000E+03 0.  0.
         25    1    1    2    0    0  0.26590134746E+02  0.34841081715E+02 -0.86657548780E+02  0.15828918789E+03  0.12500000000E+03 0.  0.
</event>
<event>
 4    0  0.2244970E-002  0.1668963E+03  0.7546771E-02  0.1181124E+00
         21   -1    0    0  502  501  0.00000000000E+00  0.00000000000E+00  0.81934291787E+03  0.81934291787E+03  0.00000000000E+00 0.  1.
         21   -1    0    0  501  502 -0.00000000000E+00 -0.00000000000E+00 -0.33995977343E+02  0.33995977343E+02  0.00000000000E+00 0.  1.
         25    1    1    2    0    0  0.97235934201E+02  0.43294482988E+02  0.46937360490E+03  0.49725830324E+03  0.12500000000E+03 0.  0.
         25    1    1    2    0    0 -0.97235934201E+02 -0.43294482988E+02  0.31597333562E+03  0.35608059197E+03  0.12500000000E+03 0.  0.
</event>
<event>
 4    0  0.2244970E-002  0.2554303E+03  0.7546771E-02  0.1109920E+00
         21   -1    0    0  502  501  0.00000000000E+00  0.00000000000E+00  0.14358869769E+03  0.14358869769E+03  0.00000000000E+00 0.  1.
         21   -1    0    0  501  502 -0.00000000000E+00 -0.00000000000E+00 -0.45438547927E+03  0.45438547927E+03  0.00000000000E+00 0.  1.
         25    1    1    2    0    0 -0.16892603339E+03 -0.97197817211E+02 -0.29132615515E+02  0.23336051447E+03  0.12500000000E+03 0.  0.
         25    1    1    2    0    0  0.16892603339E+03  0.97197817211E+02 -0.28166416607E+03  0.36461366249E+03  0.12500000000E+03 0.  0.
</event>
<event>
 4    0  0.2244970E-002  0.2531100E+03  0.7546771E-02  0.1111355E+00
         21   -1    0    0  502  501  0.00000000000E+00  0.00000000000E+00  0.26070535132E+03  0.26070535132E+03  0.00000000000E+00 0. -1.
         21   -1    0    0  501  502 -0.00000000000E+00 -0.00000000000E+00 -0.24573598655E+03  0.24573598655E+03  0.00000000000E+00 0.  1.
         25    1    1    2    0    0  0.20630872589E+03 -0.22481508303E+02 -0.65834310299E+02  0.25105351025E+03  0.12500000000E+03 0.  0.
         25    1    1    2    0    0 -0.20630872589E+03  0.22481508303E+02  0.80803675067E+02  0.25538782763E+03  0.12500000000E+03 0.  0.
</event>
<event>
 4    0  0.2244970E-002  0.1786434E+03  0.7546771E-02  0.1169122E+00
         21   -1    0    0  502  501  0.00000000000E+00  0.00000000000E+00  0.49891263599E+03  0.49891263599E+03  0.00000000000E+00 0.  1.
         21   -1    0    0  501  502 -0.00000000000E+00 -0.00000000000E+00 -0.63966040278E+02  0.63966040278E+02  0.00000000000E+00 0.  1.
         25    1    1    2    0    0 -0.95434566191E+02 -0.84189833607E+02  0.20229832393E+03  0.26971335964E+03  0.12500000000E+03 0.  0.
         25    1    1    2    0    0  0.95434566191E+02  0.84189833607E+02  0.23264827179E+03  0.29316531663E+03  0.12500000000E+03 0.  0.
</event>
<event>
 4    0  0.2244970E-002  0.3496819E+03  0.7546771E-02  0.1062746E+00
         21   -1    0    0  502  501  0.00000000000E+00  0.00000000000E+00  0.22066775428E+03  0.22066775428E+03  0.00000000000E+00 0.  1.
         21   -1    0    0  501  502 -0.00000000000E+00 -0.00000000000E+00 -0.55412447977E+03  0.55412447977E+03  0.00000000000E+00 0.  1.
         25    1    1    2    0    0  0.27111663270E+03 -0.63366689401E+01  0.34852258457E+02  0.30063942160E+03  0.12500000000E+03 0.  0.
         25    1    1    2    0    0 -0.27111663270E+03  0.63366689401E+01 -0.36830898395E+03  0.47415281245E+03  0.12500000000E+03 0.  0.
</event>
<event>
 4    0  0.2244970E-002  0.3053451E+03  0.7546771E-02  0.1082599E+00
         21   -1    0    0  502  501  0.00000000000E+00  0.00000000000E+00  0.63274981831E+03  0.63274981831E+03  0.00000000000E+00 0. -1.
         21   -1    0    0  501  502 -0.00000000000E+00 -0.00000000000E+00 -0.14734994731E+03  0.14734994731E+03  0.00000000000E+00 0. -1.
         25    1    1    2    0    0  0.23177500149E+02 -0.27028332320E+03  0.32369578314E+03  0.44044776232E+03  0.12500000000E+03 0.  0.
         25    1    1    2    0    0 -0.23177500149E+02  0.27028332320E+03  0.16170408786E+03  0.33965200329E+03  0.12500000000E+03 0.  0.
</event>
<event>
 4    0  0.2244970E-002  0.2670508E+03  0.7546771E-02  0.1102979E+00
         21   -1    0    0  502  501  0.00000000000E+00  0.00000000000E+00  0.76827429436E+03  0.76827429436E+03  0.00000000000E+00 0.  1.
         21   -1    0    0  501  502 -0.00000000000E+00 -0.00000000000E+00 -0.92826394178E+02  0.92826394178E+02  0.00000000000E+00 0.  1.
         25    1    1    2    0    0  0.37123936769E+02 -0.22824445498E+03  0.41364347789E+03  0.49010166773E+03  0.12500000000E+03 0.  0.
         25    1    1    2    0    0 -0.37123936769E+02  0.22824445498E+03  0.26180442229E+03  0.37099902081E+03  0.12500000000E+03 0.  0.
</event>
<event>
 4    0  0.2244970E-002  0.2300070E+03  0.7546771E-02  0.1126635E+00
         21   -1    0    0  502  501  0.00000000000E+00  0.00000000000E+00  0.94858284175E+03  0.94858284175E+03  0.00000000000E+00 0. -1.
         21   -1    0    0  501  502 -0.00000000000E+00 -0.00000000000E+00 -0.55770792242E+02  0.55770792242E+02  0.00000000000E+00 0. -1.
         25    1    1    2    0    0 -0.91086717731E+02 -0.10460884257E+03  0.73964036297E+03  0.76284511313E+03  0.12500000000E+03 0.  0.
         25    1    1    2    0    0  0.91086717731E+02  0.10460884257E+03  0.15317168653E+03  0.24150852086E+03  0.12500000000E+03 0.  0.
</event>
<event>
 4    0  0.2244970E-002  0.1797073E+03  0.7546771E-02  0.1168087E+00
         21   -1    0    0  502  501  0.00000000000E+00  0.00000000000E+00  0.17439763513E+02  0.17439763513E+02  0.00000000000E+00 0. -1.
         21   -1    0    0  501  502 -0.00000000000E+00 -0.00000000000E+00 -0.18517863219E+04  0.18517863219E+04  0.00000000000E+00 0. -1.
         25    1    1    2    0    0 -0.34131721415E+02  0.24360179408E+02 -0.28209948631E+03  0.31138964807E+03  0.12500000000E+03 0.  0.
         25    1    1    2    0    0  0.34131721415E+02 -0.24360179408E+02 -0.15522470721E+04  0.15578364374E+04  0.12500000000E+03 0.  0.
</event>
<event>
 4    0  0.2244970E-002  0.3823982E+03  0.7546771E-02  0.1050051E+00
         21   -1    0    0  502  501  0.00000000000E+00  0.00000000000E+00  0.28411468094E+03  0.28411468094E+03  0.00000000000E+00 0.  1.
         21   -1    0    0  501  502 -0.00000000000E+00 -0.00000000000E+00 -0.51468089405E+03  0.51468089405E+03  0.00000000000E+00 0.  1.
         25    1    1    2    0    0  0.35823339417E+03  0.45280931493E+02 -0.13084059955E+03  0.40388833847E+03  0.12500000000E+03 0.  0.
         25    1    1    2    0    0 -0.35823339417E+03 -0.45280931493E+02 -0.99725613560E+02  0.39490723652E+03  0.12500000000E+03 0.  0.
</event>
<event>
 4    0  0.2244970E-002  0.2550064E+03  0.7546771E-02  0.1110181E+00
         21   -1    0    0  502  501  0.00000000000E+00  0.00000000000E+00  0.70892930004E+03  0.70892930004E+03  0.00000000000E+00 0.  1.
         21   -1    0    0  501  502 -0.00000000000E+00 -0.00000000000E+00 -0.91727419159E+02  0.91727419159E+02  0.00000000000E+00 0.  1.
         25    1    1    2    0    0 -0.21430555408E+03  0.45875239155E+02  0.36674671266E+03  0.44515116457E+03  0.12500000000E+03 0.  0.
         25    1    1    2    0    0  0.21430555408E+03 -0.45875239155E+02  0.25045516822E+03  0.35550555462E+03  0.12500000000E+03 0.  0.
</event>
<event>
 4    0  0.2244970E-002  0.2246971E+03  0.7546771E-02  0.1130429E+00
         21   -1    0    0  502  501  0.00000000000E+00  0.00000000000E+00  0.81073544100E+02  0.81073544100E+02  0.00000000000E+00 0. -1.
         21   -1    0    0  501  502 -0.00000000000E+00 -0.00000000000E+00 -0.62275311841E+03  0.62275311841E+03  0.00000000000E+00 0. -1.
         25    1    1    2    0    0  0.15675277030E+03  0.59357544989E+02 -0.39969504676E+03  0.45108300738E+03  0.12500000000E+03 0.  0.
         25    1    1    2    0    0 -0.15675277030E+03 -0.59357544989E+02 -0.14198452755E+03  0.25274365513E+03  0.12500000000E+03 0.  0.
</event>
<event>
 4    0  0.2244970E-002  0.3080560E+03  0.7546771E-02  0.1081281E+00
         21   -1    0    0  502  501  0.00000000000E+00  0.00000000000E+00  0.39023638103E+03  0.39023638103E+03  0.00000000000E+00 0.  1.
         21   -1    0    0  501  502 -0.00000000000E+00 -0.00000000000E+00 -0.24318214806E+03  0.24318214806E+03  0.00000000000E+00 0.  1.
         25    1    1    2    0    0 -0.99439561683E+02  0.58868471759E+02 -0.19043340568E+03  0.25542827838E+03  0.12500000000E+03 0.  0.
         25    1    1    2    0    0  0.99439561683E+02 -0.58868471759E+02  0.33748763865E+03  0.37799025072E+03  0.12500000000E+03 0.  0.
</event>
<event>
 4    0  0.2244970E-002  0.1976463E+03  0.7546771E-02  0.1151740E+00
         21   -1    0    0  502  501  0.00000000000E+00  0.00000000000E+00  0.90837015256E+03  0.90837015256E+03  0.00000000000E+00 0. -1.
         21   -1    0    0  501  502 -0.00000000000E+00 -0.00000000000E+00 -0.43004554675E+02  0.43004554675E+02  0.00000000000E+00 0. -1.
         25    1    1    2    0    0 -0.95679596203E+02 -0.33287268566E+02  0.15641404267E+03  0.22439469718E+03  0.12500000000E+03 0.  0.
         25    1    1    2    0    0  0.95679596203E+02  0.33287268566E+02  0.70895155522E+03  0.72698001006E+03  0.12500000000E+03 0.  0.
</event>
<event>
 4    0  0.2244970E-002  0.2702260E+03  0.7546771E-02  0.1101150E+00
         21   -1    0    0  502  501  0.00000000000E+00  0.00000000000E+00  0.11922180162E+03  0.11922180162E+03  0.00000000000E+00 0.  1.
         21   -1    0    0  501  502 -0.00000000000E+00 -0.00000000000E+00 -0.61248946815E+03  0.61248946815E+03  0.00000000000E+00 0.  1.
         25    1    1    2    0    0  0.11047348485E+03  0.20518766785E+03 -0.17136538079E+03  0.31511500064E+03  0.12500000000E+03 0.  0.
         25    1    1    2    0    0 -0.11047348485E+03 -0.20518766785E+03 -0.32190228574E+03  0.41659626914E+03  0.12500000000E+03 0.  0.
</event>
<event>
 4    0  0.2244970E-002  0.2016624E+03  0.7546771E-02  0.1148344E+00
         21   -1    0    0  502  501  0.00000000000E+00  0.00000000000E+00  0.60063643706E+02  0.60063643706E+02  0.00000000000E+00 0.  1.
         21   -1    0    0  501  502 -0.00000000000E+00 -0.00000000000E+00 -0.67707703007E+03  0.67707703007E+03  0.00000000000E+00 0.  1.
         25    1    1    2    0    0  0.58721140778E+02  0.12419536350E+03 -0.16494454692E+03  0.24840363171E+03  0.12500000000E+03 0.  0.
         25    1    1    2    0    0 -0.58721140778E+02 -0.12419536350E+03 -0.45206883945E+03  0.48873704207E+03  0.12500000000E+03 0.  0.
</event>
<event>
 4    0  0.2244970E-002  0.2227387E+03  0.7546771E-02  0.1131858E+00
         21   -1    0    0  502  501  0.00000000000E+00  0.00000000000E+00  0.43874627852E+03  0.43874627852E+03  0.00000000000E+00 0. -1.
         21   -1    0    0  501  502 -0.00000000000E+00 -0.00000000000E+00 -0.11307797477E+03  0.11307797477E+03  0.00000000000E+00 0. -1.
         25    1    1    2    0    0  0.61920412342E+02  0.15689369326E+03  0.25501540270E+03  0.33031443211E+03  0.12500000000E+03 0.  0.
         25    1    1    2    0    0 -0.61920412342E+02 -0.15689369326E+03  0.70652901055E+02  0.22150982117E+03  0.12500000000E+03 0.  0.
</event>
<event>
 4    0  0.2244970E-002  0.2430639E+03  0.7546771E-02  0.1117768E+00
         21   -1    0    0  502  501  0.00000000000E+00  0.00000000000E+00  0.23548893382E+03  0.23548893382E+03  0.00000000000E+00 0. -1.
         21   -1    0    0  501  502 -0.00000000000E+00 -0.00000000000E+00 -0.25088260576E+03  0.25088260576E+03  0.00000000000E+00 0. -1.
         25    1    1    2    0    0  0.12951228003E+03  0.14965646827E+03 -0.73186411114E+02  0.24525851656E+03  0.12500000000E+03 0.  0.
         25    1    1    2    0    0 -0.12951228003E+03 -0.14965646827E+03  0.57792739169E+02  0.24111302303E+03  0.12500000000E+03 0.  0.
</event>
<event>
 4    0  0.2244970E-002  0.2097538E+03  0.7546771E-02  0.1141761E+00
         21   -1    0    0  502  501  0.00000000000E+00  0.00000000000E+00  0.25823490457E+04  0.25823490457E+04  0.00000000000E+00 0.  1.
         21   -1    0    0  501  502 -0.00000000000E+00 -0.00000000000E+00 -0.17037450172E+02  0.17037450172E+02  0.00000000000E+00 0.  1.
         25    1    1    2    0    0  0.10805448004E+03  0.46094135952E+02  0.20306165303E+04  0.20378490948E+04  0.12500000000E+03 0.  0.
         25    1    1    2    0    0 -0.10805448004E+03 -0.46094135952E+02  0.53469506516E+03  0.56153740101E+03  0.12500000000E+03 0.  0.
</event>
<event>
 4    0  0.2244970E-002  0.2740841E+03  0.7546771E-02  0.1098965E+00
         21   -1    0    0  502  501  0.00000000000E+00  0.00000000000E+00  0.13845914871E+03  0.13845914871E+03  0.00000000000E+00 0.  1.
         21   -1    0    0  501  502 -0.00000000000E+00 -0.00000000000E+00 -0.54255769351E+03  0.54255769351E+03  0.00000000000E+00 0.  1.
         25    1    1    2    0    0  0.20977344176E+03  0.83865627641E+02 -0.87788593356E+02  0.27270896115E+03  0.12500000000E+03 0.  0.
         25    1    1    2    0    0 -0.20977344176E+03 -0.83865627641E+02 -0.31630995144E+03  0.40830788107E+03  0.12500000000E+03 0.  0.
</event>
<event>
 4    0  0.2244970E-002  0.2534790E+03  0.7546771E-02  0.1111126E+00
         21   -1    0    0  502  501  0.00000000000E+00  0.00000000000E+00  0.62996189521E+02  0.62996189521E+02  0.00000000000E+00 0. -1.
         21   -1    0    0  501  502 -0.00000000000E+00 -0.00000000000E+00 -0.10199285194E+04  0.10199285194E+04  0.00000000000E+00 0. -1.
         25    1    1    2    0    0  0.16463391218E+03 -0.13972763440E+03 -0.57396002545E+03  0.62584602553E+03  0.12500000000E+03 0.  0.
         25    1    1    2    0    0 -0.16463391218E+03  0.13972763440E+03 -0.38297230444E+03  0.45707868340E+03  0.12500000000E+03 0.  0.
</event>
<event>
 4    0  0.2244970E-002  0.1700238E+03  0.7546771E-02  0.1177823E+00
         21   -1    0    0  502  501  0.00000000000E+00  0.00000000000E+00  0.49069407458E+02  0.49069407458E+02  0.00000000000E+00 0.  1.
         21   -1    0    0  501  502 -0.00000000000E+00 -0.00000000000E+00 -0.58912634985E+03  0.58912634985E+03  0.00000000000E+00 0.  1.
         25    1    1    2    0    0  0.10618799153E+03  0.34347211497E+02 -0.21604163196E+03  0.27341288781E+03  0.12500000000E+03 0.  0.
         25    1    1    2    0    0 -0.10618799153E+03 -0.34347211497E+02 -0.32401531042E+03  0.36478286949E+03  0.12500000000E+03 0.  0.
</event>
<event>
 4    0  0.2244970E-002  0.2985814E+03  0.7546771E-02  0.1085952E+00
         21   -1    0    0  502  501  0.00000000000E+00  0.00000000000E+00  0.14343393517E+03  0.14343393517E+03  0.00000000000E+00 0. -1.
         21   -1    0    0  501  502 -0.00000000000E+00 -0.00000000000E+00 -0.62154636469E+03  0.62154636469E+03  0.00000000000E+00 0. -1.
         25    1    1    2    0    0  0.33211767171E+02  0.38759590077E+02 -0.58020471752E+03  0.59570784915E+03  0.12500000000E+03 0.  0.
         25    1    1    2    0    0 -0.33211767171E+02 -0.38759590077E+02  0.10209228800E+03  0.16927245072E+03  0.12500000000E+03 0.  0.
</event>
<event>
 4    0  0.2244970E-002  0.2486032E+03  0.7546771E-02  0.1114191E+00
         21   -1    0    0  502  501  0.00000000000E+00  0.00000000000E+00  0.22821689396E+03  0.22821689396E+03  0.00000000000E+00 0. -1.
         21   -1    0    0  501  502 -0.00000000000E+00 -0.00000000000E+00 -0.27081060532E+03  0.27081060532E+03  0.00000000000E+00 0. -1.
         25    1    1    2    0    0  0.56538137391E+02  0.17619079100E+03 -0.13096186526E+03  0.25887403493E+03  0.12500000000E+03 0.  0.
         25    1    1    2    0    0 -0.56538137391E+02 -0.17619079100E+03  0.88368153894E+02  0.24015346434E+03  0.12500000000E+03 0.  0.
</event>
<event>
 4    0  0.2244970E-002  0.1802609E+03  0.7546771E-02  0.1167551E+00
         21   -1    0    0  502  501  0.00000000000E+00  0.00000000000E+00  0.17246844655E+02  0.17246844655E+02  0.00000000000E+00 0.  1.
         21   -1    0    0  501  502 -0.00000000000E+00 -0.00000000000E+00 -0.18840547708E+04  0.18840547708E+04  0.00000000000E+00 0.  1.
         25    1    1    2    0    0 -0.11594464659E+03 -0.57101541482E+02 -0.86560955062E+03  0.88408633132E+03  0.12500000000E+03 0.  0.
         25    1    1    2    0    0  0.11594464659E+03  0.57101541482E+02 -0.10011983755E+04  0.10172152841E+04  0.12500000000E+03 0.  0.
</event>
<event>
 4    0  0.2244970E-002  0.2136693E+03  0.7546771E-02  0.1138693E+00
         21   -1    0    0  502  501  0.00000000000E+00  0.00000000000E+00  0.13996466059E+04  0.13996466059E+04  0.00000000000E+00 0.  1.
         21   -1    0    0  501  502 -0.00000000000E+00 -0.00000000000E+00 -0.32618651206E+02  0.32618651206E+02  0.00000000000E+00 0.  1.
         25    1    1    2    0    0  0.88494098457E+02 -0.11085716340E+03  0.34988199520E+03  0.39769702879E+03  0.12500000000E+03 0.  0.
         25    1    1    2    0    0 -0.88494098457E+02  0.11085716340E+03  0.10171459595E+04  0.10345682284E+04  0.12500000000E+03 0.  0.
</event>
<event>
 4    0  0.2244970E-002  0.2566859E+03  0.7546771E-02  0.1109151E+00
         21   -1    0    0  502  501  0.00000000000E+00  0.00000000000E+00  0.19044409418E+03  0.19044409418E+03  0.00000000000E+00 0.  1.
         21   -1    0    0  501  502 -0.00000000000E+00 -0.00000000000E+00 -0.34596845593E+03  0.34596845593E+03  0.00000000000E+00 0.  1.
         25    1    1    2    0    0 -0.11379620537E+03  0.14377731131E+03  0.57028136216E+02  0.22912594773E+03  0.12500000000E+03 0.  0.
         25    1    1    2    0    0  0.11379620537E+03 -0.14377731131E+03 -0.21255249797E+03  0.30728660237E+03  0.12500000000E+03 0.  0.
</event>
<event>
 4    0  0.2244970E-002  0.2742703E+03  0.7546771E-02  0.1098860E+00
         21   -1    0    0  502  501  0.00000000000E+00  0.00000000000E+00  0.21219015640E+03  0.21219015640E+03  0.00000000000E+00 0.  1.
         21   -1    0    0  501  502 -0.00000000000E+00 -0.00000000000E+00 -0.35451320983E+03  0.35451320983E+03  0.00000000000E+00 0.  1.
         25    1    1    2    0    0  0.20969756316E+03  0.12115007695E+03 -0.39338953773E+02  0.27535969644E+03  0.12500000000E+03 0.  0.
         25    1    1    2    0    0 -0.20969756316E+03 -0.12115007695E+03 -0.10298409966E+03  0.29134366978E+03  0.12500000000E+03 0.  0.
</event>
<event>
 4    0  0.2244970E-002  0.2994600E+03  0.7546771E-02  0.1085511E+00
         21   -1    0    0  502  501  0.00000000000E+00  0.00000000000E+00  0.12041387784E+03  0.12041387784E+03  0.00000000000E+00 0. -1.
         21   -1    0    0  501  502 -0.00000000000E+00 -0.00000000000E+00 -0.74473403410E+03  0.74473403410E+03  0.00000000000E+00 0. -1.
         25    1    1    2    0    0 -0.16377400721E+03  0.23346079896E+02 -0.62426969146E+03  0.65780286756E+03  0.12500000000E+03 0.  0.
         25    1    1    2    0    0  0.16377400721E+03 -0.23346079896E+02 -0.50464793587E-01  0.20734504439E+03  0.12500000000E+03 0.  0.
</event>
<event>
 4    0  0.2244970E-002  0.1823069E+03  0.7546771E-02  0.1165589E+00
         21   -1    0    0  502  501  0.00000000000E+00  0.00000000000E+00  0.26155169264E+03  0.26155169264E+03  0.00000000000E+00 0.  1.
         21   -1    0    0  501  502 -0.00000000000E+00 -0.00000000000E+00 -0.12707170399E+03  0.12707170399E+03  0.00000000000E+00 0.  1.
         25    1    1    2    0    0 -0.88287135822E+02 -0.84470311242E+02  0.12052392480E+02  0.17521447428E+03  0.12500000000E+03 0.  0.
         25    1    1    2    0    0  0.88287135822E+02  0.84470311242E+02  0.12242759617E+03  0.21340892234E+03  0.12500000000E+03 0.  0.
</event>
<event>
 4    0  0.2244970E-002  0.3479097E+03  0.7546771E-02  0.1063476E+00
         21   -1    0    0  502  501  0.00000000000E+00  0.00000000000E+00  0.25623600426E+03  0.25623600426E+03  0.00000000000E+00 0.  1.
         21   -1    0    0  501  502 -0.00000000000E+00 -0.00000000000E+00 -0.47238142439E+03  0.47238142439E+03  0.00000000000E+00 0.  1.
         25    1    1    2    0    0 -0.21913019785E+03  0.47629702882E+02  0.13779137337E+03  0.29137277632E+03  0.12500000000E+03 0.  0.
         25    1    1    2    0    0  0.21913019785E+03 -0.47629702882E+02 -0.35393679350E+03  0.43724465234E+03  0.12500000000E+03 0.  0.
</event>
<event>
 4    0  0.2244970E-002  0.2070654E+03  0.7546771E-02  0.1143911E+00
         21   -1    0    0  502  501  0.00000000000E+00  0.00000000000E+00  0.16586010774E+03  0.16586010774E+03  0.00000000000E+00 0.  1.
         21   -1    0    0  501  502 -0.00000000000E+00 -0.00000000000E+00 -0.25850755839E+03  0.25850755839E+03  0.00000000000E+00 0.  1.
         25    1    1    2    0    0 -0.73772668093E+02  0.11511639668E+03 -0.14111381369E+03  0.23287829387E+03  0.12500000000E+03 0.  0.
         25    1    1    2    0    0  0.73772668093E+02 -0.11511639668E+03  0.48466363043E+02  0.19148937226E+03  0.12500000000E+03 0.  0.
</event>
<event>
 4    0  0.2244970E-002  0.2579137E+03  0.7546771E-02  0.1108403E+00
         21   -1    0    0  502  501  0.00000000000E+00  0.00000000000E+00  0.40094592820E+03  0.40094592820E+03  0.00000000000E+00 0. -1.
         21   -1    0    0  501  502 -0.00000000000E+00 -0.00000000000E+00 -0.16590639251E+03  0.16590639251E+03  0.00000000000E+00 0. -1.
         25    1    1    2    0    0 -0.18500881895E+03  0.80004230455E+02  0.22886115689E+03  0.32959273219E+03  0.12500000000E+03 0.  0.
         25    1    1    2    0    0  0.18500881895E+03 -0.80004230455E+02  0.61783788024E+01  0.23725958852E+03  0.12500000000E+03 0.  0.
</event>
<event>
 4    0  0.2244970E-002  0.2357100E+03  0.7546771E-02  0.1122684E+00
         21   -1    0    0  502  501  0.00000000000E+00  0.00000000000E+00  0.19513480399E+03  0.19513480399E+03  0.00000000000E+00 0.  1.
         21   -1    0    0  501  502 -0.00000000000E+00 -0.00000000000E+00 -0.28472222196E+03  0.28472222196E+03  0.00000000000E+00 0.  1.
         25    1    1    2    0    0  0.14814267285E+03 -0.50183212218E+02  0.81809139082E+02  0.21629225956E+03  0.12500000000E+03 0.  0.
         25    1    1    2    0    0 -0.14814267285E+03  0.50183212218E+02 -0.17139655705E+03  0.26356476638E+03  0.12500000000E+03 0.  0.
</event>
<event>
 4    0  0.2244970E-002  0.2258850E+03  0.7546771E-02  0.1129570E+00
         21   -1    0    0  502  501  0.00000000000E+00  0.00000000000E+00  0.15130618224E+03  0.15130618224E+03  0.00000000000E+00 0. -1.
         21   -1    0    0  501  502 -0.00000000000E+00 -0.00000000000E+00 -0.33722383825E+03  0.33722383825E+03  0.00000000000E+00 0. -1.
         25    1    1    2    0    0  0.72696799996E+02  0.16999498293E+03 -0.13066639729E+03  0.25861520901E+03  0.12500000000E+03 0.  0.
         25    1    1    2    0    0 -0.72696799996E+02 -0.16999498293E+03 -0.55251258731E+02  0.22991481149E+03  0.12500000000E+03 0.  0.
</event>
<event>
 4    0  0.2244970E-002  0.2963119E+03  0.7546771E-02  0.1087099E+00
         21   -1    0    0  502  501  0.00000000000E+00  0.00000000000E+00  0.24101706993E+03  0.24101706993E+03  0.00000000000E+00 0.  1.
         21   -1    0    0  501  502 -0.00000000000E+00 -0.00000000000E+00 -0.36429251073E+03  0.36429251073E+03  0.00000000000E+00 0.  1.
         25    1    1    2    0    0  0.14546758964E+03 -0.21743309317E+02 -0.29126594451E+03  0.34942015049E+03  0.12500000000E+03 0.  0.
         25    1    1    2    0    0 -0.14546758964E+03  0.21743309317E+02  0.16799050371E+03  0.25588943017E+03  0.12500000000E+03 0.  0.
</event>
<event>
 4    0  0.2244970E-002  0.3012102E+03  0.7546771E-02  0.1084637E+00
         21   -1    0    0  502  501  0.00000000000E+00  0.00000000000E+00  0.65531064320E+02  0.65531064320E+02  0.00000000000E+00 0.  1.
         21   -1    0    0  501  502 -0.00000000000E+00 -0.00000000000E+00 -0.13844969767E+04  0.13844969767E+04  0.00000000000E+00 0.  1.
         25    1    1    2    0    0 -0.11531472497E+03 -0.18926723769E+02 -0.62823381932E+02  0.18228407496E+03  0.12500000000E+03 0.  0.
         25    1    1    2    0    0  0.11531472497E+03  0.18926723769E+02 -0.12561425304E+04  0.12677439660E+04  0.12500000000E+03 0.  0.
</event>
<event>
 4    0  0.2244970E-002  0.1863233E+03  0.7546771E-02  0.1161820E+00
         21   -1    0    0  502  501  0.00000000000E+00  0.00000000000E+00  0.53486668740E+03  0.53486668740E+03  0.00000000000E+00 0.  1.
         21   -1    0    0  501  502 -0.00000000000E+00 -0.00000000000E+00 -0.64906566662E+02  0.64906566662E+02  0.00000000000E+00 0.  1.
         25    1    1    2    0    0 -0.69480920282E+02 -0.11833006946E+03  0.20894018560E+03  0.27948274505E+03  0.12500000000E+03 0.  0.
         25    1    1    2    0    0  0.69480920282E+02  0.11833006946E+03  0.26101993514E+03  0.32029050901E+03  0.12500000000E+03 0.  0.
</event>
<event>
 4    0  0.2244970E-002  0.2150667E+03  0.7546771E-02  0.1137615E+00
         21   -1    0    0  502  501  0.00000000000E+00  0.00000000000E+00  0.88609183493E+03  0.88609183493E+03  0.00000000000E+00 0. -1.
         21   -1    0    0  501  502 -0.00000000000E+00 -0.00000000000E+00 -0.52199665556E+02  0.52199665556E+02  0.00000000000E+00 0. -1.
         25    1    1    2    0    0 -0.10324947984E+03 -0.99072808737E+02  0.63674620306E+03  0.66448973177E+03  0.12500000000E+03 0.  0.
         25    1    1    2    0    0  0.10324947984E+03  0.99072808737E+02  0.19714596632E+03  0.27380176872E+03  0.12500000000E+03 0.  0.
</event>
<event>
 4    0  0.2244970E-002  0.2446735E+03  0.7546771E-02  0.1116718E+00
         21   -1    0    0  502  501  0.00000000000E+00  0.00000000000E+00  0.30469547481E+03  0.30469547481E+03  0.00000000000E+00 0.  1.
         21   -1    0    0  501  502 -0.00000000000E+00 -0.00000000000E+00 -0.19647529755E+03  0.19647529755E+03  0.00000000000E+00 0. -1.
         25    1    1    2    0    0 -0.76218983682E+02  0.16623786798E+03  0.16052331457E+03  0.27356369778E+03  0.12500000000E+03 0.  0.
         25    1    1    2    0    0  0.76218983682E+02 -0.16623786798E+03 -0.52303137310E+02  0.22760707457E+03  0.12500000000E+03 0.  0.
</event>
<event>
 4    0  0.2244970E-002  0.1798553E+03  0.7546771E-02  0.1167943E+00
         21   -1    0    0  502  501  0.00000000000E+00  0.00000000000E+00  0.13499225665E+03  0.13499225665E+03  0.00000000000E+00 0. -1.
         21   -1    0    0  501  502 -0.00000000000E+00 -0.00000000000E+00 -0.23962816599E+03  0.23962816599E+03  0.00000000000E+00 0. -1.
         25    1    1    2    0    0  0.70338159925E+02 -0.83026894955E+02  0.20449651177E+02  0.16698535942E+03  0.12500000000E+03 0.  0.
         25    1    1    2    0    0 -0.70338159925E+02  0.83026894955E+02 -0.12508556052E+03  0.20763506322E+03  0.12500000000E+03 0.  0.
</event>
<event>
 4    0  0.2244970E-002  0.2218256E+03  0.7546771E-02  0.1132529E+00
         21   -1    0    0  502  501  0.00000000000E+00  0.00000000000E+00  0.22890850554E+02  0.22890850554E+02  0.00000000000E+00 0.  1.
         21   -1    0    0  501  502 -0.00000000000E+00 -0.00000000000E+00 -0.21496177111E+04  0.21496177111E+04  0.00000000000E+00 0.  1.
         25    1    1    2    0    0 -0.19056998007E+02 -0.61528764861E+02 -0.22325686326E+03  0.26385144508E+03  0.12500000000E+03 0.  0.
         25    1    1    2    0    0  0.19056998007E+02  0.61528764861E+02 -0.19034699973E+04  0.19086571166E+04  0.12500000000E+03 0.  0.
</event>
<event>
 4    0  0.2244970E-002  0.4609273E+03  0.7546771E-02  0.1024513E+00
         21   -1    0    0  502  501  0.00000000000E+00  0.00000000000E+00  0.98783467644E+03  0.98783467644E+03  0.00000000000E+00 0.  1.
         21   -1    0    0  501  502 -0.00000000000E+00 -0.00000000000E+00 -0.21507041325E+03  0.21507041325E+03  0.00000000000E+00 0.  1.
         25    1    1    2    0    0 -0.21812991524E+03  0.38502210418E+03  0.34498793848E+03  0.57486029462E+03  0.12500000000E+03 0.  0.
         25    1    1    2    0    0  0.21812991524E+03 -0.38502210418E+03  0.42777632471E+03  0.62804479507E+03  0.12500000000E+03 0.  0.
</event>
<event>
 4    0  0.2244970E-002  0.1461522E+03  0.7546771E-02  0.1205282E+00
         21   -1    0    0  502  501  0.00000000000E+00  0.00000000000E+00  0.23774842519E+02  0.23774842519E+02  0.00000000000E+00 0.  1.
         21   -1    0    0  501  502 -0.00000000000E+00 -0.00000000000E+00 -0.89844809217E+03  0.89844809217E+03  0.00000000000E+00 0.  1.
         25    1    1    2    0    0 -0.42665511252E+02  0.62382016216E+02 -0.45266363964E+03  0.47564822342E+03  0.12500000000E+03 0.  0.
         25    1    1    2    0    0  0.42665511252E+02 -0.62382016216E+02 -0.42200961001E+03  0.44657471126E+03  0.12500000000E+03 0.  0.
</event>
<event>
 4    0  0.2244970E-002  0.3982907E+03  0.7546771E-02  0.1044373E+00
         21   -1    0    0  502  501  0.00000000000E+00  0.00000000000E+00  0.82775960812E+03  0.82775960812E+03  0.00000000000E+00 0. -1.
         21   -1    0    0  501  502 -0.00000000000E+00 -0.00000000000E+00 -0.19164439120E+03  0.19164439120E+03  0.00000000000E+00 0.  1.
         25    1    1    2    0    0 -0.87565056393E+01  0.35316188345E+03  0.14536369661E+03  0.40193979227E+03  0.12500000000E+03 0.  0.
         25    1    1    2    0    0  0.87565056393E+01 -0.35316188345E+03  0.49075152030E+03  0.61746420706E+03  0.12500000000E+03 0.  0.
</event>
<event>
 4    0  0.2244970E-002  0.1516648E+03  0.7546771E-02  0.1198442E+00
         21   -1    0    0  502  501  0.00000000000E+00  0.00000000000E+00  0.55942163058E+02  0.55942163058E+02  0.00000000000E+00 0.  1.
         21   -1    0    0  501  502 -0.00000000000E+00 -0.00000000000E+00 -0.41117852613E+03  0.41117852613E+03  0.00000000000E+00 0.  1.
         25    1    1    2    0    0 -0.77303556423E+02  0.22265007102E+02 -0.13127418846E+03  0.19831662294E+03  0.12500000000E+03 0.  0.
         25    1    1    2    0    0  0.77303556423E+02 -0.22265007102E+02 -0.22396217462E+03  0.26880406626E+03  0.12500000000E+03 0.  0.
</event>
<event>
 4    0  0.2244970E-002  0.1834194E+03  0.7546771E-02  0.1164534E+00
         21   -1    0    0  502  501  0.00000000000E+00  0.00000000000E+00  0.17305274046E+03  0.17305274046E+03  0.00000000000E+00 0.  1.
         21   -1    0    0  501  502 -0.00000000000E+00 -0.00000000000E+00 -0.19440702576E+03  0.19440702576E+03  0.00000000000E+00 0.  1.
         25    1    1    2    0    0 -0.10982534155E+03 -0.67277577147E+02 -0.48553725386E+02  0.18593101485E+03  0.12500000000E+03 0.  0.
         25    1    1    2    0    0  0.10982534155E+03  0.67277577147E+02  0.27199440088E+02  0.18152875137E+03  0.12500000000E+03 0.  0.
</event>
<event>
 4    0  0.2244970E-002  0.2026991E+03  0.7546771E-02  0.1147482E+00
         21   -1    0    0  502  501  0.00000000000E+00  0.00000000000E+00  0.33469349802E+03  0.33469349802E+03  0.00000000000E+00 0.  1.
         21   -1    0    0  501  502 -0.00000000000E+00 -0.00000000000E+00 -0.12275985216E+03  0.12275985216E+03  0.00000000000E+00 0.  1.
         25    1    1    2    0    0  0.18290197147E+02  0.15349461539E+03  0.15063222394E+03  0.24941971685E+03  0.12500000000E+03 0.  0.
         25    1    1    2    0    0 -0.18290197147E+02 -0.15349461539E+03  0.61301421922E+02  0.20803363332E+03  0.12500000000E+03 0.  0.
</event>
<event>
 4    0  0.2244970E-002  0.2445448E+03  0.7546771E-02  0.1116802E+00
         21   -1    0    0  502  501  0.00000000000E+00  0.00000000000E+00  0.23760301023E+03  0.23760301023E+03  0.00000000000E+00 0. -1.
         21   -1    0    0  501  502 -0.00000000000E+00 -0.00000000000E+00 -0.25168934801E+03  0.25168934801E+03  0.00000000000E+00 0. -1.
         25    1    1    2    0    0  0.15535065545E+03 -0.26494114005E+02  0.13208779925E+03  0.24064070922E+03  0.12500000000E+03 0.  0.
         25    1    1    2    0    0 -0.15535065545E+03  0.26494114005E+02 -0.14617413702E+03  0.24865164902E+03  0.12500000000E+03 0.  0.
</event>
<event>
 4    0  0.2244970E-002  0.2086541E+03  0.7546771E-02  0.1142636E+00
         21   -1    0    0  502  501  0.00000000000E+00  0.00000000000E+00  0.78396110025E+02  0.78396110025E+02  0.00000000000E+00 0.  1.
         21   -1    0    0  501  502 -0.00000000000E+00 -0.00000000000E+00 -0.55534052627E+03  0.55534052627E+03  0.00000000000E+00 0.  1.
         25    1    1    2    0    0 -0.15931382497E+03  0.37465685072E+02 -0.28945305174E+03  0.35523603639E+03  0.12500000000E+03 0.  0.
         25    1    1    2    0    0  0.15931382497E+03 -0.37465685072E+02 -0.18749136450E+03  0.27850059991E+03  0.12500000000E+03 0.  0.
</event>
<event>
 4    0  0.2244970E-002  0.2583877E+03  0.7546771E-02  0.1108116E+00
         21   -1    0    0  502  501  0.00000000000E+00  0.00000000000E+00  0.38056696587E+03  0.38056696587E+03  0.00000000000E+00 0.  1.
         21   -1    0    0  501  502 -0.00000000000E+00 -0.00000000000E+00 -0.17543357445E+03  0.17543357445E+03  0.00000000000E+00 0.  1.
         25    1    1    2    0    0  0.49321660170E+02  0.22016766581E+03  0.11898245561E+03  0.28405677597E+03  0.12500000000E+03 0.  0.
         25    1    1    2    0    0 -0.49321660170E+02 -0.22016766581E+03  0.86150935814E+02  0.27194376436E+03  0.12500000000E+03 0.  0.
</event>
<event>
 4    0  0.2244970E-002  0.2969393E+03  0.7546771E-02  0.1086781E+00
         21   -1    0    0  502  501  0.00000000000E+00  0.00000000000E+00  0.47431979192E+03  0.47431979192E+03  0.00000000000E+00 0. -1.
         21   -1    0    0  501  502 -0.00000000000E+00 -0.00000000000E+00 -0.18589344702E+03  0.18589344702E+03  0.00000000000E+00 0. -1.
         25    1    1    2    0    0 -0.39799439026E+02 -0.45358282737E+01  0.44031595119E+03  0.45946458618E+03  0.12500000000E+03 0.  0.
         25    1    1    2    0    0  0.39799439026E+02  0.45358282737E+01 -0.15188960629E+03  0.20074865276E+03  0.12500000000E+03 0.  0.
</event>
<event>
 4    0  0.2244970E-002  0.2852467E+03  0.7546771E-02  0.1092857E+00
         21   -1    0    0  502  501  0.00000000000E+00  0.00000000000E+00  0.28041685068E+03  0.28041685068E+03  0.00000000000E+00 0. -1.
         21   -1    0    0  501  502 -0.00000000000E+00 -0.00000000000E+00 -0.29015973033E+03  0.29015973033E+03  0.00000000000E+00 0. -1.
         25    1    1    2    0    0  0.12634651434E+03  0.20202144862E+03  0.89823781648E+02  0.28367132237E+03  0.12500000000E+03 0.  0.
         25    1    1    2    0    0 -0.12634651434E+03 -0.20202144862E+03 -0.99566661303E+02  0.28690525863E+03  0.12500000000E+03 0.  0.
</event>
<event>
 4    0  0.2244970E-002  0.2262738E+03  0.7546771E-02  0.1129290E+00
         21   -1    0    0  502  501  0.00000000000E+00  0.00000000000E+00  0.60662567860E+02  0.60662567860E+02  0.00000000000E+00 0. -1.
         21   -1    0    0  501  502 -0.00000000000E+00 -0.00000000000E+00 -0.84401042335E+03  0.84401042335E+03  0.00000000000E+00 0. -1.
         25    1    1    2    0    0  0.74175495398E+01  0.14344685802E+03 -0.14730634709E+03  0.24074090016E+03  0.12500000000E+03 0.  0.
         25    1    1    2    0    0 -0.74175495398E+01 -0.14344685802E+03 -0.63604150840E+03  0.66393209105E+03  0.12500000000E+03 0.  0.
</event>
<event>
 4    0  0.2244970E-002  0.1418657E+03  0.7546771E-02  0.1210840E+00
         21   -1    0    0  502  501  0.00000000000E+00  0.00000000000E+00  0.45675927520E+03  0.45675927520E+03  0.00000000000E+00 0. -1.
         21   -1    0    0  501  502 -0.00000000000E+00 -0.00000000000E+00 -0.44062343633E+02  0.44062343633E+02  0.00000000000E+00 0. -1.
         25    1    1    2    0    0 -0.59611660257E+02 -0.27667894150E+02  0.23014964573E+03  0.27002392826E+03  0.12500000000E+03 0.  0.
         25    1    1    2    0    0  0.59611660257E+02  0.27667894150E+02  0.18254728583E+03  0.23079769057E+03  0.12500000000E+03 0.  0.
</event>
<event>
 4    0  0.2244970E-002  0.2864108E+03  0.7546771E-02  0.1092238E+00
         21   -1    0    0  502  501  0.00000000000E+00  0.00000000000E+00  0.15057486855E+03  0.15057486855E+03  0.00000000000E+00 0. -1.
         21   -1    0    0  501  502 -0.00000000000E+00 -0.00000000000E+00 -0.54478650216E+03  0.54478650216E+03  0.00000000000E+00 0. -1.
         25    1    1    2    0    0  0.44425648316E+02 -0.24451325757E+02  0.10959814885E+03  0.17380523522E+03  0.12500000000E+03 0.  0.
         25    1    1    2    0    0 -0.44425648316E+02  0.24451325757E+02 -0.50380978246E+03  0.52155613548E+03  0.12500000000E+03 0.  0.
</event>
<event>
 4    0  0.2244970E-002  0.1948469E+03  0.7546771E-02  0.1154161E+00
         21   -1    0    0  502  501  0.00000000000E+00  0.00000000000E+00  0.12959922058E+03  0.12959922058E+03  0.00000000000E+00 0. -1.
         21   -1    0    0  501  502 -0.00000000000E+00 -0.00000000000E+00 -0.29294407265E+03  0.29294407265E+03  0.00000000000E+00 0. -1.
         25    1    1    2    0    0 -0.11996471954E+03 -0.86700510749E+02 -0.59140697429E+02  0.20256143411E+03  0.12500000000E+03 0.  0.
         25    1    1    2    0    0  0.11996471954E+03  0.86700510749E+02 -0.10420415464E+03  0.21998185912E+03  0.12500000000E+03 0.  0.
</event>
<event>
 4    0  0.2244970E-002  0.1679921E+03  0.7546771E-02  0.1179958E+00
         21   -1    0    0  502  501  0.00000000000E+00  0.00000000000E+00  0.56622069141E+03  0.56622069141E+03  0.00000000000E+00 0. -1.
         21   -1    0    0  501  502 -0.00000000000E+00 -0.00000000000E+00 -0.49841623485E+02  0.49841623485E+02  0.00000000000E+00 0. -1.
         25    1    1    2    0    0 -0.72623954315E+02  0.22017216886E+02  0.40980725854E+03  0.43511606007E+03  0.12500000000E+03 0.  0.
         25    1    1    2    0    0  0.72623954315E+02 -0.22017216886E+02  0.10657180939E+03  0.18094625483E+03  0.12500000000E+03 0.  0.
</event>
<event>
 4    0  0.2244970E-002  0.3135953E+03  0.7546771E-02  0.1078635E+00
         21   -1    0    0  502  501  0.00000000000E+00  0.00000000000E+00  0.11456452231E+03  0.11456452231E+03  0.00000000000E+00 0.  1.
         21   -1    0    0  501  502 -0.00000000000E+00 -0.00000000000E+00 -0.85839839468E+03  0.85839839468E+03  0.00000000000E+00 0.  1.
         25    1    1    2    0    0 -0.17003467289E+03  0.10789995141E+03 -0.53378710600E+02  0.24295776638E+03  0.12500000000E+03 0.  0.
         25    1    1    2    0    0  0.17003467289E+03 -0.10789995141E+03 -0.69045516177E+03  0.73000515061E+03  0.12500000000E+03 0.  0.
</event>
<event>
 4    0  0.2244970E-002  0.2213547E+03  0.7546771E-02  0.1132877E+00
         21   -1    0    0  502  501  0.00000000000E+00  0.00000000000E+00  0.82933101910E+02  0.82933101910E+02  0.00000000000E+00 0.  1.
         21   -1    0    0  501  502 -0.00000000000E+00 -0.00000000000E+00 -0.59081237350E+03  0.59081237350E+03  0.00000000000E+00 0.  1.
         25    1    1    2    0    0  0.69575336087E+02 -0.16883320325E+03 -0.26192398936E+03  0.34289146113E+03  0.12500000000E+03 0.  0.
         25    1    1    2    0    0 -0.69575336087E+02  0.16883320325E+03 -0.24595528222E+03  0.33085401428E+03  0.12500000000E+03 0.  0.
</event>
<event>
 4    0  0.2244970E-002  0.2270284E+03  0.7546771E-02  0.1128749E+00
         21   -1    0    0  502  501  0.00000000000E+00  0.00000000000E+00  0.95910217855E+02  0.95910217855E+02  0.00000000000E+00 0.  1.
         21   -1    0    0  501  502 -0.00000000000E+00 -0.00000000000E+00 -0.53739730566E+03  0.53739730566E+03  0.00000000000E+00 0.  1.
         25    1    1    2    0    0  0.32452745883E+01 -0.18873331176E+03 -0.19715170494E+03  0.30020757741E+03  0.12500000000E+03 0.  0.
         25    1    1    2    0    0 -0.32452745883E+01  0.18873331176E+03 -0.24433538286E+03  0.33309994610E+03  0.12500000000E+03 0.  0.
</event>
<event>
 4    0  0.2244970E-002  0.1924904E+03  0.7546771E-02  0.1156234E+00
         21   -1    0    0  502  501  0.00000000000E+00  0.00000000000E+00  0.52582344430E+03  0.52582344430E+03  0.00000000000E+00 0.  1.
         21   -1    0    0  501  502 -0.00000000000E+00 -0.00000000000E+00 -0.70465805644E+02  0.70465805644E+02  0.00000000000E+00 0.  1.
         25    1    1    2    0    0  0.12690998912E+03  0.20414140443E+01  0.11473518833E+03  0.21189496490E+03  0.12500000000E+03 0.  0.
         25    1    1    2    0    0 -0.12690998912E+03 -0.20414140443E+01  0.34062245033E+03  0.38439428505E+03  0.12500000000E+03 0.  0.
</event>
<event>
 4    0  0.2244970E-002  0.2123909E+03  0.7546771E-02  0.1139687E+00
         21   -1    0    0  502  501  0.00000000000E+00  0.00000000000E+00  0.54139110421E+03  0.54139110421E+03  0.00000000000E+00 0.  1.
         21   -1    0    0  501  502 -0.00000000000E+00 -0.00000000000E+00 -0.83322178380E+02  0.83322178380E+02  0.00000000000E+00 0.  1.
         25    1    1    2    0    0 -0.10278535111E+03 -0.76188360451E+02  0.60609869336E+02  0.18885987115E+03  0.12500000000E+03 0.  0.
         25    1    1    2    0    0  0.10278535111E+03  0.76188360451E+02  0.39745905649E+03  0.43585341143E+03  0.12500000000E+03 0.  0.
</event>
<event>
 4    0  0.2244970E-002  0.2499921E+03  0.7546771E-02  0.1113310E+00
         21   -1    0    0  502  501  0.00000000000E+00  0.00000000000E+00  0.34484858033E+02  0.34484858033E+02  0.00000000000E+00 0. -1.
         21   -1    0    0  501  502 -0.00000000000E+00 -0.00000000000E+00 -0.18122750656E+04  0.18122750656E+04  0.00000000000E+00 0. -1.
         25    1    1    2    0    0  0.16494888850E+03 -0.85029285279E+02 -0.13007469022E+04  0.13198506047E+04  0.12500000000E+03 0.  0.
         25    1    1    2    0    0 -0.16494888850E+03  0.85029285279E+02 -0.47704330535E+03  0.52690931890E+03  0.12500000000E+03 0.  0.
</event>
<event>
 4    0  0.2244970E-002  0.1399184E+03  0.7546771E-02  0.1213439E+00
         21   -1    0    0  502  501  0.00000000000E+00  0.00000000000E+00  0.52179515307E+02  0.52179515307E+02  0.00000000000E+00 0. -1.
         21   -1    0    0  501  502 -0.00000000000E+00 -0.00000000000E+00 -0.37518834441E+03  0.37518834441E+03  0.00000000000E+00 0. -1.
         25    1    1    2    0    0  0.16860946858E+02  0.41799351037E+02 -0.22843481146E+03  0.26427058172E+03  0.12500000000E+03 0.  0.
         25    1    1    2    0    0 -0.16860946858E+02 -0.41799351037E+02 -0.94574017637E+02  0.16309727799E+03  0.12500000000E+03 0.  0.
</event>
<event>
 4    0  0.2244970E-002  0.2043058E+03  0.7546771E-02  0.1146156E+00
         21   -1    0    0  502  501  0.00000000000E+00  0.00000000000E+00  0.37093978049E+03  0.37093978049E+03  0.00000000000E+00 0. -1.
         21   -1    0    0  501  502 -0.00000000000E+00 -0.00000000000E+00 -0.11252726907E+03  0.11252726907E+03  0.00000000000E+00 0. -1.
         25    1    1    2    0    0  0.68538576388E+01  0.15730069704E+03  0.17228098305E+03  0.26475691072E+03  0.12500000000E+03 0.  0.
         25    1    1    2    0    0 -0.68538576388E+01 -0.15730069704E+03  0.86131528371E+02  0.21871013885E+03  0.12500000000E+03 0.  0.
</event>
<event>
 4    0  0.2244970E-002  0.1984777E+03  0.7546771E-02  0.1151030E+00
         21   -1    0    0  502  501  0.00000000000E+00  0.00000000000E+00  0.59265299756E+02  0.59265299756E+02  0.00000000000E+00 0.  1.
         21   -1    0    0  501  502 -0.00000000000E+00 -0.00000000000E+00 -0.66469594867E+03  0.66469594867E+03  0.00000000000E+00 0.  1.
         25    1    1    2    0    0  0.44967305724E+02 -0.14731495234E+03 -0.31490209293E+03  0.37217211327E+03  0.12500000000E+03 0.  0.
         25    1    1    2    0    0 -0.44967305724E+02  0.14731495234E+03 -0.29052855599E+03  0.35178913515E+03  0.12500000000E+03 0.  0.
</event>
<event>
 4    0  0.2244970E-002  0.3095603E+03  0.7546771E-02  0.1080557E+00
         21   -1    0    0  502  501  0.00000000000E+00  0.00000000000E+00  0.10867783358E+04  0.10867783358E+04  0.00000000000E+00 0.  1.
         21   -1    0    0  501  502 -0.00000000000E+00 -0.00000000000E+00 -0.88175840786E+02  0.88175840786E+02  0.00000000000E+00 0.  1.
         25    1    1    2    0    0 -0.20429971396E+03 -0.19581063397E+03  0.47830388497E+03  0.56963127010E+03  0.12500000000E+03 0.  0.
         25    1    1    2    0    0  0.20429971396E+03  0.19581063397E+03  0.52029861004E+03  0.60532290648E+03  0.12500000000E+03 0.  0.
</event>
<event>
 4    0  0.2244970E-002  0.2363086E+03  0.7546771E-02  0.1122277E+00
         21   -1    0    0  502  501  0.00000000000E+00  0.00000000000E+00  0.59353533175E+03  0.59353533175E+03  0.00000000000E+00 0. -1.
         21   -1    0    0  501  502 -0.00000000000E+00 -0.00000000000E+00 -0.94083324239E+02  0.94083324239E+02  0.00000000000E+00 0. -1.
         25    1    1    2    0    0  0.16541136015E+03 -0.11122367027E+03  0.21767970156E+03  0.32053248722E+03  0.12500000000E+03 0.  0.
         25    1    1    2    0    0 -0.16541136015E+03  0.11122367027E+03  0.28177230595E+03  0.36708616876E+03  0.12500000000E+03 0.  0.
</event>
<event>
 4    0  0.2244970E-002  0.3061883E+03  0.7546771E-02  0.1082187E+00
         21   -1    0    0  502  501  0.00000000000E+00  0.00000000000E+00  0.13971950178E+04  0.13971950178E+04  0.00000000000E+00 0. -1.
         21   -1    0    0  501  502 -0.00000000000E+00 -0.00000000000E+00 -0.67099615756E+02  0.67099615756E+02  0.00000000000E+00 0. -1.
         25    1    1    2    0    0 -0.14198496658E+03 -0.16036038127E+02  0.12394723755E+04  0.12539272925E+04  0.12500000000E+03 0.  0.
         25    1    1    2    0    0  0.14198496658E+03  0.16036038127E+02  0.90623026585E+02  0.21036734110E+03  0.12500000000E+03 0.  0.
</event>
<event>
 4    0  0.2244970E-002  0.2115448E+03  0.7546771E-02  0.1140348E+00
         21   -1    0    0  502  501  0.00000000000E+00  0.00000000000E+00  0.23383428800E+03  0.23383428800E+03  0.00000000000E+00 0. -1.
         21   -1    0    0  501  502 -0.00000000000E+00 -0.00000000000E+00 -0.19137996806E+03  0.19137996806E+03  0.00000000000E+00 0. -1.
         25    1    1    2    0    0 -0.92631025786E+02  0.98678658320E+02  0.12571180055E+03  0.22303910272E+03  0.12500000000E+03 0.  0.
         25    1    1    2    0    0  0.92631025786E+02 -0.98678658320E+02 -0.83257480611E+02  0.20217515333E+03  0.12500000000E+03 0.  0.
</event>
<event>
 4    0  0.2244970E-002  0.2862775E+03  0.7546771E-02  0.1092309E+00
         21   -1    0    0  502  501  0.00000000000E+00  0.00000000000E+00  0.10796459341E+03  0.10796459341E+03  0.00000000000E+00 0. -1.
         21   -1    0    0  501  502 -0.00000000000E+00 -0.00000000000E+00 -0.75908983699E+03  0.75908983699E+03  0.00000000000E+00 0. -1.
         25    1    1    2    0    0  0.25407806331E+03 -0.38711249243E+02 -0.30042230744E+03  0.41464778533E+03  0.12500000000E+03 0.  0.
         25    1    1    2    0    0 -0.25407806331E+03  0.38711249243E+02 -0.35070293614E+03  0.45240664506E+03  0.12500000000E+03 0.  0.
</event>
<event>
 4    0  0.2244970E-002  0.1634279E+03  0.7546771E-02  0.1184880E+00
         21   -1    0    0  502  501  0.00000000000E+00  0.00000000000E+00  0.21768340045E+03  0.21768340045E+03  0.00000000000E+00 0.  1.
         21   -1    0    0  501  502 -0.00000000000E+00 -0.00000000000E+00 -0.12269512429E+03  0.12269512429E+03  0.00000000000E+00 0.  1.
         25    1    1    2    0    0  0.71321857221E+02 -0.36319020005E+02  0.11871829074E+03  0.19006554419E+03  0.12500000000E+03 0.  0.
         25    1    1    2    0    0 -0.71321857221E+02  0.36319020005E+02 -0.23730014583E+02  0.15031298056E+03  0.12500000000E+03 0.  0.
</event>
<event>
 4    0  0.2244970E-002  0.2682454E+03  0.7546771E-02  0.1102288E+00
         21   -1    0    0  502  501  0.00000000000E+00  0.00000000000E+00  0.10953432168E+03  0.10953432168E+03  0.00000000000E+00 0. -1.
         21   -1    0    0  501  502 -0.00000000000E+00 -0.00000000000E+00 -0.65692283046E+03  0.65692283046E+03  0.00000000000E+00 0. -1.
         25    1    1    2    0    0  0.97064069395E+02  0.25130924322E+02  0.33640028971E+02  0.16373652150E+03  0.12500000000E+03 0.  0.
         25    1    1    2    0    0 -0.97064069395E+02 -0.25130924322E+02 -0.58102853775E+03  0.60272063064E+03  0.12500000000E+03 0.  0.
</event>
<event>
 4    0  0.2244970E-002  0.5078309E+03  0.7546771E-02  0.1011755E+00
         21   -1    0    0  502  501  0.00000000000E+00  0.00000000000E+00  0.33855339113E+03  0.33855339113E+03  0.00000000000E+00 0.  1.
         21   -1    0    0  501  502 -0.00000000000E+00 -0.00000000000E+00 -0.76174742858E+03  0.76174742858E+03  0.00000000000E+00 0. -1.
         25    1    1    2    0    0  0.41001646130E+03  0.69485830886E+02 -0.49683577720E+03  0.65985799134E+03  0.12500000000E+03 0.  0.
         25    1    1    2    0    0 -0.41001646130E+03 -0.69485830886E+02  0.73641739754E+02  0.44044282837E+03  0.12500000000E+03 0.  0.
</event>
<event>
 4    0  0.2244970E-002  0.2465629E+03  0.7546771E-02  0.1115496E+00
         21   -1    0    0  502  501  0.00000000000E+00  0.00000000000E+00  0.28384448614E+03  0.28384448614E+03  0.00000000000E+00 0. -1.
         21   -1    0    0  501  502 -0.00000000000E+00 -0.00000000000E+00 -0.21417800813E+03  0.21417800813E+03  0.00000000000E+00 0. -1.
         25    1    1    2    0    0 -0.11022959405E+02 -0.20857116574E+03 -0.48611214431E+01  0.24345855359E+03  0.12500000000E+03 0.  0.
         25    1    1    2    0    0  0.11022959405E+02  0.20857116574E+03  0.74527599458E+02  0.25456394068E+03  0.12500000000E+03 0.  0.
</event>
<event>
 4    0  0.2244970E-002  0.1896576E+03  0.7546771E-02  0.1158771E+00
         21   -1    0    0  502  501  0.00000000000E+00  0.00000000000E+00  0.54055673736E+02  0.54055673736E+02  0.00000000000E+00 0.  1.
         21   -1    0    0  501  502 -0.00000000000E+00 -0.00000000000E+00 -0.66542491276E+03  0.66542491276E+03  0.00000000000E+00 0.  1.
         25    1    1    2    0    0 -0.40969704253E+02 -0.10480018423E+03 -0.13942164643E+03  0.21846050164E+03  0.12500000000E+03 0.  0.
         25    1    1    2    0    0  0.40969704253E+02  0.10480018423E+03 -0.47194759259E+03  0.50102008486E+03  0.12500000000E+03 0.  0.
</event>
<event>
 4    0  0.2244970E-002  0.2202470E+03  0.7546771E-02  0.1133699E+00
         21   -1    0    0  502  501  0.00000000000E+00  0.00000000000E+00  0.10830581130E+03  0.10830581130E+03  0.00000000000E+00 0. -1.
         21   -1    0    0  501  502 -0.00000000000E+00 -0.00000000000E+00 -0.44788675231E+03  0.44788675231E+03  0.00000000000E+00 0. -1.
         25    1    1    2    0    0 -0.17321951661E+03 -0.53178444181E+02 -0.16079186428E+03  0.27260222207E+03  0.12500000000E+03 0.  0.
         25    1    1    2    0    0  0.17321951661E+03  0.53178444181E+02 -0.17878907673E+03  0.28359034155E+03  0.12500000000E+03 0.  0.
</event>
<event>
 4    0  0.2244970E-002  0.1919146E+03  0.7546771E-02  0.1156746E+00
         21   -1    0    0  502  501  0.00000000000E+00  0.00000000000E+00  0.43195090751E+02  0.43195090751E+02  0.00000000000E+00 0.  1.
         21   -1    0    0  501  502 -0.00000000000E+00 -0.00000000000E+00 -0.85267087379E+03  0.85267087379E+03  0.00000000000E+00 0.  1.
         25    1    1    2    0    0  0.71037522449E+02  0.10077681482E+03 -0.22388650237E+03  0.28452146131E+03  0.12500000000E+03 0.  0.
         25    1    1    2    0    0 -0.71037522449E+02 -0.10077681482E+03 -0.58558928067E+03  0.61134450323E+03  0.12500000000E+03 0.  0.
</event>
<event>
 4    0  0.2244970E-002  0.1953759E+03  0.7546771E-02  0.1153700E+00
         21   -1    0    0  502  501  0.00000000000E+00  0.00000000000E+00  0.90419145517E+03  0.90419145517E+03  0.00000000000E+00 0. -1.
         21   -1    0    0  501  502 -0.00000000000E+00 -0.00000000000E+00 -0.42216446952E+02  0.42216446952E+02  0.00000000000E+00 0. -1.
         25    1    1    2    0    0 -0.94881329498E+02  0.48841414980E+02  0.68683788749E+03  0.70622888230E+03  0.12500000000E+03 0.  0.
         25    1    1    2    0    0  0.94881329498E+02 -0.48841414980E+02  0.17513712072E+03  0.24017901981E+03  0.12500000000E+03 0.  0.
</event>
<event>
 4    0  0.2244970E-002  0.2960981E+03  0.7546771E-02  0.1087208E+00
         21   -1    0    0  502  501  0.00000000000E+00  0.00000000000E+00  0.21415443183E+03  0.21415443183E+03  0.00000000000E+00 0. -1.
         21   -1    0    0  501  502 -0.00000000000E+00 -0.00000000000E+00 -0.40939652328E+03  0.40939652328E+03  0.00000000000E+00 0. -1.
         25    1    1    2    0    0  0.16070803611E+03 -0.17400070873E+03 -0.23058348103E+03  0.35340778321E+03  0.12500000000E+03 0.  0.
         25    1    1    2    0    0 -0.16070803611E+03  0.17400070873E+03  0.35341389578E+02  0.27014317190E+03  0.12500000000E+03 0.  0.
</event>
<event>
 4    0  0.2244970E-002  0.2765887E+03  0.7546771E-02  0.1097567E+00
         21   -1    0    0  502  501  0.00000000000E+00  0.00000000000E+00  0.53036771376E+02  0.53036771376E+02  0.00000000000E+00 0.  1.
         21   -1    0    0  501  502 -0.00000000000E+00 -0.00000000000E+00 -0.14424197105E+04  0.14424197105E+04  0.00000000000E+00 0.  1.
         25    1    1    2    0    0 -0.14712963365E+03 -0.53576103389E+02 -0.12101739753E+04  0.12266472918E+04  0.12500000000E+03 0.  0.
         25    1    1    2    0    0  0.14712963365E+03  0.53576103389E+02 -0.17920896377E+03  0.26880919004E+03  0.12500000000E+03 0.  0.
</event>
<event>
 4    0  0.2244970E-002  0.1754117E+03  0.7546771E-02  0.1172319E+00
         21   -1    0    0  502  501  0.00000000000E+00  0.00000000000E+00  0.15919918921E+03  0.15919918921E+03  0.00000000000E+00 0.  1.
         21   -1    0    0  501  502 -0.00000000000E+00 -0.00000000000E+00 -0.19327525355E+03  0.19327525355E+03  0.00000000000E+00 0.  1.
         25    1    1    2    0    0 -0.32880870252E+02  0.47015366295E+02  0.92344288587E+02  0.16566250007E+03  0.12500000000E+03 0.  0.
         25    1    1    2    0    0  0.32880870252E+02 -0.47015366295E+02 -0.12642035293E+03  0.18681194269E+03  0.12500000000E+03 0.  0.
</event>
<event>
 4    0  0.2244970E-002  0.2010477E+03  0.7546771E-02  0.1148858E+00
         21   -1    0    0  502  501  0.00000000000E+00  0.00000000000E+00  0.33101756751E+03  0.33101756751E+03  0.00000000000E+00 0.  1.
         21   -1    0    0  501  502 -0.00000000000E+00 -0.00000000000E+00 -0.12210888294E+03  0.12210888294E+03  0.00000000000E+00 0.  1.
         25    1    1    2    0    0 -0.62427054483E+02  0.12562243106E+03  0.18506644120E+03  0.26372849671E+03  0.12500000000E+03 0.  0.
         25    1    1    2    0    0  0.62427054483E+02 -0.12562243106E+03  0.23842243371E+02  0.18939795375E+03  0.12500000000E+03 0.  0.
</event>
<event>
 4    0  0.2244970E-002  0.1497208E+03  0.7546771E-02  0.1200817E+00
         21   -1    0    0  502  501  0.00000000000E+00  0.00000000000E+00  0.12598379141E+03  0.12598379141E+03  0.00000000000E+00 0. -1.
         21   -1    0    0  501  502 -0.00000000000E+00 -0.00000000000E+00 -0.17793015071E+03  0.17793015071E+03  0.00000000000E+00 0. -1.
         25    1    1    2    0    0  0.51086709806E+02 -0.63550924651E+02 -0.38099136135E+02  0.15402959494E+03  0.12500000000E+03 0.  0.
         25    1    1    2    0    0 -0.51086709806E+02  0.63550924651E+02 -0.13847223165E+02  0.14988434719E+03  0.12500000000E+03 0.  0.
</event>
<event>
 4    0  0.2244970E-002  0.2306539E+03  0.7546771E-02  0.1126180E+00
         21   -1    0    0  502  501  0.00000000000E+00  0.00000000000E+00  0.46087364765E+03  0.46087364765E+03  0.00000000000E+00 0.  1.
         21   -1    0    0  501  502 -0.00000000000E+00 -0.00000000000E+00 -0.11543554642E+03  0.11543554642E+03  0.00000000000E+00 0. -1.
         25    1    1    2    0    0  0.12584129499E+03  0.14250282973E+03  0.22001294772E+03  0.31650242522E+03  0.12500000000E+03 0.  0.
         25    1    1    2    0    0 -0.12584129499E+03 -0.14250282973E+03  0.12542515350E+03  0.25980676885E+03  0.12500000000E+03 0.  0.
</event>
<event>
 4    0  0.2244970E-002  0.2154097E+03  0.7546771E-02  0.1137352E+00
         21   -1    0    0  502  501  0.00000000000E+00  0.00000000000E+00  0.68717766059E+02  0.68717766059E+02  0.00000000000E+00 0. -1.
         21   -1    0    0  501  502 -0.00000000000E+00 -0.00000000000E+00 -0.67524509270E+03  0.67524509270E+03  0.00000000000E+00 0. -1.
         25    1    1    2    0    0 -0.10613123000E+03  0.13943020668E+03 -0.28863995952E+03  0.36005922672E+03  0.12500000000E+03 0.  0.
         25    1    1    2    0    0  0.10613123000E+03 -0.13943020668E+03 -0.31788736713E+03  0.38390363204E+03  0.12500000000E+03 0.  0.
</event>
<event>
 4    0  0.2244970E-002  0.2321123E+03  0.7546771E-02  0.1125162E+00
         21   -1    0    0  502  501  0.00000000000E+00  0.00000000000E+00  0.64815364697E+02  0.64815364697E+02  0.00000000000E+00 0. -1.
         21   -1    0    0  501  502 -0.00000000000E+00 -0.00000000000E+00 -0.83122477860E+03  0.83122477860E+03  0.00000000000E+00 0.  1.
         25    1    1    2    0    0  0.10681851383E+03 -0.19336874197E+01 -0.67000333188E+02  0.17756119703E+03  0.12500000000E+03 0.  0.
         25    1    1    2    0    0 -0.10681851383E+03  0.19336874197E+01 -0.69940908071E+03  0.71847894626E+03  0.12500000000E+03 0.  0.
</event>
<event>
 4    0  0.2244970E-002  0.1916915E+03  0.7546771E-02  0.1156945E+00
         21   -1    0    0  502  501  0.00000000000E+00  0.00000000000E+00  0.55808734709E+02  0.55808734709E+02  0.00000000000E+00 0.  1.
         21   -1    0    0  501  502 -0.00000000000E+00 -0.00000000000E+00 -0.65842080324E+03  0.65842080324E+03  0.00000000000E+00 0.  1.
         25    1    1    2    0    0  0.11812066329E+03  0.79927758424E+02 -0.35332564796E+03  0.40100492662E+03  0.12500000000E+03 0.  0.
         25    1    1    2    0    0 -0.11812066329E+03 -0.79927758424E+02 -0.24928642057E+03  0.31322461133E+03  0.12500000000E+03 0.  0.
</event>
<event>
 4    0  0.2244970E-002  0.2250737E+03  0.7546771E-02  0.1130156E+00
         21   -1    0    0  502  501  0.00000000000E+00  0.00000000000E+00  0.69073158609E+03  0.69073158609E+03  0.00000000000E+00 0.  1.
         21   -1    0    0  501  502 -0.00000000000E+00 -0.00000000000E+00 -0.73339859938E+02  0.73339859938E+02  0.00000000000E+00 0.  1.
         25    1    1    2    0    0  0.18083517881E+03  0.32816894137E+02  0.24856814446E+03  0.33345079528E+03  0.12500000000E+03 0.  0.
         25    1    1    2    0    0 -0.18083517881E+03 -0.32816894137E+02  0.36882358169E+03  0.43062065075E+03  0.12500000000E+03 0.  0.
</event>
<event>
 4    0  0.2244970E-002  0.4964678E+03  0.7546771E-02  0.1014705E+00
         21   -1    0    0  502  501  0.00000000000E+00  0.00000000000E+00  0.65999605341E+03  0.65999605341E+03  0.00000000000E+00 0.  1.
         21   -1    0    0  501  502 -0.00000000000E+00 -0.00000000000E+00 -0.37345723947E+03  0.37345723947E+03  0.00000000000E+00 0.  1.
         25    1    1    2    0    0  0.40757030649E+03 -0.24318769499E+03  0.22116658083E+03  0.53832468475E+03  0.12500000000E+03 0.  0.
         25    1    1    2    0    0 -0.40757030649E+03  0.24318769499E+03  0.65372233105E+02  0.49512860813E+03  0.12500000000E+03 0.  0.
</event>
<event>
 4    0  0.2244970E-002  0.2115144E+03  0.7546771E-02  0.1140372E+00
         21   -1    0    0  502  501  0.00000000000E+00  0.00000000000E+00  0.22342384014E+03  0.22342384014E+03  0.00000000000E+00 0.  1.
         21   -1    0    0  501  502 -0.00000000000E+00 -0.00000000000E+00 -0.20023977845E+03  0.20023977845E+03  0.00000000000E+00 0.  1.
         25    1    1    2    0    0  0.49579127784E+00 -0.16731611726E+03  0.45084874592E+02  0.21366463166E+03  0.12500000000E+03 0.  0.
         25    1    1    2    0    0 -0.49579127784E+00  0.16731611726E+03 -0.21900812902E+02  0.20999898693E+03  0.12500000000E+03 0.  0.
</event>
<event>
 4    0  0.2244970E-002  0.2576057E+03  0.7546771E-02  0.1108590E+00
         21   -1    0    0  502  501  0.00000000000E+00  0.00000000000E+00  0.16685199931E+03  0.16685199931E+03  0.00000000000E+00 0. -1.
         21   -1    0    0  501  502 -0.00000000000E+00 -0.00000000000E+00 -0.39772196940E+03  0.39772196940E+03  0.00000000000E+00 0. -1.
         25    1    1    2    0    0 -0.18198899821E+03 -0.15505746961E+02  0.29009607576E+02  0.22321958021E+03  0.12500000000E+03 0.  0.
         25    1    1    2    0    0  0.18198899821E+03  0.15505746961E+02 -0.25987957767E+03  0.34135438850E+03  0.12500000000E+03 0.  0.
</event>
<event>
 4    0  0.2244970E-002  0.3206163E+03  0.7546771E-02  0.1075366E+00
         21   -1    0    0  502  501  0.00000000000E+00  0.00000000000E+00  0.46783806882E+03  0.46783806882E+03  0.00000000000E+00 0. -1.
         21   -1    0    0  501  502 -0.00000000000E+00 -0.00000000000E+00 -0.21972301238E+03  0.21972301238E+03  0.00000000000E+00 0. -1.
         25    1    1    2    0    0  0.28656523000E+03  0.67676965055E+02  0.10081203693E+03  0.33539211295E+03  0.12500000000E+03 0.  0.
         25    1    1    2    0    0 -0.28656523000E+03 -0.67676965055E+02  0.14730301951E+03  0.35216896825E+03  0.12500000000E+03 0.  0.
</event>
<event>
 4    0  0.2244970E-002  0.2086974E+03  0.7546771E-02  0.1142602E+00
         21   -1    0    0  502  501  0.00000000000E+00  0.00000000000E+00  0.16143204826E+03  0.16143204826E+03  0.00000000000E+00 0.  1.
         21   -1    0    0  501  502 -0.00000000000E+00 -0.00000000000E+00 -0.26980144600E+03  0.26980144600E+03  0.00000000000E+00 0.  1.
         25    1    1    2    0    0  0.67430386741E+02 -0.84920975243E+02 -0.18556680180E+03  0.24863319775E+03  0.12500000000E+03 0.  0.
         25    1    1    2    0    0 -0.67430386741E+02  0.84920975243E+02  0.77197404061E+02  0.18260029651E+03  0.12500000000E+03 0.  0.
</event>
<event>
 4    0  0.2244970E-002  0.2613924E+03  0.7546771E-02  0.1106310E+00
         21   -1    0    0  502  501  0.00000000000E+00  0.00000000000E+00  0.57092656831E+02  0.57092656831E+02  0.00000000000E+00 0. -1.
         21   -1    0    0  501  502 -0.00000000000E+00 -0.00000000000E+00 -0.11967561038E+04  0.11967561038E+04  0.00000000000E+00 0.  1.
         25    1    1    2    0    0 -0.18193560883E+03  0.80564147242E+02 -0.29521886493E+03  0.37731992499E+03  0.12500000000E+03 0.  0.
         25    1    1    2    0    0  0.18193560883E+03 -0.80564147242E+02 -0.84444458203E+03  0.87652883563E+03  0.12500000000E+03 0.  0.
</event>
<event>
 4    0  0.2244970E-002  0.1749652E+03  0.7546771E-02  0.1172767E+00
         21   -1    0    0  502  501  0.00000000000E+00  0.00000000000E+00  0.11841017387E+03  0.11841017387E+03  0.00000000000E+00 0.  1.
         21   -1    0    0  501  502 -0.00000000000E+00 -0.00000000000E+00 -0.25853193223E+03  0.25853193223E+03  0.00000000000E+00 0.  1.
         25    1    1    2    0    0 -0.56202005872E+02 -0.74211739087E+02  0.15586123573E+02  0.15663324976E+03  0.12500000000E+03 0.  0.
         25    1    1    2    0    0  0.56202005872E+02  0.74211739087E+02 -0.15570788194E+03  0.22030885634E+03  0.12500000000E+03 0.  0.
</event>
<event>
 4    0  0.2244970E-002  0.3414295E+03  0.7546771E-02  0.1066189E+00
         21   -1    0    0  502  501  0.00000000000E+00  0.00000000000E+00  0.24756835325E+03  0.24756835325E+03  0.00000000000E+00 0. -1.
         21   -1    0    0  501  502 -0.00000000000E+00 -0.00000000000E+00 -0.47087648426E+03  0.47087648426E+03  0.00000000000E+00 0. -1.
         25    1    1    2    0    0 -0.13392381864E+03 -0.24472002933E+01 -0.41477863119E+03  0.45344006316E+03  0.12500000000E+03 0.  0.
         25    1    1    2    0    0  0.13392381864E+03  0.24472002933E+01  0.19147050018E+03  0.26500477435E+03  0.12500000000E+03 0.  0.
</event>
<event>
 4    0  0.2244970E-002  0.2731487E+03  0.7546771E-02  0.1099491E+00
         21   -1    0    0  502  501  0.00000000000E+00  0.00000000000E+00  0.52785498450E+02  0.52785498450E+02  0.00000000000E+00 0.  1.
         21   -1    0    0  501  502 -0.00000000000E+00 -0.00000000000E+00 -0.14134603303E+04  0.14134603303E+04  0.00000000000E+00 0.  1.
         25    1    1    2    0    0  0.11131441892E+01  0.24285286232E+03 -0.67351767622E+03  0.72679420196E+03  0.12500000000E+03 0.  0.
         25    1    1    2    0    0 -0.11131441892E+01 -0.24285286232E+03 -0.68715715564E+03  0.73945162680E+03  0.12500000000E+03 0.  0.
</event>
<event>
 4    0  0.2244970E-002  0.2388457E+03  0.7546771E-02  0.1120564E+00
         21   -1    0    0  502  501  0.00000000000E+00  0.00000000000E+00  0.23102357243E+03  0.23102357243E+03  0.00000000000E+00 0.  1.
         21   -1    0    0  501  502 -0.00000000000E+00 -0.00000000000E+00 -0.24693262372E+03  0.24693262372E+03  0.00000000000E+00 0.  1.
         25    1    1    2    0    0 -0.96298422590E+02  0.15744205422E+03 -0.93797607054E+02  0.24183543521E+03  0.12500000000E+03 0.  0.
         25    1    1    2    0    0  0.96298422590E+02 -0.15744205422E+03  0.77888555764E+02  0.23612076095E+03  0.12500000000E+03 0.  0.
</event>
<event>
 4    0  0.2244970E-002  0.3095215E+03  0.7546771E-02  0.1080575E+00
         21   -1    0    0  502  501  0.00000000000E+00  0.00000000000E+00  0.87376866614E+03  0.87376866614E+03  0.00000000000E+00 0. -1.
         21   -1    0    0  501  502 -0.00000000000E+00 -0.00000000000E+00 -0.10964408057E+03  0.10964408057E+03  0.00000000000E+00 0. -1.
         25    1    1    2    0    0  0.18374332790E+03 -0.95961190248E+02  0.68849528030E+03  0.72980881851E+03  0.12500000000E+03 0.  0.
         25    1    1    2    0    0 -0.18374332790E+03  0.95961190248E+02  0.75629305273E+02  0.25360392820E+03  0.12500000000E+03 0.  0.
</event>
<event>
 4    0  0.2244970E-002  0.2204095E+03  0.7546771E-02  0.1133578E+00
         21   -1    0    0  502  501  0.00000000000E+00  0.00000000000E+00  0.98020015764E+02  0.98020015764E+02  0.00000000000E+00 0.  1.
         21   -1    0    0  501  502 -0.00000000000E+00 -0.00000000000E+00 -0.49561672538E+03  0.49561672538E+03  0.00000000000E+00 0.  1.
         25    1    1    2    0    0 -0.73204649385E+02 -0.76232418566E+02 -0.39756328706E+03  0.42994403071E+03  0.12500000000E+03 0.  0.
         25    1    1    2    0    0  0.73204649385E+02  0.76232418566E+02 -0.33422563415E-01  0.16369271043E+03  0.12500000000E+03 0.  0.
</event>
<event>
 4    0  0.2244970E-002  0.2137667E+03  0.7546771E-02  0.1138617E+00
         21   -1    0    0  502  501  0.00000000000E+00  0.00000000000E+00  0.18255015727E+03  0.18255015727E+03  0.00000000000E+00 0. -1.
         21   -1    0    0  501  502 -0.00000000000E+00 -0.00000000000E+00 -0.25032135586E+03  0.25032135586E+03  0.00000000000E+00 0. -1.
         25    1    1    2    0    0  0.17214850038E+03  0.30183095231E+01 -0.54807253869E+02  0.21971129113E+03  0.12500000000E+03 0.  0.
         25    1    1    2    0    0 -0.17214850038E+03 -0.30183095231E+01 -0.12963944723E+02  0.21316022199E+03  0.12500000000E+03 0.  0.
</event>
<event>
 4    0  0.2244970E-002  0.3140529E+03  0.7546771E-02  0.1078419E+00
         21   -1    0    0  502  501  0.00000000000E+00  0.00000000000E+00  0.53710161711E+02  0.53710161711E+02  0.00000000000E+00 0. -1.
         21   -1    0    0  501  502 -0.00000000000E+00 -0.00000000000E+00 -0.18363236819E+04  0.18363236819E+04  0.00000000000E+00 0. -1.
         25    1    1    2    0    0  0.26703106319E+03 -0.13060655796E+02 -0.56822303121E+03  0.64029569937E+03  0.12500000000E+03 0.  0.
         25    1    1    2    0    0 -0.26703106319E+03  0.13060655796E+02 -0.12143904890E+04  0.12497381442E+04  0.12500000000E+03 0.  0.
</event>
<event>
 4    0  0.2244970E-002  0.2250506E+03  0.7546771E-02  0.1130173E+00
         21   -1    0    0  502  501  0.00000000000E+00  0.00000000000E+00  0.25627712594E+03  0.25627712594E+03  0.00000000000E+00 0.  1.
         21   -1    0    0  501  502 -0.00000000000E+00 -0.00000000000E+00 -0.19762884241E+03  0.19762884241E+03  0.00000000000E+00 0.  1.
         25    1    1    2    0    0  0.10545579677E+03 -0.43198046027E+02 -0.12037516322E+03  0.20761063599E+03  0.12500000000E+03 0.  0.
         25    1    1    2    0    0 -0.10545579677E+03  0.43198046027E+02  0.17902344675E+03  0.24629533236E+03  0.12500000000E+03 0.  0.
</event>
<event>
 4    0  0.2244970E-002  0.1822299E+03  0.7546771E-02  0.1165662E+00
         21   -1    0    0  502  501  0.00000000000E+00  0.00000000000E+00  0.99388688346E+02  0.99388688346E+02  0.00000000000E+00 0. -1.
         21   -1    0    0  501  502 -0.00000000000E+00 -0.00000000000E+00 -0.33411995399E+03  0.33411995399E+03  0.00000000000E+00 0. -1.
         25    1    1    2    0    0 -0.77367088765E+02 -0.10579907271E+03 -0.93468718658E+02  0.20381489538E+03  0.12500000000E+03 0.  0.
         25    1    1    2    0    0  0.77367088765E+02  0.10579907271E+03 -0.14126254698E+03  0.22969374695E+03  0.12500000000E+03 0.  0.
</event>
<event>
 4    0  0.2244970E-002  0.1951315E+03  0.7546771E-02  0.1153913E+00
         21   -1    0    0  502  501  0.00000000000E+00  0.00000000000E+00  0.72255388056E+03  0.72255388056E+03  0.00000000000E+00 0. -1.
         21   -1    0    0  501  502 -0.00000000000E+00 -0.00000000000E+00 -0.52696819595E+02  0.52696819595E+02  0.00000000000E+00 0. -1.
         25    1    1    2    0    0  0.45295835441E+02  0.71425263713E+02  0.58062692982E+03  0.59992158874E+03  0.12500000000E+03 0.  0.
         25    1    1    2    0    0 -0.45295835441E+02 -0.71425263713E+02  0.89230131144E+02  0.17532911141E+03  0.12500000000E+03 0.  0.
</event>
<event>
 4    0  0.2244970E-002  0.2145337E+03  0.7546771E-02  0.1138025E+00
         21   -1    0    0  502  501  0.00000000000E+00  0.00000000000E+00  0.76248665770E+03  0.76248665770E+03  0.00000000000E+00 0. -1.
         21   -1    0    0  501  502 -0.00000000000E+00 -0.00000000000E+00 -0.60361323503E+02  0.60361323503E+02  0.00000000000E+00 0. -1.
         25    1    1    2    0    0  0.11475887090E+03  0.61960356533E+02  0.12914037278E+03  0.22206062261E+03  0.12500000000E+03 0.  0.
         25    1    1    2    0    0 -0.11475887090E+03 -0.61960356533E+02  0.57298496142E+03  0.60078735860E+03  0.12500000000E+03 0.  0.
</event>
<event>
 4    0  0.2244970E-002  0.1743790E+03  0.7546771E-02  0.1173357E+00
         21   -1    0    0  502  501  0.00000000000E+00  0.00000000000E+00  0.10641189421E+03  0.10641189421E+03  0.00000000000E+00 0. -1.
         21   -1    0    0  501  502 -0.00000000000E+00 -0.00000000000E+00 -0.28575785526E+03  0.28575785526E+03  0.00000000000E+00 0. -1.
         25    1    1    2    0    0  0.10480385239E+03 -0.58103880343E+02 -0.66542486036E+02  0.18550690239E+03  0.12500000000E+03 0.  0.
         25    1    1    2    0    0 -0.10480385239E+03  0.58103880343E+02 -0.11280347502E+03  0.20666284708E+03  0.12500000000E+03 0.  0.
</event>
<event>
 4    0  0.2244970E-002  0.2070774E+03  0.7546771E-02  0.1143901E+00
         21   -1    0    0  502  501  0.00000000000E+00  0.00000000000E+00  0.19096022416E+03  0.19096022416E+03  0.00000000000E+00 0. -1.
         21   -1    0    0  501  502 -0.00000000000E+00 -0.00000000000E+00 -0.22455495373E+03  0.22455495373E+03  0.00000000000E+00 0. -1.
         25    1    1    2    0    0  0.14941142487E+03 -0.66310557925E+02  0.64130179921E+01  0.20588101120E+03  0.12500000000E+03 0.  0.
         25    1    1    2    0    0 -0.14941142487E+03  0.66310557925E+02 -0.40007747562E+02  0.20963416668E+03  0.12500000000E+03 0.  0.
</event>
<event>
 4    0  0.2244970E-002  0.2550356E+03  0.7546771E-02  0.1110163E+00
         21   -1    0    0  502  501  0.00000000000E+00  0.00000000000E+00  0.31793955596E+02  0.31793955596E+02  0.00000000000E+00 0.  1.
         21   -1    0    0  501  502 -0.00000000000E+00 -0.00000000000E+00 -0.20457705220E+04  0.20457705220E+04  0.00000000000E+00 0.  1.
         25    1    1    2    0    0 -0.50682904997E+02 -0.20808259711E+03 -0.76427144273E+03  0.80349422042E+03  0.12500000000E+03 0.  0.
         25    1    1    2    0    0  0.50682904997E+02  0.20808259711E+03 -0.12497051237E+04  0.12740702572E+04  0.12500000000E+03 0.  0.
</event>
<event>
 4    0  0.2244970E-002  0.2141984E+03  0.7546771E-02  0.1138284E+00
         21   -1    0    0  502  501  0.00000000000E+00  0.00000000000E+00  0.26937326077E+02  0.26937326077E+02  0.00000000000E+00 0.  1.
         21   -1    0    0  501  502 -0.00000000000E+00 -0.00000000000E+00 -0.17032488085E+04  0.17032488085E+04  0.00000000000E+00 0.  1.
         25    1    1    2    0    0 -0.96654584565E+02  0.34529444118E+02 -0.27098036694E+03  0.31557843794E+03  0.12500000000E+03 0.  0.
         25    1    1    2    0    0  0.96654584565E+02 -0.34529444118E+02 -0.14053311155E+04  0.14146076966E+04  0.12500000000E+03 0.  0.
</event>
<event>
 4    0  0.2244970E-002  0.2036355E+03  0.7546771E-02  0.1146707E+00
         21   -1    0    0  502  501  0.00000000000E+00  0.00000000000E+00  0.46809124583E+02  0.46809124583E+02  0.00000000000E+00 0.  1.
         21   -1    0    0  501  502 -0.00000000000E+00 -0.00000000000E+00 -0.88588348521E+03  0.88588348521E+03  0.00000000000E+00 0.  1.
         25    1    1    2    0    0  0.76499323922E+01 -0.16054410854E+03 -0.41247928863E+03  0.45999684326E+03  0.12500000000E+03 0.  0.
         25    1    1    2    0    0 -0.76499323922E+01  0.16054410854E+03 -0.42659507199E+03  0.47269576653E+03  0.12500000000E+03 0.  0.
</event>
<event>
 4    0  0.2244970E-002  0.2404591E+03  0.7546771E-02  0.1119487E+00
         21   -1    0    0  502  501  0.00000000000E+00  0.00000000000E+00  0.97521697700E+02  0.97521697700E+02  0.00000000000E+00 0.  1.
         21   -1    0    0  501  502 -0.00000000000E+00 -0.00000000000E+00 -0.59289977231E+03  0.59289977231E+03  0.00000000000E+00 0.  1.
         25    1    1    2    0    0 -0.11567145899E+03 -0.16322712452E+03 -0.31460567124E+03  0.39322348478E+03  0.12500000000E+03 0.  0.
         25    1    1    2    0    0  0.11567145899E+03  0.16322712452E+03 -0.18077240337E+03  0.29719798523E+03  0.12500000000E+03 0.  0.
</event>
<event>
 4    0  0.2244970E-002  0.2200514E+03  0.7546771E-02  0.1133845E+00
         21   -1    0    0  502  501  0.00000000000E+00  0.00000000000E+00  0.75106287833E+03  0.75106287833E+03  0.00000000000E+00 0. -1.
         21   -1    0    0  501  502 -0.00000000000E+00 -0.00000000000E+00 -0.64472128567E+02  0.64472128567E+02  0.00000000000E+00 0. -1.
         25    1    1    2    0    0 -0.83900247883E+01  0.17883939228E+03  0.39382986030E+03  0.45031198031E+03  0.12500000000E+03 0.  0.
         25    1    1    2    0    0  0.83900247883E+01 -0.17883939228E+03  0.29276088946E+03  0.36522302658E+03  0.12500000000E+03 0.  0.
</event>
<event>
 4    0  0.2244970E-002  0.1647606E+03  0.7546771E-02  0.1183425E+00
         21   -1    0    0  502  501  0.00000000000E+00  0.00000000000E+00  0.23981560553E+02  0.23981560553E+02  0.00000000000E+00 0. -1.
         21   -1    0    0  501  502 -0.00000000000E+00 -0.00000000000E+00 -0.11319551245E+04  0.11319551245E+04  0.00000000000E+00 0. -1.
         25    1    1    2    0    0  0.66388089358E+02 -0.49045055176E+02 -0.31328423169E+03  0.34725322989E+03  0.12500000000E+03 0.  0.
         25    1    1    2    0    0 -0.66388089358E+02  0.49045055176E+02 -0.79468933225E+03  0.80868345515E+03  0.12500000000E+03 0.  0.
</event>
<event>
 4    0  0.2244970E-002  0.2158372E+03  0.7546771E-02  0.1137025E+00
         21   -1    0    0  502  501  0.00000000000E+00  0.00000000000E+00  0.35336170248E+03  0.35336170248E+03  0.00000000000E+00 0. -1.
         21   -1    0    0  501  502 -0.00000000000E+00 -0.00000000000E+00 -0.13183572671E+03  0.13183572671E+03  0.00000000000E+00 0. -1.
         25    1    1    2    0    0  0.13927421905E+03  0.53586461250E+02  0.21555279868E+03  0.29044246580E+03  0.12500000000E+03 0.  0.
         25    1    1    2    0    0 -0.13927421905E+03 -0.53586461250E+02  0.59731770899E+01  0.19475496339E+03  0.12500000000E+03 0.  0.
</event>
<event>
 4    0  0.2244970E-002  0.3972930E+03  0.7546771E-02  0.1044721E+00
         21   -1    0    0  502  501  0.00000000000E+00  0.00000000000E+00  0.18453279254E+04  0.18453279254E+04  0.00000000000E+00 0.  1.
         21   -1    0    0  501  502 -0.00000000000E+00 -0.00000000000E+00 -0.85535868250E+02  0.85535868250E+02  0.00000000000E+00 0.  1.
         25    1    1    2    0    0  0.14890452200E+03  0.30811180076E+03  0.12649709412E+04  0.13163897297E+04  0.12500000000E+03 0.  0.
         25    1    1    2    0    0 -0.14890452200E+03 -0.30811180076E+03  0.49482111590E+03  0.61447406388E+03  0.12500000000E+03 0.  0.
</event>
<event>
 4    0  0.2244970E-002  0.2168089E+03  0.7546771E-02  0.1136285E+00
         21   -1    0    0  502  501  0.00000000000E+00  0.00000000000E+00  0.11531577526E+03  0.11531577526E+03  0.00000000000E+00 0. -1.
         21   -1    0    0  501  502 -0.00000000000E+00 -0.00000000000E+00 -0.40762942045E+03  0.40762942045E+03  0.00000000000E+00 0. -1.
         25    1    1    2    0    0 -0.25685786688E+02  0.17480376018E+02  0.64171876070E+02  0.14390397097E+03  0.12500000000E+03 0.  0.
         25    1    1    2    0    0  0.25685786688E+02 -0.17480376018E+02 -0.35648552126E+03  0.37904122474E+03  0.12500000000E+03 0.  0.
</event>
<event>
 4    0  0.2244970E-002  0.2367778E+03  0.7546771E-02  0.1121958E+00
         21   -1    0    0  502  501  0.00000000000E+00  0.00000000000E+00  0.55254439761E+03  0.55254439761E+03  0.00000000000E+00 0. -1.
         21   -1    0    0  501  502 -0.00000000000E+00 -0.00000000000E+00 -0.10146468964E+03  0.10146468964E+03  0.00000000000E+00 0. -1.
         25    1    1    2    0    0 -0.13268574614E+03 -0.14833834828E+03  0.26530320052E+03  0.35442990986E+03  0.12500000000E+03 0.  0.
         25    1    1    2    0    0  0.13268574614E+03  0.14833834828E+03  0.18577650745E+03  0.29957917738E+03  0.12500000000E+03 0.  0.
</event>
<event>
 4    0  0.2244970E-002  0.2351216E+03  0.7546771E-02  0.1123086E+00
         21   -1    0    0  502  501  0.00000000000E+00  0.00000000000E+00  0.16181505489E+03  0.16181505489E+03  0.00000000000E+00 0. -1.
         21   -1    0    0  501  502 -0.00000000000E+00 -0.00000000000E+00 -0.34163784705E+03  0.34163784705E+03  0.00000000000E+00 0. -1.
         25    1    1    2    0    0 -0.19034365614E+03 -0.54452239184E+02 -0.11290843880E+03  0.25994051115E+03  0.12500000000E+03 0.  0.
         25    1    1    2    0    0  0.19034365614E+03  0.54452239184E+02 -0.66914353358E+02  0.24351239079E+03  0.12500000000E+03 0.  0.
</event>
<event>
 4    0  0.2244970E-002  0.2719807E+03  0.7546771E-02  0.1100151E+00
         21   -1    0    0  502  501  0.00000000000E+00  0.00000000000E+00  0.10403130082E+03  0.10403130082E+03  0.00000000000E+00 0. -1.
         21   -1    0    0  501  502 -0.00000000000E+00 -0.00000000000E+00 -0.71106989160E+03  0.71106989160E+03  0.00000000000E+00 0. -1.
         25    1    1    2    0    0  0.18566347509E+03 -0.12497085636E+03 -0.43970463885E+03  0.50897329041E+03  0.12500000000E+03 0.  0.
         25    1    1    2    0    0 -0.18566347509E+03  0.12497085636E+03 -0.16733395193E+03  0.30612790201E+03  0.12500000000E+03 0.  0.
</event>
<event>
 4    0  0.2244970E-002  0.2695442E+03  0.7546771E-02  0.1101541E+00
         21   -1    0    0  502  501  0.00000000000E+00  0.00000000000E+00  0.91010704386E+03  0.91010704386E+03  0.00000000000E+00 0. -1.
         21   -1    0    0  501  502 -0.00000000000E+00 -0.00000000000E+00 -0.79830250031E+02  0.79830250031E+02  0.00000000000E+00 0. -1.
         25    1    1    2    0    0 -0.20779787760E+03 -0.88436749881E+01  0.63062929855E+03  0.67570443295E+03  0.12500000000E+03 0.  0.
         25    1    1    2    0    0  0.20779787760E+03  0.88436749881E+01  0.19964749528E+03  0.31423286094E+03  0.12500000000E+03 0.  0.
</event>
<event>
 4    0  0.2244970E-002  0.1856687E+03  0.7546771E-02  0.1162427E+00
         21   -1    0    0  502  501  0.00000000000E+00  0.00000000000E+00  0.10981928461E+03  0.10981928461E+03  0.00000000000E+00 0. -1.
         21   -1    0    0  501  502 -0.00000000000E+00 -0.00000000000E+00 -0.31390544042E+03  0.31390544042E+03  0.00000000000E+00 0. -1.
         25    1    1    2    0    0  0.26988766333E+02  0.11532192119E+03 -0.18126649214E+03  0.25002015956E+03  0.12500000000E+03 0.  0.
         25    1    1    2    0    0 -0.26988766333E+02 -0.11532192119E+03 -0.22819663667E+02  0.17370456547E+03  0.12500000000E+03 0.  0.
</event>
<event>
 4    0  0.2244970E-002  0.3382443E+03  0.7546771E-02  0.1067546E+00
         21   -1    0    0  502  501  0.00000000000E+00  0.00000000000E+00  0.29892023273E+03  0.29892023273E+03  0.00000000000E+00 0.  1.
         21   -1    0    0  501  502 -0.00000000000E+00 -0.00000000000E+00 -0.38274157929E+03  0.38274157929E+03  0.00000000000E+00 0.  1.
         25    1    1    2    0    0  0.47084429012E+02 -0.23202621178E+03  0.16638512267E+03  0.31521756844E+03  0.12500000000E+03 0.  0.
         25    1    1    2    0    0 -0.47084429012E+02  0.23202621178E+03 -0.25020646923E+03  0.36644424358E+03  0.12500000000E+03 0.  0.
</event>
<event>
 4    0  0.2244970E-002  0.2164502E+03  0.7546771E-02  0.1136558E+00
         21   -1    0    0  502  501  0.00000000000E+00  0.00000000000E+00  0.32504219947E+03  0.32504219947E+03  0.00000000000E+00 0. -1.
         21   -1    0    0  501  502 -0.00000000000E+00 -0.00000000000E+00 -0.14413727468E+03  0.14413727468E+03  0.00000000000E+00 0. -1.
         25    1    1    2    0    0 -0.46741780565E+02 -0.52727632457E+02  0.26608465636E+03  0.30230951296E+03  0.12500000000E+03 0.  0.
         25    1    1    2    0    0  0.46741780565E+02  0.52727632457E+02 -0.85179731578E+02  0.16686996119E+03  0.12500000000E+03 0.  0.
</event>
<event>
 4    0  0.2244970E-002  0.3154644E+03  0.7546771E-02  0.1077756E+00
         21   -1    0    0  502  501  0.00000000000E+00  0.00000000000E+00  0.10932251159E+03  0.10932251159E+03  0.00000000000E+00 0.  1.
         21   -1    0    0  501  502 -0.00000000000E+00 -0.00000000000E+00 -0.91031387751E+03  0.91031387751E+03  0.00000000000E+00 0.  1.
         25    1    1    2    0    0 -0.16210644752E+00  0.20377442558E+03 -0.67845468232E+02  0.24849959831E+03  0.12500000000E+03 0.  0.
         25    1    1    2    0    0  0.16210644752E+00 -0.20377442558E+03 -0.73314589769E+03  0.77113679078E+03  0.12500000000E+03 0.  0.
</event>
<event>
 4    0  0.2244970E-002  0.2153056E+03  0.7546771E-02  0.1137432E+00
         21   -1    0    0  502  501  0.00000000000E+00  0.00000000000E+00  0.47639372005E+03  0.47639372005E+03  0.00000000000E+00 0. -1.
         21   -1    0    0  501  502 -0.00000000000E+00 -0.00000000000E+00 -0.97307159381E+02  0.97307159381E+02  0.00000000000E+00 0. -1.
         25    1    1    2    0    0  0.47966691432E+02 -0.16861196286E+03  0.18841111324E+03  0.28610233326E+03  0.12500000000E+03 0.  0.
         25    1    1    2    0    0 -0.47966691432E+02  0.16861196286E+03  0.19067544743E+03  0.28759854617E+03  0.12500000000E+03 0.  0.
</event>
<event>
 4    0  0.2244970E-002  0.3142864E+03  0.7546771E-02  0.1078309E+00
         21   -1    0    0  502  501  0.00000000000E+00  0.00000000000E+00  0.26020672916E+03  0.26020672916E+03  0.00000000000E+00 0.  1.
         21   -1    0    0  501  502 -0.00000000000E+00 -0.00000000000E+00 -0.37960566341E+03  0.37960566341E+03  0.00000000000E+00 0.  1.
         25    1    1    2    0    0 -0.56857919249E+01  0.28391973331E+03 -0.11067696915E+03  0.32941939028E+03  0.12500000000E+03 0.  0.
         25    1    1    2    0    0  0.56857919249E+01 -0.28391973331E+03 -0.87219651062E+01  0.31039300229E+03  0.12500000000E+03 0.  0.
</event>
<event>
 4    0  0.2244970E-002  0.2105243E+03  0.7546771E-02  0.1141151E+00
         21   -1    0    0  502  501  0.00000000000E+00  0.00000000000E+00  0.11850335875E+03  0.11850335875E+03  0.00000000000E+00 0. -1.
         21   -1    0    0  501  502 -0.00000000000E+00 -0.00000000000E+00 -0.37400196238E+03  0.37400196238E+03  0.00000000000E+00 0. -1.
         25    1    1    2    0    0 -0.50191576780E+02  0.49018418092E+02  0.52604425878E+02  0.15268996468E+03  0.12500000000E+03 0.  0.
         25    1    1    2    0    0  0.50191576780E+02 -0.49018418092E+02 -0.30810302950E+03  0.33981535645E+03  0.12500000000E+03 0.  0.
</event>
<event>
 4    0  0.2244970E-002  0.2269448E+03  0.7546771E-02  0.1128809E+00
         21   -1    0    0  502  501  0.00000000000E+00  0.00000000000E+00  0.73983922450E+03  0.73983922450E+03  0.00000000000E+00 0. -1.
         21   -1    0    0  501  502 -0.00000000000E+00 -0.00000000000E+00 -0.69615074276E+02  0.69615074276E+02  0.00000000000E+00 0. -1.
         25    1    1    2    0    0  0.10713348933E+03  0.11897942619E+03  0.15460101830E+03  0.25526488841E+03  0.12500000000E+03 0.  0.
         25    1    1    2    0    0 -0.10713348933E+03 -0.11897942619E+03  0.51562313192E+03  0.55418941037E+03  0.12500000000E+03 0.  0.
</event>
<event>
 4    0  0.2244970E-002  0.1577052E+03  0.7546771E-02  0.1191312E+00
         21   -1    0    0  502  501  0.00000000000E+00  0.00000000000E+00  0.67426656552E+02  0.67426656552E+02  0.00000000000E+00 0. -1.
         21   -1    0    0  501  502 -0.00000000000E+00 -0.00000000000E+00 -0.36885884271E+03  0.36885884271E+03  0.00000000000E+00 0. -1.
         25    1    1    2    0    0  0.57000155178E+02 -0.76935325008E+02 -0.16292122645E+03  0.22657534719E+03  0.12500000000E+03 0.  0.
         25    1    1    2    0    0 -0.57000155178E+02  0.76935325008E+02 -0.13851095971E+03  0.20971015208E+03  0.12500000000E+03 0.  0.
</event>
<event>
 4    0  0.2244970E-002  0.2173430E+03  0.7546771E-02  0.1135880E+00
         21   -1    0    0  502  501  0.00000000000E+00  0.00000000000E+00  0.31927337362E+03  0.31927337362E+03  0.00000000000E+00 0.  1.
         21   -1    0    0  501  502 -0.00000000000E+00 -0.00000000000E+00 -0.14795467813E+03  0.14795467813E+03  0.00000000000E+00 0.  1.
         25    1    1    2    0    0 -0.90276696176E+02  0.13341751396E+03  0.16654503394E+03  0.26327241259E+03  0.12500000000E+03 0.  0.
         25    1    1    2    0    0  0.90276696176E+02 -0.13341751396E+03  0.47736615509E+01  0.20395563917E+03  0.12500000000E+03 0.  0.
</event>
<event>
 4    0  0.2244970E-002  0.2231690E+03  0.7546771E-02  0.1131542E+00
         21   -1    0    0  502  501  0.00000000000E+00  0.00000000000E+00  0.51478244130E+03  0.51478244130E+03  0.00000000000E+00 0. -1.
         21   -1    0    0  501  502 -0.00000000000E+00 -0.00000000000E+00 -0.96748441380E+02  0.96748441380E+02  0.00000000000E+00 0. -1.
         25    1    1    2    0    0  0.14631038041E+03  0.10107883208E+03  0.13975213707E+03  0.25841694512E+03  0.12500000000E+03 0.  0.
         25    1    1    2    0    0 -0.14631038041E+03 -0.10107883208E+03  0.27828186285E+03  0.35311393756E+03  0.12500000000E+03 0.  0.
</event>
<event>
 4    0  0.2244970E-002  0.2471306E+03  0.7546771E-02  0.1115132E+00
         21   -1    0    0  502  501  0.00000000000E+00  0.00000000000E+00  0.15957888961E+03  0.15957888961E+03  0.00000000000E+00 0. -1.
         21   -1    0    0  501  502 -0.00000000000E+00 -0.00000000000E+00 -0.38271699523E+03  0.38271699523E+03  0.00000000000E+00 0. -1.
         25    1    1    2    0    0  0.18185394844E+03  0.94573993745E+02 -0.17585933823E+03  0.29760142086E+03  0.12500000000E+03 0.  0.
         25    1    1    2    0    0 -0.18185394844E+03 -0.94573993745E+02 -0.47278767393E+02  0.24469446398E+03  0.12500000000E+03 0.  0.
</event>
<event>
 4    0  0.2244970E-002  0.2941548E+03  0.7546771E-02  0.1088200E+00
         21   -1    0    0  502  501  0.00000000000E+00  0.00000000000E+00  0.80552932681E+02  0.80552932681E+02  0.00000000000E+00 0.  1.
         21   -1    0    0  501  502 -0.00000000000E+00 -0.00000000000E+00 -0.10741635290E+04  0.10741635290E+04  0.00000000000E+00 0.  1.
         25    1    1    2    0    0 -0.26352554259E+03  0.33860979828E+02 -0.53134921303E+03  0.60708258396E+03  0.12500000000E+03 0.  0.
         25    1    1    2    0    0  0.26352554259E+03 -0.33860979828E+02 -0.46226138330E+03  0.54763387774E+03  0.12500000000E+03 0.  0.
</event>
<event>
 4    0  0.2244970E-002  0.1938393E+03  0.7546771E-02  0.1155043E+00
         21   -1    0    0  502  501  0.00000000000E+00  0.00000000000E+00  0.92007301581E+02  0.92007301581E+02  0.00000000000E+00 0.  1.
         21   -1    0    0  501  502 -0.00000000000E+00 -0.00000000000E+00 -0.40837715687E+03  0.40837715687E+03  0.00000000000E+00 0.  1.
         25    1    1    2    0    0  0.79606090234E+02  0.57163715865E+02 -0.14782188545E+02  0.15952533690E+03  0.12500000000E+03 0.  0.
         25    1    1    2    0    0 -0.79606090234E+02 -0.57163715865E+02 -0.30158766674E+03  0.34085912155E+03  0.12500000000E+03 0.  0.
</event>
<event>
 4    0  0.2244970E-002  0.2611897E+03  0.7546771E-02  0.1106431E+00
         21   -1    0    0  502  501  0.00000000000E+00  0.00000000000E+00  0.91332149961E+02  0.91332149961E+02  0.00000000000E+00 0.  1.
         21   -1    0    0  501  502 -0.00000000000E+00 -0.00000000000E+00 -0.74694438024E+03  0.74694438024E+03  0.00000000000E+00 0.  1.
         25    1    1    2    0    0  0.61665044337E+02 -0.15041318399E+03 -0.68215275096E+02  0.21611345948E+03  0.12500000000E+03 0.  0.
         25    1    1    2    0    0 -0.61665044337E+02  0.15041318399E+03 -0.58739695518E+03  0.62216307072E+03  0.12500000000E+03 0.  0.
</event>
<event>
 4    0  0.2244970E-002  0.2342404E+03  0.7546771E-02  0.1123690E+00
         21   -1    0    0  502  501  0.00000000000E+00  0.00000000000E+00  0.15779628903E+04  0.15779628903E+04  0.00000000000E+00 0.  1.
         21   -1    0    0  501  502 -0.00000000000E+00 -0.00000000000E+00 -0.34771777565E+02  0.34771777565E+02  0.00000000000E+00 0.  1.
         25    1    1    2    0    0 -0.95673742398E+02  0.13709837179E+03  0.40574999727E+03  0.45629758801E+03  0.12500000000E+03 0.  0.
         25    1    1    2    0    0  0.95673742398E+02 -0.13709837179E+03  0.11374411155E+04  0.11564370799E+04  0.12500000000E+03 0.  0.
</event>
<event>
 4    0  0.2244970E-002  0.1318275E+03  0.7546771E-02  0.1224769E+00
         21   -1    0    0  502  501  0.00000000000E+00  0.00000000000E+00  0.15320988271E+03  0.15320988271E+03  0.00000000000E+00 0. -1.
         21   -1    0    0  501  502 -0.00000000000E+00 -0.00000000000E+00 -0.11342921420E+03  0.11342921420E+03  0.00000000000E+00 0. -1.
         25    1    1    2    0    0  0.38769959647E+02 -0.15608842131E+02  0.22514093086E+02  0.13371099473E+03  0.12500000000E+03 0.  0.
         25    1    1    2    0    0 -0.38769959647E+02  0.15608842131E+02  0.17266575426E+02  0.13292810219E+03  0.12500000000E+03 0.  0.
</event>
<event>
 4    0  0.2244970E-002  0.1541011E+03  0.7546771E-02  0.1195522E+00
         21   -1    0    0  502  501  0.00000000000E+00  0.00000000000E+00  0.11367589646E+03  0.11367589646E+03  0.00000000000E+00 0.  1.
         21   -1    0    0  501  502 -0.00000000000E+00 -0.00000000000E+00 -0.20890234261E+03  0.20890234261E+03  0.00000000000E+00 0.  1.
         25    1    1    2    0    0 -0.50807053082E+02 -0.29637020921E+02 -0.11908035966E+03  0.18238651734E+03  0.12500000000E+03 0.  0.
         25    1    1    2    0    0  0.50807053082E+02  0.29637020921E+02  0.23853913509E+02  0.14019172173E+03  0.12500000000E+03 0.  0.
</event>
<event>
 4    0  0.2244970E-002  0.1995132E+03  0.7546771E-02  0.1150150E+00
         21   -1    0    0  502  501  0.00000000000E+00  0.00000000000E+00  0.10148517620E+03  0.10148517620E+03  0.00000000000E+00 0.  1.
         21   -1    0    0  501  502 -0.00000000000E+00 -0.00000000000E+00 -0.39222995098E+03  0.39222995098E+03  0.00000000000E+00 0.  1.
         25    1    1    2    0    0 -0.14345861757E+03  0.28664098712E+02 -0.80152276321E+02  0.20844997699E+03  0.12500000000E+03 0.  0.
         25    1    1    2    0    0  0.14345861757E+03 -0.28664098712E+02 -0.21059249846E+03  0.28526515020E+03  0.12500000000E+03 0.  0.
</event>
<event>
 4    0  0.2244970E-002  0.2222535E+03  0.7546771E-02  0.1132214E+00
         21   -1    0    0  502  501  0.00000000000E+00  0.00000000000E+00  0.26995942829E+03  0.26995942829E+03  0.00000000000E+00 0. -1.
         21   -1    0    0  501  502 -0.00000000000E+00 -0.00000000000E+00 -0.18297799046E+03  0.18297799046E+03  0.00000000000E+00 0. -1.
         25    1    1    2    0    0 -0.39610262614E+02 -0.13546714804E+03  0.16341441181E+03  0.24949867953E+03  0.12500000000E+03 0.  0.
         25    1    1    2    0    0  0.39610262614E+02  0.13546714804E+03 -0.76432973982E+02  0.20343873922E+03  0.12500000000E+03 0.  0.
</event>
<event>
 4    0  0.2244970E-002  0.2433225E+03  0.7546771E-02  0.1117599E+00
         21   -1    0    0  502  501  0.00000000000E+00  0.00000000000E+00  0.50599601242E+03  0.50599601242E+03  0.00000000000E+00 0. -1.
         21   -1    0    0  501  502 -0.00000000000E+00 -0.00000000000E+00 -0.11700855688E+03  0.11700855688E+03  0.00000000000E+00 0. -1.
         25    1    1    2    0    0  0.18792948869E+03 -0.40473637127E+02  0.90290737292E+02  0.24644071348E+03  0.12500000000E+03 0.  0.
         25    1    1    2    0    0 -0.18792948869E+03  0.40473637127E+02  0.29869671824E+03  0.37656385582E+03  0.12500000000E+03 0.  0.
</event>
<event>
 4    0  0.2244970E-002  0.2296503E+03  0.7546771E-02  0.1126886E+00
         21   -1    0    0  502  501  0.00000000000E+00  0.00000000000E+00  0.20936553030E+03  0.20936553030E+03  0.00000000000E+00 0. -1.
         21   -1    0    0  501  502 -0.00000000000E+00 -0.00000000000E+00 -0.25190042733E+03  0.25190042733E+03  0.00000000000E+00 0. -1.
         25    1    1    2    0    0  0.70005750985E+02 -0.16284645647E+03 -0.97052211549E+02  0.23762134862E+03  0.12500000000E+03 0.  0.
         25    1    1    2    0    0 -0.70005750985E+02  0.16284645647E+03  0.54517314517E+02  0.22364460900E+03  0.12500000000E+03 0.  0.
</event>
<event>
 4    0  0.2244970E-002  0.2568976E+03  0.7546771E-02  0.1109022E+00
         21   -1    0    0  502  501  0.00000000000E+00  0.00000000000E+00  0.32539377427E+03  0.32539377427E+03  0.00000000000E+00 0.  1.
         21   -1    0    0  501  502 -0.00000000000E+00 -0.00000000000E+00 -0.20282003224E+03  0.20282003224E+03  0.00000000000E+00 0.  1.
         25    1    1    2    0    0 -0.18977767535E+03 -0.10258095354E+03  0.12493515847E+03  0.27887669661E+03  0.12500000000E+03 0.  0.
         25    1    1    2    0    0  0.18977767535E+03  0.10258095354E+03 -0.23614164409E+01  0.24933710991E+03  0.12500000000E+03 0.  0.
</event>
<event>
 4    0  0.2244970E-002  0.2262504E+03  0.7546771E-02  0.1129307E+00
         21   -1    0    0  502  501  0.00000000000E+00  0.00000000000E+00  0.50823959952E+03  0.50823959952E+03  0.00000000000E+00 0. -1.
         21   -1    0    0  501  502 -0.00000000000E+00 -0.00000000000E+00 -0.10071875983E+03  0.10071875983E+03  0.00000000000E+00 0. -1.
         25    1    1    2    0    0 -0.20861661869E+02 -0.15793996951E+03  0.33956917609E+03  0.39536371642E+03  0.12500000000E+03 0.  0.
         25    1    1    2    0    0  0.20861661869E+02  0.15793996951E+03  0.67951663596E+02  0.21359464293E+03  0.12500000000E+03 0.  0.
</event>
<event>
 4    0  0.2244970E-002  0.2260972E+03  0.7546771E-02  0.1129417E+00
         21   -1    0    0  502  501  0.00000000000E+00  0.00000000000E+00  0.59750525524E+03  0.59750525524E+03  0.00000000000E+00 0. -1.
         21   -1    0    0  501  502 -0.00000000000E+00 -0.00000000000E+00 -0.85555674456E+02  0.85555674456E+02  0.00000000000E+00 0. -1.
         25    1    1    2    0    0 -0.63338628706E+02  0.31662348037E+02 -0.77472900110E+01  0.14387253620E+03  0.12500000000E+03 0.  0.
         25    1    1    2    0    0  0.63338628706E+02 -0.31662348037E+02  0.51969687080E+03  0.53918839350E+03  0.12500000000E+03 0.  0.
</event>
<event>
 4    0  0.2244970E-002  0.1482400E+03  0.7546771E-02  0.1202652E+00
         21   -1    0    0  502  501  0.00000000000E+00  0.00000000000E+00  0.10177171382E+04  0.10177171382E+04  0.00000000000E+00 0. -1.
         21   -1    0    0  501  502 -0.00000000000E+00 -0.00000000000E+00 -0.21592546222E+02  0.21592546222E+02  0.00000000000E+00 0. -1.
         25    1    1    2    0    0 -0.21980086153E+02  0.71044561306E+02  0.59842303523E+03  0.61584542133E+03  0.12500000000E+03 0.  0.
         25    1    1    2    0    0  0.21980086153E+02 -0.71044561306E+02  0.39770155679E+03  0.42346426314E+03  0.12500000000E+03 0.  0.
</event>
<event>
 4    0  0.2244970E-002  0.1688289E+03  0.7546771E-02  0.1179075E+00
         21   -1    0    0  502  501  0.00000000000E+00  0.00000000000E+00  0.12799171891E+03  0.12799171891E+03  0.00000000000E+00 0.  1.
         21   -1    0    0  501  502 -0.00000000000E+00 -0.00000000000E+00 -0.22269570181E+03  0.22269570181E+03  0.00000000000E+00 0.  1.
         25    1    1    2    0    0 -0.10093572124E+03  0.40197571849E+02 -0.13310041652E+02  0.16615059980E+03  0.12500000000E+03 0.  0.
         25    1    1    2    0    0  0.10093572124E+03 -0.40197571849E+02 -0.81393941247E+02  0.18453682092E+03  0.12500000000E+03 0.  0.
</event>
<event>
 4    0  0.2244970E-002  0.1929355E+03  0.7546771E-02  0.1155840E+00
         21   -1    0    0  502  501  0.00000000000E+00  0.00000000000E+00  0.25979542983E+03  0.25979542983E+03  0.00000000000E+00 0. -1.
         21   -1    0    0  501  502 -0.00000000000E+00 -0.00000000000E+00 -0.14328242514E+03  0.14328242514E+03  0.00000000000E+00 0. -1.
         25    1    1    2    0    0  0.12799935730E+03  0.72202786653E+02  0.59748974404E+02  0.20197033894E+03  0.12500000000E+03 0.  0.
         25    1    1    2    0    0 -0.12799935730E+03 -0.72202786653E+02  0.56764030291E+02  0.20110751603E+03  0.12500000000E+03 0.  0.
</event>
<event>
 4    0  0.2244970E-002  0.3633265E+03  0.7546771E-02  0.1057274E+00
         21   -1    0    0  502  501  0.00000000000E+00  0.00000000000E+00  0.10451426196E+04  0.10451426196E+04  0.00000000000E+00 0. -1.
         21   -1    0    0  501  502 -0.00000000000E+00 -0.00000000000E+00 -0.12630442707E+03  0.12630442707E+03  0.00000000000E+00 0. -1.
         25    1    1    2    0    0  0.10793582889E+03  0.27531285486E+03  0.18519945872E+03  0.37063614330E+03  0.12500000000E+03 0.  0.
         25    1    1    2    0    0 -0.10793582889E+03 -0.27531285486E+03  0.73363873385E+03  0.80081090341E+03  0.12500000000E+03 0.  0.
</event>
<event>
 4    0  0.2244970E-002  0.2069451E+03  0.7546771E-02  0.1144008E+00
         21   -1    0    0  502  501  0.00000000000E+00  0.00000000000E+00  0.14331771668E+03  0.14331771668E+03  0.00000000000E+00 0.  1.
         21   -1    0    0  501  502 -0.00000000000E+00 -0.00000000000E+00 -0.29882061857E+03  0.29882061857E+03  0.00000000000E+00 0.  1.
         25    1    1    2    0    0  0.37127360478E+02 -0.89181266916E+02 -0.22055196057E+03  0.27129302715E+03  0.12500000000E+03 0.  0.
         25    1    1    2    0    0 -0.37127360478E+02  0.89181266916E+02  0.65049058688E+02  0.17084530810E+03  0.12500000000E+03 0.  0.
</event>
<event>
 4    0  0.2244970E-002  0.1717172E+03  0.7546771E-02  0.1176069E+00
         21   -1    0    0  502  501  0.00000000000E+00  0.00000000000E+00  0.47149500270E+03  0.47149500270E+03  0.00000000000E+00 0. -1.
         21   -1    0    0  501  502 -0.00000000000E+00 -0.00000000000E+00 -0.62538969765E+02  0.62538969765E+02  0.00000000000E+00 0. -1.
         25    1    1    2    0    0  0.10282819844E+03 -0.38665307677E+02  0.27032492463E+03  0.31744166281E+03  0.12500000000E+03 0.  0.
         25    1    1    2    0    0 -0.10282819844E+03  0.38665307677E+02  0.13863110831E+03  0.21659230966E+03  0.12500000000E+03 0.  0.
</event>
<event>
 4    0  0.2244970E-002  0.1883904E+03  0.7546771E-02  0.1159921E+00
         21   -1    0    0  502  501  0.00000000000E+00  0.00000000000E+00  0.23692523959E+04  0.23692523959E+04  0.00000000000E+00 0.  1.
         21   -1    0    0  501  502 -0.00000000000E+00 -0.00000000000E+00 -0.14979806669E+02  0.14979806669E+02  0.00000000000E+00 0.  1.
         25    1    1    2    0    0  0.36175211904E+02  0.13124445638E+03  0.14080994996E+04  0.14201770855E+04  0.12500000000E+03 0.  0.
         25    1    1    2    0    0 -0.36175211904E+02 -0.13124445638E+03  0.94617308961E+03  0.96405511710E+03  0.12500000000E+03 0.  0.
</event>
<event>
 4    0  0.2244970E-002  0.1962683E+03  0.7546771E-02  0.1152926E+00
         21   -1    0    0  502  501  0.00000000000E+00  0.00000000000E+00  0.12779371841E+03  0.12779371841E+03  0.00000000000E+00 0.  1.
         21   -1    0    0  501  502 -0.00000000000E+00 -0.00000000000E+00 -0.30143315566E+03  0.30143315566E+03  0.00000000000E+00 0.  1.
         25    1    1    2    0    0  0.11612397539E+03 -0.79063009534E+02 -0.14829299725E+03  0.23948183683E+03  0.12500000000E+03 0.  0.
         25    1    1    2    0    0 -0.11612397539E+03  0.79063009534E+02 -0.25346440002E+02  0.18974503724E+03  0.12500000000E+03 0.  0.
</event>
<event>
 4    0  0.2244970E-002  0.2283304E+03  0.7546771E-02  0.1127820E+00
         21   -1    0    0  502  501  0.00000000000E+00  0.00000000000E+00  0.11377030620E+04  0.11377030620E+04  0.00000000000E+00 0.  1.
         21   -1    0    0  501  502 -0.00000000000E+00 -0.00000000000E+00 -0.45824590598E+02  0.45824590598E+02  0.00000000000E+00 0.  1.
         25    1    1    2    0    0 -0.17026053833E+03  0.37042418216E+02  0.34270990650E+03  0.40427202683E+03  0.12500000000E+03 0.  0.
         25    1    1    2    0    0  0.17026053833E+03 -0.37042418216E+02  0.74916856488E+03  0.77925562575E+03  0.12500000000E+03 0.  0.
</event>
<event>
 4    0  0.2244970E-002  0.2075823E+03  0.7546771E-02  0.1143495E+00
         21   -1    0    0  502  501  0.00000000000E+00  0.00000000000E+00  0.44998420557E+03  0.44998420557E+03  0.00000000000E+00 0. -1.
         21   -1    0    0  501  502 -0.00000000000E+00 -0.00000000000E+00 -0.95759843286E+02  0.95759843286E+02  0.00000000000E+00 0. -1.
         25    1    1    2    0    0  0.14574294739E+03 -0.65018939299E+02  0.11836973550E+03  0.23474425118E+03  0.12500000000E+03 0.  0.
         25    1    1    2    0    0 -0.14574294739E+03  0.65018939299E+02  0.23585462678E+03  0.31099979768E+03  0.12500000000E+03 0.  0.
</event>
<event>
 4    0  0.2244970E-002  0.2483551E+03  0.7546771E-02  0.1114349E+00
         21   -1    0    0  502  501  0.00000000000E+00  0.00000000000E+00  0.22585539265E+03  0.22585539265E+03  0.00000000000E+00 0. -1.
         21   -1    0    0  501  502 -0.00000000000E+00 -0.00000000000E+00 -0.27309611962E+03  0.27309611962E+03  0.00000000000E+00 0. -1.
         25    1    1    2    0    0 -0.56673671082E+02 -0.17468337488E+03  0.87916921123E+02  0.23891540652E+03  0.12500000000E+03 0.  0.
         25    1    1    2    0    0  0.56673671082E+02  0.17468337488E+03 -0.13515764810E+03  0.26003610575E+03  0.12500000000E+03 0.  0.
</event>
<event>
 4    0  0.2244970E-002  0.1877455E+03  0.7546771E-02  0.1160511E+00
         21   -1    0    0  502  501  0.00000000000E+00  0.00000000000E+00  0.44966899649E+02  0.44966899649E+02  0.00000000000E+00 0. -1.
         21   -1    0    0  501  502 -0.00000000000E+00 -0.00000000000E+00 -0.78387345285E+03  0.78387345285E+03  0.00000000000E+00 0. -1.
         25    1    1    2    0    0 -0.35314120674E+02 -0.13485828309E+03 -0.39984067554E+03  0.44151037298E+03  0.12500000000E+03 0.  0.
         25    1    1    2    0    0  0.35314120674E+02  0.13485828309E+03 -0.33906587766E+03  0.38732997951E+03  0.12500000000E+03 0.  0.
</event>
<event>
 4    0  0.2244970E-002  0.2781654E+03  0.7546771E-02  0.1096695E+00
         21   -1    0    0  502  501  0.00000000000E+00  0.00000000000E+00  0.24656502754E+03  0.24656502754E+03  0.00000000000E+00 0.  1.
         21   -1    0    0  501  502 -0.00000000000E+00 -0.00000000000E+00 -0.31381565383E+03  0.31381565383E+03  0.00000000000E+00 0.  1.
         25    1    1    2    0    0  0.20787997897E+02 -0.23011475250E+03  0.58506517835E+02  0.26913370804E+03  0.12500000000E+03 0.  0.
         25    1    1    2    0    0 -0.20787997897E+02  0.23011475250E+03 -0.12575714413E+03  0.29124697333E+03  0.12500000000E+03 0.  0.
</event>
<event>
 4    0  0.2244970E-002  0.2143117E+03  0.7546771E-02  0.1138196E+00
         21   -1    0    0  502  501  0.00000000000E+00  0.00000000000E+00  0.12654877597E+03  0.12654877597E+03  0.00000000000E+00 0. -1.
         21   -1    0    0  501  502 -0.00000000000E+00 -0.00000000000E+00 -0.36293913949E+03  0.36293913949E+03  0.00000000000E+00 0. -1.
         25    1    1    2    0    0 -0.64324779042E+02  0.15520681647E+03 -0.17024922483E+03  0.26988262566E+03  0.12500000000E+03 0.  0.
         25    1    1    2    0    0  0.64324779042E+02 -0.15520681647E+03 -0.66141138695E+02  0.21960528980E+03  0.12500000000E+03 0.  0.
</event>
<event>
 4    0  0.2244970E-002  0.2411007E+03  0.7546771E-02  0.1119062E+00
         21   -1    0    0  502  501  0.00000000000E+00  0.00000000000E+00  0.40987011420E+03  0.40987011420E+03  0.00000000000E+00 0.  1.
         21   -1    0    0  501  502 -0.00000000000E+00 -0.00000000000E+00 -0.14182425836E+03  0.14182425836E+03  0.00000000000E+00 0.  1.
         25    1    1    2    0    0  0.62126270892E+02  0.16616860242E+03  0.25419788323E+03  0.33423530904E+03  0.12500000000E+03 0.  0.
         25    1    1    2    0    0 -0.62126270892E+02 -0.16616860242E+03  0.13847972606E+02  0.21745906353E+03  0.12500000000E+03 0.  0.
</event>
<event>
 4    0  0.2244970E-002  0.1745579E+03  0.7546771E-02  0.1173176E+00
         21   -1    0    0  502  501  0.00000000000E+00  0.00000000000E+00  0.67822796723E+02  0.67822796723E+02  0.00000000000E+00 0.  1.
         21   -1    0    0  501  502 -0.00000000000E+00 -0.00000000000E+00 -0.44926568280E+03  0.44926568280E+03  0.00000000000E+00 0.  1.
         25    1    1    2    0    0  0.23255604428E+02  0.85827492591E+02 -0.31409472060E+03  0.34955353685E+03  0.12500000000E+03 0.  0.
         25    1    1    2    0    0 -0.23255604428E+02 -0.85827492591E+02 -0.67348165484E+02  0.16753494267E+03  0.12500000000E+03 0.  0.
</event>
<event>
 4    0  0.2244970E-002  0.1911139E+03  0.7546771E-02  0.1157460E+00
         21   -1    0    0  502  501  0.00000000000E+00  0.00000000000E+00  0.20623692608E+03  0.20623692608E+03  0.00000000000E+00 0. -1.
         21   -1    0    0  501  502 -0.00000000000E+00 -0.00000000000E+00 -0.17709982736E+03  0.17709982736E+03  0.00000000000E+00 0. -1.
         25    1    1    2    0    0 -0.11782586283E+02  0.14254305175E+03 -0.65203698414E+01  0.19006542601E+03  0.12500000000E+03 0.  0.
         25    1    1    2    0    0  0.11782586283E+02 -0.14254305175E+03  0.35657468561E+02  0.19327132743E+03  0.12500000000E+03 0.  0.
</event>
<event>
 4    0  0.2244970E-002  0.1744802E+03  0.7546771E-02  0.1173255E+00
         21   -1    0    0  502  501  0.00000000000E+00  0.00000000000E+00  0.17314427220E+02  0.17314427220E+02  0.00000000000E+00 0.  1.
         21   -1    0    0  501  502 -0.00000000000E+00 -0.00000000000E+00 -0.17582638009E+04  0.17582638009E+04  0.00000000000E+00 0.  1.
         25    1    1    2    0    0  0.52532103424E+02  0.10581102614E+03 -0.10199269724E+04  0.10343266525E+04  0.12500000000E+03 0.  0.
         25    1    1    2    0    0 -0.52532103424E+02 -0.10581102614E+03 -0.72102240132E+03  0.74125157562E+03  0.12500000000E+03 0.  0.
</event>
<event>
 4    0  0.2244970E-002  0.1759229E+03  0.7546771E-02  0.1171808E+00
         21   -1    0    0  502  501  0.00000000000E+00  0.00000000000E+00  0.26662560193E+03  0.26662560193E+03  0.00000000000E+00 0.  1.
         21   -1    0    0  501  502 -0.00000000000E+00 -0.00000000000E+00 -0.11607617320E+03  0.11607617320E+03  0.00000000000E+00 0.  1.
         25    1    1    2    0    0  0.11182511299E+03 -0.38591104569E+02  0.35611029013E+02  0.17574775855E+03  0.12500000000E+03 0.  0.
         25    1    1    2    0    0 -0.11182511299E+03  0.38591104569E+02  0.11493839972E+03  0.20695401658E+03  0.12500000000E+03 0.  0.
</event>
<event>
 4    0  0.2244970E-002  0.1773409E+03  0.7546771E-02  0.1170402E+00
         21   -1    0    0  502  501  0.00000000000E+00  0.00000000000E+00  0.28678025170E+02  0.28678025170E+02  0.00000000000E+00 0.  1.
         21   -1    0    0  501  502 -0.00000000000E+00 -0.00000000000E+00 -0.10966512415E+04  0.10966512415E+04  0.00000000000E+00 0.  1.
         25    1    1    2    0    0 -0.34457562146E+02 -0.11828741925E+03 -0.45337320131E+03  0.48615994982E+03  0.12500000000E+03 0.  0.
         25    1    1    2    0    0  0.34457562146E+02  0.11828741925E+03 -0.61460001501E+03  0.63916931685E+03  0.12500000000E+03 0.  0.
</event>
<event>
 4    0  0.2244970E-002  0.1633103E+03  0.7546771E-02  0.1185009E+00
         21   -1    0    0  502  501  0.00000000000E+00  0.00000000000E+00  0.14407544329E+03  0.14407544329E+03  0.00000000000E+00 0.  1.
         21   -1    0    0  501  502 -0.00000000000E+00 -0.00000000000E+00 -0.18511320200E+03  0.18511320200E+03  0.00000000000E+00 0.  1.
         25    1    1    2    0    0 -0.31337349344E+02  0.46748244128E+02  0.68936140888E+02  0.15344256031E+03  0.12500000000E+03 0.  0.
         25    1    1    2    0    0  0.31337349344E+02 -0.46748244128E+02 -0.10997389960E+03  0.17574608498E+03  0.12500000000E+03 0.  0.
</event>
<event>
 4    0  0.2244970E-002  0.2717391E+03  0.7546771E-02  0.1100288E+00
         21   -1    0    0  502  501  0.00000000000E+00  0.00000000000E+00  0.20816370486E+03  0.20816370486E+03  0.00000000000E+00 0. -1.
         21   -1    0    0  501  502 -0.00000000000E+00 -0.00000000000E+00 -0.35473114472E+03  0.35473114472E+03  0.00000000000E+00 0. -1.
         25    1    1    2    0    0 -0.11014833424E+02 -0.20907531507E+03 -0.19749897011E+03  0.31379078559E+03  0.12500000000E+03 0.  0.
         25    1    1    2    0    0  0.11014833424E+02  0.20907531507E+03  0.50931530253E+02  0.24910406400E+03  0.12500000000E+03 0.  0.
</event>
<event>
 4    0  0.2244970E-002  0.3736120E+03  0.7546771E-02  0.1053320E+00
         21   -1    0    0  502  501  0.00000000000E+00  0.00000000000E+00  0.46456129133E+04  0.46456129133E+04  0.00000000000E+00 0.  1.
         21   -1    0    0  501  502 -0.00000000000E+00 -0.00000000000E+00 -0.30046824567E+02  0.30046824567E+02  0.00000000000E+00 0.  1.
         25    1    1    2    0    0 -0.32712344344E+03  0.92509257058E+02  0.17345172199E+04  0.17719319107E+04  0.12500000000E+03 0.  0.
         25    1    1    2    0    0  0.32712344344E+03 -0.92509257058E+02  0.28810488688E+04  0.29037278272E+04  0.12500000000E+03 0.  0.
</event>
<event>
 4    0  0.2244970E-002  0.1919056E+03  0.7546771E-02  0.1156754E+00
         21   -1    0    0  502  501  0.00000000000E+00  0.00000000000E+00  0.27530315682E+02  0.27530315682E+02  0.00000000000E+00 0. -1.
         21   -1    0    0  501  502 -0.00000000000E+00 -0.00000000000E+00 -0.13377165603E+04  0.13377165603E+04  0.00000000000E+00 0. -1.
         25    1    1    2    0    0 -0.18736911145E+02  0.14340390688E+03 -0.71535458651E+03  0.74045454742E+03  0.12500000000E+03 0.  0.
         25    1    1    2    0    0  0.18736911145E+02 -0.14340390688E+03 -0.59483165815E+03  0.62479232861E+03  0.12500000000E+03 0.  0.
</event>
<event>
 4    0  0.2244970E-002  0.2246248E+03  0.7546771E-02  0.1130481E+00
         21   -1    0    0  502  501  0.00000000000E+00  0.00000000000E+00  0.14294453813E+03  0.14294453813E+03  0.00000000000E+00 0.  1.
         21   -1    0    0  501  502 -0.00000000000E+00 -0.00000000000E+00 -0.35297830746E+03  0.35297830746E+03  0.00000000000E+00 0.  1.
         25    1    1    2    0    0  0.16653187264E+03  0.82913343134E+02 -0.88501472726E+02  0.24096679802E+03  0.12500000000E+03 0.  0.
         25    1    1    2    0    0 -0.16653187264E+03 -0.82913343134E+02 -0.12153229661E+03  0.25495604757E+03  0.12500000000E+03 0.  0.
</event>
<event>
 4    0  0.2244970E-002  0.3156546E+03  0.7546771E-02  0.1077667E+00
         21   -1    0    0  502  501  0.00000000000E+00  0.00000000000E+00  0.89723840510E+03  0.89723840510E+03  0.00000000000E+00 0. -1.
         21   -1    0    0  501  502 -0.00000000000E+00 -0.00000000000E+00 -0.11104944572E+03  0.11104944572E+03  0.00000000000E+00 0. -1.
         25    1    1    2    0    0 -0.23764835225E+03  0.30086535018E+02  0.65373098447E+03  0.70736916739E+03  0.12500000000E+03 0.  0.
         25    1    1    2    0    0  0.23764835225E+03 -0.30086535018E+02  0.13245797492E+03  0.30091868343E+03  0.12500000000E+03 0.  0.
</event>
<event>
 4    0  0.2244970E-002  0.1744323E+03  0.7546771E-02  0.1173303E+00
         21   -1    0    0  502  501  0.00000000000E+00  0.00000000000E+00  0.20570780987E+04  0.20570780987E+04  0.00000000000E+00 0.  1.
         21   -1    0    0  501  502 -0.00000000000E+00 -0.00000000000E+00 -0.14791188488E+02  0.14791188488E+02  0.00000000000E+00 0.  1.
         25    1    1    2    0    0 -0.97243666473E+02  0.46755428344E+02  0.13549508815E+04  0.13649759310E+04  0.12500000000E+03 0.  0.
         25    1    1    2    0    0  0.97243666473E+02 -0.46755428344E+02  0.68733602864E+03  0.70689335619E+03  0.12500000000E+03 0.  0.
</event>
<event>
 4    0  0.2244970E-002  0.2906923E+03  0.7546771E-02  0.1089988E+00
         21   -1    0    0  502  501  0.00000000000E+00  0.00000000000E+00  0.13020002820E+04  0.13020002820E+04  0.00000000000E+00 0. -1.
         21   -1    0    0  501  502 -0.00000000000E+00 -0.00000000000E+00 -0.64901695767E+02  0.64901695767E+02  0.00000000000E+00 0. -1.
         25    1    1    2    0    0  0.71682253986E+02  0.23489368099E+03  0.40097729618E+03  0.48654000756E+03  0.12500000000E+03 0.  0.
         25    1    1    2    0    0 -0.71682253986E+02 -0.23489368099E+03  0.83612129005E+03  0.88036197021E+03  0.12500000000E+03 0.  0.
</event>
<event>
 4    0  0.2244970E-002  0.2701674E+03  0.7546771E-02  0.1101184E+00
         21   -1    0    0  502  501  0.00000000000E+00  0.00000000000E+00  0.59895828373E+03  0.59895828373E+03  0.00000000000E+00 0. -1.
         21   -1    0    0  501  502 -0.00000000000E+00 -0.00000000000E+00 -0.12186229244E+03  0.12186229244E+03  0.00000000000E+00 0. -1.
         25    1    1    2    0    0 -0.20422633331E+03 -0.12151928534E+03  0.27834799242E+03  0.38675306955E+03  0.12500000000E+03 0.  0.
         25    1    1    2    0    0  0.20422633331E+03  0.12151928534E+03  0.19874799887E+03  0.33406750662E+03  0.12500000000E+03 0.  0.
</event>
<event>
 4    0  0.2244970E-002  0.2437781E+03  0.7546771E-02  0.1117301E+00
         21   -1    0    0  502  501  0.00000000000E+00  0.00000000000E+00  0.43859450426E+03  0.43859450426E+03  0.00000000000E+00 0. -1.
         21   -1    0    0  501  502 -0.00000000000E+00 -0.00000000000E+00 -0.13549591255E+03  0.13549591255E+03  0.00000000000E+00 0. -1.
         25    1    1    2    0    0 -0.37074861379E+02 -0.20447646272E+03  0.12228709755E+03  0.27159584566E+03  0.12500000000E+03 0.  0.
         25    1    1    2    0    0  0.37074861379E+02  0.20447646272E+03  0.18081149416E+03  0.30249457115E+03  0.12500000000E+03 0.  0.
</event>
<event>
 4    0  0.2244970E-002  0.1942379E+03  0.7546771E-02  0.1154694E+00
         21   -1    0    0  502  501  0.00000000000E+00  0.00000000000E+00  0.31125670056E+03  0.31125670056E+03  0.00000000000E+00 0.  1.
         21   -1    0    0  501  502 -0.00000000000E+00 -0.00000000000E+00 -0.12121300741E+03  0.12121300741E+03  0.00000000000E+00 0.  1.
         25    1    1    2    0    0  0.14715560067E+02 -0.38456763071E+02  0.25405614089E+03  0.28612059181E+03  0.12500000000E+03 0.  0.
         25    1    1    2    0    0 -0.14715560067E+02  0.38456763071E+02 -0.64012447741E+02  0.14634911616E+03  0.12500000000E+03 0.  0.
</event>
<event>
 4    0  0.2244970E-002  0.1996343E+03  0.7546771E-02  0.1150048E+00
         21   -1    0    0  502  501  0.00000000000E+00  0.00000000000E+00  0.26063100551E+03  0.26063100551E+03  0.00000000000E+00 0. -1.
         21   -1    0    0  501  502 -0.00000000000E+00 -0.00000000000E+00 -0.15291292150E+03  0.15291292150E+03  0.00000000000E+00 0. -1.
         25    1    1    2    0    0  0.43165447808E+02  0.14507365549E+03  0.16239257925E+02  0.19697292936E+03  0.12500000000E+03 0.  0.
         25    1    1    2    0    0 -0.43165447808E+02 -0.14507365549E+03  0.91478826093E+02  0.21657099765E+03  0.12500000000E+03 0.  0.
</event>
<event>
 4    0  0.2244970E-002  0.4390380E+03  0.7546771E-02  0.1031042E+00
         21   -1    0    0  502  501  0.00000000000E+00  0.00000000000E+00  0.48522381936E+03  0.48522381936E+03  0.00000000000E+00 0.  1.
         21   -1    0    0  501  502 -0.00000000000E+00 -0.00000000000E+00 -0.39724842180E+03  0.39724842180E+03  0.00000000000E+00 0.  1.
         25    1    1    2    0    0  0.15601494254E+03  0.34852624585E+03  0.22184317403E+03  0.45896688356E+03  0.12500000000E+03 0.  0.
         25    1    1    2    0    0 -0.15601494254E+03 -0.34852624585E+03 -0.13386777647E+03  0.42350535760E+03  0.12500000000E+03 0.  0.
</event>
<event>
 4    0  0.2244970E-002  0.2282745E+03  0.7546771E-02  0.1127860E+00
         21   -1    0    0  502  501  0.00000000000E+00  0.00000000000E+00  0.24326192315E+02  0.24326192315E+02  0.00000000000E+00 0.  1.
         21   -1    0    0  501  502 -0.00000000000E+00 -0.00000000000E+00 -0.21421039541E+04  0.21421039541E+04  0.00000000000E+00 0.  1.
         25    1    1    2    0    0 -0.10290388568E+03 -0.14047139938E+03 -0.14314064069E+04  0.14473668248E+04  0.12500000000E+03 0.  0.
         25    1    1    2    0    0  0.10290388568E+03  0.14047139938E+03 -0.68637135491E+03  0.71906332167E+03  0.12500000000E+03 0.  0.
</event>
<event>
 4    0  0.2244970E-002  0.1862176E+03  0.7546771E-02  0.1161918E+00
         21   -1    0    0  502  501  0.00000000000E+00  0.00000000000E+00  0.19739416280E+02  0.19739416280E+02  0.00000000000E+00 0. -1.
         21   -1    0    0  501  502 -0.00000000000E+00 -0.00000000000E+00 -0.17567388669E+04  0.17567388669E+04  0.00000000000E+00 0. -1.
         25    1    1    2    0    0  0.47797582018E+02  0.35819065863E+01 -0.25108686084E+03  0.28454709731E+03  0.12500000000E+03 0.  0.
         25    1    1    2    0    0 -0.47797582018E+02 -0.35819065863E+01 -0.14859125898E+04  0.14919311859E+04  0.12500000000E+03 0.  0.
</event>
<event>
 4    0  0.2244970E-002  0.1697101E+03  0.7546771E-02  0.1178151E+00
         21   -1    0    0  502  501  0.00000000000E+00  0.00000000000E+00  0.55364915501E+03  0.55364915501E+03  0.00000000000E+00 0. -1.
         21   -1    0    0  501  502 -0.00000000000E+00 -0.00000000000E+00 -0.52021240552E+02  0.52021240552E+02  0.00000000000E+00 0. -1.
         25    1    1    2    0    0 -0.32015999422E+02 -0.61460296311E+01  0.54415800739E+02  0.14017445298E+03  0.12500000000E+03 0.  0.
         25    1    1    2    0    0  0.32015999422E+02  0.61460296311E+01  0.44721211372E+03  0.46549594258E+03  0.12500000000E+03 0.  0.
</event>
<event>
 4    0  0.2244970E-002  0.2372976E+03  0.7546771E-02  0.1121606E+00
         21   -1    0    0  502  501  0.00000000000E+00  0.00000000000E+00  0.19674609454E+03  0.19674609454E+03  0.00000000000E+00 0.  1.
         21   -1    0    0  501  502 -0.00000000000E+00 -0.00000000000E+00 -0.28620717644E+03  0.28620717644E+03  0.00000000000E+00 0.  1.
         25    1    1    2    0    0  0.55543160078E+02 -0.14522714341E+03 -0.17548139264E+03  0.26569660325E+03  0.12500000000E+03 0.  0.
         25    1    1    2    0    0 -0.55543160078E+02  0.14522714341E+03  0.86020310743E+02  0.21725666774E+03  0.12500000000E+03 0.  0.
</event>
<event>
 4    0  0.2244970E-002  0.1956644E+03  0.7546771E-02  0.1153449E+00
         21   -1    0    0  502  501  0.00000000000E+00  0.00000000000E+00  0.21680627383E+02  0.21680627383E+02  0.00000000000E+00 0. -1.
         21   -1    0    0  501  502 -0.00000000000E+00 -0.00000000000E+00 -0.17658417092E+04  0.17658417092E+04  0.00000000000E+00 0. -1.
         25    1    1    2    0    0  0.10333434066E+03  0.41846520763E+02 -0.41006476443E+03  0.44295285109E+03  0.12500000000E+03 0.  0.
         25    1    1    2    0    0 -0.10333434066E+03 -0.41846520763E+02 -0.13340963174E+04  0.13445694855E+04  0.12500000000E+03 0.  0.
</event>
<event>
 4    0  0.2244970E-002  0.2206583E+03  0.7546771E-02  0.1133393E+00
         21   -1    0    0  502  501  0.00000000000E+00  0.00000000000E+00  0.88678059533E+03  0.88678059533E+03  0.00000000000E+00 0.  1.
         21   -1    0    0  501  502 -0.00000000000E+00 -0.00000000000E+00 -0.54906566555E+02  0.54906566555E+02  0.00000000000E+00 0.  1.
         25    1    1    2    0    0  0.17592002511E+03 -0.32263907306E+02  0.34593418558E+03  0.40900400451E+03  0.12500000000E+03 0.  0.
         25    1    1    2    0    0 -0.17592002511E+03  0.32263907306E+02  0.48593984319E+03  0.53268315738E+03  0.12500000000E+03 0.  0.
</event>
<event>
 4    0  0.2244970E-002  0.2319774E+03  0.7546771E-02  0.1125256E+00
         21   -1    0    0  502  501  0.00000000000E+00  0.00000000000E+00  0.71726352865E+02  0.71726352865E+02  0.00000000000E+00 0.  1.
         21   -1    0    0  501  502 -0.00000000000E+00 -0.00000000000E+00 -0.75026122225E+03  0.75026122225E+03  0.00000000000E+00 0.  1.
         25    1    1    2    0    0  0.14280687725E+03  0.11412205537E+03 -0.46164101636E+03  0.51201081600E+03  0.12500000000E+03 0.  0.
         25    1    1    2    0    0 -0.14280687725E+03 -0.11412205537E+03 -0.21689385302E+03  0.30997675912E+03  0.12500000000E+03 0.  0.
</event>
<event>
 4    0  0.2244970E-002  0.2062090E+03  0.7546771E-02  0.1144604E+00
         21   -1    0    0  502  501  0.00000000000E+00  0.00000000000E+00  0.26556297817E+03  0.26556297817E+03  0.00000000000E+00 0. -1.
         21   -1    0    0  501  502 -0.00000000000E+00 -0.00000000000E+00 -0.16012073539E+03  0.16012073539E+03  0.00000000000E+00 0. -1.
         25    1    1    2    0    0  0.15080879804E+03 -0.63910933110E+02  0.61309734891E+02  0.21496926415E+03  0.12500000000E+03 0.  0.
         25    1    1    2    0    0 -0.15080879804E+03  0.63910933110E+02  0.44132507890E+02  0.21071444941E+03  0.12500000000E+03 0.  0.
</event>
<event>
 4    0  0.2244970E-002  0.3994534E+03  0.7546771E-02  0.1043969E+00
         21   -1    0    0  502  501  0.00000000000E+00  0.00000000000E+00  0.60544796245E+03  0.60544796245E+03  0.00000000000E+00 0. -1.
         21   -1    0    0  501  502 -0.00000000000E+00 -0.00000000000E+00 -0.26354541915E+03  0.26354541915E+03  0.00000000000E+00 0. -1.
         25    1    1    2    0    0  0.19122936588E+03 -0.26672356528E+03  0.37798540115E+03  0.51595357750E+03  0.12500000000E+03 0.  0.
         25    1    1    2    0    0 -0.19122936588E+03  0.26672356528E+03 -0.36082857846E+02  0.35303980410E+03  0.12500000000E+03 0.  0.
</event>
<event>
 4    0  0.2244970E-002  0.2411991E+03  0.7546771E-02  0.1118997E+00
         21   -1    0    0  502  501  0.00000000000E+00  0.00000000000E+00  0.23011233324E+03  0.23011233324E+03  0.00000000000E+00 0.  1.
         21   -1    0    0  501  502 -0.00000000000E+00 -0.00000000000E+00 -0.25282012202E+03  0.25282012202E+03  0.00000000000E+00 0.  1.
         25    1    1    2    0    0  0.14719565443E+03  0.78678394065E+02 -0.13271179457E+03  0.24717255267E+03  0.12500000000E+03 0.  0.
         25    1    1    2    0    0 -0.14719565443E+03 -0.78678394065E+02  0.11000400580E+03  0.23575990259E+03  0.12500000000E+03 0.  0.
</event>
<event>
 4    0  0.2244970E-002  0.1714240E+03  0.7546771E-02  0.1176371E+00
         21   -1    0    0  502  501  0.00000000000E+00  0.00000000000E+00  0.81685003006E+02  0.81685003006E+02  0.00000000000E+00 0.  1.
         21   -1    0    0  501  502 -0.00000000000E+00 -0.00000000000E+00 -0.35975017545E+03  0.35975017545E+03  0.00000000000E+00 0.  1.
         25    1    1    2    0    0 -0.90025591460E+02  0.65046123150E+02 -0.90418466525E+02  0.19009498769E+03  0.12500000000E+03 0.  0.
         25    1    1    2    0    0  0.90025591460E+02 -0.65046123150E+02 -0.18764670592E+03  0.25134019077E+03  0.12500000000E+03 0.  0.
</event>
<event>
 4    0  0.2244970E-002  0.1780482E+03  0.7546771E-02  0.1169705E+00
         21   -1    0    0  502  501  0.00000000000E+00  0.00000000000E+00  0.10905075306E+03  0.10905075306E+03  0.00000000000E+00 0.  1.
         21   -1    0    0  501  502 -0.00000000000E+00 -0.00000000000E+00 -0.29070100669E+03  0.29070100669E+03  0.00000000000E+00 0.  1.
         25    1    1    2    0    0 -0.90790023265E+01  0.42783203528E+02  0.42774583936E+02  0.13916715064E+03  0.12500000000E+03 0.  0.
         25    1    1    2    0    0  0.90790023265E+01 -0.42783203528E+02 -0.22442483757E+03  0.26058460911E+03  0.12500000000E+03 0.  0.
</event>
<event>
 4    0  0.2244970E-002  0.2213031E+03  0.7546771E-02  0.1132915E+00
         21   -1    0    0  502  501  0.00000000000E+00  0.00000000000E+00  0.18112623527E+03  0.18112623527E+03  0.00000000000E+00 0.  1.
         21   -1    0    0  501  502 -0.00000000000E+00 -0.00000000000E+00 -0.27039179595E+03  0.27039179595E+03  0.00000000000E+00 0.  1.
         25    1    1    2    0    0 -0.10917472500E+03 -0.82306741754E+02 -0.16813455960E+03  0.25017543934E+03  0.12500000000E+03 0.  0.
         25    1    1    2    0    0  0.10917472500E+03  0.82306741754E+02  0.78868998926E+02  0.20134259189E+03  0.12500000000E+03 0.  0.
</event>
<event>
 4    0  0.2244970E-002  0.4202572E+03  0.7546771E-02  0.1036983E+00
         21   -1    0    0  502  501  0.00000000000E+00  0.00000000000E+00  0.91462554977E+03  0.91462554977E+03  0.00000000000E+00 0.  1.
         21   -1    0    0  501  502 -0.00000000000E+00 -0.00000000000E+00 -0.19310210001E+03  0.19310210001E+03  0.00000000000E+00 0.  1.
         25    1    1    2    0    0 -0.13944168062E+03  0.37150484233E+03  0.28244506196E+03  0.50285190981E+03  0.12500000000E+03 0.  0.
         25    1    1    2    0    0  0.13944168062E+03 -0.37150484233E+03  0.43907838780E+03  0.60487573997E+03  0.12500000000E+03 0.  0.
</event>
<event>
 4    0  0.2244970E-002  0.2104839E+03  0.7546771E-02  0.1141183E+00
         21   -1    0    0  502  501  0.00000000000E+00  0.00000000000E+00  0.12542867927E+03  0.12542867927E+03  0.00000000000E+00 0.  1.
         21   -1    0    0  501  502 -0.00000000000E+00 -0.00000000000E+00 -0.35321655808E+03  0.35321655808E+03  0.00000000000E+00 0. -1.
         25    1    1    2    0    0 -0.51882259072E+02  0.15731797371E+03 -0.15389626563E+03  0.25835977674E+03  0.12500000000E+03 0.  0.
         25    1    1    2    0    0  0.51882259072E+02 -0.15731797371E+03 -0.73891613182E+02  0.22028546062E+03  0.12500000000E+03 0.  0.
</event>
<event>
 4    0  0.2244970E-002  0.2082167E+03  0.7546771E-02  0.1142986E+00
         21   -1    0    0  502  501  0.00000000000E+00  0.00000000000E+00  0.10068599614E+03  0.10068599614E+03  0.00000000000E+00 0. -1.
         21   -1    0    0  501  502 -0.00000000000E+00 -0.00000000000E+00 -0.43058822088E+03  0.43058822088E+03  0.00000000000E+00 0. -1.
         25    1    1    2    0    0 -0.81671127544E+02 -0.14358698699E+03 -0.19176686201E+03  0.28228872679E+03  0.12500000000E+03 0.  0.
         25    1    1    2    0    0  0.81671127544E+02  0.14358698699E+03 -0.13813536273E+03  0.24898549023E+03  0.12500000000E+03 0.  0.
</event>
<event>
 4    0  0.2244970E-002  0.1953300E+03  0.7546771E-02  0.1153740E+00
         21   -1    0    0  502  501  0.00000000000E+00  0.00000000000E+00  0.99947370825E+01  0.99947370825E+01  0.00000000000E+00 0. -1.
         21   -1    0    0  501  502 -0.00000000000E+00 -0.00000000000E+00 -0.38173913776E+04  0.38173913776E+04  0.00000000000E+00 0. -1.
         25    1    1    2    0    0  0.88110439005E+02  0.12139724208E+03 -0.18517791884E+04  0.18620450860E+04  0.12500000000E+03 0.  0.
         25    1    1    2    0    0 -0.88110439005E+02 -0.12139724208E+03 -0.19556174522E+04  0.19653410287E+04  0.12500000000E+03 0.  0.
</event>
<event>
 4    0  0.2244970E-002  0.2100916E+03  0.7546771E-02  0.1141493E+00
         21   -1    0    0  502  501  0.00000000000E+00  0.00000000000E+00  0.16804354931E+03  0.16804354931E+03  0.00000000000E+00 0.  1.
         21   -1    0    0  501  502 -0.00000000000E+00 -0.00000000000E+00 -0.26266099822E+03  0.26266099822E+03  0.00000000000E+00 0.  1.
         25    1    1    2    0    0  0.51831630846E+02 -0.80554586647E+02  0.95234212206E+02  0.18403835079E+03  0.12500000000E+03 0.  0.
         25    1    1    2    0    0 -0.51831630846E+02  0.80554586647E+02 -0.18985166112E+03  0.24666619675E+03  0.12500000000E+03 0.  0.
</event>
<event>
 4    0  0.2244970E-002  0.2057135E+03  0.7546771E-02  0.1145006E+00
         21   -1    0    0  502  501  0.00000000000E+00  0.00000000000E+00  0.63175546922E+03  0.63175546922E+03  0.00000000000E+00 0.  1.
         21   -1    0    0  501  502 -0.00000000000E+00 -0.00000000000E+00 -0.66984851201E+02  0.66984851201E+02  0.00000000000E+00 0.  1.
         25    1    1    2    0    0 -0.10227790085E+03  0.11563495931E+03  0.19154694995E+03  0.27594826844E+03  0.12500000000E+03 0.  0.
         25    1    1    2    0    0  0.10227790085E+03 -0.11563495931E+03  0.37322366807E+03  0.42279205199E+03  0.12500000000E+03 0.  0.
</event>
<event>
 4    0  0.2244970E-002  0.2485595E+03  0.7546771E-02  0.1114219E+00
         21   -1    0    0  502  501  0.00000000000E+00  0.00000000000E+00  0.14353950303E+03  0.14353950303E+03  0.00000000000E+00 0.  1.
         21   -1    0    0  501  502 -0.00000000000E+00 -0.00000000000E+00 -0.43041705259E+03  0.43041705259E+03  0.00000000000E+00 0.  1.
         25    1    1    2    0    0  0.10481606427E+03  0.16122364798E+03 -0.25404456862E+03  0.34226176363E+03  0.12500000000E+03 0.  0.
         25    1    1    2    0    0 -0.10481606427E+03 -0.16122364798E+03 -0.32832980938E+02  0.23169479199E+03  0.12500000000E+03 0.  0.
</event>
<event>
 4    0  0.2244970E-002  0.2762422E+03  0.7546771E-02  0.1097759E+00
         21   -1    0    0  502  501  0.00000000000E+00  0.00000000000E+00  0.18277077399E+03  0.18277077399E+03  0.00000000000E+00 0.  1.
         21   -1    0    0  501  502 -0.00000000000E+00 -0.00000000000E+00 -0.41751631614E+03  0.41751631614E+03  0.00000000000E+00 0.  1.
         25    1    1    2    0    0 -0.23611665860E+03  0.40263183227E+02 -0.54837925025E+02  0.27568895229E+03  0.12500000000E+03 0.  0.
         25    1    1    2    0    0  0.23611665860E+03 -0.40263183227E+02 -0.17990761713E+03  0.32459813785E+03  0.12500000000E+03 0.  0.
</event>
<event>
 4    0  0.2244970E-002  0.2492393E+03  0.7546771E-02  0.1113787E+00
         21   -1    0    0  502  501  0.00000000000E+00  0.00000000000E+00  0.26973684782E+04  0.26973684782E+04  0.00000000000E+00 0. -1.
         21   -1    0    0  501  502 -0.00000000000E+00 -0.00000000000E+00 -0.23029933355E+02  0.23029933355E+02  0.00000000000E+00 0. -1.
         25    1    1    2    0    0 -0.11741711715E+03  0.15085080234E+03  0.79272739040E+03  0.82497542961E+03  0.12500000000E+03 0.  0.
         25    1    1    2    0    0  0.11741711715E+03 -0.15085080234E+03  0.18816111545E+04  0.18954229820E+04  0.12500000000E+03 0.  0.
</event>
<event>
 4    0  0.2244970E-002  0.1424578E+03  0.7546771E-02  0.1210060E+00
         21   -1    0    0  502  501  0.00000000000E+00  0.00000000000E+00  0.93398637623E+02  0.93398637623E+02  0.00000000000E+00 0. -1.
         21   -1    0    0  501  502 -0.00000000000E+00 -0.00000000000E+00 -0.21728620376E+03  0.21728620376E+03  0.00000000000E+00 0. -1.
         25    1    1    2    0    0  0.16993616821E+02  0.42877795971E+02 -0.11692153377E+03  0.17726515015E+03  0.12500000000E+03 0.  0.
         25    1    1    2    0    0 -0.16993616821E+02 -0.42877795971E+02 -0.69660323656E+01  0.13341969123E+03  0.12500000000E+03 0.  0.
</event>
<event>
 4    0  0.2244970E-002  0.2505465E+03  0.7546771E-02  0.1112960E+00
         21   -1    0    0  502  501  0.00000000000E+00  0.00000000000E+00  0.60093302759E+03  0.60093302759E+03  0.00000000000E+00 0.  1.
         21   -1    0    0  501  502 -0.00000000000E+00 -0.00000000000E+00 -0.10446010940E+03  0.10446010940E+03  0.00000000000E+00 0.  1.
         25    1    1    2    0    0 -0.97221158739E+02  0.75596119291E+02  0.49998353226E+03  0.52988230721E+03  0.12500000000E+03 0.  0.
         25    1    1    2    0    0  0.97221158739E+02 -0.75596119291E+02 -0.35106140686E+01  0.17551082978E+03  0.12500000000E+03 0.  0.
</event>
<event>
 4    0  0.2244970E-002  0.2491586E+03  0.7546771E-02  0.1113838E+00
         21   -1    0    0  502  501  0.00000000000E+00  0.00000000000E+00  0.86079930484E+02  0.86079930484E+02  0.00000000000E+00 0. -1.
         21   -1    0    0  501  502 -0.00000000000E+00 -0.00000000000E+00 -0.72119010959E+03  0.72119010959E+03  0.00000000000E+00 0. -1.
         25    1    1    2    0    0 -0.86924164102E+02  0.17858426406E+03 -0.18195054192E+03  0.29694974217E+03  0.12500000000E+03 0.  0.
         25    1    1    2    0    0  0.86924164102E+02 -0.17858426406E+03 -0.45315963719E+03  0.51032029790E+03  0.12500000000E+03 0.  0.
</event>
<event>
 4    0  0.2244970E-002  0.1981082E+03  0.7546771E-02  0.1151345E+00
         21   -1    0    0  502  501  0.00000000000E+00  0.00000000000E+00  0.21072411957E+04  0.21072411957E+04  0.00000000000E+00 0.  1.
         21   -1    0    0  501  502 -0.00000000000E+00 -0.00000000000E+00 -0.18624758603E+02  0.18624758603E+02  0.00000000000E+00 0.  1.
         25    1    1    2    0    0 -0.10545180632E+03  0.39608408770E+02  0.48329629244E+03  0.51175112680E+03  0.12500000000E+03 0.  0.
         25    1    1    2    0    0  0.10545180632E+03 -0.39608408770E+02  0.16053201446E+04  0.16141148275E+04  0.12500000000E+03 0.  0.
</event>
<event>
 4    0  0.2244970E-002  0.1646484E+03  0.7546771E-02  0.1183547E+00
         21   -1    0    0  502  501  0.00000000000E+00  0.00000000000E+00  0.56402914644E+02  0.56402914644E+02  0.00000000000E+00 0.  1.
         21   -1    0    0  501  502 -0.00000000000E+00 -0.00000000000E+00 -0.48063265280E+03  0.48063265280E+03  0.00000000000E+00 0.  1.
         25    1    1    2    0    0  0.27348414547E+02 -0.80864906433E+02 -0.31776884229E+03  0.35197884311E+03  0.12500000000E+03 0.  0.
         25    1    1    2    0    0 -0.27348414547E+02  0.80864906433E+02 -0.10646089587E+03  0.18505672433E+03  0.12500000000E+03 0.  0.
</event>
<event>
 4    0  0.2244970E-002  0.2003267E+03  0.7546771E-02  0.1149464E+00
         21   -1    0    0  502  501  0.00000000000E+00  0.00000000000E+00  0.42088576511E+03  0.42088576511E+03  0.00000000000E+00 0. -1.
         21   -1    0    0  501  502 -0.00000000000E+00 -0.00000000000E+00 -0.95348407515E+02  0.95348407515E+02  0.00000000000E+00 0. -1.
         25    1    1    2    0    0  0.15093039769E+03 -0.30389507271E+02  0.19926431939E+03  0.28113124351E+03  0.12500000000E+03 0.  0.
         25    1    1    2    0    0 -0.15093039769E+03  0.30389507271E+02  0.12627303821E+03  0.23510292911E+03  0.12500000000E+03 0.  0.
</event>
<event>
 4    0  0.2244970E-002  0.1810131E+03  0.7546771E-02  0.1166826E+00
         21   -1    0    0  502  501  0.00000000000E+00  0.00000000000E+00  0.25992895736E+03  0.25992895736E+03  0.00000000000E+00 0.  1.
         21   -1    0    0  501  502 -0.00000000000E+00 -0.00000000000E+00 -0.12605647400E+03  0.12605647400E+03  0.00000000000E+00 0.  1.
         25    1    1    2    0    0  0.60043691318E+02 -0.37910655123E+02 -0.50335279282E+02  0.15231908278E+03  0.12500000000E+03 0.  0.
         25    1    1    2    0    0 -0.60043691318E+02  0.37910655123E+02  0.18420776265E+03  0.23366634858E+03  0.12500000000E+03 0.  0.
</event>
<event>
 4    0  0.2244970E-002  0.4783187E+03  0.7546771E-02  0.1019598E+00
         21   -1    0    0  502  501  0.00000000000E+00  0.00000000000E+00  0.18822698852E+03  0.18822698852E+03  0.00000000000E+00 0.  1.
         21   -1    0    0  501  502 -0.00000000000E+00 -0.00000000000E+00 -0.12154942467E+04  0.12154942467E+04  0.00000000000E+00 0.  1.
         25    1    1    2    0    0 -0.28260422205E+03  0.25436147948E+02  0.20795162360E+02  0.31075646851E+03  0.12500000000E+03 0.  0.
         25    1    1    2    0    0  0.28260422205E+03 -0.25436147948E+02 -0.10480624205E+04  0.10929647667E+04  0.12500000000E+03 0.  0.
</event>
<event>
 4    0  0.2244970E-002  0.2326662E+03  0.7546771E-02  0.1124777E+00
         21   -1    0    0  502  501  0.00000000000E+00  0.00000000000E+00  0.10215446439E+04  0.10215446439E+04  0.00000000000E+00 0. -1.
         21   -1    0    0  501  502 -0.00000000000E+00 -0.00000000000E+00 -0.52991853287E+02  0.52991853287E+02  0.00000000000E+00 0. -1.
         25    1    1    2    0    0 -0.17057311987E+03  0.77651980550E+02  0.34995579807E+03  0.41619596335E+03  0.12500000000E+03 0.  0.
         25    1    1    2    0    0  0.17057311987E+03 -0.77651980550E+02  0.61859699250E+03  0.65834053379E+03  0.12500000000E+03 0.  0.
</event>
<event>
 4    0  0.2244970E-002  0.1713634E+03  0.7546771E-02  0.1176433E+00
         21   -1    0    0  502  501  0.00000000000E+00  0.00000000000E+00  0.29351982165E+03  0.29351982165E+03  0.00000000000E+00 0. -1.
         21   -1    0    0  501  502 -0.00000000000E+00 -0.00000000000E+00 -0.10004573278E+03  0.10004573278E+03  0.00000000000E+00 0. -1.
         25    1    1    2    0    0  0.16487986146E+02  0.99546063523E+02  0.28229057910E+02  0.16310472758E+03  0.12500000000E+03 0.  0.
         25    1    1    2    0    0 -0.16487986146E+02 -0.99546063523E+02  0.16524503096E+03  0.23046082684E+03  0.12500000000E+03 0.  0.
</event>
<event>
 4    0  0.2244970E-002  0.1996569E+03  0.7546771E-02  0.1150029E+00
         21   -1    0    0  502  501  0.00000000000E+00  0.00000000000E+00  0.45544182149E+02  0.45544182149E+02  0.00000000000E+00 0. -1.
         21   -1    0    0  501  502 -0.00000000000E+00 -0.00000000000E+00 -0.87525756524E+03  0.87525756524E+03  0.00000000000E+00 0. -1.
         25    1    1    2    0    0  0.11394476208E+03 -0.98522797863E+02 -0.50557619791E+03  0.54214614487E+03  0.12500000000E+03 0.  0.
         25    1    1    2    0    0 -0.11394476208E+03  0.98522797863E+02 -0.32413718518E+03  0.37865560252E+03  0.12500000000E+03 0.  0.
</event>
<event>
 4    0  0.2244970E-002  0.1971239E+03  0.7546771E-02  0.1152188E+00
         21   -1    0    0  502  501  0.00000000000E+00  0.00000000000E+00  0.71696238989E+03  0.71696238989E+03  0.00000000000E+00 0.  1.
         21   -1    0    0  501  502 -0.00000000000E+00 -0.00000000000E+00 -0.54197881939E+02  0.54197881939E+02  0.00000000000E+00 0.  1.
         25    1    1    2    0    0 -0.10727292640E+03  0.30295976168E+02  0.12803502796E+03  0.21081578522E+03  0.12500000000E+03 0.  0.
         25    1    1    2    0    0  0.10727292640E+03 -0.30295976168E+02  0.53472947998E+03  0.56034448661E+03  0.12500000000E+03 0.  0.
</event>
<event>
 4    0  0.2244970E-002  0.1780888E+03  0.7546771E-02  0.1169666E+00
         21   -1    0    0  502  501  0.00000000000E+00  0.00000000000E+00  0.57974336252E+02  0.57974336252E+02  0.00000000000E+00 0.  1.
         21   -1    0    0  501  502 -0.00000000000E+00 -0.00000000000E+00 -0.54706329339E+03  0.54706329339E+03  0.00000000000E+00 0.  1.
         25    1    1    2    0    0 -0.98023938682E+01 -0.57265086821E+02 -0.52996208611E+02  0.14767862141E+03  0.12500000000E+03 0.  0.
         25    1    1    2    0    0  0.98023938682E+01  0.57265086821E+02 -0.43609274852E+03  0.45735900823E+03  0.12500000000E+03 0.  0.
</event>
<event>
 4    0  0.2244970E-002  0.2358739E+03  0.7546771E-02  0.1122572E+00
         21   -1    0    0  502  501  0.00000000000E+00  0.00000000000E+00  0.22375563998E+03  0.22375563998E+03  0.00000000000E+00 0.  1.
         21   -1    0    0  501  502 -0.00000000000E+00 -0.00000000000E+00 -0.24864853138E+03  0.24864853138E+03  0.00000000000E+00 0.  1.
         25    1    1    2    0    0 -0.11229961503E+03  0.13072984813E+03 -0.11412595049E+03  0.24155999110E+03  0.12500000000E+03 0.  0.
         25    1    1    2    0    0  0.11229961503E+03 -0.13072984813E+03  0.89233059087E+02  0.23084418026E+03  0.12500000000E+03 0.  0.
</event>
<event>
 4    0  0.2244970E-002  0.2806310E+03  0.7546771E-02  0.1095345E+00
         21   -1    0    0  502  501  0.00000000000E+00  0.00000000000E+00  0.31639116071E+03  0.31639116071E+03  0.00000000000E+00 0. -1.
         21   -1    0    0  501  502 -0.00000000000E+00 -0.00000000000E+00 -0.24891271317E+03  0.24891271317E+03  0.00000000000E+00 0. -1.
         25    1    1    2    0    0  0.36264409087E+02  0.19824909858E+03  0.18485623591E+03  0.30069027322E+03  0.12500000000E+03 0.  0.
         25    1    1    2    0    0 -0.36264409087E+02 -0.19824909858E+03 -0.11737778837E+03  0.26461360066E+03  0.12500000000E+03 0.  0.
</event>
<event>
 4    0  0.2244970E-002  0.1996419E+03  0.7546771E-02  0.1150041E+00
         21   -1    0    0  502  501  0.00000000000E+00  0.00000000000E+00  0.12895513800E+03  0.12895513800E+03  0.00000000000E+00 0. -1.
         21   -1    0    0  501  502 -0.00000000000E+00 -0.00000000000E+00 -0.30907571637E+03  0.30907571637E+03  0.00000000000E+00 0. -1.
         25    1    1    2    0    0 -0.12051203203E+03  0.78228568606E+02 -0.24338063698E+02  0.19199010432E+03  0.12500000000E+03 0.  0.
         25    1    1    2    0    0  0.12051203203E+03 -0.78228568606E+02 -0.15578251468E+03  0.24604075006E+03  0.12500000000E+03 0.  0.
</event>
<event>
 4    0  0.2244970E-002  0.2211220E+03  0.7546771E-02  0.1133049E+00
         21   -1    0    0  502  501  0.00000000000E+00  0.00000000000E+00  0.45473816097E+03  0.45473816097E+03  0.00000000000E+00 0. -1.
         21   -1    0    0  501  502 -0.00000000000E+00 -0.00000000000E+00 -0.10752331426E+03  0.10752331426E+03  0.00000000000E+00 0. -1.
         25    1    1    2    0    0  0.11621729321E+03  0.13781634133E+03  0.13832452495E+03  0.25934239411E+03  0.12500000000E+03 0.  0.
         25    1    1    2    0    0 -0.11621729321E+03 -0.13781634133E+03  0.20889032176E+03  0.30291908112E+03  0.12500000000E+03 0.  0.
</event>
<event>
 4    0  0.2244970E-002  0.2040505E+03  0.7546771E-02  0.1146366E+00
         21   -1    0    0  502  501  0.00000000000E+00  0.00000000000E+00  0.22214272724E+02  0.22214272724E+02  0.00000000000E+00 0. -1.
         21   -1    0    0  501  502 -0.00000000000E+00 -0.00000000000E+00 -0.18743171934E+04  0.18743171934E+04  0.00000000000E+00 0. -1.
         25    1    1    2    0    0  0.72171849550E+02 -0.10514378867E+03 -0.46723251966E+03  0.50019518149E+03  0.12500000000E+03 0.  0.
         25    1    1    2    0    0 -0.72171849550E+02  0.10514378867E+03 -0.13848704010E+04  0.13963362846E+04  0.12500000000E+03 0.  0.
</event>
<event>
 4    0  0.2244970E-002  0.1840576E+03  0.7546771E-02  0.1163933E+00
         21   -1    0    0  502  501  0.00000000000E+00  0.00000000000E+00  0.91023134778E+02  0.91023134778E+02  0.00000000000E+00 0. -1.
         21   -1    0    0  501  502 -0.00000000000E+00 -0.00000000000E+00 -0.37218218939E+03  0.37218218939E+03  0.00000000000E+00 0. -1.
         25    1    1    2    0    0 -0.82960849798E+02  0.99987704548E+02 -0.93968356703E+02  0.20331034337E+03  0.12500000000E+03 0.  0.
         25    1    1    2    0    0  0.82960849798E+02 -0.99987704548E+02 -0.18719069791E+03  0.25989498080E+03  0.12500000000E+03 0.  0.
</event>
<event>
 4    0  0.2244970E-002  0.2369022E+03  0.7546771E-02  0.1121874E+00
         21   -1    0    0  502  501  0.00000000000E+00  0.00000000000E+00  0.65206911847E+03  0.65206911847E+03  0.00000000000E+00 0.  1.
         21   -1    0    0  501  502 -0.00000000000E+00 -0.00000000000E+00 -0.86068586346E+02  0.86068586346E+02  0.00000000000E+00 0.  1.
         25    1    1    2    0    0  0.14968061303E+03  0.13268957495E+03  0.31737500454E+03  0.39542724074E+03  0.12500000000E+03 0.  0.
         25    1    1    2    0    0 -0.14968061303E+03 -0.13268957495E+03  0.24862552758E+03  0.34271046407E+03  0.12500000000E+03 0.  0.
</event>
<event>
 4    0  0.2244970E-002  0.2430950E+03  0.7546771E-02  0.1117748E+00
         21   -1    0    0  502  501  0.00000000000E+00  0.00000000000E+00  0.12004332561E+04  0.12004332561E+04  0.00000000000E+00 0.  1.
         21   -1    0    0  501  502 -0.00000000000E+00 -0.00000000000E+00 -0.49228215105E+02  0.49228215105E+02  0.00000000000E+00 0.  1.
         25    1    1    2    0    0 -0.14985880308E+03  0.14490785471E+03  0.58530161325E+03  0.63376567097E+03  0.12500000000E+03 0.  0.
         25    1    1    2    0    0  0.14985880308E+03 -0.14490785471E+03  0.56590342771E+03  0.61589580021E+03  0.12500000000E+03 0.  0.
</event>
<event>
 4    0  0.2244970E-002  0.2832270E+03  0.7546771E-02  0.1093939E+00
         21   -1    0    0  502  501  0.00000000000E+00  0.00000000000E+00  0.82091023485E+02  0.82091023485E+02  0.00000000000E+00 0. -1.
         21   -1    0    0  501  502 -0.00000000000E+00 -0.00000000000E+00 -0.97717810615E+03  0.97717810615E+03  0.00000000000E+00 0. -1.
         25    1    1    2    0    0 -0.10198859952E+03 -0.34358414650E+02 -0.87809202334E+03  0.89344992951E+03  0.12500000000E+03 0.  0.
         25    1    1    2    0    0  0.10198859952E+03  0.34358414650E+02 -0.16995059329E+02  0.16581920013E+03  0.12500000000E+03 0.  0.
</event>
<event>
 4    0  0.2244970E-002  0.2369754E+03  0.7546771E-02  0.1121824E+00
         21   -1    0    0  502  501  0.00000000000E+00  0.00000000000E+00  0.12205476132E+04  0.12205476132E+04  0.00000000000E+00 0.  1.
         21   -1    0    0  501  502 -0.00000000000E+00 -0.00000000000E+00 -0.46009969894E+02  0.46009969894E+02  0.00000000000E+00 0.  1.
         25    1    1    2    0    0 -0.17611928214E+03  0.73660836263E+02  0.41639704059E+03  0.47482145671E+03  0.12500000000E+03 0.  0.
         25    1    1    2    0    0  0.17611928214E+03 -0.73660836263E+02  0.75814060273E+03  0.79173612640E+03  0.12500000000E+03 0.  0.
</event>
<event>
 4    0  0.2244970E-002  0.1716391E+03  0.7546771E-02  0.1176149E+00
         21   -1    0    0  502  501  0.00000000000E+00  0.00000000000E+00  0.16906419644E+03  0.16906419644E+03  0.00000000000E+00 0. -1.
         21   -1    0    0  501  502 -0.00000000000E+00 -0.00000000000E+00 -0.17425322329E+03  0.17425322329E+03  0.00000000000E+00 0. -1.
         25    1    1    2    0    0  0.73436360268E+02  0.81466637255E+02  0.39898799880E+02  0.17101645016E+03  0.12500000000E+03 0.  0.
         25    1    1    2    0    0 -0.73436360268E+02 -0.81466637255E+02 -0.45087826732E+02  0.17230096957E+03  0.12500000000E+03 0.  0.
</event>
<event>
 4    0  0.2244970E-002  0.2009698E+03  0.7546771E-02  0.1148923E+00
         21   -1    0    0  502  501  0.00000000000E+00  0.00000000000E+00  0.36997150489E+03  0.36997150489E+03  0.00000000000E+00 0. -1.
         21   -1    0    0  501  502 -0.00000000000E+00 -0.00000000000E+00 -0.10916746054E+03  0.10916746054E+03  0.00000000000E+00 0. -1.
         25    1    1    2    0    0  0.10964682942E+03  0.11209161091E+03  0.14625666090E+03  0.24819945064E+03  0.12500000000E+03 0.  0.
         25    1    1    2    0    0 -0.10964682942E+03 -0.11209161091E+03  0.11454738345E+03  0.23093951479E+03  0.12500000000E+03 0.  0.
</event>
<event>
 4    0  0.2244970E-002  0.2118928E+03  0.7546771E-02  0.1140076E+00
         21   -1    0    0  502  501  0.00000000000E+00  0.00000000000E+00  0.14480093362E+03  0.14480093362E+03  0.00000000000E+00 0.  1.
         21   -1    0    0  501  502 -0.00000000000E+00 -0.00000000000E+00 -0.31007095757E+03  0.31007095757E+03  0.00000000000E+00 0.  1.
         25    1    1    2    0    0 -0.12441226200E+02  0.16602014857E+03 -0.40294093280E+02  0.21205208745E+03  0.12500000000E+03 0.  0.
         25    1    1    2    0    0  0.12441226200E+02 -0.16602014857E+03 -0.12497593067E+03  0.24281980374E+03  0.12500000000E+03 0.  0.
</event>
<event>
 4    0  0.2244970E-002  0.2557443E+03  0.7546771E-02  0.1109727E+00
         21   -1    0    0  502  501  0.00000000000E+00  0.00000000000E+00  0.37173253366E+02  0.37173253366E+02  0.00000000000E+00 0.  1.
         21   -1    0    0  501  502 -0.00000000000E+00 -0.00000000000E+00 -0.17594678332E+04  0.17594678332E+04  0.00000000000E+00 0.  1.
         25    1    1    2    0    0 -0.83772917731E+02 -0.19057868707E+03 -0.57922076576E+03  0.62806037385E+03  0.12500000000E+03 0.  0.
         25    1    1    2    0    0  0.83772917731E+02  0.19057868707E+03 -0.11430738141E+04  0.11685807127E+04  0.12500000000E+03 0.  0.
</event>
<event>
 4    0  0.2244970E-002  0.1770381E+03  0.7546771E-02  0.1170701E+00
         21   -1    0    0  502  501  0.00000000000E+00  0.00000000000E+00  0.46276862174E+03  0.46276862174E+03  0.00000000000E+00 0.  1.
         21   -1    0    0  501  502 -0.00000000000E+00 -0.00000000000E+00 -0.67728199915E+02  0.67728199915E+02  0.00000000000E+00 0.  1.
         25    1    1    2    0    0 -0.89443391846E+02 -0.86393811504E+02  0.22137378141E+03  0.28301124025E+03  0.12500000000E+03 0.  0.
         25    1    1    2    0    0  0.89443391846E+02  0.86393811504E+02  0.17366664041E+03  0.24748558140E+03  0.12500000000E+03 0.  0.
</event>
<event>
 4    0  0.2244970E-002  0.2563386E+03  0.7546771E-02  0.1109363E+00
         21   -1    0    0  502  501  0.00000000000E+00  0.00000000000E+00  0.67076166099E+03  0.67076166099E+03  0.00000000000E+00 0.  1.
         21   -1    0    0  501  502 -0.00000000000E+00 -0.00000000000E+00 -0.97962460885E+02  0.97962460885E+02  0.00000000000E+00 0.  1.
         25    1    1    2    0    0 -0.20763690150E+03 -0.23961475093E+02  0.16647108307E+03  0.29499975704E+03  0.12500000000E+03 0.  0.
         25    1    1    2    0    0  0.20763690150E+03  0.23961475093E+02  0.40632811703E+03  0.47372436484E+03  0.12500000000E+03 0.  0.
</event>
<event>
 4    0  0.2244970E-002  0.1900629E+03  0.7546771E-02  0.1158405E+00
         21   -1    0    0  502  501  0.00000000000E+00  0.00000000000E+00  0.75196032908E+02  0.75196032908E+02  0.00000000000E+00 0. -1.
         21   -1    0    0  501  502 -0.00000000000E+00 -0.00000000000E+00 -0.48039639511E+03  0.48039639511E+03  0.00000000000E+00 0. -1.
         25    1    1    2    0    0  0.32365655147E+02 -0.13694241005E+03 -0.16398114404E+03  0.24963087731E+03  0.12500000000E+03 0.  0.
         25    1    1    2    0    0 -0.32365655147E+02  0.13694241005E+03 -0.24121921816E+03  0.30596155071E+03  0.12500000000E+03 0.  0.
</event>
<event>
 4    0  0.2244970E-002  0.2199028E+03  0.7546771E-02  0.1133956E+00
         21   -1    0    0  502  501  0.00000000000E+00  0.00000000000E+00  0.34030794946E+02  0.34030794946E+02  0.00000000000E+00 0.  1.
         21   -1    0    0  501  502 -0.00000000000E+00 -0.00000000000E+00 -0.14209848499E+04  0.14209848499E+04  0.00000000000E+00 0.  1.
         25    1    1    2    0    0 -0.70650796843E+01  0.14956910825E+03 -0.35753376470E+03  0.40727905224E+03  0.12500000000E+03 0.  0.
         25    1    1    2    0    0  0.70650796843E+01 -0.14956910825E+03 -0.10294202903E+04  0.10477365926E+04  0.12500000000E+03 0.  0.
</event>
<event>
 4    0  0.2244970E-002  0.1808460E+03  0.7546771E-02  0.1166987E+00
         21   -1    0    0  502  501  0.00000000000E+00  0.00000000000E+00  0.46014308109E+02  0.46014308109E+02  0.00000000000E+00 0.  1.
         21   -1    0    0  501  502 -0.00000000000E+00 -0.00000000000E+00 -0.71076297033E+03  0.71076297033E+03  0.00000000000E+00 0.  1.
         25    1    1    2    0    0  0.85166829114E+02 -0.66552205734E+02 -0.48609521345E+03  0.51341614837E+03  0.12500000000E+03 0.  0.
         25    1    1    2    0    0 -0.85166829114E+02  0.66552205734E+02 -0.17865344877E+03  0.24336113006E+03  0.12500000000E+03 0.  0.
</event>
<event>
 4    0  0.2244970E-002  0.2382475E+03  0.7546771E-02  0.1120966E+00
         21   -1    0    0  502  501  0.00000000000E+00  0.00000000000E+00  0.30130136818E+03  0.30130136818E+03  0.00000000000E+00 0.  1.
         21   -1    0    0  501  502 -0.00000000000E+00 -0.00000000000E+00 -0.18838894792E+03  0.18838894792E+03  0.00000000000E+00 0.  1.
         25    1    1    2    0    0  0.11142556412E+03  0.10348713143E+03  0.19438008995E+03  0.27664754125E+03  0.12500000000E+03 0.  0.
         25    1    1    2    0    0 -0.11142556412E+03 -0.10348713143E+03 -0.81467669690E+02  0.21304277485E+03  0.12500000000E+03 0.  0.
</event>
<event>
 4    0  0.2244970E-002  0.2985370E+03  0.7546771E-02  0.1085974E+00
         21   -1    0    0  502  501  0.00000000000E+00  0.00000000000E+00  0.22193516908E+03  0.22193516908E+03  0.00000000000E+00 0. -1.
         21   -1    0    0  501  502 -0.00000000000E+00 -0.00000000000E+00 -0.40157834957E+03  0.40157834957E+03  0.00000000000E+00 0. -1.
         25    1    1    2    0    0  0.13752723489E+03  0.97776434034E+02 -0.31140967236E+03  0.37559946143E+03  0.12500000000E+03 0.  0.
         25    1    1    2    0    0 -0.13752723489E+03 -0.97776434034E+02  0.13176649187E+03  0.24791405722E+03  0.12500000000E+03 0.  0.
</event>
<event>
 4    0  0.2244970E-002  0.3252309E+03  0.7546771E-02  0.1073267E+00
         21   -1    0    0  502  501  0.00000000000E+00  0.00000000000E+00  0.61969460898E+02  0.61969460898E+02  0.00000000000E+00 0.  1.
         21   -1    0    0  501  502 -0.00000000000E+00 -0.00000000000E+00 -0.17068915038E+04  0.17068915038E+04  0.00000000000E+00 0.  1.
         25    1    1    2    0    0 -0.10526675421E+03  0.18047854140E+03 -0.14088452261E+04  0.14297284584E+04  0.12500000000E+03 0.  0.
         25    1    1    2    0    0  0.10526675421E+03 -0.18047854140E+03 -0.23607681681E+03  0.33913250638E+03  0.12500000000E+03 0.  0.
</event>
<event>
 4    0  0.2244970E-002  0.2789847E+03  0.7546771E-02  0.1096245E+00
         21   -1    0    0  502  501  0.00000000000E+00  0.00000000000E+00  0.17055988435E+04  0.17055988435E+04  0.00000000000E+00 0. -1.
         21   -1    0    0  501  502 -0.00000000000E+00 -0.00000000000E+00 -0.45633497059E+02  0.45633497059E+02  0.00000000000E+00 0. -1.
         25    1    1    2    0    0 -0.33383329927E+02 -0.55198257862E+02  0.73811453693E+02  0.15885347048E+03  0.12500000000E+03 0.  0.
         25    1    1    2    0    0  0.33383329927E+02  0.55198257862E+02  0.15861538928E+04  0.15923788701E+04  0.12500000000E+03 0.  0.
</event>
<event>
 4    0  0.2244970E-002  0.1947041E+03  0.7546771E-02  0.1154286E+00
         21   -1    0    0  502  501  0.00000000000E+00  0.00000000000E+00  0.31327731943E+03  0.31327731943E+03  0.00000000000E+00 0.  1.
         21   -1    0    0  501  502 -0.00000000000E+00 -0.00000000000E+00 -0.12101003360E+03  0.12101003360E+03  0.00000000000E+00 0.  1.
         25    1    1    2    0    0 -0.13010985644E+03 -0.37019919675E+02  0.25725711534E+02  0.18597274378E+03  0.12500000000E+03 0.  0.
         25    1    1    2    0    0  0.13010985644E+03  0.37019919675E+02  0.16654157430E+03  0.24831460925E+03  0.12500000000E+03 0.  0.
</event>
<event>
 4    0  0.2244970E-002  0.4607198E+03  0.7546771E-02  0.1024573E+00
         21   -1    0    0  502  501  0.00000000000E+00  0.00000000000E+00  0.22198118717E+03  0.22198118717E+03  0.00000000000E+00 0. -1.
         21   -1    0    0  501  502 -0.00000000000E+00 -0.00000000000E+00 -0.95621956145E+03  0.95621956145E+03  0.00000000000E+00 0. -1.
         25    1    1    2    0    0  0.27601425163E+03  0.16856303137E+02 -0.81037045167E+03  0.86532841800E+03  0.12500000000E+03 0.  0.
         25    1    1    2    0    0 -0.27601425163E+03 -0.16856303137E+02  0.76132077388E+02  0.31287233061E+03  0.12500000000E+03 0.  0.
</event>
<event>
 4    0  0.2244970E-002  0.2450601E+03  0.7546771E-02  0.1116467E+00
         21   -1    0    0  502  501  0.00000000000E+00  0.00000000000E+00  0.54878571225E+02  0.54878571225E+02  0.00000000000E+00 0.  1.
         21   -1    0    0  501  502 -0.00000000000E+00 -0.00000000000E+00 -0.10943150507E+04  0.10943150507E+04  0.00000000000E+00 0.  1.
         25    1    1    2    0    0 -0.11975898684E+03  0.10135997717E+03 -0.18967565209E+03  0.27607591872E+03  0.12500000000E+03 0.  0.
         25    1    1    2    0    0  0.11975898684E+03 -0.10135997717E+03 -0.84976082740E+03  0.87311770323E+03  0.12500000000E+03 0.  0.
</event>
<event>
 4    0  0.2244970E-002  0.4878799E+03  0.7546771E-02  0.1016992E+00
         21   -1    0    0  502  501  0.00000000000E+00  0.00000000000E+00  0.39333900737E+03  0.39333900737E+03  0.00000000000E+00 0.  1.
         21   -1    0    0  501  502 -0.00000000000E+00 -0.00000000000E+00 -0.60514403852E+03  0.60514403852E+03  0.00000000000E+00 0. -1.
         25    1    1    2    0    0  0.26676161765E+03  0.23468745173E+03 -0.42322371794E+03  0.56655385982E+03  0.12500000000E+03 0.  0.
         25    1    1    2    0    0 -0.26676161765E+03 -0.23468745173E+03  0.21141868679E+03  0.43192918607E+03  0.12500000000E+03 0.  0.
</event>
<event>
 4    0  0.2244970E-002  0.2087624E+03  0.7546771E-02  0.1142550E+00
         21   -1    0    0  502  501  0.00000000000E+00  0.00000000000E+00  0.20782259712E+03  0.20782259712E+03  0.00000000000E+00 0.  1.
         21   -1    0    0  501  502 -0.00000000000E+00 -0.00000000000E+00 -0.20970635518E+03  0.20970635518E+03  0.00000000000E+00 0.  1.
         25    1    1    2    0    0 -0.56287821962E+02 -0.15612803042E+03 -0.21250669657E+02  0.20885610297E+03  0.12500000000E+03 0.  0.
         25    1    1    2    0    0  0.56287821962E+02  0.15612803042E+03  0.19366911593E+02  0.20867284934E+03  0.12500000000E+03 0.  0.
</event>
<event>
 4    0  0.2244970E-002  0.2524890E+03  0.7546771E-02  0.1111742E+00
         21   -1    0    0  502  501  0.00000000000E+00  0.00000000000E+00  0.34958381139E+03  0.34958381139E+03  0.00000000000E+00 0. -1.
         21   -1    0    0  501  502 -0.00000000000E+00 -0.00000000000E+00 -0.18236172856E+03  0.18236172856E+03  0.00000000000E+00 0. -1.
         25    1    1    2    0    0 -0.42801449643E+02  0.88104057420E+02  0.29038801365E+03  0.33097505570E+03  0.12500000000E+03 0.  0.
         25    1    1    2    0    0  0.42801449643E+02 -0.88104057420E+02 -0.12316593082E+03  0.20097048425E+03  0.12500000000E+03 0.  0.
</event>
<event>
 4    0  0.2244970E-002  0.1985795E+03  0.7546771E-02  0.1150943E+00
         21   -1    0    0  502  501  0.00000000000E+00  0.00000000000E+00  0.69894863560E+03  0.69894863560E+03  0.00000000000E+00 0. -1.
         21   -1    0    0  501  502 -0.00000000000E+00 -0.00000000000E+00 -0.56418749152E+02  0.56418749152E+02  0.00000000000E+00 0. -1.
         25    1    1    2    0    0  0.43508880215E+02 -0.13772369416E+03  0.21799942158E+03  0.28984407256E+03  0.12500000000E+03 0.  0.
         25    1    1    2    0    0 -0.43508880215E+02  0.13772369416E+03  0.42453046488E+03  0.46552331220E+03  0.12500000000E+03 0.  0.
</event>
<event>
 4    0  0.2244970E-002  0.2717711E+03  0.7546771E-02  0.1100270E+00
         21   -1    0    0  502  501  0.00000000000E+00  0.00000000000E+00  0.18181226861E+03  0.18181226861E+03  0.00000000000E+00 0.  1.
         21   -1    0    0  501  502 -0.00000000000E+00 -0.00000000000E+00 -0.40624063054E+03  0.40624063054E+03  0.00000000000E+00 0.  1.
         25    1    1    2    0    0  0.22022409800E+03 -0.87927771292E+02 -0.63775166988E+02  0.27553986686E+03  0.12500000000E+03 0.  0.
         25    1    1    2    0    0 -0.22022409800E+03  0.87927771292E+02 -0.16065319494E+03  0.31251303229E+03  0.12500000000E+03 0.  0.
</event>
<event>
 4    0  0.2244970E-002  0.3540509E+03  0.7546771E-02  0.1060965E+00
         21   -1    0    0  502  501  0.00000000000E+00  0.00000000000E+00  0.24658370452E+03  0.24658370452E+03  0.00000000000E+00 0. -1.
         21   -1    0    0  501  502 -0.00000000000E+00 -0.00000000000E+00 -0.50835505106E+03  0.50835505106E+03  0.00000000000E+00 0. -1.
         25    1    1    2    0    0  0.15801479892E+03  0.67832005654E+02  0.17096161209E+03  0.27280529775E+03  0.12500000000E+03 0.  0.
         25    1    1    2    0    0 -0.15801479892E+03 -0.67832005654E+02 -0.43273295864E+03  0.48213345783E+03  0.12500000000E+03 0.  0.
</event>
<event>
 4    0  0.2244970E-002  0.1890360E+03  0.7546771E-02  0.1159334E+00
         21   -1    0    0  502  501  0.00000000000E+00  0.00000000000E+00  0.72624439436E+02  0.72624439436E+02  0.00000000000E+00 0. -1.
         21   -1    0    0  501  502 -0.00000000000E+00 -0.00000000000E+00 -0.49204656407E+03  0.49204656407E+03  0.00000000000E+00 0. -1.
         25    1    1    2    0    0 -0.12320168703E+03  0.57165020117E+02 -0.27062007628E+03  0.32757704575E+03  0.12500000000E+03 0.  0.
         25    1    1    2    0    0  0.12320168703E+03 -0.57165020117E+02 -0.14880204835E+03  0.23709395776E+03  0.12500000000E+03 0.  0.
</event>
<event>
 4    0  0.2244970E-002  0.2486466E+03  0.7546771E-02  0.1114163E+00
         21   -1    0    0  502  501  0.00000000000E+00  0.00000000000E+00  0.92450675415E+02  0.92450675415E+02  0.00000000000E+00 0.  1.
         21   -1    0    0  501  502 -0.00000000000E+00 -0.00000000000E+00 -0.66873622860E+03  0.66873622860E+03  0.00000000000E+00 0.  1.
         25    1    1    2    0    0 -0.12675859900E+03 -0.15955462347E+03 -0.39279670035E+03  0.45982569317E+03  0.12500000000E+03 0.  0.
         25    1    1    2    0    0  0.12675859900E+03  0.15955462347E+03 -0.18348885284E+03  0.30136121085E+03  0.12500000000E+03 0.  0.
</event>
<event>
 4    0  0.2244970E-002  0.1952048E+03  0.7546771E-02  0.1153849E+00
         21   -1    0    0  502  501  0.00000000000E+00  0.00000000000E+00  0.73487654073E+02  0.73487654073E+02  0.00000000000E+00 0. -1.
         21   -1    0    0  501  502 -0.00000000000E+00 -0.00000000000E+00 -0.51852126334E+03  0.51852126334E+03  0.00000000000E+00 0. -1.
         25    1    1    2    0    0  0.69856901323E+02 -0.11348897118E+03 -0.32669743081E+03  0.37432064402E+03  0.12500000000E+03 0.  0.
         25    1    1    2    0    0 -0.69856901323E+02  0.11348897118E+03 -0.11833617846E+03  0.21768827339E+03  0.12500000000E+03 0.  0.
</event>
<event>
 4    0  0.2244970E-002  0.1779158E+03  0.7546771E-02  0.1169836E+00
         21   -1    0    0  502  501  0.00000000000E+00  0.00000000000E+00  0.40059178768E+03  0.40059178768E+03  0.00000000000E+00 0.  1.
         21   -1    0    0  501  502 -0.00000000000E+00 -0.00000000000E+00 -0.79018159870E+02  0.79018159870E+02  0.00000000000E+00 0.  1.
         25    1    1    2    0    0 -0.11343293733E+03  0.21939277557E+02  0.91001377376E+02  0.19301454312E+03  0.12500000000E+03 0.  0.
         25    1    1    2    0    0  0.11343293733E+03 -0.21939277557E+02  0.23057225043E+03  0.28659540443E+03  0.12500000000E+03 0.  0.
</event>
<event>
 4    0  0.2244970E-002  0.2080461E+03  0.7546771E-02  0.1143123E+00
         21   -1    0    0  502  501  0.00000000000E+00  0.00000000000E+00  0.32773705556E+02  0.32773705556E+02  0.00000000000E+00 0.  1.
         21   -1    0    0  501  502 -0.00000000000E+00 -0.00000000000E+00 -0.13206681302E+04  0.13206681302E+04  0.00000000000E+00 0.  1.
         25    1    1    2    0    0 -0.53733538287E+01  0.12508488885E+03 -0.10000163379E+04  0.10155455570E+04  0.12500000000E+03 0.  0.
         25    1    1    2    0    0  0.53733538287E+01 -0.12508488885E+03 -0.28787808680E+03  0.33789627878E+03  0.12500000000E+03 0.  0.
</event>
<event>
 4    0  0.2244970E-002  0.1859636E+03  0.7546771E-02  0.1162153E+00
         21   -1    0    0  502  501  0.00000000000E+00  0.00000000000E+00  0.73383523600E+03  0.73383523600E+03  0.00000000000E+00 0.  1.
         21   -1    0    0  501  502 -0.00000000000E+00 -0.00000000000E+00 -0.47125667038E+02  0.47125667038E+02  0.00000000000E+00 0.  1.
         25    1    1    2    0    0  0.12295198166E+03  0.56005677935E+02  0.28765553136E+03  0.34150333890E+03  0.12500000000E+03 0.  0.
         25    1    1    2    0    0 -0.12295198166E+03 -0.56005677935E+02  0.39905403760E+03  0.43945756414E+03  0.12500000000E+03 0.  0.
</event>
<event>
 4    0  0.2244970E-002  0.1747157E+03  0.7546771E-02  0.1173017E+00
         21   -1    0    0  502  501  0.00000000000E+00  0.00000000000E+00  0.63044396259E+02  0.63044396259E+02  0.00000000000E+00 0. -1.
         21   -1    0    0  501  502 -0.00000000000E+00 -0.00000000000E+00 -0.48419182047E+03  0.48419182047E+03  0.00000000000E+00 0. -1.
         25    1    1    2    0    0  0.81367232440E+02 -0.98014659656E+01 -0.35224852429E+03  0.38264960226E+03  0.12500000000E+03 0.  0.
         25    1    1    2    0    0 -0.81367232440E+02  0.98014659656E+01 -0.68898899922E+02  0.16458661446E+03  0.12500000000E+03 0.  0.
</event>
<event>
 4    0  0.2244970E-002  0.2236944E+03  0.7546771E-02  0.1131158E+00
         21   -1    0    0  502  501  0.00000000000E+00  0.00000000000E+00  0.83505911512E+02  0.83505911512E+02  0.00000000000E+00 0. -1.
         21   -1    0    0  501  502 -0.00000000000E+00 -0.00000000000E+00 -0.59922902942E+03  0.59922902942E+03  0.00000000000E+00 0. -1.
         25    1    1    2    0    0  0.22076151127E+02  0.17693865178E+03 -0.17975666634E+03  0.28236873416E+03  0.12500000000E+03 0.  0.
         25    1    1    2    0    0 -0.22076151127E+02 -0.17693865178E+03 -0.33596645158E+03  0.40036620677E+03  0.12500000000E+03 0.  0.
</event>
<event>
 4    0  0.2244970E-002  0.2265558E+03  0.7546771E-02  0.1129088E+00
         21   -1    0    0  502  501  0.00000000000E+00  0.00000000000E+00  0.42306353010E+02  0.42306353010E+02  0.00000000000E+00 0. -1.
         21   -1    0    0  501  502 -0.00000000000E+00 -0.00000000000E+00 -0.12132343947E+04  0.12132343947E+04  0.00000000000E+00 0. -1.
         25    1    1    2    0    0  0.11409734315E+03  0.10672596191E+03 -0.87993832343E+03  0.90239962749E+03  0.12500000000E+03 0.  0.
         25    1    1    2    0    0 -0.11409734315E+03 -0.10672596191E+03 -0.29098971829E+03  0.35314112025E+03  0.12500000000E+03 0.  0.
</event>
<event>
 4    0  0.2244970E-002  0.2235437E+03  0.7546771E-02  0.1131268E+00
         21   -1    0    0  502  501  0.00000000000E+00  0.00000000000E+00  0.10155064069E+03  0.10155064069E+03  0.00000000000E+00 0. -1.
         21   -1    0    0  501  502 -0.00000000000E+00 -0.00000000000E+00 -0.49208722093E+03  0.49208722093E+03  0.00000000000E+00 0. -1.
         25    1    1    2    0    0  0.10825604057E+03  0.13609674039E+03 -0.28034094869E+03  0.35278568647E+03  0.12500000000E+03 0.  0.
         25    1    1    2    0    0 -0.10825604057E+03 -0.13609674039E+03 -0.11019563154E+03  0.24085217515E+03  0.12500000000E+03 0.  0.
</event>
<event>
 4    0  0.2244970E-002  0.1725834E+03  0.7546771E-02  0.1175180E+00
         21   -1    0    0  502  501  0.00000000000E+00  0.00000000000E+00  0.67257481971E+02  0.67257481971E+02  0.00000000000E+00 0.  1.
         21   -1    0    0  501  502 -0.00000000000E+00 -0.00000000000E+00 -0.44285092154E+03  0.44285092154E+03  0.00000000000E+00 0.  1.
         25    1    1    2    0    0  0.89568189192E+02  0.76048939830E+02 -0.21560784168E+03  0.27553156472E+03  0.12500000000E+03 0.  0.
         25    1    1    2    0    0 -0.89568189192E+02 -0.76048939830E+02 -0.15998559789E+03  0.23457683879E+03  0.12500000000E+03 0.  0.
</event>
<event>
 4    0  0.2244970E-002  0.1638786E+03  0.7546771E-02  0.1184386E+00
         21   -1    0    0  502  501  0.00000000000E+00  0.00000000000E+00  0.36764698834E+02  0.36764698834E+02  0.00000000000E+00 0.  1.
         21   -1    0    0  501  502 -0.00000000000E+00 -0.00000000000E+00 -0.73048885931E+03  0.73048885931E+03  0.00000000000E+00 0.  1.
         25    1    1    2    0    0 -0.66597894512E+02  0.65461757159E+02 -0.46415787443E+03  0.48968158389E+03  0.12500000000E+03 0.  0.
         25    1    1    2    0    0  0.66597894512E+02 -0.65461757159E+02 -0.22956628605E+03  0.27757197426E+03  0.12500000000E+03 0.  0.
</event>
<event>
 4    0  0.2244970E-002  0.2232453E+03  0.7546771E-02  0.1131486E+00
         21   -1    0    0  502  501  0.00000000000E+00  0.00000000000E+00  0.86821648563E+03  0.86821648563E+03  0.00000000000E+00 0. -1.
         21   -1    0    0  501  502 -0.00000000000E+00 -0.00000000000E+00 -0.57403282429E+02  0.57403282429E+02  0.00000000000E+00 0. -1.
         25    1    1    2    0    0  0.17437175165E+03  0.60164787227E+02  0.37696908441E+03  0.43789953185E+03  0.12500000000E+03 0.  0.
         25    1    1    2    0    0 -0.17437175165E+03 -0.60164787227E+02  0.43384411880E+03  0.48772023621E+03  0.12500000000E+03 0.  0.
</event>
<event>
 4    0  0.2244970E-002  0.4246590E+03  0.7546771E-02  0.1035561E+00
         21   -1    0    0  502  501  0.00000000000E+00  0.00000000000E+00  0.77199785047E+02  0.77199785047E+02  0.00000000000E+00 0. -1.
         21   -1    0    0  501  502 -0.00000000000E+00 -0.00000000000E+00 -0.23359551551E+04  0.23359551551E+04  0.00000000000E+00 0. -1.
         25    1    1    2    0    0  0.19504313611E+02  0.33836857117E+03 -0.49508631405E+03  0.61286961628E+03  0.12500000000E+03 0.  0.
         25    1    1    2    0    0 -0.19504313611E+02 -0.33836857117E+03 -0.17636690560E+04  0.18002853239E+04  0.12500000000E+03 0.  0.
</event>
<event>
 4    0  0.2244970E-002  0.2109249E+03  0.7546771E-02  0.1140836E+00
         21   -1    0    0  502  501  0.00000000000E+00  0.00000000000E+00  0.22492954185E+03  0.22492954185E+03  0.00000000000E+00 0. -1.
         21   -1    0    0  501  502 -0.00000000000E+00 -0.00000000000E+00 -0.19779223037E+03  0.19779223037E+03  0.00000000000E+00 0. -1.
         25    1    1    2    0    0 -0.10235229674E+03  0.52007231029E+02  0.13906157884E+03  0.21941710835E+03  0.12500000000E+03 0.  0.
         25    1    1    2    0    0  0.10235229674E+03 -0.52007231029E+02 -0.11192426736E+03  0.20330466387E+03  0.12500000000E+03 0.  0.
</event>
<event>
 4    0  0.2244970E-002  0.2296729E+03  0.7546771E-02  0.1126870E+00
         21   -1    0    0  502  501  0.00000000000E+00  0.00000000000E+00  0.41461613689E+03  0.41461613689E+03  0.00000000000E+00 0.  1.
         21   -1    0    0  501  502 -0.00000000000E+00 -0.00000000000E+00 -0.12722529066E+03  0.12722529066E+03  0.00000000000E+00 0.  1.
         25    1    1    2    0    0 -0.97848335233E+02 -0.26625273615E+02  0.33695250831E+03  0.37342361302E+03  0.12500000000E+03 0.  0.
         25    1    1    2    0    0  0.97848335233E+02  0.26625273615E+02 -0.49561662076E+02  0.16841781453E+03  0.12500000000E+03 0.  0.
</event>
<event>
 4    0  0.2244970E-002  0.2606762E+03  0.7546771E-02  0.1106738E+00
         21   -1    0    0  502  501  0.00000000000E+00  0.00000000000E+00  0.45618527110E+02  0.45618527110E+02  0.00000000000E+00 0. -1.
         21   -1    0    0  501  502 -0.00000000000E+00 -0.00000000000E+00 -0.14895714468E+04  0.14895714468E+04  0.00000000000E+00 0. -1.
         25    1    1    2    0    0 -0.16800325577E+03 -0.22767236555E+02 -0.26977077923E+03  0.34226410027E+03  0.12500000000E+03 0.  0.
         25    1    1    2    0    0  0.16800325577E+03  0.22767236555E+02 -0.11741821404E+04  0.11929258736E+04  0.12500000000E+03 0.  0.
</event>
<event>
 4    0  0.2244970E-002  0.2204620E+03  0.7546771E-02  0.1133539E+00
         21   -1    0    0  502  501  0.00000000000E+00  0.00000000000E+00  0.63694148522E+03  0.63694148522E+03  0.00000000000E+00 0.  1.
         21   -1    0    0  501  502 -0.00000000000E+00 -0.00000000000E+00 -0.76307597628E+02  0.76307597628E+02  0.00000000000E+00 0.  1.
         25    1    1    2    0    0  0.92430177852E+02 -0.45193337291E+01  0.53307404975E+03  0.55529875263E+03  0.12500000000E+03 0.  0.
         25    1    1    2    0    0 -0.92430177852E+02  0.45193337291E+01  0.27559837846E+02  0.15795033022E+03  0.12500000000E+03 0.  0.
</event>
<event>
 4    0  0.2244970E-002  0.2316059E+03  0.7546771E-02  0.1125515E+00
         21   -1    0    0  502  501  0.00000000000E+00  0.00000000000E+00  0.49451943996E+03  0.49451943996E+03  0.00000000000E+00 0. -1.
         21   -1    0    0  501  502 -0.00000000000E+00 -0.00000000000E+00 -0.10847151232E+03  0.10847151232E+03  0.00000000000E+00 0. -1.
         25    1    1    2    0    0  0.13543425852E+03  0.13302513433E+03  0.25092155896E+03  0.33856277630E+03  0.12500000000E+03 0.  0.
         25    1    1    2    0    0 -0.13543425852E+03 -0.13302513433E+03  0.13512636868E+03  0.26442817599E+03  0.12500000000E+03 0.  0.
</event>
<event>
 4    0  0.2244970E-002  0.2602466E+03  0.7546771E-02  0.1106995E+00
         21   -1    0    0  502  501  0.00000000000E+00  0.00000000000E+00  0.29457573815E+03  0.29457573815E+03  0.00000000000E+00 0.  1.
         21   -1    0    0  501  502 -0.00000000000E+00 -0.00000000000E+00 -0.22991803297E+03  0.22991803297E+03  0.00000000000E+00 0.  1.
         25    1    1    2    0    0  0.52308377170E+02 -0.13194135069E+03 -0.14781486681E+03  0.24003941592E+03  0.12500000000E+03 0.  0.
         25    1    1    2    0    0 -0.52308377170E+02  0.13194135069E+03  0.21247257199E+03  0.28445435520E+03  0.12500000000E+03 0.  0.
</event>
<event>
 4    0  0.2244970E-002  0.2580093E+03  0.7546771E-02  0.1108345E+00
         21   -1    0    0  502  501  0.00000000000E+00  0.00000000000E+00  0.13972339112E+04  0.13972339112E+04  0.00000000000E+00 0. -1.
         21   -1    0    0  501  502 -0.00000000000E+00 -0.00000000000E+00 -0.47643263751E+02  0.47643263751E+02  0.00000000000E+00 0. -1.
         25    1    1    2    0    0  0.15663057754E+03  0.15190230649E+03  0.51306164553E+03  0.57137089587E+03  0.12500000000E+03 0.  0.
         25    1    1    2    0    0 -0.15663057754E+03 -0.15190230649E+03  0.83652900188E+03  0.87350627904E+03  0.12500000000E+03 0.  0.
</event>
<event>
 4    0  0.2244970E-002  0.1979893E+03  0.7546771E-02  0.1151447E+00
         21   -1    0    0  502  501  0.00000000000E+00  0.00000000000E+00  0.17167375179E+03  0.17167375179E+03  0.00000000000E+00 0.  1.
         21   -1    0    0  501  502 -0.00000000000E+00 -0.00000000000E+00 -0.22833873223E+03  0.22833873223E+03  0.00000000000E+00 0.  1.
         25    1    1    2    0    0 -0.59973274954E+02  0.76202738457E+02 -0.14858768084E+03  0.21704135540E+03  0.12500000000E+03 0.  0.
         25    1    1    2    0    0  0.59973274954E+02 -0.76202738457E+02  0.91922700409E+02  0.18297112862E+03  0.12500000000E+03 0.  0.
</event>
<event>
 4    0  0.2244970E-002  0.3195466E+03  0.7546771E-02  0.1075858E+00
         21   -1    0    0  502  501  0.00000000000E+00  0.00000000000E+00  0.49358290421E+03  0.49358290421E+03  0.00000000000E+00 0.  1.
         21   -1    0    0  501  502 -0.00000000000E+00 -0.00000000000E+00 -0.20687511893E+03  0.20687511893E+03  0.00000000000E+00 0.  1.
         25    1    1    2    0    0 -0.11817131808E+02  0.26090699637E+03 -0.48030032058E+01  0.28958621203E+03  0.12500000000E+03 0.  0.
         25    1    1    2    0    0  0.11817131808E+02 -0.26090699637E+03  0.29151078849E+03  0.41087181111E+03  0.12500000000E+03 0.  0.
</event>
<event>
 4    0  0.2244970E-002  0.1671181E+03  0.7546771E-02  0.1180887E+00
         21   -1    0    0  502  501  0.00000000000E+00  0.00000000000E+00  0.56679515535E+03  0.56679515535E+03  0.00000000000E+00 0.  1.
         21   -1    0    0  501  502 -0.00000000000E+00 -0.00000000000E+00 -0.49274357558E+02  0.49274357558E+02  0.00000000000E+00 0.  1.
         25    1    1    2    0    0  0.17720650053E+01 -0.10580768041E+03  0.32003343988E+03  0.35950633943E+03  0.12500000000E+03 0.  0.
         25    1    1    2    0    0 -0.17720650053E+01  0.10580768041E+03  0.19748735791E+03  0.25656317347E+03  0.12500000000E+03 0.  0.
</event>
<event>
 4    0  0.2244970E-002  0.2227444E+03  0.7546771E-02  0.1131853E+00
         21   -1    0    0  502  501  0.00000000000E+00  0.00000000000E+00  0.16279425293E+03  0.16279425293E+03  0.00000000000E+00 0. -1.
         21   -1    0    0  501  502 -0.00000000000E+00 -0.00000000000E+00 -0.30477154550E+03  0.30477154550E+03  0.00000000000E+00 0. -1.
         25    1    1    2    0    0  0.43098668719E+02 -0.17664791854E+03 -0.39014627345E+02  0.22407392423E+03  0.12500000000E+03 0.  0.
         25    1    1    2    0    0 -0.43098668719E+02  0.17664791854E+03 -0.10296266522E+03  0.24349187420E+03  0.12500000000E+03 0.  0.
</event>
<event>
 4    0  0.2244970E-002  0.1957099E+03  0.7546771E-02  0.1153410E+00
         21   -1    0    0  502  501  0.00000000000E+00  0.00000000000E+00  0.28518088872E+03  0.28518088872E+03  0.00000000000E+00 0. -1.
         21   -1    0    0  501  502 -0.00000000000E+00 -0.00000000000E+00 -0.13430902830E+03  0.13430902830E+03  0.00000000000E+00 0. -1.
         25    1    1    2    0    0 -0.10773846831E+02 -0.14455789519E+03  0.31714388664E+02  0.19402026514E+03  0.12500000000E+03 0.  0.
         25    1    1    2    0    0  0.10773846831E+02  0.14455789519E+03  0.11915747176E+03  0.22546965187E+03  0.12500000000E+03 0.  0.
</event>
<event>
 4    0  0.2244970E-002  0.1784710E+03  0.7546771E-02  0.1169291E+00
         21   -1    0    0  502  501  0.00000000000E+00  0.00000000000E+00  0.80798891642E+03  0.80798891642E+03  0.00000000000E+00 0. -1.
         21   -1    0    0  501  502 -0.00000000000E+00 -0.00000000000E+00 -0.39421198754E+02  0.39421198754E+02  0.00000000000E+00 0. -1.
         25    1    1    2    0    0 -0.45702082362E+02  0.84958690819E+02  0.58177897756E+03  0.60282537953E+03  0.12500000000E+03 0.  0.
         25    1    1    2    0    0  0.45702082362E+02 -0.84958690819E+02  0.18678874010E+03  0.24458473564E+03  0.12500000000E+03 0.  0.
</event>
<event>
 4    0  0.2244970E-002  0.1797648E+03  0.7546771E-02  0.1168031E+00
         21   -1    0    0  502  501  0.00000000000E+00  0.00000000000E+00  0.53297269866E+03  0.53297269866E+03  0.00000000000E+00 0. -1.
         21   -1    0    0  501  502 -0.00000000000E+00 -0.00000000000E+00 -0.60632328755E+02  0.60632328755E+02  0.00000000000E+00 0. -1.
         25    1    1    2    0    0 -0.50683977389E+02 -0.93079162177E+02  0.35814522717E+03  0.39385987323E+03  0.12500000000E+03 0.  0.
         25    1    1    2    0    0  0.50683977389E+02  0.93079162177E+02  0.11419514273E+03  0.19974515418E+03  0.12500000000E+03 0.  0.
</event>
<event>
 4    0  0.2244970E-002  0.1638821E+03  0.7546771E-02  0.1184382E+00
         21   -1    0    0  502  501  0.00000000000E+00  0.00000000000E+00  0.31474700834E+03  0.31474700834E+03  0.00000000000E+00 0. -1.
         21   -1    0    0  501  502 -0.00000000000E+00 -0.00000000000E+00 -0.85329935981E+02  0.85329935981E+02  0.00000000000E+00 0. -1.
         25    1    1    2    0    0 -0.52925305261E+02 -0.16647417166E+02  0.44859746010E+01  0.13683328690E+03  0.12500000000E+03 0.  0.
         25    1    1    2    0    0  0.52925305261E+02  0.16647417166E+02  0.22493109776E+03  0.26324365743E+03  0.12500000000E+03 0.  0.
</event>
<event>
 4    0  0.2244970E-002  0.1627509E+03  0.7546771E-02  0.1185626E+00
         21   -1    0    0  502  501  0.00000000000E+00  0.00000000000E+00  0.98243394666E+03  0.98243394666E+03  0.00000000000E+00 0.  1.
         21   -1    0    0  501  502 -0.00000000000E+00 -0.00000000000E+00 -0.26961472780E+02  0.26961472780E+02  0.00000000000E+00 0.  1.
         25    1    1    2    0    0 -0.42858413614E+02  0.86543219531E+02  0.35618903521E+03  0.38964368501E+03  0.12500000000E+03 0.  0.
         25    1    1    2    0    0  0.42858413614E+02 -0.86543219531E+02  0.59928343867E+03  0.61975173443E+03  0.12500000000E+03 0.  0.
</event>
<event>
 4    0  0.2244970E-002  0.1732998E+03  0.7546771E-02  0.1174450E+00
         21   -1    0    0  502  501  0.00000000000E+00  0.00000000000E+00  0.41406635847E+03  0.41406635847E+03  0.00000000000E+00 0. -1.
         21   -1    0    0  501  502 -0.00000000000E+00 -0.00000000000E+00 -0.72531417330E+02  0.72531417330E+02  0.00000000000E+00 0. -1.
         25    1    1    2    0    0  0.32332656729E+02  0.11223162072E+02  0.92468439973E+01  0.12993022813E+03  0.12500000000E+03 0.  0.
         25    1    1    2    0    0 -0.32332656729E+02 -0.11223162072E+02  0.33228809714E+03  0.35666754767E+03  0.12500000000E+03 0.  0.
</event>
<event>
 4    0  0.2244970E-002  0.3209420E+03  0.7546771E-02  0.1075217E+00
         21   -1    0    0  502  501  0.00000000000E+00  0.00000000000E+00  0.95604751061E+03  0.95604751061E+03  0.00000000000E+00 0. -1.
         21   -1    0    0  501  502 -0.00000000000E+00 -0.00000000000E+00 -0.10773918362E+03  0.10773918362E+03  0.00000000000E+00 0. -1.
         25    1    1    2    0    0 -0.96487237282E+02  0.27755785128E+03  0.47735880018E+03  0.57432096590E+03  0.12500000000E+03 0.  0.
         25    1    1    2    0    0  0.96487237282E+02 -0.27755785128E+03  0.37094952681E+03  0.48946572832E+03  0.12500000000E+03 0.  0.
</event>
<event>
 4    0  0.2244970E-002  0.3013110E+03  0.7546771E-02  0.1084587E+00
         21   -1    0    0  502  501  0.00000000000E+00  0.00000000000E+00  0.22799602776E+03  0.22799602776E+03  0.00000000000E+00 0. -1.
         21   -1    0    0  501  502 -0.00000000000E+00 -0.00000000000E+00 -0.39820140986E+03  0.39820140986E+03  0.00000000000E+00 0. -1.
         25    1    1    2    0    0  0.19718469563E+03 -0.92360513384E+02  0.88000920298E+02  0.26604779758E+03  0.12500000000E+03 0.  0.
         25    1    1    2    0    0 -0.19718469563E+03  0.92360513384E+02 -0.25820630241E+03  0.36014964004E+03  0.12500000000E+03 0.  0.
</event>
<event>
 4    0  0.2244970E-002  0.2130845E+03  0.7546771E-02  0.1139146E+00
         21   -1    0    0  502  501  0.00000000000E+00  0.00000000000E+00  0.54720262740E+03  0.54720262740E+03  0.00000000000E+00 0. -1.
         21   -1    0    0  501  502 -0.00000000000E+00 -0.00000000000E+00 -0.82976557818E+02  0.82976557818E+02  0.00000000000E+00 0. -1.
         25    1    1    2    0    0  0.61685039264E+02  0.11210757663E+03  0.40332946557E+03  0.44121741875E+03  0.12500000000E+03 0.  0.
         25    1    1    2    0    0 -0.61685039264E+02 -0.11210757663E+03  0.60896604009E+02  0.18896176647E+03  0.12500000000E+03 0.  0.
</event>
<event>
 4    0  0.2244970E-002  0.1909450E+03  0.7546771E-02  0.1157612E+00
         21   -1    0    0  502  501  0.00000000000E+00  0.00000000000E+00  0.57764171716E+02  0.57764171716E+02  0.00000000000E+00 0. -1.
         21   -1    0    0  501  502 -0.00000000000E+00 -0.00000000000E+00 -0.63118705804E+03  0.63118705804E+03  0.00000000000E+00 0. -1.
         25    1    1    2    0    0 -0.56772577187E+02 -0.13244890058E+03 -0.30171451658E+03  0.35696286403E+03  0.12500000000E+03 0.  0.
         25    1    1    2    0    0  0.56772577187E+02  0.13244890058E+03 -0.27170836975E+03  0.33198836573E+03  0.12500000000E+03 0.  0.
</event>
<event>
 4    0  0.2244970E-002  0.1735787E+03  0.7546771E-02  0.1174166E+00
         21   -1    0    0  502  501  0.00000000000E+00  0.00000000000E+00  0.35556365071E+03  0.35556365071E+03  0.00000000000E+00 0. -1.
         21   -1    0    0  501  502 -0.00000000000E+00 -0.00000000000E+00 -0.84737499021E+02  0.84737499021E+02  0.00000000000E+00 0. -1.
         25    1    1    2    0    0 -0.82090126160E+02 -0.16987509065E+02  0.24508440836E+03  0.28760864295E+03  0.12500000000E+03 0.  0.
         25    1    1    2    0    0  0.82090126160E+02  0.16987509065E+02  0.25741743324E+02  0.15269250678E+03  0.12500000000E+03 0.  0.
</event>
<event>
 4    0  0.2244970E-002  0.2261115E+03  0.7546771E-02  0.1129407E+00
         21   -1    0    0  502  501  0.00000000000E+00  0.00000000000E+00  0.45979094053E+03  0.45979094053E+03  0.00000000000E+00 0. -1.
         21   -1    0    0  501  502 -0.00000000000E+00 -0.00000000000E+00 -0.11119494581E+03  0.11119494581E+03  0.00000000000E+00 0. -1.
         25    1    1    2    0    0  0.16430663213E+03 -0.24409422871E+02  0.28658559075E+03  0.35404631069E+03  0.12500000000E+03 0.  0.
         25    1    1    2    0    0 -0.16430663213E+03  0.24409422871E+02  0.62010403965E+02  0.21693957565E+03  0.12500000000E+03 0.  0.
</event>
<event>
 4    0  0.2244970E-002  0.1768759E+03  0.7546771E-02  0.1170861E+00
         21   -1    0    0  502  501  0.00000000000E+00  0.00000000000E+00  0.15544584592E+03  0.15544584592E+03  0.00000000000E+00 0.  1.
         21   -1    0    0  501  502 -0.00000000000E+00 -0.00000000000E+00 -0.20126035476E+03  0.20126035476E+03  0.00000000000E+00 0.  1.
         25    1    1    2    0    0  0.10943879651E+02  0.78183656324E+02  0.74999652582E+02  0.16577816655E+03  0.12500000000E+03 0.  0.
         25    1    1    2    0    0 -0.10943879651E+02 -0.78183656324E+02 -0.12081416142E+03  0.19092803413E+03  0.12500000000E+03 0.  0.
</event>
<event>
 4    0  0.2244970E-002  0.1767330E+03  0.7546771E-02  0.1171003E+00
         21   -1    0    0  502  501  0.00000000000E+00  0.00000000000E+00  0.14978776758E+03  0.14978776758E+03  0.00000000000E+00 0.  1.
         21   -1    0    0  501  502 -0.00000000000E+00 -0.00000000000E+00 -0.20852538360E+03  0.20852538360E+03  0.00000000000E+00 0.  1.
         25    1    1    2    0    0 -0.94800442106E+02  0.21837784946E+02 -0.10883732426E+03  0.19218370333E+03  0.12500000000E+03 0.  0.
         25    1    1    2    0    0  0.94800442106E+02 -0.21837784946E+02  0.50099708242E+02  0.16612944784E+03  0.12500000000E+03 0.  0.
</event>
<event>
 4    0  0.2244970E-002  0.2149181E+03  0.7546771E-02  0.1137730E+00
         21   -1    0    0  502  501  0.00000000000E+00  0.00000000000E+00  0.34928218964E+03  0.34928218964E+03  0.00000000000E+00 0.  1.
         21   -1    0    0  501  502 -0.00000000000E+00 -0.00000000000E+00 -0.13224202298E+03  0.13224202298E+03  0.00000000000E+00 0.  1.
         25    1    1    2    0    0  0.11627728732E+03 -0.54040161563E+02 -0.24615636533E+02  0.18075308066E+03  0.12500000000E+03 0.  0.
         25    1    1    2    0    0 -0.11627728732E+03  0.54040161563E+02  0.24165580319E+03  0.30077113196E+03  0.12500000000E+03 0.  0.
</event>
<event>
 4    0  0.2244970E-002  0.2033970E+03  0.7546771E-02  0.1146904E+00
         21   -1    0    0  502  501  0.00000000000E+00  0.00000000000E+00  0.51245839270E+02  0.51245839270E+02  0.00000000000E+00 0. -1.
         21   -1    0    0  501  502 -0.00000000000E+00 -0.00000000000E+00 -0.80729177796E+03  0.80729177796E+03  0.00000000000E+00 0. -1.
         25    1    1    2    0    0 -0.53411332851E+02  0.14194134498E+03 -0.26744361828E+03  0.33189035064E+03  0.12500000000E+03 0.  0.
         25    1    1    2    0    0  0.53411332851E+02 -0.14194134498E+03 -0.48860232041E+03  0.52664726659E+03  0.12500000000E+03 0.  0.
</event>
<event>
 4    0  0.2244970E-002  0.1915395E+03  0.7546771E-02  0.1157080E+00
         21   -1    0    0  502  501  0.00000000000E+00  0.00000000000E+00  0.14480430754E+03  0.14480430754E+03  0.00000000000E+00 0. -1.
         21   -1    0    0  501  502 -0.00000000000E+00 -0.00000000000E+00 -0.25335829844E+03  0.25335829844E+03  0.00000000000E+00 0. -1.
         25    1    1    2    0    0  0.77532774301E+01  0.43473886752E+02 -0.19796761793E+03  0.23825673104E+03  0.12500000000E+03 0.  0.
         25    1    1    2    0    0 -0.77532774301E+01 -0.43473886752E+02  0.89413627029E+02  0.15990587493E+03  0.12500000000E+03 0.  0.
</event>
<event>
 4    0  0.2244970E-002  0.2352964E+03  0.7546771E-02  0.1122966E+00
         21   -1    0    0  502  501  0.00000000000E+00  0.00000000000E+00  0.16249230086E+03  0.16249230086E+03  0.00000000000E+00 0. -1.
         21   -1    0    0  501  502 -0.00000000000E+00 -0.00000000000E+00 -0.34072008557E+03  0.34072008557E+03  0.00000000000E+00 0. -1.
         25    1    1    2    0    0  0.12785459547E+03 -0.90941643355E+01 -0.25237253063E+03  0.30942914476E+03  0.12500000000E+03 0.  0.
         25    1    1    2    0    0 -0.12785459547E+03  0.90941643355E+01  0.74144745918E+02  0.19378324168E+03  0.12500000000E+03 0.  0.
</event>
<event>
 4    0  0.2244970E-002  0.2161231E+03  0.7546771E-02  0.1136807E+00
         21   -1    0    0  502  501  0.00000000000E+00  0.00000000000E+00  0.37345551413E+03  0.37345551413E+03  0.00000000000E+00 0.  1.
         21   -1    0    0  501  502 -0.00000000000E+00 -0.00000000000E+00 -0.12507296712E+03  0.12507296712E+03  0.00000000000E+00 0.  1.
         25    1    1    2    0    0 -0.10419110682E+03  0.78490136673E+02 -0.12603775202E+02  0.18110865094E+03  0.12500000000E+03 0.  0.
         25    1    1    2    0    0  0.10419110682E+03 -0.78490136673E+02  0.26098632221E+03  0.31741983031E+03  0.12500000000E+03 0.  0.
</event>
<event>
 4    0  0.2244970E-002  0.3810152E+03  0.7546771E-02  0.1050559E+00
         21   -1    0    0  502  501  0.00000000000E+00  0.00000000000E+00  0.35399463765E+03  0.35399463765E+03  0.00000000000E+00 0. -1.
         21   -1    0    0  501  502 -0.00000000000E+00 -0.00000000000E+00 -0.41009820613E+03  0.41009820613E+03  0.00000000000E+00 0. -1.
         25    1    1    2    0    0 -0.59435139613E+02  0.31565397862E+03  0.13479960394E+03  0.37008904775E+03  0.12500000000E+03 0.  0.
         25    1    1    2    0    0  0.59435139613E+02 -0.31565397862E+03 -0.19090317243E+03  0.39400379603E+03  0.12500000000E+03 0.  0.
</event>
<event>
 4    0  0.2244970E-002  0.1996153E+03  0.7546771E-02  0.1150064E+00
         21   -1    0    0  502  501  0.00000000000E+00  0.00000000000E+00  0.13206232179E+03  0.13206232179E+03  0.00000000000E+00 0. -1.
         21   -1    0    0  501  502 -0.00000000000E+00 -0.00000000000E+00 -0.30172322634E+03  0.30172322634E+03  0.00000000000E+00 0. -1.
         25    1    1    2    0    0 -0.35318486146E+02 -0.12643858392E+02  0.79285967722E+02  0.15270405134E+03  0.12500000000E+03 0.  0.
         25    1    1    2    0    0  0.35318486146E+02  0.12643858392E+02 -0.24894687227E+03  0.28108149678E+03  0.12500000000E+03 0.  0.
</event>
<event>
 4    0  0.2244970E-002  0.1593064E+03  0.7546771E-02  0.1189482E+00
         21   -1    0    0  502  501  0.00000000000E+00  0.00000000000E+00  0.23413685631E+03  0.23413685631E+03  0.00000000000E+00 0.  1.
         21   -1    0    0  501  502 -0.00000000000E+00 -0.00000000000E+00 -0.10839180772E+03  0.10839180772E+03  0.00000000000E+00 0.  1.
         25    1    1    2    0    0 -0.35710360890E+01 -0.96152479695E+02  0.38942645673E+02  0.16247947963E+03  0.12500000000E+03 0.  0.
         25    1    1    2    0    0  0.35710360890E+01  0.96152479695E+02  0.86802402919E+02  0.18004918440E+03  0.12500000000E+03 0.  0.
</event>
<event>
 4    0  0.2244970E-002  0.1758271E+03  0.7546771E-02  0.1171904E+00
         21   -1    0    0  502  501  0.00000000000E+00  0.00000000000E+00  0.13769648874E+03  0.13769648874E+03  0.00000000000E+00 0.  1.
         21   -1    0    0  501  502 -0.00000000000E+00 -0.00000000000E+00 -0.22451678118E+03  0.22451678118E+03  0.00000000000E+00 0.  1.
         25    1    1    2    0    0  0.12013817093E+03 -0.16989762570E+02 -0.67965870348E+02  0.18699249097E+03  0.12500000000E+03 0.  0.
         25    1    1    2    0    0 -0.12013817093E+03  0.16989762570E+02 -0.18854422093E+02  0.17522077896E+03  0.12500000000E+03 0.  0.
</event>
<event>
 4    0  0.2244970E-002  0.1880509E+03  0.7546771E-02  0.1160231E+00
         21   -1    0    0  502  501  0.00000000000E+00  0.00000000000E+00  0.35380030754E+03  0.35380030754E+03  0.00000000000E+00 0.  1.
         21   -1    0    0  501  502 -0.00000000000E+00 -0.00000000000E+00 -0.99952213544E+02  0.99952213544E+02  0.00000000000E+00 0.  1.
         25    1    1    2    0    0  0.10485777570E+03  0.92673465656E+02  0.14192496472E+03  0.23526839986E+03  0.12500000000E+03 0.  0.
         25    1    1    2    0    0 -0.10485777570E+03 -0.92673465656E+02  0.11192312928E+03  0.21848412123E+03  0.12500000000E+03 0.  0.
</event>
<event>
 4    0  0.2244970E-002  0.2049018E+03  0.7546771E-02  0.1145668E+00
         21   -1    0    0  502  501  0.00000000000E+00  0.00000000000E+00  0.45367034854E+03  0.45367034854E+03  0.00000000000E+00 0. -1.
         21   -1    0    0  501  502 -0.00000000000E+00 -0.00000000000E+00 -0.92544587126E+02  0.92544587126E+02  0.00000000000E+00 0. -1.
         25    1    1    2    0    0  0.78878661985E+02 -0.13680437956E+03  0.23083265183E+03  0.30634293649E+03  0.12500000000E+03 0.  0.
         25    1    1    2    0    0 -0.78878661985E+02  0.13680437956E+03  0.13029310958E+03  0.23987199917E+03  0.12500000000E+03 0.  0.
</event>
<event>
 4    0  0.2244970E-002  0.3253083E+03  0.7546771E-02  0.1073232E+00
         21   -1    0    0  502  501  0.00000000000E+00  0.00000000000E+00  0.20883415589E+03  0.20883415589E+03  0.00000000000E+00 0.  1.
         21   -1    0    0  501  502 -0.00000000000E+00 -0.00000000000E+00 -0.50674405760E+03  0.50674405760E+03  0.00000000000E+00 0.  1.
         25    1    1    2    0    0  0.27873638269E+03 -0.19985629707E+02 -0.26997339419E+03  0.40817156932E+03  0.12500000000E+03 0.  0.
         25    1    1    2    0    0 -0.27873638269E+03  0.19985629707E+02 -0.27936507523E+02  0.30740664417E+03  0.12500000000E+03 0.  0.
</event>
<event>
 4    0  0.2244970E-002  0.2110399E+03  0.7546771E-02  0.1140745E+00
         21   -1    0    0  502  501  0.00000000000E+00  0.00000000000E+00  0.58654771665E+02  0.58654771665E+02  0.00000000000E+00 0.  1.
         21   -1    0    0  501  502 -0.00000000000E+00 -0.00000000000E+00 -0.75932164249E+03  0.75932164249E+03  0.00000000000E+00 0.  1.
         25    1    1    2    0    0  0.20590794382E+02  0.11050408528E+03 -0.10307973844E+03  0.19719423459E+03  0.12500000000E+03 0.  0.
         25    1    1    2    0    0 -0.20590794382E+02 -0.11050408528E+03 -0.59758713238E+03  0.62078217957E+03  0.12500000000E+03 0.  0.
</event>
<event>
 4    0  0.2244970E-002  0.2365748E+03  0.7546771E-02  0.1122096E+00
         21   -1    0    0  502  501  0.00000000000E+00  0.00000000000E+00  0.51959806514E+02  0.51959806514E+02  0.00000000000E+00 0.  1.
         21   -1    0    0  501  502 -0.00000000000E+00 -0.00000000000E+00 -0.10771336039E+04  0.10771336039E+04  0.00000000000E+00 0.  1.
         25    1    1    2    0    0 -0.67505166355E+02  0.16643955817E+03 -0.72713920517E+03  0.75935202489E+03  0.12500000000E+03 0.  0.
         25    1    1    2    0    0  0.67505166355E+02 -0.16643955817E+03 -0.29803459220E+03  0.36974138551E+03  0.12500000000E+03 0.  0.
</event>
<event>
 4    0  0.2244970E-002  0.1918192E+03  0.7546771E-02  0.1156831E+00
         21   -1    0    0  502  501  0.00000000000E+00  0.00000000000E+00  0.11035655625E+03  0.11035655625E+03  0.00000000000E+00 0. -1.
         21   -1    0    0  501  502 -0.00000000000E+00 -0.00000000000E+00 -0.33341563558E+03  0.33341563558E+03  0.00000000000E+00 0. -1.
         25    1    1    2    0    0  0.86620754703E+02  0.11576515908E+03 -0.92703549861E+02  0.21242333996E+03  0.12500000000E+03 0.  0.
         25    1    1    2    0    0 -0.86620754703E+02 -0.11576515908E+03 -0.13035552947E+03  0.23134885188E+03  0.12500000000E+03 0.  0.
</event>
<event>
 4    0  0.2244970E-002  0.2588806E+03  0.7546771E-02  0.1107818E+00
         21   -1    0    0  502  501  0.00000000000E+00  0.00000000000E+00  0.20049738177E+02  0.20049738177E+02  0.00000000000E+00 0.  1.
         21   -1    0    0  501  502 -0.00000000000E+00 -0.00000000000E+00 -0.33426464167E+04  0.33426464167E+04  0.00000000000E+00 0.  1.
         25    1    1    2    0    0  0.21776481626E+03  0.53770003027E+02 -0.18748793790E+04  0.18923822062E+04  0.12500000000E+03 0.  0.
         25    1    1    2    0    0 -0.21776481626E+03 -0.53770003027E+02 -0.14477172995E+04  0.14703139487E+04  0.12500000000E+03 0.  0.
</event>
<event>
 4    0  0.2244970E-002  0.2750452E+03  0.7546771E-02  0.1098426E+00
         21   -1    0    0  502  501  0.00000000000E+00  0.00000000000E+00  0.49605046050E+03  0.49605046050E+03  0.00000000000E+00 0. -1.
         21   -1    0    0  501  502 -0.00000000000E+00 -0.00000000000E+00 -0.15250437385E+03  0.15250437385E+03  0.00000000000E+00 0. -1.
         25    1    1    2    0    0  0.11484372496E+02 -0.21102705056E+03  0.25650869926E+02  0.24687501697E+03  0.12500000000E+03 0.  0.
         25    1    1    2    0    0 -0.11484372496E+02  0.21102705056E+03  0.31789521672E+03  0.40167981738E+03  0.12500000000E+03 0.  0.
</event>
<event>
 4    0  0.2244970E-002  0.1771448E+03  0.7546771E-02  0.1170595E+00
         21   -1    0    0  502  501  0.00000000000E+00  0.00000000000E+00  0.15073412837E+03  0.15073412837E+03  0.00000000000E+00 0.  1.
         21   -1    0    0  501  502 -0.00000000000E+00 -0.00000000000E+00 -0.20818291333E+03  0.20818291333E+03  0.00000000000E+00 0.  1.
         25    1    1    2    0    0  0.87821123116E+02 -0.55600989387E+02 -0.10000857716E+03  0.19086837138E+03  0.12500000000E+03 0.  0.
         25    1    1    2    0    0 -0.87821123116E+02  0.55600989387E+02  0.42559792194E+02  0.16804867032E+03  0.12500000000E+03 0.  0.
</event>
<event>
 4    0  0.2244970E-002  0.2209370E+03  0.7546771E-02  0.1133186E+00
         21   -1    0    0  502  501  0.00000000000E+00  0.00000000000E+00  0.12561956716E+03  0.12561956716E+03  0.00000000000E+00 0.  1.
         21   -1    0    0  501  502 -0.00000000000E+00 -0.00000000000E+00 -0.38857914213E+03  0.38857914213E+03  0.00000000000E+00 0.  1.
         25    1    1    2    0    0  0.29475063866E+01  0.38730414543E+02  0.75639787230E+02  0.15117906673E+03  0.12500000000E+03 0.  0.
         25    1    1    2    0    0 -0.29475063866E+01 -0.38730414543E+02 -0.33859936220E+03  0.36301964256E+03  0.12500000000E+03 0.  0.
</event>
<event>
 4    0  0.2244970E-002  0.2162122E+03  0.7546771E-02  0.1136739E+00
         21   -1    0    0  502  501  0.00000000000E+00  0.00000000000E+00  0.15616962193E+04  0.15616962193E+04  0.00000000000E+00 0. -1.
         21   -1    0    0  501  502 -0.00000000000E+00 -0.00000000000E+00 -0.29933930311E+02  0.29933930311E+02  0.00000000000E+00 0. -1.
         25    1    1    2    0    0 -0.36847582545E+02  0.16955812640E+03  0.88314541934E+03  0.90866855029E+03  0.12500000000E+03 0.  0.
         25    1    1    2    0    0  0.36847582545E+02 -0.16955812640E+03  0.64861686967E+03  0.68296159935E+03  0.12500000000E+03 0.  0.
</event>
<event>
 4    0  0.2244970E-002  0.2216868E+03  0.7546771E-02  0.1132632E+00
         21   -1    0    0  502  501  0.00000000000E+00  0.00000000000E+00  0.97516659416E+02  0.97516659416E+02  0.00000000000E+00 0.  1.
         21   -1    0    0  501  502 -0.00000000000E+00 -0.00000000000E+00 -0.50396575225E+03  0.50396575225E+03  0.00000000000E+00 0.  1.
         25    1    1    2    0    0  0.78110354334E+02  0.15436901161E+03 -0.28449674528E+03  0.35566053657E+03  0.12500000000E+03 0.  0.
         25    1    1    2    0    0 -0.78110354334E+02 -0.15436901161E+03 -0.12195234756E+03  0.24582187509E+03  0.12500000000E+03 0.  0.
</event>
<event>
 4    0  0.2244970E-002  0.2124097E+03  0.7546771E-02  0.1139672E+00
         21   -1    0    0  502  501  0.00000000000E+00  0.00000000000E+00  0.60330154974E+02  0.60330154974E+02  0.00000000000E+00 0. -1.
         21   -1    0    0  501  502 -0.00000000000E+00 -0.00000000000E+00 -0.74784959919E+03  0.74784959919E+03  0.00000000000E+00 0. -1.
         25    1    1    2    0    0  0.16752516047E+03  0.37779333048E+02 -0.34193022157E+03  0.40253351887E+03  0.12500000000E+03 0.  0.
         25    1    1    2    0    0 -0.16752516047E+03 -0.37779333048E+02 -0.34558922265E+03  0.40564623529E+03  0.12500000000E+03 0.  0.
</event>
<event>
 4    0  0.2244970E-002  0.1848972E+03  0.7546771E-02  0.1163146E+00
         21   -1    0    0  502  501  0.00000000000E+00  0.00000000000E+00  0.13090953442E+03  0.13090953442E+03  0.00000000000E+00 0. -1.
         21   -1    0    0  501  502 -0.00000000000E+00 -0.00000000000E+00 -0.26114975365E+03  0.26114975365E+03  0.00000000000E+00 0. -1.
         25    1    1    2    0    0 -0.25694212017E+02  0.82684924887E+02 -0.17664378570E+03  0.23307727551E+03  0.12500000000E+03 0.  0.
         25    1    1    2    0    0  0.25694212017E+02 -0.82684924887E+02  0.46403566473E+02  0.15898201256E+03  0.12500000000E+03 0.  0.
</event>
<event>
 4    0  0.2244970E-002  0.2165947E+03  0.7546771E-02  0.1136448E+00
         21   -1    0    0  502  501  0.00000000000E+00  0.00000000000E+00  0.10487980892E+03  0.10487980892E+03  0.00000000000E+00 0.  1.
         21   -1    0    0  501  502 -0.00000000000E+00 -0.00000000000E+00 -0.44730493268E+03  0.44730493268E+03  0.00000000000E+00 0.  1.
         25    1    1    2    0    0  0.10419517522E+03 -0.14193034578E+03 -0.19282225981E+03  0.28949314581E+03  0.12500000000E+03 0.  0.
         25    1    1    2    0    0 -0.10419517522E+03  0.14193034578E+03 -0.14960286395E+03  0.26269159578E+03  0.12500000000E+03 0.  0.
</event>
<event>
 4    0  0.2244970E-002  0.2719727E+03  0.7546771E-02  0.1100156E+00
         21   -1    0    0  502  501  0.00000000000E+00  0.00000000000E+00  0.55304535675E+03  0.55304535675E+03  0.00000000000E+00 0.  1.
         21   -1    0    0  501  502 -0.00000000000E+00 -0.00000000000E+00 -0.13374875051E+03  0.13374875051E+03  0.00000000000E+00 0.  1.
         25    1    1    2    0    0  0.18460727811E+03  0.10740224044E+03  0.35210048253E+03  0.43036593520E+03  0.12500000000E+03 0.  0.
         25    1    1    2    0    0 -0.18460727811E+03 -0.10740224044E+03  0.67196123719E+02  0.25642817206E+03  0.12500000000E+03 0.  0.
</event>
<event>
 4    0  0.2244970E-002  0.2461328E+03  0.7546771E-02  0.1115773E+00
         21   -1    0    0  502  501  0.00000000000E+00  0.00000000000E+00  0.75142273268E+02  0.75142273268E+02  0.00000000000E+00 0. -1.
         21   -1    0    0  501  502 -0.00000000000E+00 -0.00000000000E+00 -0.80622206717E+03  0.80622206717E+03  0.00000000000E+00 0. -1.
         25    1    1    2    0    0  0.51951612447E+02  0.11934312417E+02  0.18897333591E+01  0.13590426388E+03  0.12500000000E+03 0.  0.
         25    1    1    2    0    0 -0.51951612447E+02 -0.11934312417E+02 -0.73296952726E+03  0.74546007656E+03  0.12500000000E+03 0.  0.
</event>
<event>
 4    0  0.2244970E-002  0.2816246E+03  0.7546771E-02  0.1094805E+00
         21   -1    0    0  502  501  0.00000000000E+00  0.00000000000E+00  0.81997197227E+03  0.81997197227E+03  0.00000000000E+00 0. -1.
         21   -1    0    0  501  502 -0.00000000000E+00 -0.00000000000E+00 -0.96725776468E+02  0.96725776468E+02  0.00000000000E+00 0. -1.
         25    1    1    2    0    0 -0.16521235932E+03  0.17358724000E+03  0.23285602747E+03  0.35675563498E+03  0.12500000000E+03 0.  0.
         25    1    1    2    0    0  0.16521235932E+03 -0.17358724000E+03  0.49039016833E+03  0.55994211375E+03  0.12500000000E+03 0.  0.
</event>
<event>
 4    0  0.2244970E-002  0.2297660E+03  0.7546771E-02  0.1126805E+00
         21   -1    0    0  502  501  0.00000000000E+00  0.00000000000E+00  0.52384731283E+02  0.52384731283E+02  0.00000000000E+00 0. -1.
         21   -1    0    0  501  502 -0.00000000000E+00 -0.00000000000E+00 -0.10077823212E+04  0.10077823212E+04  0.00000000000E+00 0. -1.
         25    1    1    2    0    0 -0.89181442551E+02  0.11397172291E+03 -0.77156154952E+03  0.79490572272E+03  0.12500000000E+03 0.  0.
         25    1    1    2    0    0  0.89181442551E+02 -0.11397172291E+03 -0.18383604041E+03  0.26526132977E+03  0.12500000000E+03 0.  0.
</event>
<event>
 4    0  0.2244970E-002  0.1643772E+03  0.7546771E-02  0.1183842E+00
         21   -1    0    0  502  501  0.00000000000E+00  0.00000000000E+00  0.10434358426E+04  0.10434358426E+04  0.00000000000E+00 0.  1.
         21   -1    0    0  501  502 -0.00000000000E+00 -0.00000000000E+00 -0.25895097376E+02  0.25895097376E+02  0.00000000000E+00 0.  1.
         25    1    1    2    0    0  0.59001879806E+02  0.87705192997E+02  0.46036669284E+03  0.48860609347E+03  0.12500000000E+03 0.  0.
         25    1    1    2    0    0 -0.59001879806E+02 -0.87705192997E+02  0.55717405237E+03  0.58072484649E+03  0.12500000000E+03 0.  0.
</event>
<event>
 4    0  0.2244970E-002  0.2312703E+03  0.7546771E-02  0.1125749E+00
         21   -1    0    0  502  501  0.00000000000E+00  0.00000000000E+00  0.39746087148E+03  0.39746087148E+03  0.00000000000E+00 0. -1.
         21   -1    0    0  501  502 -0.00000000000E+00 -0.00000000000E+00 -0.13456907256E+03  0.13456907256E+03  0.00000000000E+00 0. -1.
         25    1    1    2    0    0 -0.15933369799E+03 -0.62777738846E+02  0.23769584380E+03  0.31851622559E+03  0.12500000000E+03 0.  0.
         25    1    1    2    0    0  0.15933369799E+03  0.62777738846E+02  0.25195955133E+02  0.21351371844E+03  0.12500000000E+03 0.  0.
</event>
<event>
 4    0  0.2244970E-002  0.2181134E+03  0.7546771E-02  0.1135297E+00
         21   -1    0    0  502  501  0.00000000000E+00  0.00000000000E+00  0.11854049966E+03  0.11854049966E+03  0.00000000000E+00 0.  1.
         21   -1    0    0  501  502 -0.00000000000E+00 -0.00000000000E+00 -0.40132657204E+03  0.40132657204E+03  0.00000000000E+00 0.  1.
         25    1    1    2    0    0 -0.12792876897E+03 -0.47359184432E+02 -0.27903614655E+03  0.33480566506E+03  0.12500000000E+03 0.  0.
         25    1    1    2    0    0  0.12792876897E+03  0.47359184432E+02 -0.37499258327E+01  0.18506140663E+03  0.12500000000E+03 0.  0.
</event>
<event>
 4    0  0.2244970E-002  0.1878301E+03  0.7546771E-02  0.1160433E+00
         21   -1    0    0  502  501  0.00000000000E+00  0.00000000000E+00  0.39566789761E+02  0.39566789761E+02  0.00000000000E+00 0.  1.
         21   -1    0    0  501  502 -0.00000000000E+00 -0.00000000000E+00 -0.89166079582E+03  0.89166079582E+03  0.00000000000E+00 0.  1.
         25    1    1    2    0    0  0.81144227852E+02 -0.10688655092E+01 -0.14265199842E+03  0.20630104421E+03  0.12500000000E+03 0.  0.
         25    1    1    2    0    0 -0.81144227852E+02  0.10688655092E+01 -0.70944200764E+03  0.72492654137E+03  0.12500000000E+03 0.  0.
</event>
<event>
 4    0  0.2244970E-002  0.2494716E+03  0.7546771E-02  0.1113639E+00
         21   -1    0    0  502  501  0.00000000000E+00  0.00000000000E+00  0.34355652837E+03  0.34355652837E+03  0.00000000000E+00 0. -1.
         21   -1    0    0  501  502 -0.00000000000E+00 -0.00000000000E+00 -0.18115242579E+03  0.18115242579E+03  0.00000000000E+00 0. -1.
         25    1    1    2    0    0  0.14482847996E+03  0.46724582518E+02 -0.79848795982E+02  0.21250718915E+03  0.12500000000E+03 0.  0.
         25    1    1    2    0    0 -0.14482847996E+03 -0.46724582518E+02  0.24225289856E+03  0.31220176502E+03  0.12500000000E+03 0.  0.
</event>
<event>
 4    0  0.2244970E-002  0.1509728E+03  0.7546771E-02  0.1199283E+00
         21   -1    0    0  502  501  0.00000000000E+00  0.00000000000E+00  0.20025782878E+03  0.20025782878E+03  0.00000000000E+00 0.  1.
         21   -1    0    0  501  502 -0.00000000000E+00 -0.00000000000E+00 -0.11381726455E+03  0.11381726455E+03  0.00000000000E+00 0.  1.
         25    1    1    2    0    0  0.47235034229E+02 -0.70117711431E+02  0.47890216229E+02  0.15832281808E+03  0.12500000000E+03 0.  0.
         25    1    1    2    0    0 -0.47235034229E+02  0.70117711431E+02  0.38550347995E+02  0.15575227525E+03  0.12500000000E+03 0.  0.
</event>
<event>
 4    0  0.2244970E-002  0.1886512E+03  0.7546771E-02  0.1159683E+00
         21   -1    0    0  502  501  0.00000000000E+00  0.00000000000E+00  0.64554255665E+02  0.64554255665E+02  0.00000000000E+00 0. -1.
         21   -1    0    0  501  502 -0.00000000000E+00 -0.00000000000E+00 -0.55130816816E+03  0.55130816816E+03  0.00000000000E+00 0. -1.
         25    1    1    2    0    0 -0.80534373511E+01  0.13900701103E+03 -0.20418592112E+03  0.27695612893E+03  0.12500000000E+03 0.  0.
         25    1    1    2    0    0  0.80534373511E+01 -0.13900701103E+03 -0.28256799138E+03  0.33890629490E+03  0.12500000000E+03 0.  0.
</event>
<event>
 4    0  0.2244970E-002  0.1887205E+03  0.7546771E-02  0.1159620E+00
         21   -1    0    0  502  501  0.00000000000E+00  0.00000000000E+00  0.75611417024E+03  0.75611417024E+03  0.00000000000E+00 0. -1.
         21   -1    0    0  501  502 -0.00000000000E+00 -0.00000000000E+00 -0.47103249211E+02  0.47103249211E+02  0.00000000000E+00 0. -1.
         25    1    1    2    0    0 -0.11936822724E+03  0.55181338118E+01  0.19368248497E+03  0.25964808580E+03  0.12500000000E+03 0.  0.
         25    1    1    2    0    0  0.11936822724E+03 -0.55181338118E+01  0.51532843606E+03  0.54356933365E+03  0.12500000000E+03 0.  0.
</event>
<event>
 4    0  0.2244970E-002  0.1907313E+03  0.7546771E-02  0.1157803E+00
         21   -1    0    0  502  501  0.00000000000E+00  0.00000000000E+00  0.68170500741E+03  0.68170500741E+03  0.00000000000E+00 0. -1.
         21   -1    0    0  501  502 -0.00000000000E+00 -0.00000000000E+00 -0.53363895179E+02  0.53363895179E+02  0.00000000000E+00 0. -1.
         25    1    1    2    0    0 -0.83750545115E+02  0.60976242884E+02  0.50707198800E+03  0.53242770121E+03  0.12500000000E+03 0.  0.
         25    1    1    2    0    0  0.83750545115E+02 -0.60976242884E+02  0.12126912423E+03  0.20264120137E+03  0.12500000000E+03 0.  0.
</event>
<event>
 4    0  0.2244970E-002  0.2104603E+03  0.7546771E-02  0.1141202E+00
         21   -1    0    0  502  501  0.00000000000E+00  0.00000000000E+00  0.55835839582E+03  0.55835839582E+03  0.00000000000E+00 0.  1.
         21   -1    0    0  501  502 -0.00000000000E+00 -0.00000000000E+00 -0.79328133579E+02  0.79328133579E+02  0.00000000000E+00 0.  1.
         25    1    1    2    0    0 -0.18022333320E+02 -0.78687329195E+02  0.46499816034E+03  0.48822616623E+03  0.12500000000E+03 0.  0.
         25    1    1    2    0    0  0.18022333320E+02  0.78687329195E+02  0.14032101899E+02  0.14946036317E+03  0.12500000000E+03 0.  0.
</event>
<event>
 4    0  0.2244970E-002  0.1914139E+03  0.7546771E-02  0.1157192E+00
         21   -1    0    0  502  501  0.00000000000E+00  0.00000000000E+00  0.63291313715E+02  0.63291313715E+02  0.00000000000E+00 0.  1.
         21   -1    0    0  501  502 -0.00000000000E+00 -0.00000000000E+00 -0.57889902220E+03  0.57889902220E+03  0.00000000000E+00 0.  1.
         25    1    1    2    0    0 -0.10466966119E+03 -0.99107275882E+02 -0.28358976846E+03  0.34179840093E+03  0.12500000000E+03 0.  0.
         25    1    1    2    0    0  0.10466966119E+03  0.99107275882E+02 -0.23201794002E+03  0.30039193498E+03  0.12500000000E+03 0.  0.
</event>
<event>
 4    0  0.2244970E-002  0.3173784E+03  0.7546771E-02  0.1076862E+00
         21   -1    0    0  502  501  0.00000000000E+00  0.00000000000E+00  0.11350821986E+03  0.11350821986E+03  0.00000000000E+00 0. -1.
         21   -1    0    0  501  502 -0.00000000000E+00 -0.00000000000E+00 -0.88741635295E+03  0.88741635295E+03  0.00000000000E+00 0. -1.
         25    1    1    2    0    0  0.24593838699E+03 -0.51085116902E+02 -0.15302138659E+03  0.31958711507E+03  0.12500000000E+03 0.  0.
         25    1    1    2    0    0 -0.24593838699E+03  0.51085116902E+02 -0.62088674649E+03  0.68133745775E+03  0.12500000000E+03 0.  0.
</event>
<event>
 4    0  0.2244970E-002  0.1480696E+03  0.7546771E-02  0.1202865E+00
         21   -1    0    0  502  501  0.00000000000E+00  0.00000000000E+00  0.69222455302E+03  0.69222455302E+03  0.00000000000E+00 0. -1.
         21   -1    0    0  501  502 -0.00000000000E+00 -0.00000000000E+00 -0.31672665155E+02  0.31672665155E+02  0.00000000000E+00 0. -1.
         25    1    1    2    0    0 -0.55095023896E+02 -0.30354218008E+02  0.21195962154E+03  0.25398567159E+03  0.12500000000E+03 0.  0.
         25    1    1    2    0    0  0.55095023896E+02  0.30354218008E+02  0.44859226632E+03  0.46991154659E+03  0.12500000000E+03 0.  0.
</event>
<event>
 4    0  0.2244970E-002  0.2118900E+03  0.7546771E-02  0.1140078E+00
         21   -1    0    0  502  501  0.00000000000E+00  0.00000000000E+00  0.37104255682E+03  0.37104255682E+03  0.00000000000E+00 0. -1.
         21   -1    0    0  501  502 -0.00000000000E+00 -0.00000000000E+00 -0.12100326099E+03  0.12100326099E+03  0.00000000000E+00 0. -1.
         25    1    1    2    0    0 -0.12469095534E+03 -0.21591125647E+02 -0.86737193297E+01  0.17808493607E+03  0.12500000000E+03 0.  0.
         25    1    1    2    0    0  0.12469095534E+03  0.21591125647E+02  0.25871301516E+03  0.31396088174E+03  0.12500000000E+03 0.  0.
</event>
<event>
 4    0  0.2244970E-002  0.2615970E+03  0.7546771E-02  0.1106188E+00
         21   -1    0    0  502  501  0.00000000000E+00  0.00000000000E+00  0.35557642438E+03  0.35557642438E+03  0.00000000000E+00 0.  1.
         21   -1    0    0  501  502 -0.00000000000E+00 -0.00000000000E+00 -0.19245649347E+03  0.19245649347E+03  0.00000000000E+00 0.  1.
         25    1    1    2    0    0  0.12959389931E+02 -0.22697756244E+03  0.46485451718E+02  0.26357666221E+03  0.12500000000E+03 0.  0.
         25    1    1    2    0    0 -0.12959389931E+02  0.22697756244E+03  0.11663447919E+03  0.28445625565E+03  0.12500000000E+03 0.  0.
</event>
<event>
 4    0  0.2244970E-002  0.2502305E+03  0.7546771E-02  0.1113159E+00
         21   -1    0    0  502  501  0.00000000000E+00  0.00000000000E+00  0.78918029052E+02  0.78918029052E+02  0.00000000000E+00 0.  1.
         21   -1    0    0  501  502 -0.00000000000E+00 -0.00000000000E+00 -0.79342234936E+03  0.79342234936E+03  0.00000000000E+00 0.  1.
         25    1    1    2    0    0  0.35039449248E+02  0.87173751932E+02 -0.69776902143E+03  0.71507596331E+03  0.12500000000E+03 0.  0.
         25    1    1    2    0    0 -0.35039449248E+02 -0.87173751932E+02 -0.16735298876E+02  0.15726441510E+03  0.12500000000E+03 0.  0.
</event>
<event>
 4    0  0.2244970E-002  0.3162984E+03  0.7546771E-02  0.1077366E+00
         21   -1    0    0  502  501  0.00000000000E+00  0.00000000000E+00  0.30027455884E+03  0.30027455884E+03  0.00000000000E+00 0.  1.
         21   -1    0    0  501  502 -0.00000000000E+00 -0.00000000000E+00 -0.33317725703E+03  0.33317725703E+03  0.00000000000E+00 0.  1.
         25    1    1    2    0    0 -0.24794246825E+03 -0.18328299058E+02 -0.16701502665E+03  0.32454647315E+03  0.12500000000E+03 0.  0.
         25    1    1    2    0    0  0.24794246825E+03  0.18328299058E+02  0.13411232846E+03  0.30890534271E+03  0.12500000000E+03 0.  0.
</event>
<event>
 4    0  0.2244970E-002  0.1734421E+03  0.7546771E-02  0.1174305E+00
         21   -1    0    0  502  501  0.00000000000E+00  0.00000000000E+00  0.19791817442E+03  0.19791817442E+03  0.00000000000E+00 0.  1.
         21   -1    0    0  501  502 -0.00000000000E+00 -0.00000000000E+00 -0.15199289283E+03  0.15199289283E+03  0.00000000000E+00 0.  1.
         25    1    1    2    0    0  0.65132973905E+02 -0.93182768853E+02 -0.16517393577E+02  0.16977384072E+03  0.12500000000E+03 0.  0.
         25    1    1    2    0    0 -0.65132973905E+02  0.93182768853E+02  0.62442675175E+02  0.18013722654E+03  0.12500000000E+03 0.  0.
</event>
<event>
 4    0  0.2244970E-002  0.3541302E+03  0.7546771E-02  0.1060933E+00
         21   -1    0    0  502  501  0.00000000000E+00  0.00000000000E+00  0.92974437196E+02  0.92974437196E+02  0.00000000000E+00 0. -1.
         21   -1    0    0  501  502 -0.00000000000E+00 -0.00000000000E+00 -0.13488458605E+04  0.13488458605E+04  0.00000000000E+00 0. -1.
         25    1    1    2    0    0 -0.95923681003E+02 -0.28873732219E+03 -0.36085573932E+03  0.48827498237E+03  0.12500000000E+03 0.  0.
         25    1    1    2    0    0  0.95923681003E+02  0.28873732219E+03 -0.89501568394E+03  0.95354531528E+03  0.12500000000E+03 0.  0.
</event>
<event>
 4    0  0.2244970E-002  0.1962936E+03  0.7546771E-02  0.1152904E+00
         21   -1    0    0  502  501  0.00000000000E+00  0.00000000000E+00  0.17910163125E+03  0.17910163125E+03  0.00000000000E+00 0. -1.
         21   -1    0    0  501  502 -0.00000000000E+00 -0.00000000000E+00 -0.21513586066E+03  0.21513586066E+03  0.00000000000E+00 0. -1.
         25    1    1    2    0    0 -0.13534561519E+03 -0.90617476048E+00 -0.86028662936E+02  0.20333516064E+03  0.12500000000E+03 0.  0.
         25    1    1    2    0    0  0.13534561519E+03  0.90617476048E+00  0.49994433528E+02  0.19090233128E+03  0.12500000000E+03 0.  0.
</event>
<event>
 4    0  0.2244970E-002  0.2244008E+03  0.7546771E-02  0.1130644E+00
         21   -1    0    0  502  501  0.00000000000E+00  0.00000000000E+00  0.95024348250E+02  0.95024348250E+02  0.00000000000E+00 0. -1.
         21   -1    0    0  501  502 -0.00000000000E+00 -0.00000000000E+00 -0.52992435951E+03  0.52992435951E+03  0.00000000000E+00 0. -1.
         25    1    1    2    0    0  0.45602020683E+02 -0.17776290403E+03 -0.26260432303E+03  0.34389711371E+03  0.12500000000E+03 0.  0.
         25    1    1    2    0    0 -0.45602020683E+02  0.17776290403E+03 -0.17229568823E+03  0.28105159406E+03  0.12500000000E+03 0.  0.
</event>
<event>
 4    0  0.2244970E-002  0.1855995E+03  0.7546771E-02  0.1162491E+00
         21   -1    0    0  502  501  0.00000000000E+00  0.00000000000E+00  0.13218130371E+03  0.13218130371E+03  0.00000000000E+00 0. -1.
         21   -1    0    0  501  502 -0.00000000000E+00 -0.00000000000E+00 -0.26060558732E+03  0.26060558732E+03  0.00000000000E+00 0. -1.
         25    1    1    2    0    0 -0.72811815713E+02 -0.46411327770E+02  0.48602554051E+02  0.15950793119E+03  0.12500000000E+03 0.  0.
         25    1    1    2    0    0  0.72811815713E+02  0.46411327770E+02 -0.17702683766E+03  0.23327895984E+03  0.12500000000E+03 0.  0.
</event>
<event>
 4    0  0.2244970E-002  0.2276319E+03  0.7546771E-02  0.1128318E+00
         21   -1    0    0  502  501  0.00000000000E+00  0.00000000000E+00  0.73250723181E+03  0.73250723181E+03  0.00000000000E+00 0.  1.
         21   -1    0    0  501  502 -0.00000000000E+00 -0.00000000000E+00 -0.70738232046E+02  0.70738232046E+02  0.00000000000E+00 0.  1.
         25    1    1    2    0    0 -0.10926456873E+02 -0.18887760309E+03  0.29572427486E+03  0.37265531414E+03  0.12500000000E+03 0.  0.
         25    1    1    2    0    0  0.10926456873E+02  0.18887760309E+03  0.36604472490E+03  0.43059014972E+03  0.12500000000E+03 0.  0.
</event>
<event>
 4    0  0.2244970E-002  0.2076555E+03  0.7546771E-02  0.1143436E+00
         21   -1    0    0  502  501  0.00000000000E+00  0.00000000000E+00  0.43261949157E+03  0.43261949157E+03  0.00000000000E+00 0. -1.
         21   -1    0    0  501  502 -0.00000000000E+00 -0.00000000000E+00 -0.99673726739E+02  0.99673726739E+02  0.00000000000E+00 0. -1.
         25    1    1    2    0    0  0.12438155152E+03  0.96032016268E+02  0.98618221876E+02  0.22370398341E+03  0.12500000000E+03 0.  0.
         25    1    1    2    0    0 -0.12438155152E+03 -0.96032016268E+02  0.23432754295E+03  0.30858923490E+03  0.12500000000E+03 0.  0.
</event>
<event>
 4    0  0.2244970E-002  0.2605163E+03  0.7546771E-02  0.1106833E+00
         21   -1    0    0  502  501  0.00000000000E+00  0.00000000000E+00  0.38258713029E+03  0.38258713029E+03  0.00000000000E+00 0.  1.
         21   -1    0    0  501  502 -0.00000000000E+00 -0.00000000000E+00 -0.17739415699E+03  0.17739415699E+03  0.00000000000E+00 0.  1.
         25    1    1    2    0    0 -0.32765357359E+02 -0.79077384640E+02  0.33037548012E+03  0.36345530574E+03  0.12500000000E+03 0.  0.
         25    1    1    2    0    0  0.32765357359E+02  0.79077384640E+02 -0.12518250683E+03  0.19652598154E+03  0.12500000000E+03 0.  0.
</event>
<event>
 4    0  0.2244970E-002  0.2524884E+03  0.7546771E-02  0.1111742E+00
         21   -1    0    0  502  501  0.00000000000E+00  0.00000000000E+00  0.88864512224E+02  0.88864512224E+02  0.00000000000E+00 0. -1.
         21   -1    0    0  501  502 -0.00000000000E+00 -0.00000000000E+00 -0.71738886478E+03  0.71738886478E+03  0.00000000000E+00 0. -1.
         25    1    1    2    0    0 -0.19059534597E+03  0.68060649437E+02 -0.44942455877E+03  0.50849412183E+03  0.12500000000E+03 0.  0.
         25    1    1    2    0    0  0.19059534597E+03 -0.68060649437E+02 -0.17909979378E+03  0.29775925517E+03  0.12500000000E+03 0.  0.
</event>
<event>
 4    0  0.2244970E-002  0.3906825E+03  0.7546771E-02  0.1047055E+00
         21   -1    0    0  502  501  0.00000000000E+00  0.00000000000E+00  0.27321206495E+03  0.27321206495E+03  0.00000000000E+00 0.  1.
         21   -1    0    0  501  502 -0.00000000000E+00 -0.00000000000E+00 -0.55866058516E+03  0.55866058516E+03  0.00000000000E+00 0.  1.
         25    1    1    2    0    0  0.32849217225E+03  0.54041480547E+02  0.29537773610E+02  0.35682638484E+03  0.12500000000E+03 0.  0.
         25    1    1    2    0    0 -0.32849217225E+03 -0.54041480547E+02 -0.31498629382E+03  0.47504626527E+03  0.12500000000E+03 0.  0.
</event>
<event>
 4    0  0.2244970E-002  0.2215194E+03  0.7546771E-02  0.1132755E+00
         21   -1    0    0  502  501  0.00000000000E+00  0.00000000000E+00  0.48050981329E+02  0.48050981329E+02  0.00000000000E+00 0.  1.
         21   -1    0    0  501  502 -0.00000000000E+00 -0.00000000000E+00 -0.10212248630E+04  0.10212248630E+04  0.00000000000E+00 0.  1.
         25    1    1    2    0    0 -0.92172450416E+02 -0.15779408821E+03 -0.46933048569E+03  0.51893240378E+03  0.12500000000E+03 0.  0.
         25    1    1    2    0    0  0.92172450416E+02  0.15779408821E+03 -0.50384339598E+03  0.55034344055E+03  0.12500000000E+03 0.  0.
</event>
<event>
 4    0  0.2244970E-002  0.2331272E+03  0.7546771E-02  0.1124458E+00
         21   -1    0    0  502  501  0.00000000000E+00  0.00000000000E+00  0.53464093403E+02  0.53464093403E+02  0.00000000000E+00 0. -1.
         21   -1    0    0  501  502 -0.00000000000E+00 -0.00000000000E+00 -0.10165381295E+04  0.10165381295E+04  0.00000000000E+00 0. -1.
         25    1    1    2    0    0  0.13431075649E+03  0.14347665805E+03 -0.50429681196E+03  0.55548645823E+03  0.12500000000E+03 0.  0.
         25    1    1    2    0    0 -0.13431075649E+03 -0.14347665805E+03 -0.45877722412E+03  0.51451576466E+03  0.12500000000E+03 0.  0.
</event>
<event>
 4    0  0.2244970E-002  0.2225740E+03  0.7546771E-02  0.1131978E+00
         21   -1    0    0  502  501  0.00000000000E+00  0.00000000000E+00  0.53336687606E+03  0.53336687606E+03  0.00000000000E+00 0.  1.
         21   -1    0    0  501  502 -0.00000000000E+00 -0.00000000000E+00 -0.92880137077E+02  0.92880137077E+02  0.00000000000E+00 0.  1.
         25    1    1    2    0    0  0.18279239607E+03  0.99900995924E+00  0.18878161858E+03  0.29099408516E+03  0.12500000000E+03 0.  0.
         25    1    1    2    0    0 -0.18279239607E+03 -0.99900995924E+00  0.25170512040E+03  0.33525292798E+03  0.12500000000E+03 0.  0.
</event>
<event>
 4    0  0.2244970E-002  0.2233673E+03  0.7546771E-02  0.1131397E+00
         21   -1    0    0  502  501  0.00000000000E+00  0.00000000000E+00  0.19688743293E+03  0.19688743293E+03  0.00000000000E+00 0.  1.
         21   -1    0    0  501  502 -0.00000000000E+00 -0.00000000000E+00 -0.25340849483E+03  0.25340849483E+03  0.00000000000E+00 0.  1.
         25    1    1    2    0    0 -0.25738224801E+02  0.18301041965E+03 -0.38960147786E+02  0.22649097781E+03  0.12500000000E+03 0.  0.
         25    1    1    2    0    0  0.25738224801E+02 -0.18301041965E+03 -0.17560914111E+02  0.22380494994E+03  0.12500000000E+03 0.  0.
</event>
<event>
 4    0  0.2244970E-002  0.2601159E+03  0.7546771E-02  0.1107074E+00
         21   -1    0    0  502  501  0.00000000000E+00  0.00000000000E+00  0.12775269312E+04  0.12775269312E+04  0.00000000000E+00 0. -1.
         21   -1    0    0  501  502 -0.00000000000E+00 -0.00000000000E+00 -0.52961941315E+02  0.52961941315E+02  0.00000000000E+00 0. -1.
         25    1    1    2    0    0 -0.19993569263E+03  0.69995578797E+02  0.82871407961E+03  0.86444530653E+03  0.12500000000E+03 0.  0.
         25    1    1    2    0    0  0.19993569263E+03 -0.69995578797E+02  0.39585091031E+03  0.46604356602E+03  0.12500000000E+03 0.  0.
</event>
<event>
 4    0  0.2244970E-002  0.1631682E+03  0.7546771E-02  0.1185166E+00
         21   -1    0    0  502  501  0.00000000000E+00  0.00000000000E+00  0.30210085138E+03  0.30210085138E+03  0.00000000000E+00 0. -1.
         21   -1    0    0  501  502 -0.00000000000E+00 -0.00000000000E+00 -0.88129032747E+02  0.88129032747E+02  0.00000000000E+00 0. -1.
         25    1    1    2    0    0  0.94592556718E+02  0.69176249350E+01  0.53465098632E+02  0.16576827831E+03  0.12500000000E+03 0.  0.
         25    1    1    2    0    0 -0.94592556718E+02 -0.69176249350E+01  0.16050672000E+03  0.22446160582E+03  0.12500000000E+03 0.  0.
</event>
<event>
 4    0  0.2244970E-002  0.1717416E+03  0.7546771E-02  0.1176044E+00
         21   -1    0    0  502  501  0.00000000000E+00  0.00000000000E+00  0.17134588166E+03  0.17134588166E+03  0.00000000000E+00 0.  1.
         21   -1    0    0  501  502 -0.00000000000E+00 -0.00000000000E+00 -0.17213813675E+03  0.17213813675E+03  0.00000000000E+00 0.  1.
         25    1    1    2    0    0  0.10088946061E+03  0.60248305642E+02 -0.82459391460E+01  0.17176011500E+03  0.12500000000E+03 0.  0.
         25    1    1    2    0    0 -0.10088946061E+03 -0.60248305642E+02  0.74536840618E+01  0.17172390340E+03  0.12500000000E+03 0.  0.
</event>
<event>
 4    0  0.2244970E-002  0.2584253E+03  0.7546771E-02  0.1108093E+00
         21   -1    0    0  502  501  0.00000000000E+00  0.00000000000E+00  0.45685763847E+02  0.45685763847E+02  0.00000000000E+00 0. -1.
         21   -1    0    0  501  502 -0.00000000000E+00 -0.00000000000E+00 -0.14618038451E+04  0.14618038451E+04  0.00000000000E+00 0. -1.
         25    1    1    2    0    0  0.13888737055E+03 -0.16156404630E+03 -0.92953469655E+03  0.96179644148E+03  0.12500000000E+03 0.  0.
         25    1    1    2    0    0 -0.13888737055E+03  0.16156404630E+03 -0.48658338474E+03  0.54569316751E+03  0.12500000000E+03 0.  0.
</event>
<event>
 4    0  0.2244970E-002  0.1875216E+03  0.7546771E-02  0.1160716E+00
         21   -1    0    0  502  501  0.00000000000E+00  0.00000000000E+00  0.13852877410E+03  0.13852877410E+03  0.00000000000E+00 0.  1.
         21   -1    0    0  501  502 -0.00000000000E+00 -0.00000000000E+00 -0.25384155379E+03  0.25384155379E+03  0.00000000000E+00 0.  1.
         25    1    1    2    0    0  0.31839584524E+02  0.90886847949E+01  0.84422823126E+02  0.15442984297E+03  0.12500000000E+03 0.  0.
         25    1    1    2    0    0 -0.31839584524E+02 -0.90886847949E+01 -0.19973560281E+03  0.23794048492E+03  0.12500000000E+03 0.  0.
</event>
<event>
 4    0  0.2244970E-002  0.1904074E+03  0.7546771E-02  0.1158094E+00
         21   -1    0    0  502  501  0.00000000000E+00  0.00000000000E+00  0.22413194830E+03  0.22413194830E+03  0.00000000000E+00 0.  1.
         21   -1    0    0  501  502 -0.00000000000E+00 -0.00000000000E+00 -0.16175728424E+03  0.16175728424E+03  0.00000000000E+00 0.  1.
         25    1    1    2    0    0 -0.15875031870E+01 -0.10846099582E+03 -0.64214252091E+02  0.17752402078E+03  0.12500000000E+03 0.  0.
         25    1    1    2    0    0  0.15875031870E+01  0.10846099582E+03  0.12658891615E+03  0.20836521176E+03  0.12500000000E+03 0.  0.
</event>
<event>
 4    0  0.2244970E-002  0.1677615E+03  0.7546771E-02  0.1180203E+00
         21   -1    0    0  502  501  0.00000000000E+00  0.00000000000E+00  0.20112645604E+03  0.20112645604E+03  0.00000000000E+00 0.  1.
         21   -1    0    0  501  502 -0.00000000000E+00 -0.00000000000E+00 -0.13993153774E+03  0.13993153774E+03  0.00000000000E+00 0.  1.
         25    1    1    2    0    0 -0.22300088326E+02 -0.99054041088E+02 -0.17188004869E+02  0.16195500766E+03  0.12500000000E+03 0.  0.
         25    1    1    2    0    0  0.22300088326E+02  0.99054041088E+02  0.78382923169E+02  0.17910298613E+03  0.12500000000E+03 0.  0.
</event>
<event>
 4    0  0.2244970E-002  0.2308650E+03  0.7546771E-02  0.1126032E+00
         21   -1    0    0  502  501  0.00000000000E+00  0.00000000000E+00  0.27074570651E+02  0.27074570651E+02  0.00000000000E+00 0. -1.
         21   -1    0    0  501  502 -0.00000000000E+00 -0.00000000000E+00 -0.19685877910E+04  0.19685877910E+04  0.00000000000E+00 0. -1.
         25    1    1    2    0    0  0.10491797306E+03  0.83208628545E+02 -0.15780475430E+04  0.15886442349E+04  0.12500000000E+03 0.  0.
         25    1    1    2    0    0 -0.10491797306E+03 -0.83208628545E+02 -0.36346567729E+03  0.40701812675E+03  0.12500000000E+03 0.  0.
</event>
<event>
 4    0  0.2244970E-002  0.2058902E+03  0.7546771E-02  0.1144862E+00
         21   -1    0    0  502  501  0.00000000000E+00  0.00000000000E+00  0.40189587611E+03  0.40189587611E+03  0.00000000000E+00 0. -1.
         21   -1    0    0  501  502 -0.00000000000E+00 -0.00000000000E+00 -0.10547700831E+03  0.10547700831E+03  0.00000000000E+00 0. -1.
         25    1    1    2    0    0 -0.68986332627E+02  0.42465855808E+02  0.32334440015E+03  0.35600430349E+03  0.12500000000E+03 0.  0.
         25    1    1    2    0    0  0.68986332627E+02 -0.42465855808E+02 -0.26925532351E+02  0.15136858092E+03  0.12500000000E+03 0.  0.
</event>
<event>
 4    0  0.2244970E-002  0.2948098E+03  0.7546771E-02  0.1087864E+00
         21   -1    0    0  502  501  0.00000000000E+00  0.00000000000E+00  0.61158944044E+03  0.61158944044E+03  0.00000000000E+00 0.  1.
         21   -1    0    0  501  502 -0.00000000000E+00 -0.00000000000E+00 -0.14210970031E+03  0.14210970031E+03  0.00000000000E+00 0.  1.
         25    1    1    2    0    0  0.16353559987E+03  0.16349782066E+03  0.64136764085E+02  0.27058077222E+03  0.12500000000E+03 0.  0.
         25    1    1    2    0    0 -0.16353559987E+03 -0.16349782066E+03  0.40534297605E+03  0.48311836854E+03  0.12500000000E+03 0.  0.
</event>
<event>
 4    0  0.2244970E-002  0.3202541E+03  0.7546771E-02  0.1075532E+00
         21   -1    0    0  502  501  0.00000000000E+00  0.00000000000E+00  0.15489753074E+04  0.15489753074E+04  0.00000000000E+00 0.  1.
         21   -1    0    0  501  502 -0.00000000000E+00 -0.00000000000E+00 -0.66213253893E+02  0.66213253893E+02  0.00000000000E+00 0.  1.
         25    1    1    2    0    0  0.10338065323E+03  0.18252681395E+03  0.21886490624E+03  0.32791835029E+03  0.12500000000E+03 0.  0.
         25    1    1    2    0    0 -0.10338065323E+03 -0.18252681395E+03  0.12638971472E+04  0.12872702110E+04  0.12500000000E+03 0.  0.
</event>
<event>
 4    0  0.2244970E-002  0.1959463E+03  0.7546771E-02  0.1153205E+00
         21   -1    0    0  502  501  0.00000000000E+00  0.00000000000E+00  0.19038912572E+03  0.19038912572E+03  0.00000000000E+00 0.  1.
         21   -1    0    0  501  502 -0.00000000000E+00 -0.00000000000E+00 -0.20166558432E+03  0.20166558432E+03  0.00000000000E+00 0.  1.
         25    1    1    2    0    0  0.66044844849E+02 -0.21109262379E+02 -0.13971762380E+03  0.19988380847E+03  0.12500000000E+03 0.  0.
         25    1    1    2    0    0 -0.66044844849E+02  0.21109262379E+02  0.12844116520E+03  0.19217090156E+03  0.12500000000E+03 0.  0.
</event>
<event>
 4    0  0.2244970E-002  0.9587951E+03  0.7546771E-02  0.9354929E-01
         21   -1    0    0  502  501  0.00000000000E+00  0.00000000000E+00  0.97066459684E+03  0.97066459684E+03  0.00000000000E+00 0.  1.
         21   -1    0    0  501  502 -0.00000000000E+00 -0.00000000000E+00 -0.94707076993E+03  0.94707076993E+03  0.00000000000E+00 0.  1.
         25    1    1    2    0    0  0.88536971325E+03  0.32850678495E+03  0.12074014016E+03  0.96020800785E+03  0.12500000000E+03 0.  0.
         25    1    1    2    0    0 -0.88536971325E+03 -0.32850678495E+03 -0.97146313245E+02  0.95752735892E+03  0.12500000000E+03 0.  0.
</event>
<event>
 4    0  0.2244970E-002  0.1947262E+03  0.7546771E-02  0.1154266E+00
         21   -1    0    0  502  501  0.00000000000E+00  0.00000000000E+00  0.44570716739E+02  0.44570716739E+02  0.00000000000E+00 0.  1.
         21   -1    0    0  501  502 -0.00000000000E+00 -0.00000000000E+00 -0.85074413511E+03  0.85074413511E+03  0.00000000000E+00 0.  1.
         25    1    1    2    0    0 -0.16951827617E+02 -0.12569215551E+03 -0.22196265154E+03  0.28456686578E+03  0.12500000000E+03 0.  0.
         25    1    1    2    0    0  0.16951827617E+02  0.12569215551E+03 -0.58421076683E+03  0.61074798608E+03  0.12500000000E+03 0.  0.
</event>
<event>
 4    0  0.2244970E-002  0.1937912E+03  0.7546771E-02  0.1155086E+00
         21   -1    0    0  502  501  0.00000000000E+00  0.00000000000E+00  0.25410720956E+03  0.25410720956E+03  0.00000000000E+00 0. -1.
         21   -1    0    0  501  502 -0.00000000000E+00 -0.00000000000E+00 -0.14779205141E+03  0.14779205141E+03  0.00000000000E+00 0. -1.
         25    1    1    2    0    0  0.10873604108E+03  0.98381526510E+02  0.74599269551E+02  0.20662164070E+03  0.12500000000E+03 0.  0.
         25    1    1    2    0    0 -0.10873604108E+03 -0.98381526510E+02  0.31715888602E+02  0.19527762027E+03  0.12500000000E+03 0.  0.
</event>
<event>
 4    0  0.2244970E-002  0.2318524E+03  0.7546771E-02  0.1125343E+00
         21   -1    0    0  502  501  0.00000000000E+00  0.00000000000E+00  0.13807010957E+04  0.13807010957E+04  0.00000000000E+00 0.  1.
         21   -1    0    0  501  502 -0.00000000000E+00 -0.00000000000E+00 -0.38933504514E+02  0.38933504514E+02  0.00000000000E+00 0.  1.
         25    1    1    2    0    0 -0.10368563040E+03 -0.13111781275E+03  0.36186975036E+03  0.41775268640E+03  0.12500000000E+03 0.  0.
         25    1    1    2    0    0  0.10368563040E+03  0.13111781275E+03  0.97989784087E+03  0.10018819139E+04  0.12500000000E+03 0.  0.
</event>
<event>
 4    0  0.2244970E-002  0.2706224E+03  0.7546771E-02  0.1100924E+00
         21   -1    0    0  502  501  0.00000000000E+00  0.00000000000E+00  0.19838644719E+03  0.19838644719E+03  0.00000000000E+00 0. -1.
         21   -1    0    0  501  502 -0.00000000000E+00 -0.00000000000E+00 -0.36916080242E+03  0.36916080242E+03  0.00000000000E+00 0. -1.
         25    1    1    2    0    0  0.34938205316E+00  0.37009904081E+02 -0.33406510803E+03  0.35860054584E+03  0.12500000000E+03 0.  0.
         25    1    1    2    0    0 -0.34938205316E+00 -0.37009904081E+02  0.16329075280E+03  0.20894670377E+03  0.12500000000E+03 0.  0.
</event>
<event>
 4    0  0.2244970E-002  0.1745705E+03  0.7546771E-02  0.1173164E+00
         21   -1    0    0  502  501  0.00000000000E+00  0.00000000000E+00  0.67115580445E+03  0.67115580445E+03  0.00000000000E+00 0. -1.
         21   -1    0    0  501  502 -0.00000000000E+00 -0.00000000000E+00 -0.45406548898E+02  0.45406548898E+02  0.00000000000E+00 0. -1.
         25    1    1    2    0    0 -0.27104244587E+02 -0.10268308240E+03  0.19022305289E+03  0.25117377518E+03  0.12500000000E+03 0.  0.
         25    1    1    2    0    0  0.27104244587E+02  0.10268308240E+03  0.43552620266E+03  0.46538857817E+03  0.12500000000E+03 0.  0.
</event>
<event>
 4    0  0.2244970E-002  0.2456747E+03  0.7546771E-02  0.1116069E+00
         21   -1    0    0  502  501  0.00000000000E+00  0.00000000000E+00  0.69530618758E+03  0.69530618758E+03  0.00000000000E+00 0.  1.
         21   -1    0    0  501  502 -0.00000000000E+00 -0.00000000000E+00 -0.86805034481E+02  0.86805034481E+02  0.00000000000E+00 0.  1.
         25    1    1    2    0    0  0.12242344248E+03 -0.95806286072E+02  0.75985451217E+02  0.21345990845E+03  0.12500000000E+03 0.  0.
         25    1    1    2    0    0 -0.12242344248E+03  0.95806286072E+02  0.53251570188E+03  0.56865131361E+03  0.12500000000E+03 0.  0.
</event>
<event>
 4    0  0.2244970E-002  0.2504577E+03  0.7546771E-02  0.1113016E+00
         21   -1    0    0  502  501  0.00000000000E+00  0.00000000000E+00  0.27999195527E+03  0.27999195527E+03  0.00000000000E+00 0. -1.
         21   -1    0    0  501  502 -0.00000000000E+00 -0.00000000000E+00 -0.22403878930E+03  0.22403878930E+03  0.00000000000E+00 0. -1.
         25    1    1    2    0    0  0.15296962642E+03 -0.82592156072E+02  0.15871885104E+03  0.26652925642E+03  0.12500000000E+03 0.  0.
         25    1    1    2    0    0 -0.15296962642E+03  0.82592156072E+02 -0.10276568506E+03  0.23750148816E+03  0.12500000000E+03 0.  0.
</event>
<event>
 4    0  0.2244970E-002  0.2486204E+03  0.7546771E-02  0.1114180E+00
         21   -1    0    0  502  501  0.00000000000E+00  0.00000000000E+00  0.28899396783E+02  0.28899396783E+02  0.00000000000E+00 0. -1.
         21   -1    0    0  501  502 -0.00000000000E+00 -0.00000000000E+00 -0.21388709599E+04  0.21388709599E+04  0.00000000000E+00 0. -1.
         25    1    1    2    0    0  0.56726879927E+02 -0.20255409249E+03 -0.12470547775E+04  0.12708330801E+04  0.12500000000E+03 0.  0.
         25    1    1    2    0    0 -0.56726879927E+02  0.20255409249E+03 -0.86291678559E+03  0.89693727660E+03  0.12500000000E+03 0.  0.
</event>
<event>
 4    0  0.2244970E-002  0.2831744E+03  0.7546771E-02  0.1093968E+00
         21   -1    0    0  502  501  0.00000000000E+00  0.00000000000E+00  0.36046676100E+03  0.36046676100E+03  0.00000000000E+00 0.  1.
         21   -1    0    0  501  502 -0.00000000000E+00 -0.00000000000E+00 -0.22245534431E+03  0.22245534431E+03  0.00000000000E+00 0.  1.
         25    1    1    2    0    0  0.12049627664E+03 -0.14340015302E+03  0.24572695554E+03  0.33330120499E+03  0.12500000000E+03 0.  0.
         25    1    1    2    0    0 -0.12049627664E+03  0.14340015302E+03 -0.10771553885E+03  0.24962090033E+03  0.12500000000E+03 0.  0.
</event>
<event>
 4    0  0.2244970E-002  0.1933930E+03  0.7546771E-02  0.1155436E+00
         21   -1    0    0  502  501  0.00000000000E+00  0.00000000000E+00  0.29094644636E+03  0.29094644636E+03  0.00000000000E+00 0. -1.
         21   -1    0    0  501  502 -0.00000000000E+00 -0.00000000000E+00 -0.12854892989E+03  0.12854892989E+03  0.00000000000E+00 0. -1.
         25    1    1    2    0    0 -0.58515287048E+02 -0.13544242632E+03  0.78295708312E+02  0.20862384237E+03  0.12500000000E+03 0.  0.
         25    1    1    2    0    0  0.58515287048E+02  0.13544242632E+03  0.84101808158E+02  0.21087153388E+03  0.12500000000E+03 0.  0.
</event>
<event>
 4    0  0.2244970E-002  0.2506331E+03  0.7546771E-02  0.1112905E+00
         21   -1    0    0  502  501  0.00000000000E+00  0.00000000000E+00  0.20597083167E+03  0.20597083167E+03  0.00000000000E+00 0. -1.
         21   -1    0    0  501  502 -0.00000000000E+00 -0.00000000000E+00 -0.30497994815E+03  0.30497994815E+03  0.00000000000E+00 0. -1.
         25    1    1    2    0    0 -0.75242492377E+02  0.17017698189E+03 -0.16378818258E+03  0.27762061626E+03  0.12500000000E+03 0.  0.
         25    1    1    2    0    0  0.75242492377E+02 -0.17017698189E+03  0.64779066096E+02  0.23333016356E+03  0.12500000000E+03 0.  0.
</event>
<event>
 4    0  0.2244970E-002  0.3899177E+03  0.7546771E-02  0.1047328E+00
         21   -1    0    0  502  501  0.00000000000E+00  0.00000000000E+00  0.28897096029E+03  0.28897096029E+03  0.00000000000E+00 0.  1.
         21   -1    0    0  501  502 -0.00000000000E+00 -0.00000000000E+00 -0.52612844070E+03  0.52612844070E+03  0.00000000000E+00 0.  1.
         25    1    1    2    0    0 -0.58724443937E+02 -0.57190839026E+02  0.25783314294E+03  0.29803067289E+03  0.12500000000E+03 0.  0.
         25    1    1    2    0    0  0.58724443937E+02  0.57190839026E+02 -0.49499062335E+03  0.51706872811E+03  0.12500000000E+03 0.  0.
</event>
<event>
 4    0  0.2244970E-002  0.3801468E+03  0.7546771E-02  0.1050879E+00
         21   -1    0    0  502  501  0.00000000000E+00  0.00000000000E+00  0.66908000690E+02  0.66908000690E+02  0.00000000000E+00 0. -1.
         21   -1    0    0  501  502 -0.00000000000E+00 -0.00000000000E+00 -0.21598555242E+04  0.21598555242E+04  0.00000000000E+00 0. -1.
         25    1    1    2    0    0  0.12938207071E+03  0.32335977862E+03 -0.79139136544E+03  0.87362838779E+03  0.12500000000E+03 0.  0.
         25    1    1    2    0    0 -0.12938207071E+03 -0.32335977862E+03 -0.13015561581E+04  0.13531351371E+04  0.12500000000E+03 0.  0.
</event>
<event>
 4    0  0.2244970E-002  0.1880156E+03  0.7546771E-02  0.1160263E+00
         21   -1    0    0  502  501  0.00000000000E+00  0.00000000000E+00  0.33792034394E+03  0.33792034394E+03  0.00000000000E+00 0. -1.
         21   -1    0    0  501  502 -0.00000000000E+00 -0.00000000000E+00 -0.10461003785E+03  0.10461003785E+03  0.00000000000E+00 0. -1.
         25    1    1    2    0    0  0.13203321362E+03  0.47873811043E+02  0.11716635255E+03  0.22153470485E+03  0.12500000000E+03 0.  0.
         25    1    1    2    0    0 -0.13203321362E+03 -0.47873811043E+02  0.11614395354E+03  0.22099567694E+03  0.12500000000E+03 0.  0.
</event>
<event>
 4    0  0.2244970E-002  0.2143738E+03  0.7546771E-02  0.1138149E+00
         21   -1    0    0  502  501  0.00000000000E+00  0.00000000000E+00  0.21911282494E+03  0.21911282494E+03  0.00000000000E+00 0. -1.
         21   -1    0    0  501  502 -0.00000000000E+00 -0.00000000000E+00 -0.20973718711E+03  0.20973718711E+03  0.00000000000E+00 0. -1.
         25    1    1    2    0    0  0.31257388963E+02 -0.38430618996E+02 -0.16231667576E+03  0.21077390747E+03  0.12500000000E+03 0.  0.
         25    1    1    2    0    0 -0.31257388963E+02  0.38430618996E+02  0.17169231359E+03  0.21807610457E+03  0.12500000000E+03 0.  0.
</event>
<event>
 4    0  0.2244970E-002  0.2916680E+03  0.7546771E-02  0.1089481E+00
         21   -1    0    0  502  501  0.00000000000E+00  0.00000000000E+00  0.18731179008E+03  0.18731179008E+03  0.00000000000E+00 0.  1.
         21   -1    0    0  501  502 -0.00000000000E+00 -0.00000000000E+00 -0.45416363264E+03  0.45416363264E+03  0.00000000000E+00 0.  1.
         25    1    1    2    0    0  0.68224528331E+01 -0.16167967848E+03 -0.36214174365E+03  0.41588280416E+03  0.12500000000E+03 0.  0.
         25    1    1    2    0    0 -0.68224528331E+01  0.16167967848E+03  0.95289901096E+02  0.22559261856E+03  0.12500000000E+03 0.  0.
</event>
<event>
 4    0  0.2244970E-002  0.2244668E+03  0.7546771E-02  0.1130596E+00
         21   -1    0    0  502  501  0.00000000000E+00  0.00000000000E+00  0.67222222439E+02  0.67222222439E+02  0.00000000000E+00 0.  1.
         21   -1    0    0  501  502 -0.00000000000E+00 -0.00000000000E+00 -0.74953406348E+03  0.74953406348E+03  0.00000000000E+00 0.  1.
         25    1    1    2    0    0 -0.51345092483E+02 -0.16161864630E+03 -0.20019119069E+03  0.29061730538E+03  0.12500000000E+03 0.  0.
         25    1    1    2    0    0  0.51345092483E+02  0.16161864630E+03 -0.48212065035E+03  0.52613898054E+03  0.12500000000E+03 0.  0.
</event>
<event>
 4    0  0.2244970E-002  0.1949524E+03  0.7546771E-02  0.1154069E+00
         21   -1    0    0  502  501  0.00000000000E+00  0.00000000000E+00  0.13348673324E+04  0.13348673324E+04  0.00000000000E+00 0. -1.
         21   -1    0    0  501  502 -0.00000000000E+00 -0.00000000000E+00 -0.28472075608E+02  0.28472075608E+02  0.00000000000E+00 0. -1.
         25    1    1    2    0    0 -0.96982227566E+01  0.26725992704E+02  0.13962514216E+03  0.18954818525E+03  0.12500000000E+03 0.  0.
         25    1    1    2    0    0  0.96982227566E+01 -0.26725992704E+02  0.11667701146E+04  0.11737912227E+04  0.12500000000E+03 0.  0.
</event>
<event>
 4    0  0.2244970E-002  0.3673189E+03  0.7546771E-02  0.1055723E+00
         21   -1    0    0  502  501  0.00000000000E+00  0.00000000000E+00  0.69770062767E+03  0.69770062767E+03  0.00000000000E+00 0. -1.
         21   -1    0    0  501  502 -0.00000000000E+00 -0.00000000000E+00 -0.19338263261E+03  0.19338263261E+03  0.00000000000E+00 0. -1.
         25    1    1    2    0    0  0.23209899933E+03  0.44245392792E+02 -0.53425448524E+02  0.27259288110E+03  0.12500000000E+03 0.  0.
         25    1    1    2    0    0 -0.23209899933E+03 -0.44245392792E+02  0.55774344359E+03  0.61849037918E+03  0.12500000000E+03 0.  0.
</event>
<event>
 4    0  0.2244970E-002  0.3061134E+03  0.7546771E-02  0.1082224E+00
         21   -1    0    0  502  501  0.00000000000E+00  0.00000000000E+00  0.92282022285E+03  0.92282022285E+03  0.00000000000E+00 0.  1.
         21   -1    0    0  501  502 -0.00000000000E+00 -0.00000000000E+00 -0.10154242164E+03  0.10154242164E+03  0.00000000000E+00 0.  1.
         25    1    1    2    0    0  0.14389332427E+03  0.68787408504E+02  0.26743058624E+02  0.20439468565E+03  0.12500000000E+03 0.  0.
         25    1    1    2    0    0 -0.14389332427E+03 -0.68787408504E+02  0.79453474258E+03  0.81996795883E+03  0.12500000000E+03 0.  0.
</event>
<event>
 4    0  0.2244970E-002  0.5146416E+03  0.7546771E-02  0.1010026E+00
         21   -1    0    0  502  501  0.00000000000E+00  0.00000000000E+00  0.27454021821E+03  0.27454021821E+03  0.00000000000E+00 0. -1.
         21   -1    0    0  501  502 -0.00000000000E+00 -0.00000000000E+00 -0.96472545153E+03  0.96472545153E+03  0.00000000000E+00 0. -1.
         25    1    1    2    0    0 -0.35947947128E+03 -0.34218668875E+03 -0.41008360752E+03  0.65582832005E+03  0.12500000000E+03 0.  0.
         25    1    1    2    0    0  0.35947947128E+03  0.34218668875E+03 -0.28010162581E+03  0.58343734969E+03  0.12500000000E+03 0.  0.
</event>
<event>
 4    0  0.2244970E-002  0.2430847E+03  0.7546771E-02  0.1117755E+00
         21   -1    0    0  502  501  0.00000000000E+00  0.00000000000E+00  0.21640940781E+03  0.21640940781E+03  0.00000000000E+00 0.  1.
         21   -1    0    0  501  502 -0.00000000000E+00 -0.00000000000E+00 -0.27304805350E+03  0.27304805350E+03  0.00000000000E+00 0.  1.
         25    1    1    2    0    0  0.74543010824E+02  0.30132001970E+02  0.16533694217E+03  0.22231937040E+03  0.12500000000E+03 0.  0.
         25    1    1    2    0    0 -0.74543010824E+02 -0.30132001970E+02 -0.22197558787E+03  0.26713809091E+03  0.12500000000E+03 0.  0.
</event>
<event>
 4    0  0.2244970E-002  0.2152261E+03  0.7546771E-02  0.1137493E+00
         21   -1    0    0  502  501  0.00000000000E+00  0.00000000000E+00  0.56511579350E+02  0.56511579350E+02  0.00000000000E+00 0. -1.
         21   -1    0    0  501  502 -0.00000000000E+00 -0.00000000000E+00 -0.81969497547E+03  0.81969497547E+03  0.00000000000E+00 0. -1.
         25    1    1    2    0    0  0.15254700768E+03  0.97041064466E+01 -0.20728758627E+03  0.28628290668E+03  0.12500000000E+03 0.  0.
         25    1    1    2    0    0 -0.15254700768E+03 -0.97041064466E+01 -0.55589580985E+03  0.58992364815E+03  0.12500000000E+03 0.  0.
</event>
<event>
 4    0  0.2244970E-002  0.1741542E+03  0.7546771E-02  0.1173584E+00
         21   -1    0    0  502  501  0.00000000000E+00  0.00000000000E+00  0.45295789669E+03  0.45295789669E+03  0.00000000000E+00 0.  1.
         21   -1    0    0  501  502 -0.00000000000E+00 -0.00000000000E+00 -0.66959193361E+02  0.66959193361E+02  0.00000000000E+00 0.  1.
         25    1    1    2    0    0  0.11400884536E+02  0.68114367862E+02  0.44215003642E+02  0.14949753785E+03  0.12500000000E+03 0.  0.
         25    1    1    2    0    0 -0.11400884536E+02 -0.68114367862E+02  0.34178369968E+03  0.37041955219E+03  0.12500000000E+03 0.  0.
</event>
<event>
 4    0  0.2244970E-002  0.1741796E+03  0.7546771E-02  0.1173558E+00
         21   -1    0    0  502  501  0.00000000000E+00  0.00000000000E+00  0.20499280583E+03  0.20499280583E+03  0.00000000000E+00 0. -1.
         21   -1    0    0  501  502 -0.00000000000E+00 -0.00000000000E+00 -0.14799801343E+03  0.14799801343E+03  0.00000000000E+00 0. -1.
         25    1    1    2    0    0 -0.87331336017E+02 -0.36941031070E+02  0.10514787466E+03  0.18887159017E+03  0.12500000000E+03 0.  0.
         25    1    1    2    0    0  0.87331336017E+02  0.36941031070E+02 -0.48153082251E+02  0.16411922909E+03  0.12500000000E+03 0.  0.
</event>
<event>
 4    0  0.2244970E-002  0.2425018E+03  0.7546771E-02  0.1118137E+00
         21   -1    0    0  502  501  0.00000000000E+00  0.00000000000E+00  0.39146610941E+03  0.39146610941E+03  0.00000000000E+00 0. -1.
         21   -1    0    0  501  502 -0.00000000000E+00 -0.00000000000E+00 -0.15022273678E+03  0.15022273678E+03  0.00000000000E+00 0. -1.
         25    1    1    2    0    0 -0.41840835227E+02  0.12341582378E+03 -0.60160458464E+02  0.19033234569E+03  0.12500000000E+03 0.  0.
         25    1    1    2    0    0  0.41840835227E+02 -0.12341582378E+03  0.30140383109E+03  0.35135650051E+03  0.12500000000E+03 0.  0.
</event>
<event>
 4    0  0.2244970E-002  0.1669667E+03  0.7546771E-02  0.1181048E+00
         21   -1    0    0  502  501  0.00000000000E+00  0.00000000000E+00  0.19918855267E+02  0.19918855267E+02  0.00000000000E+00 0.  1.
         21   -1    0    0  501  502 -0.00000000000E+00 -0.00000000000E+00 -0.13995731243E+04  0.13995731243E+04  0.00000000000E+00 0.  1.
         25    1    1    2    0    0 -0.61842011350E+02  0.16778108149E+02 -0.30614583993E+03  0.33683262103E+03  0.12500000000E+03 0.  0.
         25    1    1    2    0    0  0.61842011350E+02 -0.16778108149E+02 -0.10735084291E+04  0.10826593585E+04  0.12500000000E+03 0.  0.
</event>
<event>
 4    0  0.2244970E-002  0.2251964E+03  0.7546771E-02  0.1130067E+00
         21   -1    0    0  502  501  0.00000000000E+00  0.00000000000E+00  0.47290749193E+03  0.47290749193E+03  0.00000000000E+00 0. -1.
         21   -1    0    0  501  502 -0.00000000000E+00 -0.00000000000E+00 -0.10723748657E+03  0.10723748657E+03  0.00000000000E+00 0. -1.
         25    1    1    2    0    0 -0.17814229003E+03 -0.19761614812E+02  0.11271746890E+03  0.24587684867E+03  0.12500000000E+03 0.  0.
         25    1    1    2    0    0  0.17814229003E+03  0.19761614812E+02  0.25295253646E+03  0.33426812983E+03  0.12500000000E+03 0.  0.
</event>
<event>
 4    0  0.2244970E-002  0.2054655E+03  0.7546771E-02  0.1145208E+00
         21   -1    0    0  502  501  0.00000000000E+00  0.00000000000E+00  0.12653419334E+03  0.12653419334E+03  0.00000000000E+00 0.  1.
         21   -1    0    0  501  502 -0.00000000000E+00 -0.00000000000E+00 -0.33363372700E+03  0.33363372700E+03  0.00000000000E+00 0.  1.
         25    1    1    2    0    0  0.15276126463E+03 -0.56015874374E+02 -0.11567757418E+03  0.23554210520E+03  0.12500000000E+03 0.  0.
         25    1    1    2    0    0 -0.15276126463E+03  0.56015874374E+02 -0.91421959479E+02  0.22462581514E+03  0.12500000000E+03 0.  0.
</event>
<event>
 4    0  0.2244970E-002  0.1859179E+03  0.7546771E-02  0.1162196E+00
         21   -1    0    0  502  501  0.00000000000E+00  0.00000000000E+00  0.39986821228E+03  0.39986821228E+03  0.00000000000E+00 0. -1.
         21   -1    0    0  501  502 -0.00000000000E+00 -0.00000000000E+00 -0.86442112369E+02  0.86442112369E+02  0.00000000000E+00 0. -1.
         25    1    1    2    0    0 -0.83933499176E+02 -0.68283011962E+02  0.26794335541E+03  0.31484288735E+03  0.12500000000E+03 0.  0.
         25    1    1    2    0    0  0.83933499176E+02  0.68283011962E+02  0.45482744501E+02  0.17146743730E+03  0.12500000000E+03 0.  0.
</event>
<event>
 4    0  0.2244970E-002  0.2107541E+03  0.7546771E-02  0.1140970E+00
         21   -1    0    0  502  501  0.00000000000E+00  0.00000000000E+00  0.37827914049E+02  0.37827914049E+02  0.00000000000E+00 0. -1.
         21   -1    0    0  501  502 -0.00000000000E+00 -0.00000000000E+00 -0.11741932218E+04  0.11741932218E+04  0.00000000000E+00 0. -1.
         25    1    1    2    0    0  0.15673931840E+03  0.55990027585E+02 -0.47324162171E+03  0.51699587004E+03  0.12500000000E+03 0.  0.
         25    1    1    2    0    0 -0.15673931840E+03 -0.55990027585E+02 -0.66312368606E+03  0.69502526582E+03  0.12500000000E+03 0.  0.
</event>
