<event>
 5    0  0.5713700E-005  0.3609286E+03  0.7546771E-02  0.1058217E+00
         21   -1    0    0  502  501  0.00000000000E+00  0.00000000000E+00  0.89890216551E+03  0.89890216551E+03  0.00000000000E+00 0. -1.
         21   -1    0    0  501  502 -0.00000000000E+00 -0.00000000000E+00 -0.14492059671E+03  0.14492059671E+03  0.00000000000E+00 0. -1.
         25    1    1    2    0    0  0.75435842837E+02 -0.20146283883E+03  0.56735523770E+02  0.25518965784E+03  0.12500000000E+03 0.  0.
         25    1    1    2    0    0 -0.82355409422E+02  0.63875215394E+02  0.45482230604E+03  0.48306395713E+03  0.12500000000E+03 0.  0.
         25    1    1    2    0    0  0.69195665846E+01  0.13758762343E+03  0.24242373899E+03  0.30556914725E+03  0.12500000000E+03 0.  0.
</event>
<event>
 5    0  0.5713700E-005  0.2696123E+03  0.7546771E-02  0.1101502E+00
         21   -1    0    0  502  501  0.00000000000E+00  0.00000000000E+00  0.21237898866E+03  0.21237898866E+03  0.00000000000E+00 0. -1.
         21   -1    0    0  501  502 -0.00000000000E+00 -0.00000000000E+00 -0.34226923043E+03  0.34226923043E+03  0.00000000000E+00 0. -1.
         25    1    1    2    0    0 -0.77912416470E+02  0.78752622549E+02 -0.16322812556E+03  0.23353959230E+03  0.12500000000E+03 0.  0.
         25    1    1    2    0    0  0.74746211324E+01 -0.73034144914E+02  0.85539322633E+02  0.16832062263E+03  0.12500000000E+03 0.  0.
         25    1    1    2    0    0  0.70437795337E+02 -0.57184776351E+01 -0.52201438839E+02  0.15278800416E+03  0.12500000000E+03 0.  0.
</event>
<event>
 5    0  0.5713700E-005  0.3214778E+03  0.7546771E-02  0.1074971E+00
         21   -1    0    0  502  501  0.00000000000E+00  0.00000000000E+00  0.13717371063E+03  0.13717371063E+03  0.00000000000E+00 0.  1.
         21   -1    0    0  501  502 -0.00000000000E+00 -0.00000000000E+00 -0.75340938787E+03  0.75340938787E+03  0.00000000000E+00 0.  1.
         25    1    1    2    0    0  0.12501014534E+03 -0.12096463107E+03 -0.22855026291E+03  0.31324144216E+03  0.12500000000E+03 0.  0.
         25    1    1    2    0    0 -0.18508423198E+03  0.57284657795E+02 -0.35171124243E+03  0.42055142729E+03  0.12500000000E+03 0.  0.
         25    1    1    2    0    0  0.60074086639E+02  0.63679973274E+02 -0.35974171908E+02  0.15679022905E+03  0.12500000000E+03 0.  0.
</event>
<event>
 5    0  0.5713700E-005  0.2383677E+03  0.7546771E-02  0.1120885E+00
         21   -1    0    0  502  501  0.00000000000E+00  0.00000000000E+00  0.90152048351E+03  0.90152048351E+03  0.00000000000E+00 0.  1.
         21   -1    0    0  501  502 -0.00000000000E+00 -0.00000000000E+00 -0.63025928813E+02  0.63025928813E+02  0.00000000000E+00 0.  1.
         25    1    1    2    0    0  0.23560657674E+02 -0.86055590326E+02  0.13900463609E+03  0.20714236185E+03  0.12500000000E+03 0.  0.
         25    1    1    2    0    0  0.88331866649E+01  0.86724589709E+02  0.28392290545E+03  0.32223655269E+03  0.12500000000E+03 0.  0.
         25    1    1    2    0    0 -0.32393844339E+02 -0.66899938273E+00  0.41556701316E+03  0.43516749779E+03  0.12500000000E+03 0.  0.
</event>
<event>
 5    0  0.5713700E-005  0.3094956E+03  0.7546771E-02  0.1080588E+00
         21   -1    0    0  502  501  0.00000000000E+00  0.00000000000E+00  0.71103082955E+03  0.71103082955E+03  0.00000000000E+00 0.  1.
         21   -1    0    0  501  502 -0.00000000000E+00 -0.00000000000E+00 -0.13471640431E+03  0.13471640431E+03  0.00000000000E+00 0.  1.
         25    1    1    2    0    0 -0.78230075237E+02  0.16072827583E+03  0.17421344207E+03  0.27915738701E+03  0.12500000000E+03 0.  0.
         25    1    1    2    0    0  0.13136036990E+03 -0.29087198213E+02  0.97202285339E+02  0.20778569767E+03  0.12500000000E+03 0.  0.
         25    1    1    2    0    0 -0.53130294666E+02 -0.13164107762E+03  0.30489869784E+03  0.35880414918E+03  0.12500000000E+03 0.  0.
</event>
<event>
 5    0  0.5713700E-005  0.2974742E+03  0.7546771E-02  0.1086510E+00
         21   -1    0    0  502  501  0.00000000000E+00  0.00000000000E+00  0.64192505739E+03  0.64192505739E+03  0.00000000000E+00 0.  1.
         21   -1    0    0  501  502 -0.00000000000E+00 -0.00000000000E+00 -0.13785235631E+03  0.13785235631E+03  0.00000000000E+00 0.  1.
         25    1    1    2    0    0  0.19062537195E+03  0.13142044261E+02  0.12556709763E+03  0.26058173721E+03  0.12500000000E+03 0.  0.
         25    1    1    2    0    0 -0.16650083164E+03 -0.38322160973E+02  0.30116025687E+03  0.36812173975E+03  0.12500000000E+03 0.  0.
         25    1    1    2    0    0 -0.24124540312E+02  0.25180116713E+02  0.77345346586E+02  0.15107393674E+03  0.12500000000E+03 0.  0.
</event>
<event>
 5    0  0.5713700E-005  0.2801048E+03  0.7546771E-02  0.1095632E+00
         21   -1    0    0  502  501  0.00000000000E+00  0.00000000000E+00  0.46788843798E+03  0.46788843798E+03  0.00000000000E+00 0.  1.
         21   -1    0    0  501  502 -0.00000000000E+00 -0.00000000000E+00 -0.16768671831E+03  0.16768671831E+03  0.00000000000E+00 0.  1.
         25    1    1    2    0    0  0.14271138755E+03 -0.61519859556E+02  0.12817167785E+03  0.23707427583E+03  0.12500000000E+03 0.  0.
         25    1    1    2    0    0 -0.26132620805E+02  0.37364571673E+02 -0.26233358325E+02  0.13561789770E+03  0.12500000000E+03 0.  0.
         25    1    1    2    0    0 -0.11657876675E+03  0.24155287883E+02  0.19826340014E+03  0.26288298276E+03  0.12500000000E+03 0.  0.
</event>
<event>
 5    0  0.5713700E-005  0.2257525E+03  0.7546771E-02  0.1129666E+00
         21   -1    0    0  502  501  0.00000000000E+00  0.00000000000E+00  0.38057185364E+03  0.38057185364E+03  0.00000000000E+00 0.  1.
         21   -1    0    0  501  502 -0.00000000000E+00 -0.00000000000E+00 -0.13391481079E+03  0.13391481079E+03  0.00000000000E+00 0.  1.
         25    1    1    2    0    0  0.22608575922E+02 -0.15358474165E+02  0.16833733732E+03  0.21144618599E+03  0.12500000000E+03 0.  0.
         25    1    1    2    0    0  0.57370987126E+01 -0.30520849879E+02 -0.26163028309E+02  0.13143036418E+03  0.12500000000E+03 0.  0.
         25    1    1    2    0    0 -0.28345674635E+02  0.45879324044E+02  0.10448273384E+03  0.17161011426E+03  0.12500000000E+03 0.  0.
</event>
<event>
 5    0  0.5713700E-005  0.2340936E+03  0.7546771E-02  0.1123791E+00
         21   -1    0    0  502  501  0.00000000000E+00  0.00000000000E+00  0.36570301230E+02  0.36570301230E+02  0.00000000000E+00 0.  1.
         21   -1    0    0  501  502 -0.00000000000E+00 -0.00000000000E+00 -0.14984785706E+04  0.14984785706E+04  0.00000000000E+00 0.  1.
         25    1    1    2    0    0  0.13987407590E+02  0.54723686652E+02 -0.26104452126E+03  0.29488908344E+03  0.12500000000E+03 0.  0.
         25    1    1    2    0    0  0.73178271641E+02 -0.57928854895E+02 -0.55079974903E+03  0.57246499910E+03  0.12500000000E+03 0.  0.
         25    1    1    2    0    0 -0.87165679231E+02  0.32051682428E+01 -0.65006399913E+03  0.66769478934E+03  0.12500000000E+03 0.  0.
</event>
<event>
 5    0  0.5713700E-005  0.3125161E+03  0.7546771E-02  0.1079146E+00
         21   -1    0    0  502  501  0.00000000000E+00  0.00000000000E+00  0.50147191983E+02  0.50147191983E+02  0.00000000000E+00 0. -1.
         21   -1    0    0  501  502 -0.00000000000E+00 -0.00000000000E+00 -0.19475926833E+04  0.19475926833E+04  0.00000000000E+00 0. -1.
         25    1    1    2    0    0 -0.60934283144E+02  0.10414571717E+02 -0.22358408438E+03  0.26350767153E+03  0.12500000000E+03 0.  0.
         25    1    1    2    0    0 -0.87536037224E+01 -0.89937079088E+02 -0.14429379149E+04  0.14511582029E+04  0.12500000000E+03 0.  0.
         25    1    1    2    0    0  0.69687886866E+02  0.79522507371E+02 -0.23092349209E+03  0.28307400084E+03  0.12500000000E+03 0.  0.
</event>
<event>
 5    0  0.5713700E-005  0.2514782E+03  0.7546771E-02  0.1112374E+00
         21   -1    0    0  502  501  0.00000000000E+00  0.00000000000E+00  0.53445339719E+02  0.53445339719E+02  0.00000000000E+00 0. -1.
         21   -1    0    0  501  502 -0.00000000000E+00 -0.00000000000E+00 -0.11832892375E+04  0.11832892375E+04  0.00000000000E+00 0. -1.
         25    1    1    2    0    0 -0.45687948371E+02  0.11543402981E+03 -0.56890801108E+03  0.59556169197E+03  0.12500000000E+03 0.  0.
         25    1    1    2    0    0  0.41632663597E+02  0.10627866873E+02 -0.21661059674E+03  0.25375456814E+03  0.12500000000E+03 0.  0.
         25    1    1    2    0    0  0.40552847742E+01 -0.12606189668E+03 -0.34432528996E+03  0.38741831712E+03  0.12500000000E+03 0.  0.
</event>
<event>
 5    0  0.5713700E-005  0.3154572E+03  0.7546771E-02  0.1077759E+00
         21   -1    0    0  502  501  0.00000000000E+00  0.00000000000E+00  0.98315027802E+03  0.98315027802E+03  0.00000000000E+00 0. -1.
         21   -1    0    0  501  502 -0.00000000000E+00 -0.00000000000E+00 -0.10121878454E+03  0.10121878454E+03  0.00000000000E+00 0. -1.
         25    1    1    2    0    0  0.90921552379E+02  0.47972704465E+02  0.68702999948E+02  0.17582153242E+03  0.12500000000E+03 0.  0.
         25    1    1    2    0    0 -0.92780024379E+02 -0.11401691361E+03  0.19490236201E+03  0.27426250241E+03  0.12500000000E+03 0.  0.
         25    1    1    2    0    0  0.18584720003E+01  0.66044209143E+02  0.61832613153E+03  0.63428502774E+03  0.12500000000E+03 0.  0.
</event>
<event>
 5    0  0.5713700E-005  0.2580154E+03  0.7546771E-02  0.1108341E+00
         21   -1    0    0  502  501  0.00000000000E+00  0.00000000000E+00  0.27595786360E+03  0.27595786360E+03  0.00000000000E+00 0.  1.
         21   -1    0    0  501  502 -0.00000000000E+00 -0.00000000000E+00 -0.24123957844E+03  0.24123957844E+03  0.00000000000E+00 0.  1.
         25    1    1    2    0    0  0.50495864789E+02  0.11838712727E+03  0.99062488153E+02  0.20494809300E+03  0.12500000000E+03 0.  0.
         25    1    1    2    0    0  0.30175363601E+02 -0.41057076049E+02 -0.50074224590E+02  0.14397452563E+03  0.12500000000E+03 0.  0.
         25    1    1    2    0    0 -0.80671228390E+02 -0.77330051225E+02 -0.14269978404E+02  0.16827482342E+03  0.12500000000E+03 0.  0.
</event>
<event>
 5    0  0.5713700E-005  0.3842585E+03  0.7546771E-02  0.1049371E+00
         21   -1    0    0  502  501  0.00000000000E+00  0.00000000000E+00  0.31144558508E+03  0.31144558508E+03  0.00000000000E+00 0.  1.
         21   -1    0    0  501  502 -0.00000000000E+00 -0.00000000000E+00 -0.47409427462E+03  0.47409427462E+03  0.00000000000E+00 0.  1.
         25    1    1    2    0    0  0.22934783329E+03  0.69418750385E+02 -0.97819679558E+02  0.28742491411E+03  0.12500000000E+03 0.  0.
         25    1    1    2    0    0 -0.97670841778E+02  0.12855352677E+03 -0.99729688815E+02  0.22723691031E+03  0.12500000000E+03 0.  0.
         25    1    1    2    0    0 -0.13167699152E+03 -0.19797227715E+03  0.34900678830E+02  0.27087803528E+03  0.12500000000E+03 0.  0.
</event>
<event>
 5    0  0.5713700E-005  0.2973967E+03  0.7546771E-02  0.1086549E+00
         21   -1    0    0  502  501  0.00000000000E+00  0.00000000000E+00  0.39424820195E+03  0.39424820195E+03  0.00000000000E+00 0.  1.
         21   -1    0    0  501  502 -0.00000000000E+00 -0.00000000000E+00 -0.22433779770E+03  0.22433779770E+03  0.00000000000E+00 0.  1.
         25    1    1    2    0    0  0.55705334318E+02  0.44792577505E+02  0.15997436784E+03  0.21523535406E+03  0.12500000000E+03 0.  0.
         25    1    1    2    0    0 -0.11435020863E+03 -0.11586565099E+03 -0.84098414585E+02  0.22180703917E+03  0.12500000000E+03 0.  0.
         25    1    1    2    0    0  0.58644874309E+02  0.71073073482E+02  0.94034451004E+02  0.18154360642E+03  0.12500000000E+03 0.  0.
</event>
<event>
 5    0  0.5713700E-005  0.2637050E+03  0.7546771E-02  0.1104937E+00
         21   -1    0    0  502  501  0.00000000000E+00  0.00000000000E+00  0.27438301750E+03  0.27438301750E+03  0.00000000000E+00 0. -1.
         21   -1    0    0  501  502 -0.00000000000E+00 -0.00000000000E+00 -0.25344256292E+03  0.25344256292E+03  0.00000000000E+00 0. -1.
         25    1    1    2    0    0  0.21737874192E+02 -0.51151063530E+02  0.16334186027E+03  0.21305992066E+03  0.12500000000E+03 0.  0.
         25    1    1    2    0    0  0.25935216937E+02 -0.12861684942E+02 -0.39484762012E+02  0.13424643328E+03  0.12500000000E+03 0.  0.
         25    1    1    2    0    0 -0.47673091129E+02  0.64012748472E+02 -0.10291664367E+03  0.18051922648E+03  0.12500000000E+03 0.  0.
</event>
<event>
 5    0  0.5713700E-005  0.3840584E+03  0.7546771E-02  0.1049444E+00
         21   -1    0    0  502  501  0.00000000000E+00  0.00000000000E+00  0.52711083406E+03  0.52711083406E+03  0.00000000000E+00 0.  1.
         21   -1    0    0  501  502 -0.00000000000E+00 -0.00000000000E+00 -0.27982888144E+03  0.27982888144E+03  0.00000000000E+00 0.  1.
         25    1    1    2    0    0  0.93609445987E+02 -0.68636132680E+02 -0.21654772247E+02  0.17195224991E+03  0.12500000000E+03 0.  0.
         25    1    1    2    0    0  0.31738197325E+02 -0.20663592595E+03  0.76425817941E+02  0.25528733755E+03  0.12500000000E+03 0.  0.
         25    1    1    2    0    0 -0.12534764331E+03  0.27527205863E+03  0.19251090693E+03  0.37970012804E+03  0.12500000000E+03 0.  0.
</event>
<event>
 5    0  0.5842064E-005  0.5649133E+03  0.7546771E-02  0.9980998E-01
         21   -1    0    0  502  501  0.00000000000E+00  0.00000000000E+00  0.33354243125E+03  0.33354243125E+03  0.00000000000E+00 0.  1.
         21   -1    0    0  501  502 -0.00000000000E+00 -0.00000000000E+00 -0.95678078032E+03  0.95678078032E+03  0.00000000000E+00 0.  1.
         25    1    1    2    0    0 -0.41575120366E+02 -0.82640378692E+02 -0.53580855610E+03  0.55791910849E+03  0.12500000000E+03 0.  0.
         25    1    1    2    0    0  0.11111236899E+03  0.36400714268E+03 -0.11159104212E+03  0.41584218057E+03  0.12500000000E+03 0.  0.
         25    1    1    2    0    0 -0.69537248625E+02 -0.28136676398E+03  0.24161249158E+02  0.31656192251E+03  0.12500000000E+03 0.  0.
</event>
<event>
 5    0  0.5713700E-005  0.2388493E+03  0.7546771E-02  0.1120562E+00
         21   -1    0    0  502  501  0.00000000000E+00  0.00000000000E+00  0.24381627773E+03  0.24381627773E+03  0.00000000000E+00 0. -1.
         21   -1    0    0  501  502 -0.00000000000E+00 -0.00000000000E+00 -0.23398348083E+03  0.23398348083E+03  0.00000000000E+00 0. -1.
         25    1    1    2    0    0 -0.62736001435E+02 -0.55744359808E+01 -0.10867424285E+03  0.17720601365E+03  0.12500000000E+03 0.  0.
         25    1    1    2    0    0 -0.14545746105E+02  0.15042302970E+02  0.73946490787E+02  0.14673422610E+03  0.12500000000E+03 0.  0.
         25    1    1    2    0    0  0.77281747539E+02 -0.94678669890E+01  0.44560548969E+02  0.15385951882E+03  0.12500000000E+03 0.  0.
</event>
<event>
 5    0  0.5713700E-005  0.3121045E+03  0.7546771E-02  0.1079341E+00
         21   -1    0    0  502  501  0.00000000000E+00  0.00000000000E+00  0.13073939558E+03  0.13073939558E+03  0.00000000000E+00 0. -1.
         21   -1    0    0  501  502 -0.00000000000E+00 -0.00000000000E+00 -0.74506411541E+03  0.74506411541E+03  0.00000000000E+00 0. -1.
         25    1    1    2    0    0 -0.50833025570E+02  0.15029744460E+03 -0.60218613288E+02  0.21077143954E+03  0.12500000000E+03 0.  0.
         25    1    1    2    0    0  0.41649537420E+01 -0.16320904390E+03 -0.20187339779E+03  0.28815344451E+03  0.12500000000E+03 0.  0.
         25    1    1    2    0    0  0.46668071828E+02  0.12911599306E+02 -0.35223270875E+03  0.37687862694E+03  0.12500000000E+03 0.  0.
</event>
<event>
 5    0  0.5713700E-005  0.3428495E+03  0.7546771E-02  0.1065589E+00
         21   -1    0    0  502  501  0.00000000000E+00  0.00000000000E+00  0.36592981049E+03  0.36592981049E+03  0.00000000000E+00 0.  1.
         21   -1    0    0  501  502 -0.00000000000E+00 -0.00000000000E+00 -0.32122494217E+03  0.32122494217E+03  0.00000000000E+00 0.  1.
         25    1    1    2    0    0 -0.43053701126E+02  0.31908247539E+02  0.75808025944E+02  0.15570361023E+03  0.12500000000E+03 0.  0.
         25    1    1    2    0    0 -0.89694636353E+02 -0.10234454200E+03 -0.20059441831E+03  0.27273183482E+03  0.12500000000E+03 0.  0.
         25    1    1    2    0    0  0.13274833748E+03  0.70436294461E+02  0.16949126069E+03  0.25871930761E+03  0.12500000000E+03 0.  0.
</event>
<event>
 5    0  0.6248451E-005  0.3524981E+03  0.7546771E-02  0.1061594E+00
         21   -1    0    0  502  501  0.00000000000E+00  0.00000000000E+00  0.24777212115E+03  0.24777212115E+03  0.00000000000E+00 0.  1.
         21   -1    0    0  501  502 -0.00000000000E+00 -0.00000000000E+00 -0.50148875604E+03  0.50148875604E+03  0.00000000000E+00 0.  1.
         25    1    1    2    0    0  0.17013491692E+03  0.74031874565E+02 -0.17895833385E+03  0.28649204817E+03  0.12500000000E+03 0.  0.
         25    1    1    2    0    0 -0.20675403520E+03 -0.11200303340E+03 -0.15201880964E+03  0.30663761845E+03  0.12500000000E+03 0.  0.
         25    1    1    2    0    0  0.36619118277E+02  0.37971158833E+02  0.77260508607E+02  0.15613121058E+03  0.12500000000E+03 0.  0.
</event>
<event>
 5    0  0.6393196E-005  0.3107678E+03  0.7546771E-02  0.1079978E+00
         21   -1    0    0  502  501  0.00000000000E+00  0.00000000000E+00  0.19862689998E+03  0.19862689998E+03  0.00000000000E+00 0. -1.
         21   -1    0    0  501  502 -0.00000000000E+00 -0.00000000000E+00 -0.48622140997E+03  0.48622140997E+03  0.00000000000E+00 0. -1.
         25    1    1    2    0    0  0.53239569562E+02 -0.12435678474E+03 -0.10961488617E+03  0.21433498303E+03  0.12500000000E+03 0.  0.
         25    1    1    2    0    0 -0.13211818791E+03  0.12118874019E+03 -0.22665658597E+03  0.31486526371E+03  0.12500000000E+03 0.  0.
         25    1    1    2    0    0  0.78878618346E+02  0.31680445500E+01  0.48676962148E+02  0.15564806321E+03  0.12500000000E+03 0.  0.
</event>
<event>
 5    0  0.5713700E-005  0.4724195E+03  0.7546771E-02  0.1021240E+00
         21   -1    0    0  502  501  0.00000000000E+00  0.00000000000E+00  0.24719675450E+04  0.24719675450E+04  0.00000000000E+00 0.  1.
         21   -1    0    0  501  502 -0.00000000000E+00 -0.00000000000E+00 -0.90284439316E+02  0.90284439316E+02  0.00000000000E+00 0.  1.
         25    1    1    2    0    0  0.57302301224E+02 -0.66982357413E+02  0.44100696993E+03  0.46677868145E+03  0.12500000000E+03 0.  0.
         25    1    1    2    0    0  0.19274656769E+03  0.18714974506E+03  0.28178490574E+03  0.40890585656E+03  0.12500000000E+03 0.  0.
         25    1    1    2    0    0 -0.25004886891E+03 -0.12016738765E+03  0.16588912301E+04  0.16865674463E+04  0.12500000000E+03 0.  0.
</event>
<event>
 5    0  0.5713700E-005  0.3263126E+03  0.7546771E-02  0.1072780E+00
         21   -1    0    0  502  501  0.00000000000E+00  0.00000000000E+00  0.87618560163E+02  0.87618560163E+02  0.00000000000E+00 0.  1.
         21   -1    0    0  501  502 -0.00000000000E+00 -0.00000000000E+00 -0.12152665703E+04  0.12152665703E+04  0.00000000000E+00 0.  1.
         25    1    1    2    0    0  0.45940662489E+02 -0.18964596430E+03 -0.37840559635E+03  0.44372506306E+03  0.12500000000E+03 0.  0.
         25    1    1    2    0    0 -0.33456760852E+02 -0.58732493968E+02 -0.25739584492E+03  0.29401782544E+03  0.12500000000E+03 0.  0.
         25    1    1    2    0    0 -0.12483901636E+02  0.24837845827E+03 -0.49184656885E+03  0.56514224194E+03  0.12500000000E+03 0.  0.
</event>
<event>
 5    0  0.5713700E-005  0.3878332E+03  0.7546771E-02  0.1048076E+00
         21   -1    0    0  502  501  0.00000000000E+00  0.00000000000E+00  0.15654779516E+03  0.15654779516E+03  0.00000000000E+00 0. -1.
         21   -1    0    0  501  502 -0.00000000000E+00 -0.00000000000E+00 -0.96082204834E+03  0.96082204834E+03  0.00000000000E+00 0. -1.
         25    1    1    2    0    0 -0.28100827905E+01 -0.14412154220E+02 -0.20421979422E+03  0.23988816375E+03  0.12500000000E+03 0.  0.
         25    1    1    2    0    0  0.21342802513E+03  0.17435218774E+03 -0.14267350358E+03  0.33456081047E+03  0.12500000000E+03 0.  0.
         25    1    1    2    0    0 -0.21061794234E+03 -0.15994003352E+03 -0.45738095538E+03  0.54292086928E+03  0.12500000000E+03 0.  0.
</event>
<event>
 5    0  0.5713700E-005  0.4056621E+03  0.7546771E-02  0.1041837E+00
         21   -1    0    0  502  501  0.00000000000E+00  0.00000000000E+00  0.39080089663E+03  0.39080089663E+03  0.00000000000E+00 0.  1.
         21   -1    0    0  501  502 -0.00000000000E+00 -0.00000000000E+00 -0.42108847227E+03  0.42108847227E+03  0.00000000000E+00 0.  1.
         25    1    1    2    0    0 -0.22200014233E+02  0.57980843388E+02 -0.17129910379E+03  0.22095927632E+03  0.12500000000E+03 0.  0.
         25    1    1    2    0    0 -0.19870539483E+03 -0.13434356970E+03 -0.35035356996E+02  0.27273522856E+03  0.12500000000E+03 0.  0.
         25    1    1    2    0    0  0.22090540907E+03  0.76362726314E+02  0.17604688515E+03  0.31819486403E+03  0.12500000000E+03 0.  0.
</event>
<event>
 5    0  0.5713700E-005  0.3007878E+03  0.7546771E-02  0.1084847E+00
         21   -1    0    0  502  501  0.00000000000E+00  0.00000000000E+00  0.34461256973E+03  0.34461256973E+03  0.00000000000E+00 0. -1.
         21   -1    0    0  501  502 -0.00000000000E+00 -0.00000000000E+00 -0.26253627884E+03  0.26253627884E+03  0.00000000000E+00 0. -1.
         25    1    1    2    0    0  0.22228522391E+02 -0.75087811533E+01 -0.70950940710E+02  0.14563490306E+03  0.12500000000E+03 0.  0.
         25    1    1    2    0    0 -0.13991297485E+03  0.52484013490E+02 -0.40440634567E+02  0.19897401118E+03  0.12500000000E+03 0.  0.
         25    1    1    2    0    0  0.11768445246E+03 -0.44975232337E+02  0.19346786617E+03  0.26253993433E+03  0.12500000000E+03 0.  0.
</event>
<event>
 5    0  0.5713700E-005  0.2879331E+03  0.7546771E-02  0.1091433E+00
         21   -1    0    0  502  501  0.00000000000E+00  0.00000000000E+00  0.17059884265E+03  0.17059884265E+03  0.00000000000E+00 0.  1.
         21   -1    0    0  501  502 -0.00000000000E+00 -0.00000000000E+00 -0.48596748335E+03  0.48596748335E+03  0.00000000000E+00 0.  1.
         25    1    1    2    0    0  0.11219300192E+03  0.15340340695E+02 -0.27899837148E+03  0.32601792439E+03  0.12500000000E+03 0.  0.
         25    1    1    2    0    0 -0.12131947377E+03 -0.27607865759E+02  0.43203994954E+02  0.18158247203E+03  0.12500000000E+03 0.  0.
         25    1    1    2    0    0  0.91264718562E+01  0.12267525064E+02 -0.79574264174E+02  0.14896592959E+03  0.12500000000E+03 0.  0.
</event>
<event>
 5    0  0.5713700E-005  0.3073521E+03  0.7546771E-02  0.1081622E+00
         21   -1    0    0  502  501  0.00000000000E+00  0.00000000000E+00  0.34059534504E+02  0.34059534504E+02  0.00000000000E+00 0. -1.
         21   -1    0    0  501  502 -0.00000000000E+00 -0.00000000000E+00 -0.27735343867E+04  0.27735343867E+04  0.00000000000E+00 0. -1.
         25    1    1    2    0    0 -0.46356580231E+02 -0.12623625614E+03 -0.13440072817E+04  0.13564899919E+04  0.12500000000E+03 0.  0.
         25    1    1    2    0    0 -0.71696855564E+02  0.57319975976E+02 -0.27750082747E+03  0.31789578165E+03  0.12500000000E+03 0.  0.
         25    1    1    2    0    0  0.11805343579E+03  0.68916280162E+02 -0.11179667430E+04  0.11332081476E+04  0.12500000000E+03 0.  0.
</event>
<event>
 5    0  0.5713700E-005  0.3528544E+03  0.7546771E-02  0.1061450E+00
         21   -1    0    0  502  501  0.00000000000E+00  0.00000000000E+00  0.52859515596E+03  0.52859515596E+03  0.00000000000E+00 0.  1.
         21   -1    0    0  501  502 -0.00000000000E+00 -0.00000000000E+00 -0.23554179003E+03  0.23554179003E+03  0.00000000000E+00 0.  1.
         25    1    1    2    0    0  0.16134863232E+03 -0.59823045196E+02  0.24416813298E+03  0.32381361159E+03  0.12500000000E+03 0.  0.
         25    1    1    2    0    0 -0.19410251260E+03  0.14610273470E+03  0.73690147096E+02  0.28297885480E+03  0.12500000000E+03 0.  0.
         25    1    1    2    0    0  0.32753880284E+02 -0.86279689499E+02 -0.24804914149E+02  0.15734447960E+03  0.12500000000E+03 0.  0.
</event>
<event>
 5    0  0.5713700E-005  0.3105424E+03  0.7546771E-02  0.1080086E+00
         21   -1    0    0  502  501  0.00000000000E+00  0.00000000000E+00  0.18028852894E+03  0.18028852894E+03  0.00000000000E+00 0. -1.
         21   -1    0    0  501  502 -0.00000000000E+00 -0.00000000000E+00 -0.53490149115E+03  0.53490149115E+03  0.00000000000E+00 0. -1.
         25    1    1    2    0    0  0.30172561401E+02  0.52246867546E+02 -0.12822928355E+02  0.13938990681E+03  0.12500000000E+03 0.  0.
         25    1    1    2    0    0 -0.18133078915E+03 -0.12603477280E+03 -0.19196117230E+03  0.31818188308E+03  0.12500000000E+03 0.  0.
         25    1    1    2    0    0  0.15115822775E+03  0.73787905256E+02 -0.14982886155E+03  0.25761823020E+03  0.12500000000E+03 0.  0.
</event>
<event>
 5    0  0.5713700E-005  0.2518150E+03  0.7546771E-02  0.1112163E+00
         21   -1    0    0  502  501  0.00000000000E+00  0.00000000000E+00  0.52715868925E+03  0.52715868925E+03  0.00000000000E+00 0.  1.
         21   -1    0    0  501  502 -0.00000000000E+00 -0.00000000000E+00 -0.12028786507E+03  0.12028786507E+03  0.00000000000E+00 0.  1.
         25    1    1    2    0    0 -0.81064667302E+01 -0.31987924001E+02  0.97329774090E+02  0.16182406190E+03  0.12500000000E+03 0.  0.
         25    1    1    2    0    0 -0.31757316245E+02  0.64805577458E+01  0.32629381380E+03  0.35091762236E+03  0.12500000000E+03 0.  0.
         25    1    1    2    0    0  0.39863782975E+02  0.25507366255E+02 -0.16752763697E+02  0.13470487006E+03  0.12500000000E+03 0.  0.
</event>
<event>
 5    0  0.5713700E-005  0.3542795E+03  0.7546771E-02  0.1060872E+00
         21   -1    0    0  502  501  0.00000000000E+00  0.00000000000E+00  0.26173361741E+03  0.26173361741E+03  0.00000000000E+00 0. -1.
         21   -1    0    0  501  502 -0.00000000000E+00 -0.00000000000E+00 -0.47954854245E+03  0.47954854245E+03  0.00000000000E+00 0. -1.
         25    1    1    2    0    0 -0.86198748831E+02 -0.13720942004E+03 -0.17807868161E+03  0.27128152553E+03  0.12500000000E+03 0.  0.
         25    1    1    2    0    0  0.10602738774E+03  0.12023129828E+03  0.14194426182E+03  0.24793254223E+03  0.12500000000E+03 0.  0.
         25    1    1    2    0    0 -0.19828638910E+02  0.16978121765E+02 -0.18168050524E+03  0.22206809209E+03  0.12500000000E+03 0.  0.
</event>
<event>
 5    0  0.5713700E-005  0.4878235E+03  0.7546771E-02  0.1017007E+00
         21   -1    0    0  502  501  0.00000000000E+00  0.00000000000E+00  0.92027661269E+03  0.92027661269E+03  0.00000000000E+00 0.  1.
         21   -1    0    0  501  502 -0.00000000000E+00 -0.00000000000E+00 -0.25858720053E+03  0.25858720053E+03  0.00000000000E+00 0.  1.
         25    1    1    2    0    0 -0.59952969385E+02 -0.23683831560E+03 -0.12497664708E+03  0.30154752294E+03  0.12500000000E+03 0.  0.
         25    1    1    2    0    0  0.19607342560E+02  0.20817579569E+03  0.40451234595E+03  0.47220424376E+03  0.12500000000E+03 0.  0.
         25    1    1    2    0    0  0.40345626825E+02  0.28662519907E+02  0.38215371330E+03  0.40511204652E+03  0.12500000000E+03 0.  0.
</event>
<event>
 5    0  0.5713700E-005  0.5020355E+03  0.7546771E-02  0.1013249E+00
         21   -1    0    0  502  501  0.00000000000E+00  0.00000000000E+00  0.11391746580E+04  0.11391746580E+04  0.00000000000E+00 0. -1.
         21   -1    0    0  501  502 -0.00000000000E+00 -0.00000000000E+00 -0.22124760696E+03  0.22124760696E+03  0.00000000000E+00 0. -1.
         25    1    1    2    0    0 -0.44084975918E+02 -0.12068479559E+03  0.33102207391E+02  0.18228840095E+03  0.12500000000E+03 0.  0.
         25    1    1    2    0    0 -0.23846727428E+03  0.29127134550E+03  0.30919940056E+03  0.50292634343E+03  0.12500000000E+03 0.  0.
         25    1    1    2    0    0  0.28255225020E+03 -0.17058654991E+03  0.57562544305E+03  0.67520752053E+03  0.12500000000E+03 0.  0.
</event>
<event>
 5    0  0.5713700E-005  0.3466878E+03  0.7546771E-02  0.1063983E+00
         21   -1    0    0  502  501  0.00000000000E+00  0.00000000000E+00  0.24100810644E+03  0.24100810644E+03  0.00000000000E+00 0. -1.
         21   -1    0    0  501  502 -0.00000000000E+00 -0.00000000000E+00 -0.49870701886E+03  0.49870701886E+03  0.00000000000E+00 0. -1.
         25    1    1    2    0    0  0.13707652300E+03 -0.19215954220E+02  0.14732346781E+02  0.18708625844E+03  0.12500000000E+03 0.  0.
         25    1    1    2    0    0 -0.10212421776E+03 -0.69165270022E+02 -0.33922581463E+03  0.38198474281E+03  0.12500000000E+03 0.  0.
         25    1    1    2    0    0 -0.34952305242E+02  0.88381224241E+02  0.66794555431E+02  0.17064412406E+03  0.12500000000E+03 0.  0.
</event>
<event>
 5    0  0.5713700E-005  0.2570730E+03  0.7546771E-02  0.1108915E+00
         21   -1    0    0  502  501  0.00000000000E+00  0.00000000000E+00  0.21990082763E+03  0.21990082763E+03  0.00000000000E+00 0. -1.
         21   -1    0    0  501  502 -0.00000000000E+00 -0.00000000000E+00 -0.30052879244E+03  0.30052879244E+03  0.00000000000E+00 0. -1.
         25    1    1    2    0    0  0.70089938406E+02  0.12251284541E+02 -0.10558575281E+03  0.17842658051E+03  0.12500000000E+03 0.  0.
         25    1    1    2    0    0 -0.27170166470E+02  0.99909719857E+02 -0.18315274716E+02  0.16334203181E+03  0.12500000000E+03 0.  0.
         25    1    1    2    0    0 -0.42919771936E+02 -0.11216100440E+03  0.43273062715E+02  0.17866100774E+03  0.12500000000E+03 0.  0.
</event>
<event>
 5    0  0.5713700E-005  0.3072227E+03  0.7546771E-02  0.1081685E+00
         21   -1    0    0  502  501  0.00000000000E+00  0.00000000000E+00  0.24211649698E+03  0.24211649698E+03  0.00000000000E+00 0.  1.
         21   -1    0    0  501  502 -0.00000000000E+00 -0.00000000000E+00 -0.38983617484E+03  0.38983617484E+03  0.00000000000E+00 0.  1.
         25    1    1    2    0    0 -0.86548202919E+02 -0.81843662700E+02  0.96150013881E+01  0.17293474146E+03  0.12500000000E+03 0.  0.
         25    1    1    2    0    0  0.13997508675E+03  0.36276139871E+01  0.54492908464E+02  0.19544989528E+03  0.12500000000E+03 0.  0.
         25    1    1    2    0    0 -0.53426883831E+02  0.78216048712E+02 -0.21182758772E+03  0.26356803507E+03  0.12500000000E+03 0.  0.
</event>
<event>
 5    0  0.5713700E-005  0.2345001E+03  0.7546771E-02  0.1123512E+00
         21   -1    0    0  502  501  0.00000000000E+00  0.00000000000E+00  0.53491124823E+03  0.53491124823E+03  0.00000000000E+00 0.  1.
         21   -1    0    0  501  502 -0.00000000000E+00 -0.00000000000E+00 -0.10280267510E+03  0.10280267510E+03  0.00000000000E+00 0.  1.
         25    1    1    2    0    0  0.55787050887E+02 -0.14951354366E+02  0.36453372797E+02  0.14244151934E+03  0.12500000000E+03 0.  0.
         25    1    1    2    0    0  0.10270780630E+02  0.72382216729E+02  0.17828922031E+03  0.22968831123E+03  0.12500000000E+03 0.  0.
         25    1    1    2    0    0 -0.66057831517E+02 -0.57430862363E+02  0.21736598002E+03  0.26558409276E+03  0.12500000000E+03 0.  0.
</event>
<event>
 5    0  0.5713700E-005  0.3649000E+03  0.7546771E-02  0.1056660E+00
         21   -1    0    0  502  501  0.00000000000E+00  0.00000000000E+00  0.73902365527E+03  0.73902365527E+03  0.00000000000E+00 0.  1.
         21   -1    0    0  501  502 -0.00000000000E+00 -0.00000000000E+00 -0.18017288841E+03  0.18017288841E+03  0.00000000000E+00 0.  1.
         25    1    1    2    0    0 -0.27747801431E+03  0.63544144315E+01  0.11825267876E+03  0.32656258671E+03  0.12500000000E+03 0.  0.
         25    1    1    2    0    0  0.23048807917E+03  0.19465324018E+01  0.28006298909E+03  0.38365195358E+03  0.12500000000E+03 0.  0.
         25    1    1    2    0    0  0.46989935133E+02 -0.83009468333E+01  0.16053509901E+03  0.20898200338E+03  0.12500000000E+03 0.  0.
</event>
<event>
 5    0  0.5713700E-005  0.5683135E+03  0.7546771E-02  0.9973417E-01
         21   -1    0    0  502  501  0.00000000000E+00  0.00000000000E+00  0.11651692639E+04  0.11651692639E+04  0.00000000000E+00 0.  1.
         21   -1    0    0  501  502 -0.00000000000E+00 -0.00000000000E+00 -0.27719601161E+03  0.27719601161E+03  0.00000000000E+00 0.  1.
         25    1    1    2    0    0 -0.19517313569E+03 -0.41928622379E+03  0.41690126522E+03  0.63507885754E+03  0.12500000000E+03 0.  0.
         25    1    1    2    0    0  0.29141773699E+03  0.19061092274E+03  0.20677360717E+03  0.42383622536E+03  0.12500000000E+03 0.  0.
         25    1    1    2    0    0 -0.96244601293E+02  0.22867530105E+03  0.26429837987E+03  0.38345019258E+03  0.12500000000E+03 0.  0.
</event>
<event>
 5    0  0.5713700E-005  0.2289884E+03  0.7546771E-02  0.1127354E+00
         21   -1    0    0  502  501  0.00000000000E+00  0.00000000000E+00  0.24730931324E+03  0.24730931324E+03  0.00000000000E+00 0. -1.
         21   -1    0    0  501  502 -0.00000000000E+00 -0.00000000000E+00 -0.21202470904E+03  0.21202470904E+03  0.00000000000E+00 0. -1.
         25    1    1    2    0    0 -0.99214384077E+02 -0.15478334701E+02 -0.29491713940E+02  0.16302709604E+03  0.12500000000E+03 0.  0.
         25    1    1    2    0    0  0.30022235047E+02 -0.16041188230E+02 -0.13712136485E+02  0.13027538910E+03  0.12500000000E+03 0.  0.
         25    1    1    2    0    0  0.69192149030E+02  0.31519522931E+02  0.78488454625E+02  0.16603153713E+03  0.12500000000E+03 0.  0.
</event>
<event>
 5    0  0.5713700E-005  0.3850188E+03  0.7546771E-02  0.1049094E+00
         21   -1    0    0  502  501  0.00000000000E+00  0.00000000000E+00  0.15672583065E+04  0.15672583065E+04  0.00000000000E+00 0. -1.
         21   -1    0    0  501  502 -0.00000000000E+00 -0.00000000000E+00 -0.94585219234E+02  0.94585219234E+02  0.00000000000E+00 0. -1.
         25    1    1    2    0    0 -0.12396385030E+03 -0.90493859407E+01  0.81378694068E+03  0.83266026229E+03  0.12500000000E+03 0.  0.
         25    1    1    2    0    0  0.18876354471E+03  0.50535350538E+01  0.90943463310E+02  0.24403468513E+03  0.12500000000E+03 0.  0.
         25    1    1    2    0    0 -0.64799694416E+02  0.39958508869E+01  0.56794268332E+03  0.58514857836E+03  0.12500000000E+03 0.  0.
</event>
<event>
 5    0  0.5713700E-005  0.3179270E+03  0.7546771E-02  0.1076607E+00
         21   -1    0    0  502  501  0.00000000000E+00  0.00000000000E+00  0.30497181172E+03  0.30497181172E+03  0.00000000000E+00 0.  1.
         21   -1    0    0  501  502 -0.00000000000E+00 -0.00000000000E+00 -0.33143255427E+03  0.33143255427E+03  0.00000000000E+00 0.  1.
         25    1    1    2    0    0  0.32636163786E+02 -0.16435539079E+03 -0.15025864185E+03  0.25744994294E+03  0.12500000000E+03 0.  0.
         25    1    1    2    0    0  0.45964967812E+02  0.13863551161E+03  0.13222581365E+02  0.19269774260E+03  0.12500000000E+03 0.  0.
         25    1    1    2    0    0 -0.78601131599E+02  0.25719879183E+02  0.11057531793E+03  0.18625668044E+03  0.12500000000E+03 0.  0.
</event>
<event>
 5    0  0.5713700E-005  0.7340725E+03  0.7546771E-02  0.9660675E-01
         21   -1    0    0  502  501  0.00000000000E+00  0.00000000000E+00  0.18640172944E+04  0.18640172944E+04  0.00000000000E+00 0. -1.
         21   -1    0    0  501  502 -0.00000000000E+00 -0.00000000000E+00 -0.28908658926E+03  0.28908658926E+03  0.00000000000E+00 0. -1.
         25    1    1    2    0    0 -0.17355049643E+03 -0.16064102163E+03  0.42545267125E+02  0.27085127357E+03  0.12500000000E+03 0.  0.
         25    1    1    2    0    0  0.21484856712E+02 -0.43964611767E+03  0.56818151501E+03  0.72952418867E+03  0.12500000000E+03 0.  0.
         25    1    1    2    0    0  0.15206563972E+03  0.60028713930E+03  0.96420392300E+03  0.11527284214E+04  0.12500000000E+03 0.  0.
</event>
<event>
 5    0  0.5713700E-005  0.2726926E+03  0.7546771E-02  0.1099748E+00
         21   -1    0    0  502  501  0.00000000000E+00  0.00000000000E+00  0.61382254423E+03  0.61382254423E+03  0.00000000000E+00 0. -1.
         21   -1    0    0  501  502 -0.00000000000E+00 -0.00000000000E+00 -0.12114455114E+03  0.12114455114E+03  0.00000000000E+00 0. -1.
         25    1    1    2    0    0  0.46824653009E+01  0.22850483011E+02  0.13655195822E+03  0.18658914049E+03  0.12500000000E+03 0.  0.
         25    1    1    2    0    0 -0.90948155167E+02  0.87478870219E+02  0.30643455247E+03  0.35419098607E+03  0.12500000000E+03 0.  0.
         25    1    1    2    0    0  0.86265689866E+02 -0.11032935323E+03  0.49691482400E+02  0.19418696881E+03  0.12500000000E+03 0.  0.
</event>
<event>
 5    0  0.5713700E-005  0.2459630E+03  0.7546771E-02  0.1115883E+00
         21   -1    0    0  502  501  0.00000000000E+00  0.00000000000E+00  0.49864372024E+03  0.49864372024E+03  0.00000000000E+00 0. -1.
         21   -1    0    0  501  502 -0.00000000000E+00 -0.00000000000E+00 -0.12132474247E+03  0.12132474247E+03  0.00000000000E+00 0. -1.
         25    1    1    2    0    0 -0.63682544671E+02  0.71522686734E+02  0.21748341588E+02  0.15896210736E+03  0.12500000000E+03 0.  0.
         25    1    1    2    0    0  0.27357153788E+02 -0.26552211756E+02  0.80779466947E+02  0.15363513951E+03  0.12500000000E+03 0.  0.
         25    1    1    2    0    0  0.36325390883E+02 -0.44970474978E+02  0.27479116923E+03  0.30737121584E+03  0.12500000000E+03 0.  0.
</event>
<event>
 5    0  0.5713700E-005  0.3877287E+03  0.7546771E-02  0.1048114E+00
         21   -1    0    0  502  501  0.00000000000E+00  0.00000000000E+00  0.14686363621E+04  0.14686363621E+04  0.00000000000E+00 0.  1.
         21   -1    0    0  501  502 -0.00000000000E+00 -0.00000000000E+00 -0.10236269699E+03  0.10236269699E+03  0.00000000000E+00 0.  1.
         25    1    1    2    0    0 -0.34926199217E+02  0.67072332815E+01  0.31238151287E+03  0.33833716313E+03  0.12500000000E+03 0.  0.
         25    1    1    2    0    0  0.98541381444E+01 -0.29613514691E+03  0.48914542480E+03  0.58538993490E+03  0.12500000000E+03 0.  0.
         25    1    1    2    0    0  0.25072061073E+02  0.28942791363E+03  0.56474672748E+03  0.64727196110E+03  0.12500000000E+03 0.  0.
</event>
<event>
 5    0  0.5713700E-005  0.3917935E+03  0.7546771E-02  0.1046659E+00
         21   -1    0    0  502  501  0.00000000000E+00  0.00000000000E+00  0.11573963012E+03  0.11573963012E+03  0.00000000000E+00 0.  1.
         21   -1    0    0  501  502 -0.00000000000E+00 -0.00000000000E+00 -0.13262712326E+04  0.13262712326E+04  0.00000000000E+00 0.  1.
         25    1    1    2    0    0 -0.91454770895E+02  0.23421557251E+02 -0.36655566315E+03  0.39862337946E+03  0.12500000000E+03 0.  0.
         25    1    1    2    0    0  0.26281931463E+02 -0.85379474227E+02 -0.87323466151E+03  0.88664771392E+03  0.12500000000E+03 0.  0.
         25    1    1    2    0    0  0.65172839432E+02  0.61957916976E+02  0.29258722160E+02  0.15673976936E+03  0.12500000000E+03 0.  0.
</event>
<event>
 5    0  0.5713700E-005  0.6824684E+03  0.7546771E-02  0.9747692E-01
         21   -1    0    0  502  501  0.00000000000E+00  0.00000000000E+00  0.60853082786E+03  0.60853082786E+03  0.00000000000E+00 0. -1.
         21   -1    0    0  501  502 -0.00000000000E+00 -0.00000000000E+00 -0.76538954136E+03  0.76538954136E+03  0.00000000000E+00 0. -1.
         25    1    1    2    0    0  0.70827674761E+02  0.25857739205E+03 -0.13941187331E+03  0.32701605100E+03  0.12500000000E+03 0.  0.
         25    1    1    2    0    0 -0.27126232912E+03  0.29334349616E+03 -0.12521077775E+03  0.43696269498E+03  0.12500000000E+03 0.  0.
         25    1    1    2    0    0  0.20043465436E+03 -0.55192088822E+03  0.10776393755E+03  0.60994162324E+03  0.12500000000E+03 0.  0.
</event>
<event>
 5    0  0.5713700E-005  0.3086993E+03  0.7546771E-02  0.1080971E+00
         21   -1    0    0  502  501  0.00000000000E+00  0.00000000000E+00  0.14429040122E+04  0.14429040122E+04  0.00000000000E+00 0.  1.
         21   -1    0    0  501  502 -0.00000000000E+00 -0.00000000000E+00 -0.66044076411E+02  0.66044076411E+02  0.00000000000E+00 0.  1.
         25    1    1    2    0    0  0.63732645703E+02 -0.18702377969E+03  0.72618031557E+03  0.76289094569E+03  0.12500000000E+03 0.  0.
         25    1    1    2    0    0  0.26205042986E+00  0.94545956048E+02  0.48622103160E+03  0.51085702310E+03  0.12500000000E+03 0.  0.
         25    1    1    2    0    0 -0.63994696133E+02  0.92477823639E+02  0.16445858864E+03  0.23520011985E+03  0.12500000000E+03 0.  0.
</event>
<event>
 5    0  0.5713700E-005  0.3393568E+03  0.7546771E-02  0.1067070E+00
         21   -1    0    0  502  501  0.00000000000E+00  0.00000000000E+00  0.63410189401E+03  0.63410189401E+03  0.00000000000E+00 0.  1.
         21   -1    0    0  501  502 -0.00000000000E+00 -0.00000000000E+00 -0.18161602659E+03  0.18161602659E+03  0.00000000000E+00 0.  1.
         25    1    1    2    0    0  0.38725960735E+01 -0.64413621886E+02  0.41502218164E+03  0.43821515599E+03  0.12500000000E+03 0.  0.
         25    1    1    2    0    0  0.30377339519E+02 -0.10234636737E+03  0.13335353294E+02  0.16492541744E+03  0.12500000000E+03 0.  0.
         25    1    1    2    0    0 -0.34249935592E+02  0.16675998926E+03  0.24128332489E+02  0.21257734718E+03  0.12500000000E+03 0.  0.
</event>
<event>
 5    0  0.5713700E-005  0.2449414E+03  0.7546771E-02  0.1116544E+00
         21   -1    0    0  502  501  0.00000000000E+00  0.00000000000E+00  0.53190036418E+02  0.53190036418E+02  0.00000000000E+00 0. -1.
         21   -1    0    0  501  502 -0.00000000000E+00 -0.00000000000E+00 -0.11279614592E+04  0.11279614592E+04  0.00000000000E+00 0. -1.
         25    1    1    2    0    0  0.45435436734E+02  0.97627771616E+02 -0.55586666528E+03  0.57983472668E+03  0.12500000000E+03 0.  0.
         25    1    1    2    0    0  0.23300798625E+02 -0.84960354534E+02 -0.20030096537E+03  0.25200528921E+03  0.12500000000E+03 0.  0.
         25    1    1    2    0    0 -0.68736235358E+02 -0.12667417082E+02 -0.31860379210E+03  0.34931147970E+03  0.12500000000E+03 0.  0.
</event>
<event>
 5    0  0.5713700E-005  0.2385461E+03  0.7546771E-02  0.1120765E+00
         21   -1    0    0  502  501  0.00000000000E+00  0.00000000000E+00  0.12563482373E+03  0.12563482373E+03  0.00000000000E+00 0.  1.
         21   -1    0    0  501  502 -0.00000000000E+00 -0.00000000000E+00 -0.45293367306E+03  0.45293367306E+03  0.00000000000E+00 0.  1.
         25    1    1    2    0    0 -0.81678182778E+02  0.64774171921E+02 -0.20529189702E+02  0.16405324294E+03  0.12500000000E+03 0.  0.
         25    1    1    2    0    0  0.13081924091E+02 -0.12198125968E+02 -0.15201703483E+03  0.19762112714E+03  0.12500000000E+03 0.  0.
         25    1    1    2    0    0  0.68596258686E+02 -0.52576045954E+02 -0.15475262481E+03  0.21689412670E+03  0.12500000000E+03 0.  0.
</event>
<event>
 5    0  0.5713700E-005  0.2784052E+03  0.7546771E-02  0.1096563E+00
         21   -1    0    0  502  501  0.00000000000E+00  0.00000000000E+00  0.83308447723E+03  0.83308447723E+03  0.00000000000E+00 0.  1.
         21   -1    0    0  501  502 -0.00000000000E+00 -0.00000000000E+00 -0.93039103469E+02  0.93039103469E+02  0.00000000000E+00 0.  1.
         25    1    1    2    0    0 -0.70070155658E+02  0.51021118124E+02  0.29574609927E+03  0.33257140052E+03  0.12500000000E+03 0.  0.
         25    1    1    2    0    0 -0.48014815335E+02 -0.10572530537E+03  0.83070369344E+02  0.18976024070E+03  0.12500000000E+03 0.  0.
         25    1    1    2    0    0  0.11808497099E+03  0.54704187248E+02  0.36122890514E+03  0.40379193948E+03  0.12500000000E+03 0.  0.
</event>
<event>
 5    0  0.5713700E-005  0.2995138E+03  0.7546771E-02  0.1085484E+00
         21   -1    0    0  502  501  0.00000000000E+00  0.00000000000E+00  0.13231601965E+04  0.13231601965E+04  0.00000000000E+00 0.  1.
         21   -1    0    0  501  502 -0.00000000000E+00 -0.00000000000E+00 -0.67798675658E+02  0.67798675658E+02  0.00000000000E+00 0.  1.
         25    1    1    2    0    0  0.31193607128E+02 -0.12961139198E+02  0.87971760266E+03  0.88919575611E+03  0.12500000000E+03 0.  0.
         25    1    1    2    0    0  0.52142965697E+02  0.80305488023E+02  0.24658965730E+03  0.29257361358E+03  0.12500000000E+03 0.  0.
         25    1    1    2    0    0 -0.83336572825E+02 -0.67344348824E+02  0.12905426088E+03  0.20918950246E+03  0.12500000000E+03 0.  0.
</event>
<event>
 5    0  0.5713700E-005  0.2914209E+03  0.7546771E-02  0.1089610E+00
         21   -1    0    0  502  501  0.00000000000E+00  0.00000000000E+00  0.10447529451E+04  0.10447529451E+04  0.00000000000E+00 0. -1.
         21   -1    0    0  501  502 -0.00000000000E+00 -0.00000000000E+00 -0.81288253540E+02  0.81288253540E+02  0.00000000000E+00 0. -1.
         25    1    1    2    0    0 -0.12586491570E+03 -0.15978138832E+02  0.41289769193E+03  0.44967408412E+03  0.12500000000E+03 0.  0.
         25    1    1    2    0    0  0.15081147262E+03  0.11688093760E+03  0.35619533403E+03  0.42297206743E+03  0.12500000000E+03 0.  0.
         25    1    1    2    0    0 -0.24946556913E+02 -0.10090279876E+03  0.19437166560E+03  0.25339504709E+03  0.12500000000E+03 0.  0.
</event>
<event>
 5    0  0.5713700E-005  0.3278007E+03  0.7546771E-02  0.1072114E+00
         21   -1    0    0  502  501  0.00000000000E+00  0.00000000000E+00  0.12717691192E+03  0.12717691192E+03  0.00000000000E+00 0.  1.
         21   -1    0    0  501  502 -0.00000000000E+00 -0.00000000000E+00 -0.84491224275E+03  0.84491224275E+03  0.00000000000E+00 0.  1.
         25    1    1    2    0    0 -0.67110073037E+02 -0.14066595611E+02 -0.56420864337E+02  0.15332953058E+03  0.12500000000E+03 0.  0.
         25    1    1    2    0    0  0.18999105645E+03  0.50262725124E+02 -0.57432752445E+03  0.61975805635E+03  0.12500000000E+03 0.  0.
         25    1    1    2    0    0 -0.12288098341E+03 -0.36196129513E+02 -0.86986942050E+02  0.19900156774E+03  0.12500000000E+03 0.  0.
</event>
<event>
 5    0  0.5713700E-005  0.3660820E+03  0.7546771E-02  0.1056201E+00
         21   -1    0    0  502  501  0.00000000000E+00  0.00000000000E+00  0.14264853009E+03  0.14264853009E+03  0.00000000000E+00 0.  1.
         21   -1    0    0  501  502 -0.00000000000E+00 -0.00000000000E+00 -0.93948425534E+03  0.93948425534E+03  0.00000000000E+00 0.  1.
         25    1    1    2    0    0  0.17054393202E+03  0.72319620577E+02 -0.22882340982E+02  0.22464185229E+03  0.12500000000E+03 0.  0.
         25    1    1    2    0    0 -0.10975354470E+03  0.16792700143E+02 -0.20217219804E+03  0.26234792359E+03  0.12500000000E+03 0.  0.
         25    1    1    2    0    0 -0.60790387326E+02 -0.89112320720E+02 -0.57178118623E+03  0.59514300956E+03  0.12500000000E+03 0.  0.
</event>
<event>
 5    0  0.5713700E-005  0.2808879E+03  0.7546771E-02  0.1095205E+00
         21   -1    0    0  502  501  0.00000000000E+00  0.00000000000E+00  0.66946296181E+02  0.66946296181E+02  0.00000000000E+00 0. -1.
         21   -1    0    0  501  502 -0.00000000000E+00 -0.00000000000E+00 -0.11785268499E+04  0.11785268499E+04  0.00000000000E+00 0. -1.
         25    1    1    2    0    0  0.28975462008E+02 -0.90155438736E+02 -0.45461410747E+03  0.48090182703E+03  0.12500000000E+03 0.  0.
         25    1    1    2    0    0 -0.81066539442E+02 -0.59757488594E+01 -0.54314129497E+03  0.56323614914E+03  0.12500000000E+03 0.  0.
         25    1    1    2    0    0  0.52091077434E+02  0.96131187595E+02 -0.11382515126E+03  0.20133516989E+03  0.12500000000E+03 0.  0.
</event>
<event>
 5    0  0.5713700E-005  0.4324086E+03  0.7546771E-02  0.1033102E+00
         21   -1    0    0  502  501  0.00000000000E+00  0.00000000000E+00  0.91923742914E+03  0.91923742914E+03  0.00000000000E+00 0.  1.
         21   -1    0    0  501  502 -0.00000000000E+00 -0.00000000000E+00 -0.20340469586E+03  0.20340469586E+03  0.00000000000E+00 0.  1.
         25    1    1    2    0    0  0.10234926100E+03  0.10536250386E+03  0.77894478870E+03  0.80246907248E+03  0.12500000000E+03 0.  0.
         25    1    1    2    0    0 -0.44167891969E+02 -0.15360071507E+02  0.21290135376E+02  0.13514808301E+03  0.12500000000E+03 0.  0.
         25    1    1    2    0    0 -0.58181369031E+02 -0.90002432353E+02 -0.84402190790E+02  0.18502496951E+03  0.12500000000E+03 0.  0.
</event>
<event>
 5    0  0.8415629E-005  0.9171709E+03  0.7546771E-02  0.9404368E-01
         21   -1    0    0  502  501  0.00000000000E+00  0.00000000000E+00  0.98398915526E+03  0.98398915526E+03  0.00000000000E+00 0.  1.
         21   -1    0    0  501  502 -0.00000000000E+00 -0.00000000000E+00 -0.85488990547E+03  0.85488990547E+03  0.00000000000E+00 0.  1.
         25    1    1    2    0    0  0.39093966485E+03  0.64536580302E+03  0.10316315327E+03  0.77175026884E+03  0.12500000000E+03 0.  0.
         25    1    1    2    0    0 -0.75929790906E+02 -0.36060857671E+03  0.34613423697E+03  0.52080494309E+03  0.12500000000E+03 0.  0.
         25    1    1    2    0    0 -0.31500987395E+03 -0.28475722631E+03 -0.32019814044E+03  0.54632384879E+03  0.12500000000E+03 0.  0.
</event>
<event>
 5    0  0.5713700E-005  0.2209923E+03  0.7546771E-02  0.1133145E+00
         21   -1    0    0  502  501  0.00000000000E+00  0.00000000000E+00  0.36361091147E+02  0.36361091147E+02  0.00000000000E+00 0.  1.
         21   -1    0    0  501  502 -0.00000000000E+00 -0.00000000000E+00 -0.13431278929E+04  0.13431278929E+04  0.00000000000E+00 0.  1.
         25    1    1    2    0    0 -0.72902035412E+02 -0.28240067072E+02 -0.42443187256E+03  0.44931016303E+03  0.12500000000E+03 0.  0.
         25    1    1    2    0    0  0.60298684674E+02  0.26193905694E+02 -0.26603305642E+03  0.30119867061E+03  0.12500000000E+03 0.  0.
         25    1    1    2    0    0  0.12603350738E+02  0.20461613782E+01 -0.61630187278E+03  0.62898015042E+03  0.12500000000E+03 0.  0.
</event>
<event>
 5    0  0.5713700E-005  0.2136092E+03  0.7546771E-02  0.1138739E+00
         21   -1    0    0  502  501  0.00000000000E+00  0.00000000000E+00  0.38293226711E+03  0.38293226711E+03  0.00000000000E+00 0.  1.
         21   -1    0    0  501  502 -0.00000000000E+00 -0.00000000000E+00 -0.11915658128E+03  0.11915658128E+03  0.00000000000E+00 0.  1.
         25    1    1    2    0    0  0.24710641349E+02 -0.13242394674E+02  0.15048021786E+03  0.19762406933E+03  0.12500000000E+03 0.  0.
         25    1    1    2    0    0 -0.33123014817E+02 -0.75646218622E+01 -0.67472915513E+01  0.12971076886E+03  0.12500000000E+03 0.  0.
         25    1    1    2    0    0  0.84123734677E+01  0.20807016536E+02  0.12004275953E+03  0.17475401020E+03  0.12500000000E+03 0.  0.
</event>
<event>
 5    0  0.5713700E-005  0.2681875E+03  0.7546771E-02  0.1102321E+00
         21   -1    0    0  502  501  0.00000000000E+00  0.00000000000E+00  0.14307133764E+04  0.14307133764E+04  0.00000000000E+00 0. -1.
         21   -1    0    0  501  502 -0.00000000000E+00 -0.00000000000E+00 -0.50271802051E+02  0.50271802051E+02  0.00000000000E+00 0. -1.
         25    1    1    2    0    0  0.30232896940E+02  0.50152491377E+02  0.47295913216E+03  0.49269122292E+03  0.12500000000E+03 0.  0.
         25    1    1    2    0    0  0.21183743194E+02 -0.12507482178E+03  0.73691634153E+03  0.75813135829E+03  0.12500000000E+03 0.  0.
         25    1    1    2    0    0 -0.51416640134E+02  0.74922330402E+02  0.17056610069E+03  0.23016259727E+03  0.12500000000E+03 0.  0.
</event>
<event>
 5    0  0.5713700E-005  0.3354436E+03  0.7546771E-02  0.1068753E+00
         21   -1    0    0  502  501  0.00000000000E+00  0.00000000000E+00  0.79431235893E+02  0.79431235893E+02  0.00000000000E+00 0.  1.
         21   -1    0    0  501  502 -0.00000000000E+00 -0.00000000000E+00 -0.14166013412E+04  0.14166013412E+04  0.00000000000E+00 0.  1.
         25    1    1    2    0    0  0.89543327633E+02  0.86338638593E+02 -0.10077748753E+04  0.10230872726E+04  0.12500000000E+03 0.  0.
         25    1    1    2    0    0 -0.10421558074E+03 -0.12765490116E+03 -0.19601541487E+03  0.28496263602E+03  0.12500000000E+03 0.  0.
         25    1    1    2    0    0  0.14672253106E+02  0.41316262567E+02 -0.13337981510E+03  0.18798266846E+03  0.12500000000E+03 0.  0.
</event>
<event>
 5    0  0.5713700E-005  0.3158769E+03  0.7546771E-02  0.1077563E+00
         21   -1    0    0  502  501  0.00000000000E+00  0.00000000000E+00  0.33360841962E+03  0.33360841962E+03  0.00000000000E+00 0. -1.
         21   -1    0    0  501  502 -0.00000000000E+00 -0.00000000000E+00 -0.29908789931E+03  0.29908789931E+03  0.00000000000E+00 0. -1.
         25    1    1    2    0    0 -0.21539796823E+03 -0.38401968816E+02 -0.10112691303E+03  0.27151914935E+03  0.12500000000E+03 0.  0.
         25    1    1    2    0    0  0.97305430138E+02  0.26244182563E+02  0.46865548918E+02  0.16726770019E+03  0.12500000000E+03 0.  0.
         25    1    1    2    0    0  0.11809253809E+03  0.12157786254E+02  0.88781884416E+02  0.19390946939E+03  0.12500000000E+03 0.  0.
</event>
<event>
 5    0  0.5713700E-005  0.3436708E+03  0.7546771E-02  0.1065243E+00
         21   -1    0    0  502  501  0.00000000000E+00  0.00000000000E+00  0.16679211220E+04  0.16679211220E+04  0.00000000000E+00 0. -1.
         21   -1    0    0  501  502 -0.00000000000E+00 -0.00000000000E+00 -0.70812481200E+02  0.70812481200E+02  0.00000000000E+00 0. -1.
         25    1    1    2    0    0 -0.15643049297E+02 -0.19792133826E+03  0.11002450956E+04  0.11249808138E+04  0.12500000000E+03 0.  0.
         25    1    1    2    0    0  0.65254969122E+02  0.10607897870E+03  0.15410842452E+03  0.23427626262E+03  0.12500000000E+03 0.  0.
         25    1    1    2    0    0 -0.49611919825E+02  0.91842359565E+02  0.34275512073E+03  0.37947652679E+03  0.12500000000E+03 0.  0.
</event>
<event>
 5    0  0.5713700E-005  0.4996381E+03  0.7546771E-02  0.1013873E+00
         21   -1    0    0  502  501  0.00000000000E+00  0.00000000000E+00  0.34012916682E+03  0.34012916682E+03  0.00000000000E+00 0. -1.
         21   -1    0    0  501  502 -0.00000000000E+00 -0.00000000000E+00 -0.73395124364E+03  0.73395124364E+03  0.00000000000E+00 0. -1.
         25    1    1    2    0    0  0.11931340229E+03 -0.28471648317E+03 -0.31131939834E+03  0.45589903657E+03  0.12500000000E+03 0.  0.
         25    1    1    2    0    0  0.13414872230E+03  0.27387663747E+03 -0.53104922060E+02  0.33384041846E+03  0.12500000000E+03 0.  0.
         25    1    1    2    0    0 -0.25346212459E+03  0.10839845699E+02 -0.29397756413E+02  0.28434095544E+03  0.12500000000E+03 0.  0.
</event>
<event>
 5    0  0.5713700E-005  0.2509831E+03  0.7546771E-02  0.1112685E+00
         21   -1    0    0  502  501  0.00000000000E+00  0.00000000000E+00  0.62516689240E+03  0.62516689240E+03  0.00000000000E+00 0.  1.
         21   -1    0    0  501  502 -0.00000000000E+00 -0.00000000000E+00 -0.10076112654E+03  0.10076112654E+03  0.00000000000E+00 0.  1.
         25    1    1    2    0    0  0.85025388651E+01 -0.99405803422E+02  0.15023876567E+03  0.21943220737E+03  0.12500000000E+03 0.  0.
         25    1    1    2    0    0  0.61086645051E+02  0.22158363406E+02  0.29225710876E+03  0.32444073248E+03  0.12500000000E+03 0.  0.
         25    1    1    2    0    0 -0.69589183916E+02  0.77247440016E+02  0.81909891429E+02  0.18205507909E+03  0.12500000000E+03 0.  0.
</event>
<event>
 5    0  0.5713700E-005  0.3548864E+03  0.7546771E-02  0.1060627E+00
         21   -1    0    0  502  501  0.00000000000E+00  0.00000000000E+00  0.16479679055E+03  0.16479679055E+03  0.00000000000E+00 0. -1.
         21   -1    0    0  501  502 -0.00000000000E+00 -0.00000000000E+00 -0.76424027166E+03  0.76424027166E+03  0.00000000000E+00 0. -1.
         25    1    1    2    0    0  0.12031096954E+03  0.20029996292E+01  0.80788639605E+02  0.19139108048E+03  0.12500000000E+03 0.  0.
         25    1    1    2    0    0 -0.41579230854E+02  0.27291659630E+02 -0.30785884174E+03  0.33596984026E+03  0.12500000000E+03 0.  0.
         25    1    1    2    0    0 -0.78731738689E+02 -0.29294659259E+02 -0.37237327897E+03  0.40167614147E+03  0.12500000000E+03 0.  0.
</event>
<event>
 5    0  0.5713700E-005  0.2754443E+03  0.7546771E-02  0.1098204E+00
         21   -1    0    0  502  501  0.00000000000E+00  0.00000000000E+00  0.93283002792E+02  0.93283002792E+02  0.00000000000E+00 0.  1.
         21   -1    0    0  501  502 -0.00000000000E+00 -0.00000000000E+00 -0.81332670355E+03  0.81332670355E+03  0.00000000000E+00 0.  1.
         25    1    1    2    0    0  0.59684310074E+01  0.51668278378E+02 -0.56889326574E+02  0.14685580900E+03  0.12500000000E+03 0.  0.
         25    1    1    2    0    0  0.32818711522E+01 -0.72038211676E+02 -0.60154250671E+03  0.61861026664E+03  0.12500000000E+03 0.  0.
         25    1    1    2    0    0 -0.92503021596E+01  0.20369933298E+02 -0.61611867476E+02  0.14114363070E+03  0.12500000000E+03 0.  0.
</event>
<event>
 5    0  0.5713700E-005  0.2865398E+03  0.7546771E-02  0.1092170E+00
         21   -1    0    0  502  501  0.00000000000E+00  0.00000000000E+00  0.17315851358E+03  0.17315851358E+03  0.00000000000E+00 0.  1.
         21   -1    0    0  501  502 -0.00000000000E+00 -0.00000000000E+00 -0.47416112683E+03  0.47416112683E+03  0.00000000000E+00 0.  1.
         25    1    1    2    0    0  0.14598488755E+03  0.73446155776E+02 -0.10052856519E+03  0.22899108631E+03  0.12500000000E+03 0.  0.
         25    1    1    2    0    0 -0.25483406538E+01 -0.11200162516E+02 -0.17668500535E+03  0.21673608098E+03  0.12500000000E+03 0.  0.
         25    1    1    2    0    0 -0.14343654690E+03 -0.62245993260E+02 -0.23789042707E+02  0.20159247311E+03  0.12500000000E+03 0.  0.
</event>
<event>
 5    0  0.5713700E-005  0.3449497E+03  0.7546771E-02  0.1064707E+00
         21   -1    0    0  502  501  0.00000000000E+00  0.00000000000E+00  0.16273808815E+04  0.16273808815E+04  0.00000000000E+00 0. -1.
         21   -1    0    0  501  502 -0.00000000000E+00 -0.00000000000E+00 -0.73117679292E+02  0.73117679292E+02  0.00000000000E+00 0. -1.
         25    1    1    2    0    0 -0.43258496670E+01 -0.42748423619E+01  0.12245007880E+04  0.12308794283E+04  0.12500000000E+03 0.  0.
         25    1    1    2    0    0 -0.66760248437E+02  0.88896223362E+02  0.17375681418E+03  0.24119680714E+03  0.12500000000E+03 0.  0.
         25    1    1    2    0    0  0.71086098104E+02 -0.84621381000E+02  0.15600559999E+03  0.22842232530E+03  0.12500000000E+03 0.  0.
</event>
<event>
 5    0  0.5713700E-005  0.3417097E+03  0.7546771E-02  0.1066070E+00
         21   -1    0    0  502  501  0.00000000000E+00  0.00000000000E+00  0.13083413615E+03  0.13083413615E+03  0.00000000000E+00 0. -1.
         21   -1    0    0  501  502 -0.00000000000E+00 -0.00000000000E+00 -0.89247000371E+03  0.89247000371E+03  0.00000000000E+00 0. -1.
         25    1    1    2    0    0  0.50856788154E+02  0.17162027966E+03 -0.47998357026E+03  0.52730367058E+03  0.12500000000E+03 0.  0.
         25    1    1    2    0    0 -0.99964340172E+02  0.33035490216E+02 -0.11688922317E+03  0.20092860278E+03  0.12500000000E+03 0.  0.
         25    1    1    2    0    0  0.49107552018E+02 -0.20465576988E+03 -0.16476307413E+03  0.29507186651E+03  0.12500000000E+03 0.  0.
</event>
<event>
 5    0  0.5713700E-005  0.2331001E+03  0.7546771E-02  0.1124477E+00
         21   -1    0    0  502  501  0.00000000000E+00  0.00000000000E+00  0.14826081276E+04  0.14826081276E+04  0.00000000000E+00 0. -1.
         21   -1    0    0  501  502 -0.00000000000E+00 -0.00000000000E+00 -0.36648687728E+02  0.36648687728E+02  0.00000000000E+00 0. -1.
         25    1    1    2    0    0  0.37409635150E+02 -0.27681020003E+02  0.28440858448E+03  0.31413207826E+03  0.12500000000E+03 0.  0.
         25    1    1    2    0    0  0.26640485955E+02 -0.69770393003E+02  0.43463147106E+03  0.45837445268E+03  0.12500000000E+03 0.  0.
         25    1    1    2    0    0 -0.64050121105E+02  0.97451413007E+02  0.72691938435E+03  0.74675028441E+03  0.12500000000E+03 0.  0.
</event>
<event>
 5    0  0.5713700E-005  0.3479525E+03  0.7546771E-02  0.1063459E+00
         21   -1    0    0  502  501  0.00000000000E+00  0.00000000000E+00  0.18040580107E+03  0.18040580107E+03  0.00000000000E+00 0. -1.
         21   -1    0    0  501  502 -0.00000000000E+00 -0.00000000000E+00 -0.67110341783E+03  0.67110341783E+03  0.00000000000E+00 0. -1.
         25    1    1    2    0    0  0.29351134595E+02  0.14009875940E+03 -0.94721852510E+02  0.21233553831E+03  0.12500000000E+03 0.  0.
         25    1    1    2    0    0  0.26867175026E+02 -0.22078346227E+03 -0.40633397798E+03  0.47979108366E+03  0.12500000000E+03 0.  0.
         25    1    1    2    0    0 -0.56218309621E+02  0.80684702866E+02  0.10358213726E+02  0.15938259693E+03  0.12500000000E+03 0.  0.
</event>
<event>
 5    0  0.5713700E-005  0.2464900E+03  0.7546771E-02  0.1115543E+00
         21   -1    0    0  502  501  0.00000000000E+00  0.00000000000E+00  0.94455222538E+02  0.94455222538E+02  0.00000000000E+00 0. -1.
         21   -1    0    0  501  502 -0.00000000000E+00 -0.00000000000E+00 -0.64323915058E+03  0.64323915058E+03  0.00000000000E+00 0. -1.
         25    1    1    2    0    0 -0.92701798409E+01 -0.52226053079E+02 -0.16938702045E+03  0.21709550790E+03  0.12500000000E+03 0.  0.
         25    1    1    2    0    0 -0.13569781855E+02  0.12279643256E+03 -0.31691929089E+03  0.36238921034E+03  0.12500000000E+03 0.  0.
         25    1    1    2    0    0  0.22839961696E+02 -0.70570379478E+02 -0.62477616705E+02  0.15820965489E+03  0.12500000000E+03 0.  0.
</event>
<event>
 5    0  0.5713700E-005  0.3361339E+03  0.7546771E-02  0.1068455E+00
         21   -1    0    0  502  501  0.00000000000E+00  0.00000000000E+00  0.39768896076E+03  0.39768896076E+03  0.00000000000E+00 0. -1.
         21   -1    0    0  501  502 -0.00000000000E+00 -0.00000000000E+00 -0.28410642572E+03  0.28410642572E+03  0.00000000000E+00 0. -1.
         25    1    1    2    0    0 -0.19272499031E+02  0.10053765574E+02  0.25271169744E+03  0.28277324739E+03  0.12500000000E+03 0.  0.
         25    1    1    2    0    0  0.75675207958E+02 -0.12696853166E+03 -0.65644884074E+02  0.20440644788E+03  0.12500000000E+03 0.  0.
         25    1    1    2    0    0 -0.56402708926E+02  0.11691476609E+03 -0.73484278315E+02  0.19461569120E+03  0.12500000000E+03 0.  0.
</event>
<event>
 5    0  0.5713700E-005  0.3299880E+03  0.7546771E-02  0.1071142E+00
         21   -1    0    0  502  501  0.00000000000E+00  0.00000000000E+00  0.57077866085E+03  0.57077866085E+03  0.00000000000E+00 0.  1.
         21   -1    0    0  501  502 -0.00000000000E+00 -0.00000000000E+00 -0.19077808647E+03  0.19077808647E+03  0.00000000000E+00 0.  1.
         25    1    1    2    0    0 -0.66596473187E+01  0.29384874623E+02 -0.90617732071E+02  0.15730351275E+03  0.12500000000E+03 0.  0.
         25    1    1    2    0    0 -0.88139097973E+02  0.72004299415E+01  0.40010926076E+03  0.42840724472E+03  0.12500000000E+03 0.  0.
         25    1    1    2    0    0  0.94798745292E+02 -0.36585304565E+02  0.70509045693E+02  0.17584598984E+03  0.12500000000E+03 0.  0.
</event>
<event>
 5    0  0.5713700E-005  0.4859366E+03  0.7546771E-02  0.1017516E+00
         21   -1    0    0  502  501  0.00000000000E+00  0.00000000000E+00  0.25547264126E+03  0.25547264126E+03  0.00000000000E+00 0. -1.
         21   -1    0    0  501  502 -0.00000000000E+00 -0.00000000000E+00 -0.92430390336E+03  0.92430390336E+03  0.00000000000E+00 0. -1.
         25    1    1    2    0    0  0.10880820135E+03 -0.12319993952E+03 -0.27606121053E+03  0.34474953479E+03  0.12500000000E+03 0.  0.
         25    1    1    2    0    0 -0.68858373847E+02  0.34797533149E+03 -0.15164320549E+02  0.37640837343E+03  0.12500000000E+03 0.  0.
         25    1    1    2    0    0 -0.39949827507E+02 -0.22477539197E+03 -0.37760573102E+03  0.45861863640E+03  0.12500000000E+03 0.  0.
</event>
<event>
 5    0  0.5713700E-005  0.2954380E+03  0.7546771E-02  0.1087544E+00
         21   -1    0    0  502  501  0.00000000000E+00  0.00000000000E+00  0.46518869427E+03  0.46518869427E+03  0.00000000000E+00 0. -1.
         21   -1    0    0  501  502 -0.00000000000E+00 -0.00000000000E+00 -0.18763059233E+03  0.18763059233E+03  0.00000000000E+00 0. -1.
         25    1    1    2    0    0  0.13484707101E+03  0.99402000165E+02  0.14941378346E+03  0.25693183704E+03  0.12500000000E+03 0.  0.
         25    1    1    2    0    0  0.48960249074E+02 -0.66474411555E+02  0.47739597339E+02  0.15722602372E+03  0.12500000000E+03 0.  0.
         25    1    1    2    0    0 -0.18380732008E+03 -0.32927588611E+02  0.80404721147E+02  0.23866142585E+03  0.12500000000E+03 0.  0.
</event>
<event>
 5    0  0.5713700E-005  0.3637188E+03  0.7546771E-02  0.1057121E+00
         21   -1    0    0  502  501  0.00000000000E+00  0.00000000000E+00  0.18026362993E+04  0.18026362993E+04  0.00000000000E+00 0. -1.
         21   -1    0    0  501  502 -0.00000000000E+00 -0.00000000000E+00 -0.73387705923E+02  0.73387705923E+02  0.00000000000E+00 0. -1.
         25    1    1    2    0    0  0.27053043402E+02  0.15236613319E+03  0.22291231120E+03  0.29876780982E+03  0.12500000000E+03 0.  0.
         25    1    1    2    0    0 -0.31647795414E+02  0.96805264361E+01  0.12111585777E+04  0.12180416233E+04  0.12500000000E+03 0.  0.
         25    1    1    2    0    0  0.45947520127E+01 -0.16204665963E+03  0.29517770439E+03  0.35921457211E+03  0.12500000000E+03 0.  0.
</event>
<event>
 5    0  0.5713700E-005  0.5538776E+03  0.7546771E-02  0.1000600E+00
         21   -1    0    0  502  501  0.00000000000E+00  0.00000000000E+00  0.23385443005E+03  0.23385443005E+03  0.00000000000E+00 0.  1.
         21   -1    0    0  501  502 -0.00000000000E+00 -0.00000000000E+00 -0.13118432070E+04  0.13118432070E+04  0.00000000000E+00 0.  1.
         25    1    1    2    0    0 -0.30394575769E+03 -0.76405094861E+02 -0.13158515837E+03  0.36216075994E+03  0.12500000000E+03 0.  0.
         25    1    1    2    0    0 -0.94581497983E+02  0.20998861506E+03 -0.45384093202E+03  0.52405865110E+03  0.12500000000E+03 0.  0.
         25    1    1    2    0    0  0.39852725567E+03 -0.13358352020E+03 -0.49256268652E+03  0.65947822598E+03  0.12500000000E+03 0.  0.
</event>
<event>
 5    0  0.5713700E-005  0.2615464E+03  0.7546771E-02  0.1106218E+00
         21   -1    0    0  502  501  0.00000000000E+00  0.00000000000E+00  0.13320988314E+04  0.13320988314E+04  0.00000000000E+00 0.  1.
         21   -1    0    0  501  502 -0.00000000000E+00 -0.00000000000E+00 -0.51352438928E+02  0.51352438928E+02  0.00000000000E+00 0.  1.
         25    1    1    2    0    0  0.26887449166E+02  0.10290899284E+03  0.72649119234E+03  0.74480040835E+03  0.12500000000E+03 0.  0.
         25    1    1    2    0    0  0.62932654969E+02 -0.76289307169E+02  0.31284989425E+03  0.35111342011E+03  0.12500000000E+03 0.  0.
         25    1    1    2    0    0 -0.89820104135E+02 -0.26619685668E+02  0.24140530591E+03  0.28753744190E+03  0.12500000000E+03 0.  0.
</event>
<event>
 5    0  0.5713700E-005  0.3848854E+03  0.7546771E-02  0.1049143E+00
         21   -1    0    0  502  501  0.00000000000E+00  0.00000000000E+00  0.21678444879E+03  0.21678444879E+03  0.00000000000E+00 0. -1.
         21   -1    0    0  501  502 -0.00000000000E+00 -0.00000000000E+00 -0.68333675599E+03  0.68333675599E+03  0.00000000000E+00 0. -1.
         25    1    1    2    0    0 -0.45910193810E+02  0.58822902838E+02 -0.58846491490E+03  0.60620445054E+03  0.12500000000E+03 0.  0.
         25    1    1    2    0    0  0.17277002377E+02 -0.17272997959E+01  0.69540562553E+02  0.14409152722E+03  0.12500000000E+03 0.  0.
         25    1    1    2    0    0  0.28633191433E+02 -0.57095603042E+02  0.52372045141E+02  0.14982522702E+03  0.12500000000E+03 0.  0.
</event>
<event>
 5    0  0.5713700E-005  0.2789447E+03  0.7546771E-02  0.1096267E+00
         21   -1    0    0  502  501  0.00000000000E+00  0.00000000000E+00  0.46577614188E+03  0.46577614188E+03  0.00000000000E+00 0.  1.
         21   -1    0    0  501  502 -0.00000000000E+00 -0.00000000000E+00 -0.16705479391E+03  0.16705479391E+03  0.00000000000E+00 0.  1.
         25    1    1    2    0    0 -0.20493162647E+02 -0.49966452487E+02  0.21673483443E+03  0.25596016203E+03  0.12500000000E+03 0.  0.
         25    1    1    2    0    0  0.13014798924E+02 -0.85329980049E+02 -0.38408219226E+02  0.15668689093E+03  0.12500000000E+03 0.  0.
         25    1    1    2    0    0  0.74783637223E+01  0.13529643254E+03  0.12039473276E+03  0.22018388283E+03  0.12500000000E+03 0.  0.
</event>
<event>
 5    0  0.5713700E-005  0.2667754E+03  0.7546771E-02  0.1103139E+00
         21   -1    0    0  502  501  0.00000000000E+00  0.00000000000E+00  0.11306849447E+04  0.11306849447E+04  0.00000000000E+00 0. -1.
         21   -1    0    0  501  502 -0.00000000000E+00 -0.00000000000E+00 -0.62943376866E+02  0.62943376866E+02  0.00000000000E+00 0. -1.
         25    1    1    2    0    0 -0.80451889829E+01 -0.31710715379E+01  0.14531461274E+03  0.19187526531E+03  0.12500000000E+03 0.  0.
         25    1    1    2    0    0  0.15054991162E+03  0.31191242530E+02  0.50326615344E+03  0.54086966147E+03  0.12500000000E+03 0.  0.
         25    1    1    2    0    0 -0.14250472264E+03 -0.28020170992E+02  0.41916080170E+03  0.46088339484E+03  0.12500000000E+03 0.  0.
</event>
<event>
 5    0  0.5713700E-005  0.3865124E+03  0.7546771E-02  0.1048553E+00
         21   -1    0    0  502  501  0.00000000000E+00  0.00000000000E+00  0.88744626859E+02  0.88744626859E+02  0.00000000000E+00 0.  1.
         21   -1    0    0  501  502 -0.00000000000E+00 -0.00000000000E+00 -0.16833903831E+04  0.16833903831E+04  0.00000000000E+00 0.  1.
         25    1    1    2    0    0  0.13142325185E+03  0.18327543376E+02 -0.11485066878E+03  0.21546147240E+03  0.12500000000E+03 0.  0.
         25    1    1    2    0    0 -0.40983948622E+02  0.48662965757E+02 -0.11451242147E+03  0.18106866916E+03  0.12500000000E+03 0.  0.
         25    1    1    2    0    0 -0.90439303224E+02 -0.66990509133E+02 -0.13652826660E+04  0.13756048684E+04  0.12500000000E+03 0.  0.
</event>
<event>
 5    0  0.5713700E-005  0.4104333E+03  0.7546771E-02  0.1040226E+00
         21   -1    0    0  502  501  0.00000000000E+00  0.00000000000E+00  0.18061353903E+03  0.18061353903E+03  0.00000000000E+00 0. -1.
         21   -1    0    0  501  502 -0.00000000000E+00 -0.00000000000E+00 -0.93268467873E+03  0.93268467873E+03  0.00000000000E+00 0. -1.
         25    1    1    2    0    0  0.12991495966E+03  0.83247294062E+02 -0.41949202123E+03  0.46411912758E+03  0.12500000000E+03 0.  0.
         25    1    1    2    0    0 -0.21083513244E+03  0.27915540606E+02 -0.38396458578E+03  0.45638200404E+03  0.12500000000E+03 0.  0.
         25    1    1    2    0    0  0.80920172780E+02 -0.11116283467E+03  0.51385467307E+02  0.19279708614E+03  0.12500000000E+03 0.  0.
</event>
<event>
 5    0  0.5713700E-005  0.3270702E+03  0.7546771E-02  0.1072441E+00
         21   -1    0    0  502  501  0.00000000000E+00  0.00000000000E+00  0.84062582077E+03  0.84062582077E+03  0.00000000000E+00 0. -1.
         21   -1    0    0  501  502 -0.00000000000E+00 -0.00000000000E+00 -0.12725631117E+03  0.12725631117E+03  0.00000000000E+00 0. -1.
         25    1    1    2    0    0 -0.19673844618E+02 -0.73583730255E+01  0.24310091962E+03  0.27416101644E+03  0.12500000000E+03 0.  0.
         25    1    1    2    0    0 -0.73213521674E+02  0.15743752754E+03  0.42048904394E+03  0.47178684901E+03  0.12500000000E+03 0.  0.
         25    1    1    2    0    0  0.92887366292E+02 -0.15007915451E+03  0.49779546046E+02  0.22193426648E+03  0.12500000000E+03 0.  0.
</event>
<event>
 5    0  0.5713700E-005  0.3259128E+03  0.7546771E-02  0.1072960E+00
         21   -1    0    0  502  501  0.00000000000E+00  0.00000000000E+00  0.26769863872E+03  0.26769863872E+03  0.00000000000E+00 0. -1.
         21   -1    0    0  501  502 -0.00000000000E+00 -0.00000000000E+00 -0.39678624296E+03  0.39678624296E+03  0.00000000000E+00 0. -1.
         25    1    1    2    0    0  0.21053228809E+03 -0.91491365685E+02 -0.12949274957E+03  0.29169827993E+03  0.12500000000E+03 0.  0.
         25    1    1    2    0    0 -0.18813844587E+03  0.31533694051E+02 -0.27138903665E+02  0.22967796753E+03  0.12500000000E+03 0.  0.
         25    1    1    2    0    0 -0.22393842213E+02  0.59957671633E+02  0.27544048990E+02  0.14310863423E+03  0.12500000000E+03 0.  0.
</event>
<event>
 5    0  0.5713700E-005  0.2299342E+03  0.7546771E-02  0.1126686E+00
         21   -1    0    0  502  501  0.00000000000E+00  0.00000000000E+00  0.75057235579E+03  0.75057235579E+03  0.00000000000E+00 0.  1.
         21   -1    0    0  501  502 -0.00000000000E+00 -0.00000000000E+00 -0.70439196500E+02  0.70439196500E+02  0.00000000000E+00 0.  1.
         25    1    1    2    0    0  0.80928270135E+02  0.67139400664E+02  0.18682249176E+03  0.24816270360E+03  0.12500000000E+03 0.  0.
         25    1    1    2    0    0 -0.82327136409E+02 -0.37544530061E+01  0.22745932075E+03  0.27231341484E+03  0.12500000000E+03 0.  0.
         25    1    1    2    0    0  0.13988662741E+01 -0.63384947658E+02  0.26585134678E+03  0.30053543385E+03  0.12500000000E+03 0.  0.
</event>
<event>
 5    0  0.5713700E-005  0.3329277E+03  0.7546771E-02  0.1069849E+00
         21   -1    0    0  502  501  0.00000000000E+00  0.00000000000E+00  0.27115735757E+03  0.27115735757E+03  0.00000000000E+00 0. -1.
         21   -1    0    0  501  502 -0.00000000000E+00 -0.00000000000E+00 -0.40876942673E+03  0.40876942673E+03  0.00000000000E+00 0. -1.
         25    1    1    2    0    0  0.16440727161E+03  0.82906792442E+01 -0.20426618301E+03  0.29059965561E+03  0.12500000000E+03 0.  0.
         25    1    1    2    0    0 -0.10857298688E+03 -0.34374966384E+02  0.15076228866E+03  0.22654800700E+03  0.12500000000E+03 0.  0.
         25    1    1    2    0    0 -0.55834284727E+02  0.26084287140E+02 -0.84108174806E+02  0.16277912168E+03  0.12500000000E+03 0.  0.
</event>
<event>
 5    0  0.5713700E-005  0.5412250E+03  0.7546771E-02  0.1003546E+00
         21   -1    0    0  502  501  0.00000000000E+00  0.00000000000E+00  0.14405048239E+03  0.14405048239E+03  0.00000000000E+00 0.  1.
         21   -1    0    0  501  502 -0.00000000000E+00 -0.00000000000E+00 -0.20334850298E+04  0.20334850298E+04  0.00000000000E+00 0. -1.
         25    1    1    2    0    0  0.35994441670E+02 -0.43921157477E+03 -0.55885631393E+03  0.72259794275E+03  0.12500000000E+03 0.  0.
         25    1    1    2    0    0 -0.13216350012E+03  0.12590961693E+03 -0.69018781515E+03  0.72477903017E+03  0.12500000000E+03 0.  0.
         25    1    1    2    0    0  0.96169058454E+02  0.31330195784E+03 -0.64039041829E+03  0.73015853924E+03  0.12500000000E+03 0.  0.
</event>
<event>
 5    0  0.5713700E-005  0.7334915E+03  0.7546771E-02  0.9661611E-01
         21   -1    0    0  502  501  0.00000000000E+00  0.00000000000E+00  0.56178965920E+03  0.56178965920E+03  0.00000000000E+00 0. -1.
         21   -1    0    0  501  502 -0.00000000000E+00 -0.00000000000E+00 -0.95767126771E+03  0.95767126771E+03  0.00000000000E+00 0. -1.
         25    1    1    2    0    0 -0.17028447754E+03 -0.66556097715E+02 -0.24414719566E+03  0.32963520835E+03  0.12500000000E+03 0.  0.
         25    1    1    2    0    0  0.18818942518E+03  0.42049423667E+03  0.32892932358E+03  0.57969833770E+03  0.12500000000E+03 0.  0.
         25    1    1    2    0    0 -0.17904947638E+02 -0.35393813895E+03 -0.48066373643E+03  0.61012738086E+03  0.12500000000E+03 0.  0.
</event>
<event>
 5    0  0.5713700E-005  0.2122236E+03  0.7546771E-02  0.1139817E+00
         21   -1    0    0  502  501  0.00000000000E+00  0.00000000000E+00  0.92418108447E+03  0.92418108447E+03  0.00000000000E+00 0. -1.
         21   -1    0    0  501  502 -0.00000000000E+00 -0.00000000000E+00 -0.48733805953E+02  0.48733805953E+02  0.00000000000E+00 0. -1.
         25    1    1    2    0    0 -0.22556542260E+02 -0.50501475541E+02  0.33628327414E+03  0.36300225494E+03  0.12500000000E+03 0.  0.
         25    1    1    2    0    0 -0.45716321856E+02  0.46888830345E+02  0.29988431898E+03  0.33142744193E+03  0.12500000000E+03 0.  0.
         25    1    1    2    0    0  0.68272864115E+02  0.36126451961E+01  0.23927968540E+03  0.27848519355E+03  0.12500000000E+03 0.  0.
</event>
<event>
 5    0  0.5713700E-005  0.2130079E+03  0.7546771E-02  0.1139206E+00
         21   -1    0    0  502  501  0.00000000000E+00  0.00000000000E+00  0.28474462099E+03  0.28474462099E+03  0.00000000000E+00 0. -1.
         21   -1    0    0  501  502 -0.00000000000E+00 -0.00000000000E+00 -0.15934407331E+03  0.15934407331E+03  0.00000000000E+00 0. -1.
         25    1    1    2    0    0  0.61252681855E+02 -0.26983158112E+02  0.27558522675E+02  0.14444533232E+03  0.12500000000E+03 0.  0.
         25    1    1    2    0    0 -0.14525141780E+02 -0.37153074619E+02  0.70934338376E+02  0.14915767180E+03  0.12500000000E+03 0.  0.
         25    1    1    2    0    0 -0.46727540074E+02  0.64136232730E+02  0.26907686630E+02  0.15048569018E+03  0.12500000000E+03 0.  0.
</event>
<event>
 5    0  0.5713700E-005  0.3278020E+03  0.7546771E-02  0.1072114E+00
         21   -1    0    0  502  501  0.00000000000E+00  0.00000000000E+00  0.45905570169E+02  0.45905570169E+02  0.00000000000E+00 0. -1.
         21   -1    0    0  501  502 -0.00000000000E+00 -0.00000000000E+00 -0.23407654359E+04  0.23407654359E+04  0.00000000000E+00 0. -1.
         25    1    1    2    0    0  0.31070172560E+02 -0.24789831421E+02 -0.28712216684E+03  0.31566442633E+03  0.12500000000E+03 0.  0.
         25    1    1    2    0    0  0.17613801539E+03  0.12057956892E+03 -0.10178114055E+04  0.10474393014E+04  0.12500000000E+03 0.  0.
         25    1    1    2    0    0 -0.20720818795E+03 -0.95789737502E+02 -0.98992629347E+03  0.10235672784E+04  0.12500000000E+03 0.  0.
</event>
<event>
 5    0  0.5713700E-005  0.3566653E+03  0.7546771E-02  0.1059912E+00
         21   -1    0    0  502  501  0.00000000000E+00  0.00000000000E+00  0.34657949225E+03  0.34657949225E+03  0.00000000000E+00 0.  1.
         21   -1    0    0  501  502 -0.00000000000E+00 -0.00000000000E+00 -0.36704466386E+03  0.36704466386E+03  0.00000000000E+00 0.  1.
         25    1    1    2    0    0 -0.15749549644E+03  0.15937774317E+03  0.85353282941E+02  0.27040022064E+03  0.12500000000E+03 0.  0.
         25    1    1    2    0    0  0.70184413628E+02 -0.21075891241E+03 -0.11995089680E+03  0.28170620994E+03  0.12500000000E+03 0.  0.
         25    1    1    2    0    0  0.87311082809E+02  0.51381169236E+02  0.14132442248E+02  0.16151772552E+03  0.12500000000E+03 0.  0.
</event>
<event>
 5    0  0.5713700E-005  0.2733078E+03  0.7546771E-02  0.1099401E+00
         21   -1    0    0  502  501  0.00000000000E+00  0.00000000000E+00  0.16490114252E+03  0.16490114252E+03  0.00000000000E+00 0. -1.
         21   -1    0    0  501  502 -0.00000000000E+00 -0.00000000000E+00 -0.45298149701E+03  0.45298149701E+03  0.00000000000E+00 0. -1.
         25    1    1    2    0    0 -0.11502710475E+03  0.16003722220E+02 -0.57708007782E+02  0.18011820595E+03  0.12500000000E+03 0.  0.
         25    1    1    2    0    0  0.75587349753E+01 -0.80780035230E+02 -0.23569427193E+01  0.14904061106E+03  0.12500000000E+03 0.  0.
         25    1    1    2    0    0  0.10746836978E+03  0.64776313010E+02 -0.22801540400E+03  0.28872382252E+03  0.12500000000E+03 0.  0.
</event>
<event>
 5    0  0.5713700E-005  0.3826657E+03  0.7546771E-02  0.1049953E+00
         21   -1    0    0  502  501  0.00000000000E+00  0.00000000000E+00  0.64810598045E+03  0.64810598045E+03  0.00000000000E+00 0. -1.
         21   -1    0    0  501  502 -0.00000000000E+00 -0.00000000000E+00 -0.22594000028E+03  0.22594000028E+03  0.00000000000E+00 0. -1.
         25    1    1    2    0    0  0.10896069746E+03  0.14036080797E+03 -0.33314452545E+02  0.21979181685E+03  0.12500000000E+03 0.  0.
         25    1    1    2    0    0  0.70922933356E+02 -0.63545548031E+02  0.16918802209E+02  0.15804855273E+03  0.12500000000E+03 0.  0.
         25    1    1    2    0    0 -0.17988363082E+03 -0.76815259937E+02  0.43856163050E+03  0.49620561116E+03  0.12500000000E+03 0.  0.
</event>
<event>
 5    0  0.5713700E-005  0.2718220E+03  0.7546771E-02  0.1100241E+00
         21   -1    0    0  502  501  0.00000000000E+00  0.00000000000E+00  0.13669951998E+04  0.13669951998E+04  0.00000000000E+00 0. -1.
         21   -1    0    0  501  502 -0.00000000000E+00 -0.00000000000E+00 -0.54050823442E+02  0.54050823442E+02  0.00000000000E+00 0. -1.
         25    1    1    2    0    0  0.48553464474E+02  0.16124071633E+03  0.36441699112E+03  0.42045303059E+03  0.12500000000E+03 0.  0.
         25    1    1    2    0    0  0.82578866137E+01 -0.34724021568E+02  0.44346566939E+03  0.46212633585E+03  0.12500000000E+03 0.  0.
         25    1    1    2    0    0 -0.56811351088E+02 -0.12651669476E+03  0.50506171583E+03  0.53846665678E+03  0.12500000000E+03 0.  0.
</event>
<event>
 5    0  0.5713700E-005  0.3213531E+03  0.7546771E-02  0.1075028E+00
         21   -1    0    0  502  501  0.00000000000E+00  0.00000000000E+00  0.23730559170E+03  0.23730559170E+03  0.00000000000E+00 0.  1.
         21   -1    0    0  501  502 -0.00000000000E+00 -0.00000000000E+00 -0.43516809513E+03  0.43516809513E+03  0.00000000000E+00 0.  1.
         25    1    1    2    0    0  0.39038120572E+02  0.60537812234E+02 -0.16935121858E+03  0.22247165393E+03  0.12500000000E+03 0.  0.
         25    1    1    2    0    0 -0.47115028972E+02 -0.18860411789E+03  0.75150913044E+02  0.24303086012E+03  0.12500000000E+03 0.  0.
         25    1    1    2    0    0  0.80769083994E+01  0.12806630565E+03 -0.10366219790E+03  0.20697117279E+03  0.12500000000E+03 0.  0.
</event>
<event>
 5    0  0.5713700E-005  0.3513074E+03  0.7546771E-02  0.1062080E+00
         21   -1    0    0  502  501  0.00000000000E+00  0.00000000000E+00  0.27694501511E+03  0.27694501511E+03  0.00000000000E+00 0.  1.
         21   -1    0    0  501  502 -0.00000000000E+00 -0.00000000000E+00 -0.44563683252E+03  0.44563683252E+03  0.00000000000E+00 0.  1.
         25    1    1    2    0    0  0.21979970969E+03  0.71952793274E+02 -0.79302087211E+02  0.27459595386E+03  0.12500000000E+03 0.  0.
         25    1    1    2    0    0  0.22713090282E+02 -0.31414539941E+02  0.48551981818E+02  0.13958887036E+03  0.12500000000E+03 0.  0.
         25    1    1    2    0    0 -0.24251279997E+03 -0.40538253334E+02 -0.13794171202E+03  0.30839702341E+03  0.12500000000E+03 0.  0.
</event>
<event>
 5    0  0.5713700E-005  0.3246066E+03  0.7546771E-02  0.1073549E+00
         21   -1    0    0  502  501  0.00000000000E+00  0.00000000000E+00  0.63823769904E+02  0.63823769904E+02  0.00000000000E+00 0. -1.
         21   -1    0    0  501  502 -0.00000000000E+00 -0.00000000000E+00 -0.16509432957E+04  0.16509432957E+04  0.00000000000E+00 0. -1.
         25    1    1    2    0    0 -0.16457376515E+02  0.12779138929E+03 -0.26395165003E+03  0.31921302913E+03  0.12500000000E+03 0.  0.
         25    1    1    2    0    0 -0.64084448792E+02 -0.14260970163E+03 -0.29450662769E+03  0.35609478700E+03  0.12500000000E+03 0.  0.
         25    1    1    2    0    0  0.80541825307E+02  0.14818312344E+02 -0.10286612480E+04  0.10394592494E+04  0.12500000000E+03 0.  0.
</event>
<event>
 5    0  0.5713700E-005  0.4908309E+03  0.7546771E-02  0.1016200E+00
         21   -1    0    0  502  501  0.00000000000E+00  0.00000000000E+00  0.12174562075E+04  0.12174562075E+04  0.00000000000E+00 0. -1.
         21   -1    0    0  501  502 -0.00000000000E+00 -0.00000000000E+00 -0.19788387060E+03  0.19788387060E+03  0.00000000000E+00 0. -1.
         25    1    1    2    0    0 -0.30986664462E+03 -0.10328496189E+03  0.53151017189E+03  0.63624930933E+03  0.12500000000E+03 0.  0.
         25    1    1    2    0    0 -0.73596487277E+02  0.92331236302E+02  0.40777106974E+02  0.17671805960E+03  0.12500000000E+03 0.  0.
         25    1    1    2    0    0  0.38346313189E+03  0.10953725587E+02  0.44728505806E+03  0.60237270920E+03  0.12500000000E+03 0.  0.
</event>
<event>
 5    0  0.5713700E-005  0.2396129E+03  0.7546771E-02  0.1120051E+00
         21   -1    0    0  502  501  0.00000000000E+00  0.00000000000E+00  0.12350024995E+03  0.12350024995E+03  0.00000000000E+00 0. -1.
         21   -1    0    0  501  502 -0.00000000000E+00 -0.00000000000E+00 -0.46489265329E+03  0.46489265329E+03  0.00000000000E+00 0.  1.
         25    1    1    2    0    0 -0.50493479647E+02  0.65198425502E+02 -0.95934331642E+02  0.17784493853E+03  0.12500000000E+03 0.  0.
         25    1    1    2    0    0  0.67685031819E+02 -0.82910148019E+02 -0.22911744313E+03  0.28209069273E+03  0.12500000000E+03 0.  0.
         25    1    1    2    0    0 -0.17191552171E+02  0.17711722516E+02 -0.16340628565E+02  0.12845727197E+03  0.12500000000E+03 0.  0.
</event>
<event>
 5    0  0.8717432E-005  0.6460963E+03  0.7546771E-02  0.9814132E-01
         21   -1    0    0  502  501  0.00000000000E+00  0.00000000000E+00  0.29692404077E+03  0.29692404077E+03  0.00000000000E+00 0.  1.
         21   -1    0    0  501  502 -0.00000000000E+00 -0.00000000000E+00 -0.14058827564E+04  0.14058827564E+04  0.00000000000E+00 0.  1.
         25    1    1    2    0    0  0.37351611444E+03 -0.15306286249E+03 -0.27925823606E+03  0.50651030594E+03  0.12500000000E+03 0.  0.
         25    1    1    2    0    0 -0.20600749391E+03  0.20022541226E+03  0.25815528525E+02  0.31435767013E+03  0.12500000000E+03 0.  0.
         25    1    1    2    0    0 -0.16750862053E+03 -0.47162549767E+02 -0.85551600806E+03  0.88193882106E+03  0.12500000000E+03 0.  0.
</event>
<event>
 5    0  0.5713700E-005  0.3640780E+03  0.7546771E-02  0.1056981E+00
         21   -1    0    0  502  501  0.00000000000E+00  0.00000000000E+00  0.72651595238E+02  0.72651595238E+02  0.00000000000E+00 0. -1.
         21   -1    0    0  501  502 -0.00000000000E+00 -0.00000000000E+00 -0.18244993194E+04  0.18244993194E+04  0.00000000000E+00 0. -1.
         25    1    1    2    0    0 -0.10694916188E+03  0.17775304768E+03 -0.41975210231E+03  0.48461437926E+03  0.12500000000E+03 0.  0.
         25    1    1    2    0    0  0.12264522256E+03 -0.22800158486E+03 -0.11505229591E+04  0.11858982472E+04  0.12500000000E+03 0.  0.
         25    1    1    2    0    0 -0.15696060674E+02  0.50248537176E+02 -0.18157266277E+03  0.22663828819E+03  0.12500000000E+03 0.  0.
</event>
<event>
 5    0  0.5713700E-005  0.2278131E+03  0.7546771E-02  0.1128189E+00
         21   -1    0    0  502  501  0.00000000000E+00  0.00000000000E+00  0.10130933583E+03  0.10130933583E+03  0.00000000000E+00 0. -1.
         21   -1    0    0  501  502 -0.00000000000E+00 -0.00000000000E+00 -0.51228057658E+03  0.51228057658E+03  0.00000000000E+00 0. -1.
         25    1    1    2    0    0  0.23869211548E+02 -0.21743164723E+02 -0.30732108155E+03  0.33333729410E+03  0.12500000000E+03 0.  0.
         25    1    1    2    0    0 -0.91204770775E+00  0.40517016960E+02 -0.43683113969E+02  0.13847626129E+03  0.12500000000E+03 0.  0.
         25    1    1    2    0    0 -0.22957163840E+02 -0.18773852237E+02 -0.59967045229E+02  0.14177635703E+03  0.12500000000E+03 0.  0.
</event>
<event>
 5    0  0.5713700E-005  0.3774252E+03  0.7546771E-02  0.1051890E+00
         21   -1    0    0  502  501  0.00000000000E+00  0.00000000000E+00  0.63157221077E+03  0.63157221077E+03  0.00000000000E+00 0.  1.
         21   -1    0    0  501  502 -0.00000000000E+00 -0.00000000000E+00 -0.22554788006E+03  0.22554788006E+03  0.00000000000E+00 0.  1.
         25    1    1    2    0    0  0.62568468008E+02  0.48548476690E+02  0.27955833738E+02  0.15059314864E+03  0.12500000000E+03 0.  0.
         25    1    1    2    0    0 -0.15218954218E+03  0.20239204869E+03  0.27635243991E+03  0.39512006930E+03  0.12500000000E+03 0.  0.
         25    1    1    2    0    0  0.89621074176E+02 -0.25094052538E+03  0.10171605707E+03  0.31140687289E+03  0.12500000000E+03 0.  0.
</event>
<event>
 5    0  0.5713700E-005  0.3289212E+03  0.7546771E-02  0.1071615E+00
         21   -1    0    0  502  501  0.00000000000E+00  0.00000000000E+00  0.12888517968E+04  0.12888517968E+04  0.00000000000E+00 0.  1.
         21   -1    0    0  501  502 -0.00000000000E+00 -0.00000000000E+00 -0.83942298273E+02  0.83942298273E+02  0.00000000000E+00 0.  1.
         25    1    1    2    0    0 -0.30563989462E+02  0.21680499460E+03  0.32570278196E+03  0.41188088728E+03  0.12500000000E+03 0.  0.
         25    1    1    2    0    0  0.30604080785E+02 -0.13610081907E+03  0.71586069577E+03  0.73996052493E+03  0.12500000000E+03 0.  0.
         25    1    1    2    0    0 -0.40091323334E-01 -0.80704175528E+02  0.16334602085E+03  0.22095268290E+03  0.12500000000E+03 0.  0.
</event>
<event>
 5    0  0.5713700E-005  0.5990401E+03  0.7546771E-02  0.9907400E-01
         21   -1    0    0  502  501  0.00000000000E+00  0.00000000000E+00  0.13730808977E+04  0.13730808977E+04  0.00000000000E+00 0.  1.
         21   -1    0    0  501  502 -0.00000000000E+00 -0.00000000000E+00 -0.26134587201E+03  0.26134587201E+03  0.00000000000E+00 0.  1.
         25    1    1    2    0    0  0.13512874855E+03  0.12631402532E+03  0.93471842473E+03  0.96100912857E+03  0.12500000000E+03 0.  0.
         25    1    1    2    0    0 -0.18563281622E+03 -0.17249610309E+03  0.34965908390E+03  0.44955636242E+03  0.12500000000E+03 0.  0.
         25    1    1    2    0    0  0.50504067665E+02  0.46182077772E+02 -0.17264248298E+03  0.22386127867E+03  0.12500000000E+03 0.  0.
</event>
<event>
 5    0  0.5713700E-005  0.2424142E+03  0.7546771E-02  0.1118195E+00
         21   -1    0    0  502  501  0.00000000000E+00  0.00000000000E+00  0.23924391666E+02  0.23924391666E+02  0.00000000000E+00 0. -1.
         21   -1    0    0  501  502 -0.00000000000E+00 -0.00000000000E+00 -0.24562649860E+04  0.24562649860E+04  0.00000000000E+00 0. -1.
         25    1    1    2    0    0  0.40327069068E+00 -0.51067406657E+02 -0.75128337290E+03  0.76332152403E+03  0.12500000000E+03 0.  0.
         25    1    1    2    0    0 -0.98148002301E+02 -0.26043635890E+02 -0.58762115960E+03  0.60929051243E+03  0.12500000000E+03 0.  0.
         25    1    1    2    0    0  0.97744731610E+02  0.77111042547E+02 -0.10934360618E+04  0.11075773412E+04  0.12500000000E+03 0.  0.
</event>
<event>
 5    0  0.5713700E-005  0.2892058E+03  0.7546771E-02  0.1090765E+00
         21   -1    0    0  502  501  0.00000000000E+00  0.00000000000E+00  0.86335010069E+03  0.86335010069E+03  0.00000000000E+00 0. -1.
         21   -1    0    0  501  502 -0.00000000000E+00 -0.00000000000E+00 -0.96878400143E+02  0.96878400143E+02  0.00000000000E+00 0. -1.
         25    1    1    2    0    0  0.62683595291E+02 -0.18259130726E+03  0.20795729112E+03  0.31006459574E+03  0.12500000000E+03 0.  0.
         25    1    1    2    0    0 -0.17206745576E+02  0.96864200435E+02  0.18183773577E+03  0.24159616629E+03  0.12500000000E+03 0.  0.
         25    1    1    2    0    0 -0.45476849714E+02  0.85727106821E+02  0.37667667366E+03  0.40856773879E+03  0.12500000000E+03 0.  0.
</event>
<event>
 5    0  0.5713700E-005  0.3213135E+03  0.7546771E-02  0.1075046E+00
         21   -1    0    0  502  501  0.00000000000E+00  0.00000000000E+00  0.64173460675E+03  0.64173460675E+03  0.00000000000E+00 0.  1.
         21   -1    0    0  501  502 -0.00000000000E+00 -0.00000000000E+00 -0.16088019378E+03  0.16088019378E+03  0.00000000000E+00 0.  1.
         25    1    1    2    0    0 -0.26332707102E+02 -0.62953244557E+02  0.25575258228E+03  0.29273009037E+03  0.12500000000E+03 0.  0.
         25    1    1    2    0    0 -0.13846463029E+03  0.13350062273E+03  0.16703417587E+03  0.28376096635E+03  0.12500000000E+03 0.  0.
         25    1    1    2    0    0  0.16479733740E+03 -0.70547378178E+02  0.58067654821E+02  0.22612374381E+03  0.12500000000E+03 0.  0.
</event>
<event>
 5    0  0.5713700E-005  0.3047403E+03  0.7546771E-02  0.1082895E+00
         21   -1    0    0  502  501  0.00000000000E+00  0.00000000000E+00  0.49755865992E+02  0.49755865992E+02  0.00000000000E+00 0. -1.
         21   -1    0    0  501  502 -0.00000000000E+00 -0.00000000000E+00 -0.18664462460E+04  0.18664462460E+04  0.00000000000E+00 0. -1.
         25    1    1    2    0    0 -0.12839759222E+03  0.31686526461E+02 -0.68883965879E+03  0.71247108936E+03  0.12500000000E+03 0.  0.
         25    1    1    2    0    0  0.99845539636E+02  0.10806540986E+03 -0.81774238162E+03  0.84022310567E+03  0.12500000000E+03 0.  0.
         25    1    1    2    0    0  0.28552052586E+02 -0.13975193633E+03 -0.31010833961E+03  0.36350791698E+03  0.12500000000E+03 0.  0.
</event>
<event>
 5    0  0.5713700E-005  0.2769326E+03  0.7546771E-02  0.1097376E+00
         21   -1    0    0  502  501  0.00000000000E+00  0.00000000000E+00  0.38001735621E+02  0.38001735621E+02  0.00000000000E+00 0. -1.
         21   -1    0    0  501  502 -0.00000000000E+00 -0.00000000000E+00 -0.20181093988E+04  0.20181093988E+04  0.00000000000E+00 0. -1.
         25    1    1    2    0    0 -0.26501325943E+02  0.42762847849E+02 -0.59315487051E+03  0.60826694949E+03  0.12500000000E+03 0.  0.
         25    1    1    2    0    0  0.11052890958E+03  0.77762775123E+01 -0.25527676504E+03  0.30507103618E+03  0.12500000000E+03 0.  0.
         25    1    1    2    0    0 -0.84027583634E+02 -0.50539125361E+02 -0.11316760276E+04  0.11427731488E+04  0.12500000000E+03 0.  0.
</event>
<event>
 5    0  0.5713700E-005  0.2839757E+03  0.7546771E-02  0.1093537E+00
         21   -1    0    0  502  501  0.00000000000E+00  0.00000000000E+00  0.29675363027E+04  0.29675363027E+04  0.00000000000E+00 0.  1.
         21   -1    0    0  501  502 -0.00000000000E+00 -0.00000000000E+00 -0.27174803999E+02  0.27174803999E+02  0.00000000000E+00 0.  1.
         25    1    1    2    0    0 -0.96476785770E+01 -0.14095966486E+02  0.63155451525E+03  0.64403251447E+03  0.12500000000E+03 0.  0.
         25    1    1    2    0    0 -0.15093127792E+03 -0.84783864530E+02  0.12309449386E+04  0.12493274175E+04  0.12500000000E+03 0.  0.
         25    1    1    2    0    0  0.16057895650E+03  0.98879831016E+02  0.10778620449E+04  0.11013511747E+04  0.12500000000E+03 0.  0.
</event>
<event>
 5    0  0.5713700E-005  0.3783203E+03  0.7546771E-02  0.1051556E+00
         21   -1    0    0  502  501  0.00000000000E+00  0.00000000000E+00  0.10680756051E+04  0.10680756051E+04  0.00000000000E+00 0. -1.
         21   -1    0    0  501  502 -0.00000000000E+00 -0.00000000000E+00 -0.13400382252E+03  0.13400382252E+03  0.00000000000E+00 0. -1.
         25    1    1    2    0    0 -0.12457687058E+03 -0.95431035499E+02  0.11401117803E+03  0.23075967571E+03  0.12500000000E+03 0.  0.
         25    1    1    2    0    0  0.23351654994E+03 -0.46935629889E+02  0.27787438047E+03  0.38674552845E+03  0.12500000000E+03 0.  0.
         25    1    1    2    0    0 -0.10893967936E+03  0.14236666539E+03  0.54218622412E+03  0.58457422350E+03  0.12500000000E+03 0.  0.
</event>
<event>
 5    0  0.5713700E-005  0.3895847E+03  0.7546771E-02  0.1047447E+00
         21   -1    0    0  502  501  0.00000000000E+00  0.00000000000E+00  0.29247915384E+03  0.29247915384E+03  0.00000000000E+00 0. -1.
         21   -1    0    0  501  502 -0.00000000000E+00 -0.00000000000E+00 -0.51893023497E+03  0.51893023497E+03  0.00000000000E+00 0. -1.
         25    1    1    2    0    0 -0.66173968976E+02 -0.11359715339E+03 -0.11014402236E+03  0.21222632516E+03  0.12500000000E+03 0.  0.
         25    1    1    2    0    0  0.24094564541E+03  0.97777382737E+02  0.88638566094E+02  0.30182282223E+03  0.12500000000E+03 0.  0.
         25    1    1    2    0    0 -0.17477167644E+03  0.15819770652E+02 -0.20494562486E+03  0.29736024142E+03  0.12500000000E+03 0.  0.
</event>
<event>
 5    0  0.5713700E-005  0.2957467E+03  0.7546771E-02  0.1087386E+00
         21   -1    0    0  502  501  0.00000000000E+00  0.00000000000E+00  0.10914324561E+03  0.10914324561E+03  0.00000000000E+00 0. -1.
         21   -1    0    0  501  502 -0.00000000000E+00 -0.00000000000E+00 -0.80138828080E+03  0.80138828080E+03  0.00000000000E+00 0. -1.
         25    1    1    2    0    0  0.31219499218E+02  0.88422262402E+02 -0.36210745654E+03  0.39438555209E+03  0.12500000000E+03 0.  0.
         25    1    1    2    0    0 -0.11937437248E+02  0.84958138647E+02 -0.42848737827E+02  0.15754809445E+03  0.12500000000E+03 0.  0.
         25    1    1    2    0    0 -0.19282061970E+02 -0.17338040105E+03 -0.28728884083E+03  0.35859787987E+03  0.12500000000E+03 0.  0.
</event>
<event>
 5    0  0.5713700E-005  0.3026123E+03  0.7546771E-02  0.1083942E+00
         21   -1    0    0  502  501  0.00000000000E+00  0.00000000000E+00  0.65611429122E+02  0.65611429122E+02  0.00000000000E+00 0.  1.
         21   -1    0    0  501  502 -0.00000000000E+00 -0.00000000000E+00 -0.13957051145E+04  0.13957051145E+04  0.00000000000E+00 0.  1.
         25    1    1    2    0    0 -0.30420970483E+01 -0.10093353965E+03 -0.28041714990E+03  0.32319593398E+03  0.12500000000E+03 0.  0.
         25    1    1    2    0    0  0.16597596202E+03 -0.42326918717E+01 -0.45331136485E+03  0.49868038778E+03  0.12500000000E+03 0.  0.
         25    1    1    2    0    0 -0.16293386498E+03  0.10516623152E+03 -0.59636517063E+03  0.63944022188E+03  0.12500000000E+03 0.  0.
</event>
<event>
 5    0  0.5713700E-005  0.4664771E+03  0.7546771E-02  0.1022919E+00
         21   -1    0    0  502  501  0.00000000000E+00  0.00000000000E+00  0.19186465885E+04  0.19186465885E+04  0.00000000000E+00 0. -1.
         21   -1    0    0  501  502 -0.00000000000E+00 -0.00000000000E+00 -0.11341376251E+03  0.11341376251E+03  0.00000000000E+00 0. -1.
         25    1    1    2    0    0 -0.22141489363E+03 -0.14597898063E+03  0.12953587173E+04  0.13281240998E+04  0.12500000000E+03 0.  0.
         25    1    1    2    0    0  0.86261844449E+02  0.19886588309E+03  0.13831196028E+03  0.28590897786E+03  0.12500000000E+03 0.  0.
         25    1    1    2    0    0  0.13515304918E+03 -0.52886902456E+02  0.37156214834E+03  0.41802727331E+03  0.12500000000E+03 0.  0.
</event>
<event>
 5    0  0.5713700E-005  0.6201145E+03  0.7546771E-02  0.9864532E-01
         21   -1    0    0  502  501  0.00000000000E+00  0.00000000000E+00  0.24193430245E+03  0.24193430245E+03  0.00000000000E+00 0.  1.
         21   -1    0    0  501  502 -0.00000000000E+00 -0.00000000000E+00 -0.15894482053E+04  0.15894482053E+04  0.00000000000E+00 0.  1.
         25    1    1    2    0    0 -0.19174240462E+03 -0.14509470189E+03 -0.11250868402E+04  0.11572653197E+04  0.12500000000E+03 0.  0.
         25    1    1    2    0    0 -0.34325039532E+02  0.16143643102E+03 -0.33342907542E+03  0.39247914331E+03  0.12500000000E+03 0.  0.
         25    1    1    2    0    0  0.22606744415E+03 -0.16341729128E+02  0.11100201274E+03  0.28163804475E+03  0.12500000000E+03 0.  0.
</event>
<event>
 5    0  0.5713700E-005  0.4741717E+03  0.7546771E-02  0.1020749E+00
         21   -1    0    0  502  501  0.00000000000E+00  0.00000000000E+00  0.11931217040E+04  0.11931217040E+04  0.00000000000E+00 0. -1.
         21   -1    0    0  501  502 -0.00000000000E+00 -0.00000000000E+00 -0.18844585179E+03  0.18844585179E+03  0.00000000000E+00 0. -1.
         25    1    1    2    0    0 -0.36384991600E+03 -0.12892207471E+01  0.41928672159E+03  0.56904725495E+03  0.12500000000E+03 0.  0.
         25    1    1    2    0    0  0.29106600787E+03 -0.96150679442E+02  0.53817119744E+03  0.63183669714E+03  0.12500000000E+03 0.  0.
         25    1    1    2    0    0  0.72783908136E+02  0.97439900189E+02  0.47217933185E+02  0.18068360370E+03  0.12500000000E+03 0.  0.
</event>
<event>
 5    0  0.5713700E-005  0.2708767E+03  0.7546771E-02  0.1100779E+00
         21   -1    0    0  502  501  0.00000000000E+00  0.00000000000E+00  0.73129796994E+03  0.73129796994E+03  0.00000000000E+00 0. -1.
         21   -1    0    0  501  502 -0.00000000000E+00 -0.00000000000E+00 -0.10033420381E+03  0.10033420381E+03  0.00000000000E+00 0. -1.
         25    1    1    2    0    0  0.25248324316E+02  0.11029187616E+03  0.58964650958E+02  0.17861580526E+03  0.12500000000E+03 0.  0.
         25    1    1    2    0    0  0.47167553641E+02 -0.97956617661E+02  0.35866595734E+03  0.39507789867E+03  0.12500000000E+03 0.  0.
         25    1    1    2    0    0 -0.72415877956E+02 -0.12335258500E+02  0.21333315783E+03  0.25793846982E+03  0.12500000000E+03 0.  0.
</event>
<event>
 5    0  0.5713700E-005  0.2735178E+03  0.7546771E-02  0.1099283E+00
         21   -1    0    0  502  501  0.00000000000E+00  0.00000000000E+00  0.41943039703E+03  0.41943039703E+03  0.00000000000E+00 0. -1.
         21   -1    0    0  501  502 -0.00000000000E+00 -0.00000000000E+00 -0.17836569988E+03  0.17836569988E+03  0.00000000000E+00 0. -1.
         25    1    1    2    0    0 -0.74716681634E+02  0.35676821881E+02  0.28492725092E+03  0.32196887497E+03  0.12500000000E+03 0.  0.
         25    1    1    2    0    0  0.12753290481E+02 -0.30686381885E+02  0.50327238599E+00  0.12934277612E+03  0.12500000000E+03 0.  0.
         25    1    1    2    0    0  0.61963391153E+02 -0.49904399968E+01 -0.44365826158E+02  0.14648444581E+03  0.12500000000E+03 0.  0.
</event>
<event>
 5    0  0.5713700E-005  0.3183692E+03  0.7546771E-02  0.1076402E+00
         21   -1    0    0  502  501  0.00000000000E+00  0.00000000000E+00  0.25054205579E+03  0.25054205579E+03  0.00000000000E+00 0. -1.
         21   -1    0    0  501  502 -0.00000000000E+00 -0.00000000000E+00 -0.40455857986E+03  0.40455857986E+03  0.00000000000E+00 0. -1.
         25    1    1    2    0    0  0.14891144181E+03 -0.17499326573E+02  0.96016502426E+02  0.21754312830E+03  0.12500000000E+03 0.  0.
         25    1    1    2    0    0 -0.27494986841E+02 -0.87844749226E+02 -0.11576678586E+03  0.19364819384E+03  0.12500000000E+03 0.  0.
         25    1    1    2    0    0 -0.12141645497E+03  0.10534407580E+03 -0.13426624064E+03  0.24390931351E+03  0.12500000000E+03 0.  0.
</event>
<event>
 5    0  0.5713700E-005  0.3691845E+03  0.7546771E-02  0.1055005E+00
         21   -1    0    0  502  501  0.00000000000E+00  0.00000000000E+00  0.20458016674E+03  0.20458016674E+03  0.00000000000E+00 0. -1.
         21   -1    0    0  501  502 -0.00000000000E+00 -0.00000000000E+00 -0.66622870437E+03  0.66622870437E+03  0.00000000000E+00 0. -1.
         25    1    1    2    0    0  0.17867463118E+03  0.31153488329E+02  0.51808249216E+02  0.22628357950E+03  0.12500000000E+03 0.  0.
         25    1    1    2    0    0  0.32093961159E+02  0.35718405674E+02 -0.14957808318E+03  0.20075963193E+03  0.12500000000E+03 0.  0.
         25    1    1    2    0    0 -0.21076859234E+03 -0.66871894003E+02 -0.36387870367E+03  0.44376565967E+03  0.12500000000E+03 0.  0.
</event>
<event>
 5    0  0.5713700E-005  0.5374254E+03  0.7546771E-02  0.1004447E+00
         21   -1    0    0  502  501  0.00000000000E+00  0.00000000000E+00  0.23571179418E+03  0.23571179418E+03  0.00000000000E+00 0.  1.
         21   -1    0    0  501  502 -0.00000000000E+00 -0.00000000000E+00 -0.12253358115E+04  0.12253358115E+04  0.00000000000E+00 0.  1.
         25    1    1    2    0    0 -0.34889800404E+03 -0.30479187684E+03 -0.34774675575E+03  0.59260502153E+03  0.12500000000E+03 0.  0.
         25    1    1    2    0    0  0.14743545287E+03  0.11839202363E+03 -0.46878637255E+03  0.52071061744E+03  0.12500000000E+03 0.  0.
         25    1    1    2    0    0  0.20146255117E+03  0.18639985322E+03 -0.17309088901E+03  0.34773196670E+03  0.12500000000E+03 0.  0.
</event>
<event>
 5    0  0.5713700E-005  0.2681478E+03  0.7546771E-02  0.1102344E+00
         21   -1    0    0  502  501  0.00000000000E+00  0.00000000000E+00  0.16711603699E+03  0.16711603699E+03  0.00000000000E+00 0. -1.
         21   -1    0    0  501  502 -0.00000000000E+00 -0.00000000000E+00 -0.43025951709E+03  0.43025951709E+03  0.00000000000E+00 0. -1.
         25    1    1    2    0    0 -0.12974707984E+02  0.38047791582E+02  0.62455191122E+02  0.14540161068E+03  0.12500000000E+03 0.  0.
         25    1    1    2    0    0  0.16406424657E+02  0.49116463069E+02 -0.65082319170E+02  0.15014095372E+03  0.12500000000E+03 0.  0.
         25    1    1    2    0    0 -0.34317166731E+01 -0.87164254651E+02 -0.26051635206E+03  0.30183298968E+03  0.12500000000E+03 0.  0.
</event>
<event>
 5    0  0.5713700E-005  0.4986132E+03  0.7546771E-02  0.1014142E+00
         21   -1    0    0  502  501  0.00000000000E+00  0.00000000000E+00  0.76781806961E+02  0.76781806961E+02  0.00000000000E+00 0.  1.
         21   -1    0    0  501  502 -0.00000000000E+00 -0.00000000000E+00 -0.32379434407E+04  0.32379434407E+04  0.00000000000E+00 0.  1.
         25    1    1    2    0    0 -0.13165826676E+03 -0.19330885374E+02 -0.13222878954E+04  0.13348325216E+04  0.12500000000E+03 0.  0.
         25    1    1    2    0    0  0.24270636784E+03 -0.27218814033E+03 -0.11601615047E+04  0.12225352681E+04  0.12500000000E+03 0.  0.
         25    1    1    2    0    0 -0.11104810108E+03  0.29151902570E+03 -0.67871223364E+03  0.75735745800E+03  0.12500000000E+03 0.  0.
</event>
<event>
 5    0  0.5713700E-005  0.3416584E+03  0.7546771E-02  0.1066092E+00
         21   -1    0    0  502  501  0.00000000000E+00  0.00000000000E+00  0.24866031306E+04  0.24866031306E+04  0.00000000000E+00 0. -1.
         21   -1    0    0  501  502 -0.00000000000E+00 -0.00000000000E+00 -0.46943755239E+02  0.46943755239E+02  0.00000000000E+00 0. -1.
         25    1    1    2    0    0 -0.34137155241E+02 -0.38498171488E+02  0.14839507430E+03  0.20073254009E+03  0.12500000000E+03 0.  0.
         25    1    1    2    0    0  0.22132813393E+02 -0.15896284925E+03  0.11399010425E+04  0.11579112383E+04  0.12500000000E+03 0.  0.
         25    1    1    2    0    0  0.12004341847E+02  0.19746102074E+03  0.11513632585E+04  0.11749031075E+04  0.12500000000E+03 0.  0.
</event>
<event>
 5    0  0.5713700E-005  0.2254164E+03  0.7546771E-02  0.1129908E+00
         21   -1    0    0  502  501  0.00000000000E+00  0.00000000000E+00  0.55550290624E+03  0.55550290624E+03  0.00000000000E+00 0.  1.
         21   -1    0    0  501  502 -0.00000000000E+00 -0.00000000000E+00 -0.91471266871E+02  0.91471266871E+02  0.00000000000E+00 0.  1.
         25    1    1    2    0    0  0.62660489554E+02  0.24884158621E+02  0.19058103268E+03  0.23767980208E+03  0.12500000000E+03 0.  0.
         25    1    1    2    0    0 -0.13996906980E+02 -0.77639336797E+02  0.80076337905E+02  0.16811008273E+03  0.12500000000E+03 0.  0.
         25    1    1    2    0    0 -0.48663582573E+02  0.52755178176E+02  0.19337426878E+03  0.24118428829E+03  0.12500000000E+03 0.  0.
</event>
<event>
 5    0  0.5713700E-005  0.2814918E+03  0.7546771E-02  0.1094877E+00
         21   -1    0    0  502  501  0.00000000000E+00  0.00000000000E+00  0.28727006058E+03  0.28727006058E+03  0.00000000000E+00 0. -1.
         21   -1    0    0  501  502 -0.00000000000E+00 -0.00000000000E+00 -0.27582983802E+03  0.27582983802E+03  0.00000000000E+00 0. -1.
         25    1    1    2    0    0 -0.73285164435E+02 -0.93471687369E+02  0.11324921940E+03  0.20629604301E+03  0.12500000000E+03 0.  0.
         25    1    1    2    0    0  0.88068293601E+02  0.23158368791E+02 -0.13896444711E+03  0.20791453038E+03  0.12500000000E+03 0.  0.
         25    1    1    2    0    0 -0.14783129167E+02  0.70313318578E+02  0.37155450272E+02  0.14888932521E+03  0.12500000000E+03 0.  0.
</event>
<event>
 5    0  0.5778825E-005  0.3011777E+03  0.7546771E-02  0.1084653E+00
         21   -1    0    0  502  501  0.00000000000E+00  0.00000000000E+00  0.35688459892E+03  0.35688459892E+03  0.00000000000E+00 0.  1.
         21   -1    0    0  501  502 -0.00000000000E+00 -0.00000000000E+00 -0.25416613074E+03  0.25416613074E+03  0.00000000000E+00 0.  1.
         25    1    1    2    0    0  0.11132928775E+03 -0.41441220341E+02 -0.42278141627E+02  0.17755006706E+03  0.12500000000E+03 0.  0.
         25    1    1    2    0    0  0.10009411693E+03  0.10098399162E+02  0.46847347546E+02  0.16715407229E+03  0.12500000000E+03 0.  0.
         25    1    1    2    0    0 -0.21142340469E+03  0.31342821179E+02  0.98149262251E+02  0.26634659031E+03  0.12500000000E+03 0.  0.
</event>
<event>
 5    0  0.5713700E-005  0.2493052E+03  0.7546771E-02  0.1113745E+00
         21   -1    0    0  502  501  0.00000000000E+00  0.00000000000E+00  0.29660523677E+03  0.29660523677E+03  0.00000000000E+00 0.  1.
         21   -1    0    0  501  502 -0.00000000000E+00 -0.00000000000E+00 -0.20954815020E+03  0.20954815020E+03  0.00000000000E+00 0.  1.
         25    1    1    2    0    0  0.20197422569E+02 -0.12205513534E+02  0.16840554219E+02  0.12831802175E+03  0.12500000000E+03 0.  0.
         25    1    1    2    0    0 -0.75066384428E+02  0.11524499846E+03 -0.15548217078E+02  0.18650232920E+03  0.12500000000E+03 0.  0.
         25    1    1    2    0    0  0.54868961859E+02 -0.10303948493E+03  0.85764749436E+02  0.19133303603E+03  0.12500000000E+03 0.  0.
</event>
<event>
 5    0  0.5713700E-005  0.2814984E+03  0.7546771E-02  0.1094873E+00
         21   -1    0    0  502  501  0.00000000000E+00  0.00000000000E+00  0.62690671193E+03  0.62690671193E+03  0.00000000000E+00 0. -1.
         21   -1    0    0  501  502 -0.00000000000E+00 -0.00000000000E+00 -0.12640058320E+03  0.12640058320E+03  0.00000000000E+00 0. -1.
         25    1    1    2    0    0 -0.71162376845E+02  0.55647895587E+02  0.29043199189E+03  0.32884116846E+03  0.12500000000E+03 0.  0.
         25    1    1    2    0    0  0.10611225278E+03  0.66262149532E+02  0.46949932156E+02  0.18297480368E+03  0.12500000000E+03 0.  0.
         25    1    1    2    0    0 -0.34949875937E+02 -0.12191004512E+03  0.16312420468E+03  0.24149132300E+03  0.12500000000E+03 0.  0.
</event>
<event>
 5    0  0.5713700E-005  0.2945744E+03  0.7546771E-02  0.1087985E+00
         21   -1    0    0  502  501  0.00000000000E+00  0.00000000000E+00  0.49782547404E+02  0.49782547404E+02  0.00000000000E+00 0. -1.
         21   -1    0    0  501  502 -0.00000000000E+00 -0.00000000000E+00 -0.17430621090E+04  0.17430621090E+04  0.00000000000E+00 0. -1.
         25    1    1    2    0    0 -0.40707857761E+02 -0.19092595978E+03 -0.60664929959E+03  0.64942915279E+03  0.12500000000E+03 0.  0.
         25    1    1    2    0    0 -0.41416130635E+02  0.98468537422E+02 -0.69396553836E+03  0.71317916205E+03  0.12500000000E+03 0.  0.
         25    1    1    2    0    0  0.82123988397E+02  0.92457422353E+02 -0.39266472369E+03  0.43023634162E+03  0.12500000000E+03 0.  0.
</event>
<event>
 5    0  0.5713700E-005  0.3609029E+03  0.7546771E-02  0.1058227E+00
         21   -1    0    0  502  501  0.00000000000E+00  0.00000000000E+00  0.48107053120E+03  0.48107053120E+03  0.00000000000E+00 0. -1.
         21   -1    0    0  501  502 -0.00000000000E+00 -0.00000000000E+00 -0.27075214294E+03  0.27075214294E+03  0.00000000000E+00 0. -1.
         25    1    1    2    0    0 -0.12998412324E+03 -0.24070291258E+03  0.10800914909E+03  0.31956961794E+03  0.12500000000E+03 0.  0.
         25    1    1    2    0    0  0.62546396510E+01  0.19012699389E+03  0.11398534500E+02  0.22790858017E+03  0.12500000000E+03 0.  0.
         25    1    1    2    0    0  0.12372948359E+03  0.50575918688E+02  0.90910704670E+02  0.20434447603E+03  0.12500000000E+03 0.  0.
</event>
<event>
 5    0  0.5713700E-005  0.4575135E+03  0.7546771E-02  0.1025505E+00
         21   -1    0    0  502  501  0.00000000000E+00  0.00000000000E+00  0.27062268442E+03  0.27062268442E+03  0.00000000000E+00 0.  1.
         21   -1    0    0  501  502 -0.00000000000E+00 -0.00000000000E+00 -0.77347043404E+03  0.77347043404E+03  0.00000000000E+00 0.  1.
         25    1    1    2    0    0  0.80205976600E+02 -0.34790010911E+03 -0.45084001152E+03  0.58851440134E+03  0.12500000000E+03 0.  0.
         25    1    1    2    0    0  0.10738649884E+02  0.20433896400E+03 -0.48219116247E+02  0.24458089456E+03  0.12500000000E+03 0.  0.
         25    1    1    2    0    0 -0.90944626483E+02  0.14356114510E+03 -0.37886218497E+01  0.21099782256E+03  0.12500000000E+03 0.  0.
</event>
<event>
 5    0  0.5713700E-005  0.4753334E+03  0.7546771E-02  0.1020426E+00
         21   -1    0    0  502  501  0.00000000000E+00  0.00000000000E+00  0.80764779001E+02  0.80764779001E+02  0.00000000000E+00 0.  1.
         21   -1    0    0  501  502 -0.00000000000E+00 -0.00000000000E+00 -0.27975289213E+04  0.27975289213E+04  0.00000000000E+00 0.  1.
         25    1    1    2    0    0  0.30796962285E+02 -0.58621324541E+02 -0.24656154379E+02  0.14358913095E+03  0.12500000000E+03 0.  0.
         25    1    1    2    0    0  0.75575695865E+02  0.17036559162E+03 -0.20588946513E+04  0.20710886764E+04  0.12500000000E+03 0.  0.
         25    1    1    2    0    0 -0.10637265815E+03 -0.11174426708E+03 -0.63321333663E+03  0.66361589290E+03  0.12500000000E+03 0.  0.
</event>
<event>
 5    0  0.5713700E-005  0.3130049E+03  0.7546771E-02  0.1078914E+00
         21   -1    0    0  502  501  0.00000000000E+00  0.00000000000E+00  0.76228413916E+03  0.76228413916E+03  0.00000000000E+00 0.  1.
         21   -1    0    0  501  502 -0.00000000000E+00 -0.00000000000E+00 -0.12852434272E+03  0.12852434272E+03  0.00000000000E+00 0.  1.
         25    1    1    2    0    0  0.19023544271E+03 -0.17234041378E+02  0.16925076943E+03  0.28417839256E+03  0.12500000000E+03 0.  0.
         25    1    1    2    0    0 -0.16204929386E+03  0.73404474999E+02  0.39387752326E+03  0.44990298278E+03  0.12500000000E+03 0.  0.
         25    1    1    2    0    0 -0.28186148848E+02 -0.56170433621E+02  0.70631503756E+02  0.15672710654E+03  0.12500000000E+03 0.  0.
</event>
<event>
 5    0  0.5713700E-005  0.3133036E+03  0.7546771E-02  0.1078773E+00
         21   -1    0    0  502  501  0.00000000000E+00  0.00000000000E+00  0.16795615992E+03  0.16795615992E+03  0.00000000000E+00 0. -1.
         21   -1    0    0  501  502 -0.00000000000E+00 -0.00000000000E+00 -0.58443324881E+03  0.58443324881E+03  0.00000000000E+00 0. -1.
         25    1    1    2    0    0  0.56203013212E+02  0.25351178284E+02 -0.65580252013E+02  0.15403645799E+03  0.12500000000E+03 0.  0.
         25    1    1    2    0    0  0.44899119795E+02  0.10071997360E+03 -0.35695584669E+03  0.39395801873E+03  0.12500000000E+03 0.  0.
         25    1    1    2    0    0 -0.10110213301E+03 -0.12607115188E+03  0.60590098084E+01  0.20439493202E+03  0.12500000000E+03 0.  0.
</event>
<event>
 5    0  0.5713700E-005  0.2565763E+03  0.7546771E-02  0.1109218E+00
         21   -1    0    0  502  501  0.00000000000E+00  0.00000000000E+00  0.14514988370E+03  0.14514988370E+03  0.00000000000E+00 0.  1.
         21   -1    0    0  501  502 -0.00000000000E+00 -0.00000000000E+00 -0.45354085380E+03  0.45354085380E+03  0.00000000000E+00 0.  1.
         25    1    1    2    0    0 -0.43285265148E+02  0.59264994609E+02 -0.93334707610E+02  0.17240162821E+03  0.12500000000E+03 0.  0.
         25    1    1    2    0    0  0.29110243029E+02 -0.15007604055E+02 -0.25601872415E+03  0.28678079005E+03  0.12500000000E+03 0.  0.
         25    1    1    2    0    0  0.14175022119E+02 -0.44257390554E+02  0.40962461665E+02  0.13950831924E+03  0.12500000000E+03 0.  0.
</event>
<event>
 5    0  0.5713700E-005  0.3236479E+03  0.7546771E-02  0.1073983E+00
         21   -1    0    0  502  501  0.00000000000E+00  0.00000000000E+00  0.79773779950E+03  0.79773779950E+03  0.00000000000E+00 0. -1.
         21   -1    0    0  501  502 -0.00000000000E+00 -0.00000000000E+00 -0.13130626506E+03  0.13130626506E+03  0.00000000000E+00 0. -1.
         25    1    1    2    0    0  0.61497576019E+02 -0.86922473267E+02  0.81354167532E+01  0.16440393311E+03  0.12500000000E+03 0.  0.
         25    1    1    2    0    0  0.38691776303E+02  0.16516272969E+03  0.35513731277E+03  0.41294465943E+03  0.12500000000E+03 0.  0.
         25    1    1    2    0    0 -0.10018935232E+03 -0.78240256419E+02  0.30315880491E+03  0.35169547202E+03  0.12500000000E+03 0.  0.
</event>
<event>
 5    0  0.5713700E-005  0.3002886E+03  0.7546771E-02  0.1085096E+00
         21   -1    0    0  502  501  0.00000000000E+00  0.00000000000E+00  0.25507341831E+03  0.25507341831E+03  0.00000000000E+00 0. -1.
         21   -1    0    0  501  502 -0.00000000000E+00 -0.00000000000E+00 -0.35351877422E+03  0.35351877422E+03  0.00000000000E+00 0. -1.
         25    1    1    2    0    0 -0.30722246886E+02 -0.22337624381E+02  0.11789028746E+03  0.17597143460E+03  0.12500000000E+03 0.  0.
         25    1    1    2    0    0  0.11253305766E+03  0.10926069498E+03 -0.98606986092E+02  0.22349480137E+03  0.12500000000E+03 0.  0.
         25    1    1    2    0    0 -0.81810810775E+02 -0.86923070597E+02 -0.11772865728E+03  0.20912595656E+03  0.12500000000E+03 0.  0.
</event>
<event>
 5    0  0.5713700E-005  0.4926335E+03  0.7546771E-02  0.1015720E+00
         21   -1    0    0  502  501  0.00000000000E+00  0.00000000000E+00  0.13429969830E+04  0.13429969830E+04  0.00000000000E+00 0.  1.
         21   -1    0    0  501  502 -0.00000000000E+00 -0.00000000000E+00 -0.18070614475E+03  0.18070614475E+03  0.00000000000E+00 0.  1.
         25    1    1    2    0    0  0.25310794348E+03 -0.17895061274E+03  0.10285208782E+03  0.34970059311E+03  0.12500000000E+03 0.  0.
         25    1    1    2    0    0 -0.60396229470E+02 -0.71005639703E+02  0.45200951638E+03  0.47814967145E+03  0.12500000000E+03 0.  0.
         25    1    1    2    0    0 -0.19271171401E+03  0.24995625245E+03  0.60742923407E+03  0.69585286323E+03  0.12500000000E+03 0.  0.
</event>
<event>
 5    0  0.5713700E-005  0.2179498E+03  0.7546771E-02  0.1135421E+00
         21   -1    0    0  502  501  0.00000000000E+00  0.00000000000E+00  0.12426585867E+03  0.12426585867E+03  0.00000000000E+00 0. -1.
         21   -1    0    0  501  502 -0.00000000000E+00 -0.00000000000E+00 -0.38226189908E+03  0.38226189908E+03  0.00000000000E+00 0. -1.
         25    1    1    2    0    0  0.76732440390E+02 -0.29294495765E+02 -0.50407490471E+02  0.15783519882E+03  0.12500000000E+03 0.  0.
         25    1    1    2    0    0 -0.28525234312E+02 -0.11431789128E+02 -0.50551722330E+02  0.13829262969E+03  0.12500000000E+03 0.  0.
         25    1    1    2    0    0 -0.48207206078E+02  0.40726284894E+02 -0.15703682761E+03  0.21039992924E+03  0.12500000000E+03 0.  0.
</event>
<event>
 5    0  0.7157684E-005  0.3249982E+03  0.7546771E-02  0.1073372E+00
         21   -1    0    0  502  501  0.00000000000E+00  0.00000000000E+00  0.20003374597E+03  0.20003374597E+03  0.00000000000E+00 0. -1.
         21   -1    0    0  501  502 -0.00000000000E+00 -0.00000000000E+00 -0.52803007976E+03  0.52803007976E+03  0.00000000000E+00 0. -1.
         25    1    1    2    0    0  0.30224977506E+02 -0.17755626668E+03 -0.73379087041E+02  0.23119097629E+03  0.12500000000E+03 0.  0.
         25    1    1    2    0    0 -0.17730479397E+02  0.11003932003E+03  0.37659152553E+02  0.17165731451E+03  0.12500000000E+03 0.  0.
         25    1    1    2    0    0 -0.12494498109E+02  0.67516946653E+02 -0.29227639931E+03  0.32521553493E+03  0.12500000000E+03 0.  0.
</event>
<event>
 5    0  0.5713700E-005  0.2701805E+03  0.7546771E-02  0.1101176E+00
         21   -1    0    0  502  501  0.00000000000E+00  0.00000000000E+00  0.10042680781E+04  0.10042680781E+04  0.00000000000E+00 0.  1.
         21   -1    0    0  501  502 -0.00000000000E+00 -0.00000000000E+00 -0.72687245228E+02  0.72687245228E+02  0.00000000000E+00 0.  1.
         25    1    1    2    0    0  0.13523501903E+02 -0.26197934654E+02  0.17735654601E+03  0.21897388268E+03  0.12500000000E+03 0.  0.
         25    1    1    2    0    0  0.15284813047E+03  0.18120384568E+01  0.32354610602E+03  0.37904210477E+03  0.12500000000E+03 0.  0.
         25    1    1    2    0    0 -0.16637163237E+03  0.24385896198E+02  0.43067818083E+03  0.47893933586E+03  0.12500000000E+03 0.  0.
</event>
<event>
 5    0  0.5713700E-005  0.3087870E+03  0.7546771E-02  0.1080929E+00
         21   -1    0    0  502  501  0.00000000000E+00  0.00000000000E+00  0.13052207196E+04  0.13052207196E+04  0.00000000000E+00 0. -1.
         21   -1    0    0  501  502 -0.00000000000E+00 -0.00000000000E+00 -0.73052349013E+02  0.73052349013E+02  0.00000000000E+00 0. -1.
         25    1    1    2    0    0 -0.13075657535E+03  0.77843802475E+02  0.85362561437E+03  0.87604716145E+03  0.12500000000E+03 0.  0.
         25    1    1    2    0    0  0.12829443034E+03 -0.94978975750E+02  0.21294214930E+03  0.29402351205E+03  0.12500000000E+03 0.  0.
         25    1    1    2    0    0  0.24621450050E+01  0.17135173275E+02  0.16560060696E+03  0.20820239515E+03  0.12500000000E+03 0.  0.
</event>
<event>
 5    0  0.5713700E-005  0.5321138E+03  0.7546771E-02  0.1005721E+00
         21   -1    0    0  502  501  0.00000000000E+00  0.00000000000E+00  0.78150195142E+03  0.78150195142E+03  0.00000000000E+00 0.  1.
         21   -1    0    0  501  502 -0.00000000000E+00 -0.00000000000E+00 -0.36230892648E+03  0.36230892648E+03  0.00000000000E+00 0.  1.
         25    1    1    2    0    0 -0.44398634348E+02  0.59923188358E+02 -0.26348287509E+02  0.14792315400E+03  0.12500000000E+03 0.  0.
         25    1    1    2    0    0 -0.17366417426E+03 -0.28442913387E+03  0.53921737566E+03  0.64609562437E+03  0.12500000000E+03 0.  0.
         25    1    1    2    0    0  0.21806280861E+03  0.22450594552E+03 -0.93676063209E+02  0.34979209952E+03  0.12500000000E+03 0.  0.
</event>
<event>
 5    0  0.5713700E-005  0.2879788E+03  0.7546771E-02  0.1091409E+00
         21   -1    0    0  502  501  0.00000000000E+00  0.00000000000E+00  0.18245671856E+03  0.18245671856E+03  0.00000000000E+00 0.  1.
         21   -1    0    0  501  502 -0.00000000000E+00 -0.00000000000E+00 -0.45452861683E+03  0.45452861683E+03  0.00000000000E+00 0.  1.
         25    1    1    2    0    0 -0.94992354510E+02  0.31262954314E+02 -0.76491564660E+02  0.17741724604E+03  0.12500000000E+03 0.  0.
         25    1    1    2    0    0  0.59597628131E+02 -0.85825596346E+02  0.55112252763E+02  0.17198915859E+03  0.12500000000E+03 0.  0.
         25    1    1    2    0    0  0.35394726379E+02  0.54562642032E+02 -0.25069258637E+03  0.28757893077E+03  0.12500000000E+03 0.  0.
</event>
<event>
 5    0  0.5713700E-005  0.2545143E+03  0.7546771E-02  0.1110485E+00
         21   -1    0    0  502  501  0.00000000000E+00  0.00000000000E+00  0.65709737720E+03  0.65709737720E+03  0.00000000000E+00 0. -1.
         21   -1    0    0  501  502 -0.00000000000E+00 -0.00000000000E+00 -0.98581311505E+02  0.98581311505E+02  0.00000000000E+00 0. -1.
         25    1    1    2    0    0  0.56729620440E+02 -0.11336573652E+02  0.37383064772E+03  0.39839819391E+03  0.12500000000E+03 0.  0.
         25    1    1    2    0    0  0.45369675503E+02  0.46096221775E+02  0.84095309960E+02  0.16395209750E+03  0.12500000000E+03 0.  0.
         25    1    1    2    0    0 -0.10209929594E+03 -0.34759648123E+02  0.10059010802E+03  0.19332839729E+03  0.12500000000E+03 0.  0.
</event>
<event>
 5    0  0.5713700E-005  0.2681310E+03  0.7546771E-02  0.1102354E+00
         21   -1    0    0  502  501  0.00000000000E+00  0.00000000000E+00  0.68445561624E+02  0.68445561624E+02  0.00000000000E+00 0. -1.
         21   -1    0    0  501  502 -0.00000000000E+00 -0.00000000000E+00 -0.10503852226E+04  0.10503852226E+04  0.00000000000E+00 0. -1.
         25    1    1    2    0    0 -0.10178870970E+03  0.46744036040E+01 -0.19745953742E+03  0.25494717176E+03  0.12500000000E+03 0.  0.
         25    1    1    2    0    0 -0.47952532425E+02  0.42614500090E+02 -0.47225585501E+03  0.49271293222E+03  0.12500000000E+03 0.  0.
         25    1    1    2    0    0  0.14974124213E+03 -0.47288903694E+02 -0.31222426858E+03  0.37117068028E+03  0.12500000000E+03 0.  0.
</event>
<event>
 5    0  0.5713700E-005  0.2153060E+03  0.7546771E-02  0.1137432E+00
         21   -1    0    0  502  501  0.00000000000E+00  0.00000000000E+00  0.29602781342E+02  0.29602781342E+02  0.00000000000E+00 0.  1.
         21   -1    0    0  501  502 -0.00000000000E+00 -0.00000000000E+00 -0.15659561542E+04  0.15659561542E+04  0.00000000000E+00 0.  1.
         25    1    1    2    0    0  0.48663427998E+02  0.14514376710E+02 -0.39517212912E+03  0.41757012344E+03  0.12500000000E+03 0.  0.
         25    1    1    2    0    0 -0.14193124320E+02  0.51771785511E+02 -0.39611721225E+03  0.41882646573E+03  0.12500000000E+03 0.  0.
         25    1    1    2    0    0 -0.34470303677E+02 -0.66286162221E+02 -0.74506403149E+03  0.75916234638E+03  0.12500000000E+03 0.  0.
</event>
<event>
 5    0  0.5713700E-005  0.3869181E+03  0.7546771E-02  0.1048406E+00
         21   -1    0    0  502  501  0.00000000000E+00  0.00000000000E+00  0.36394125350E+03  0.36394125350E+03  0.00000000000E+00 0.  1.
         21   -1    0    0  501  502 -0.00000000000E+00 -0.00000000000E+00 -0.41134545083E+03  0.41134545083E+03  0.00000000000E+00 0.  1.
         25    1    1    2    0    0  0.14872350689E+03 -0.21426962681E+03  0.45187198541E+02  0.29274056327E+03  0.12500000000E+03 0.  0.
         25    1    1    2    0    0 -0.13485146707E+03 -0.19540193073E+01 -0.13594016354E+03  0.22867764304E+03  0.12500000000E+03 0.  0.
         25    1    1    2    0    0 -0.13872039823E+02  0.21622364612E+03  0.43348767666E+02  0.25386849802E+03  0.12500000000E+03 0.  0.
</event>
<event>
 5    0  0.5713700E-005  0.3163594E+03  0.7546771E-02  0.1077337E+00
         21   -1    0    0  502  501  0.00000000000E+00  0.00000000000E+00  0.13111726058E+03  0.13111726058E+03  0.00000000000E+00 0. -1.
         21   -1    0    0  501  502 -0.00000000000E+00 -0.00000000000E+00 -0.76331128317E+03  0.76331128317E+03  0.00000000000E+00 0. -1.
         25    1    1    2    0    0 -0.11150039243E+03  0.13791060246E+02 -0.35146400845E+02  0.17170556295E+03  0.12500000000E+03 0.  0.
         25    1    1    2    0    0  0.44289714403E+01  0.17817741224E+02 -0.52553387606E+03  0.54050711612E+03  0.12500000000E+03 0.  0.
         25    1    1    2    0    0  0.10707142099E+03 -0.31608801470E+02 -0.71513745690E+02  0.18221586469E+03  0.12500000000E+03 0.  0.
</event>
<event>
 5    0  0.5713700E-005  0.2381186E+03  0.7546771E-02  0.1121053E+00
         21   -1    0    0  502  501  0.00000000000E+00  0.00000000000E+00  0.20484080838E+03  0.20484080838E+03  0.00000000000E+00 0.  1.
         21   -1    0    0  501  502 -0.00000000000E+00 -0.00000000000E+00 -0.27680251255E+03  0.27680251255E+03  0.00000000000E+00 0.  1.
         25    1    1    2    0    0  0.68772204710E+02  0.14170949844E+02  0.55033687388E+02  0.15357128217E+03  0.12500000000E+03 0.  0.
         25    1    1    2    0    0 -0.34670224993E+02 -0.74516828132E+02 -0.23105287211E+02  0.15137250897E+03  0.12500000000E+03 0.  0.
         25    1    1    2    0    0 -0.34101979718E+02  0.60345878288E+02 -0.10389010435E+03  0.17669952979E+03  0.12500000000E+03 0.  0.
</event>
<event>
 5    0  0.5713700E-005  0.3216670E+03  0.7546771E-02  0.1074885E+00
         21   -1    0    0  502  501  0.00000000000E+00  0.00000000000E+00  0.20884279673E+03  0.20884279673E+03  0.00000000000E+00 0. -1.
         21   -1    0    0  501  502 -0.00000000000E+00 -0.00000000000E+00 -0.49544273571E+03  0.49544273571E+03  0.00000000000E+00 0. -1.
         25    1    1    2    0    0 -0.13186444944E+03  0.68798817903E+02 -0.66386758651E+02  0.20531369194E+03  0.12500000000E+03 0.  0.
         25    1    1    2    0    0 -0.23916159150E+02  0.23838652310E+02  0.59919712222E+02  0.14267317872E+03  0.12500000000E+03 0.  0.
         25    1    1    2    0    0  0.15578060859E+03 -0.92637470213E+02 -0.28013289255E+03  0.35629866179E+03  0.12500000000E+03 0.  0.
</event>
<event>
 5    0  0.5713700E-005  0.2222187E+03  0.7546771E-02  0.1132240E+00
         21   -1    0    0  502  501  0.00000000000E+00  0.00000000000E+00  0.34184853399E+02  0.34184853399E+02  0.00000000000E+00 0.  1.
         21   -1    0    0  501  502 -0.00000000000E+00 -0.00000000000E+00 -0.14445328043E+04  0.14445328043E+04  0.00000000000E+00 0.  1.
         25    1    1    2    0    0  0.50295009406E+02 -0.61619002274E+02 -0.54720506624E+03  0.56690817063E+03  0.12500000000E+03 0.  0.
         25    1    1    2    0    0  0.86027261173E+01  0.87726973376E+02 -0.47111311764E+03  0.49532070254E+03  0.12500000000E+03 0.  0.
         25    1    1    2    0    0 -0.58897735524E+02 -0.26107971102E+02 -0.39202976705E+03  0.41648878456E+03  0.12500000000E+03 0.  0.
</event>
<event>
 5    0  0.5713700E-005  0.3646236E+03  0.7546771E-02  0.1056768E+00
         21   -1    0    0  502  501  0.00000000000E+00  0.00000000000E+00  0.12881322249E+04  0.12881322249E+04  0.00000000000E+00 0. -1.
         21   -1    0    0  501  502 -0.00000000000E+00 -0.00000000000E+00 -0.10321175005E+03  0.10321175005E+03  0.00000000000E+00 0. -1.
         25    1    1    2    0    0 -0.68414649439E+02  0.10227080967E+03  0.17474338613E+03  0.24758863820E+03  0.12500000000E+03 0.  0.
         25    1    1    2    0    0  0.56549591954E+02  0.13512784290E+03  0.15438520484E+03  0.24681406311E+03  0.12500000000E+03 0.  0.
         25    1    1    2    0    0  0.11865057485E+02 -0.23739865257E+03  0.85579188386E+03  0.89694127362E+03  0.12500000000E+03 0.  0.
</event>
<event>
 5    0  0.5713700E-005  0.2450897E+03  0.7546771E-02  0.1116448E+00
         21   -1    0    0  502  501  0.00000000000E+00  0.00000000000E+00  0.10657815377E+04  0.10657815377E+04  0.00000000000E+00 0.  1.
         21   -1    0    0  501  502 -0.00000000000E+00 -0.00000000000E+00 -0.56361438633E+02  0.56361438633E+02  0.00000000000E+00 0.  1.
         25    1    1    2    0    0 -0.28847127917E+02  0.28563026461E+02  0.33704492311E+03  0.36176274472E+03  0.12500000000E+03 0.  0.
         25    1    1    2    0    0 -0.82918467346E+02 -0.57884971835E+02  0.46543781418E+03  0.49242613767E+03  0.12500000000E+03 0.  0.
         25    1    1    2    0    0  0.11176559526E+03  0.29321945373E+02  0.20693736178E+03  0.26795409395E+03  0.12500000000E+03 0.  0.
</event>
<event>
 5    0  0.5713700E-005  0.4637972E+03  0.7546771E-02  0.1023686E+00
         21   -1    0    0  502  501  0.00000000000E+00  0.00000000000E+00  0.24550987238E+03  0.24550987238E+03  0.00000000000E+00 0. -1.
         21   -1    0    0  501  502 -0.00000000000E+00 -0.00000000000E+00 -0.87616766898E+03  0.87616766898E+03  0.00000000000E+00 0. -1.
         25    1    1    2    0    0  0.77277374166E+02  0.27698880142E+03 -0.24023197652E+03  0.39500758374E+03  0.12500000000E+03 0.  0.
         25    1    1    2    0    0 -0.43145520501E+02 -0.40758185403E+03 -0.28523668964E+03  0.51475185554E+03  0.12500000000E+03 0.  0.
         25    1    1    2    0    0 -0.34131853665E+02  0.13059305261E+03 -0.10518913044E+03  0.21191810207E+03  0.12500000000E+03 0.  0.
</event>
<event>
 5    0  0.5713700E-005  0.3164861E+03  0.7546771E-02  0.1077278E+00
         21   -1    0    0  502  501  0.00000000000E+00  0.00000000000E+00  0.53042427652E+03  0.53042427652E+03  0.00000000000E+00 0. -1.
         21   -1    0    0  501  502 -0.00000000000E+00 -0.00000000000E+00 -0.18883642351E+03  0.18883642351E+03  0.00000000000E+00 0. -1.
         25    1    1    2    0    0 -0.18249242593E+02  0.71679194141E+02 -0.13443011448E+02  0.14586519902E+03  0.12500000000E+03 0.  0.
         25    1    1    2    0    0 -0.92386551360E+02 -0.11265777213E+03  0.35262580847E+03  0.40149347353E+03  0.12500000000E+03 0.  0.
         25    1    1    2    0    0  0.11063579395E+03  0.40978577990E+02  0.24050559931E+01  0.17190202748E+03  0.12500000000E+03 0.  0.
</event>
<event>
 5    0  0.5713700E-005  0.2409957E+03  0.7546771E-02  0.1119131E+00
         21   -1    0    0  502  501  0.00000000000E+00  0.00000000000E+00  0.49237896819E+03  0.49237896819E+03  0.00000000000E+00 0. -1.
         21   -1    0    0  501  502 -0.00000000000E+00 -0.00000000000E+00 -0.11795573571E+03  0.11795573571E+03  0.00000000000E+00 0. -1.
         25    1    1    2    0    0 -0.90267954132E+01 -0.80437854057E+02  0.40891620560E+01  0.14897467116E+03  0.12500000000E+03 0.  0.
         25    1    1    2    0    0  0.38290007066E+01  0.81158066060E+02  0.22034394420E+03  0.26604087407E+03  0.12500000000E+03 0.  0.
         25    1    1    2    0    0  0.51977947065E+01 -0.72021200281E+00  0.14999012623E+03  0.19531915867E+03  0.12500000000E+03 0.  0.
</event>
<event>
 5    0  0.5713700E-005  0.4896802E+03  0.7546771E-02  0.1016508E+00
         21   -1    0    0  502  501  0.00000000000E+00  0.00000000000E+00  0.25827023930E+03  0.25827023930E+03  0.00000000000E+00 0.  1.
         21   -1    0    0  501  502 -0.00000000000E+00 -0.00000000000E+00 -0.92843327583E+03  0.92843327583E+03  0.00000000000E+00 0.  1.
         25    1    1    2    0    0 -0.42418724851E+02 -0.70829417288E+02 -0.62669483945E+03  0.64435050739E+03  0.12500000000E+03 0.  0.
         25    1    1    2    0    0  0.22801187023E+03  0.98543611561E+02  0.74504305821E+02  0.28788217717E+03  0.12500000000E+03 0.  0.
         25    1    1    2    0    0 -0.18559314538E+03 -0.27714194273E+02 -0.11797250290E+03  0.25447083058E+03  0.12500000000E+03 0.  0.
</event>
<event>
 5    0  0.5713700E-005  0.3489227E+03  0.7546771E-02  0.1063058E+00
         21   -1    0    0  502  501  0.00000000000E+00  0.00000000000E+00  0.12360452178E+04  0.12360452178E+04  0.00000000000E+00 0. -1.
         21   -1    0    0  501  502 -0.00000000000E+00 -0.00000000000E+00 -0.98497219264E+02  0.98497219264E+02  0.00000000000E+00 0. -1.
         25    1    1    2    0    0  0.35674469715E+02  0.28887701689E+02  0.83143783576E+03  0.84203387214E+03  0.12500000000E+03 0.  0.
         25    1    1    2    0    0  0.43719707023E+02  0.79607039724E+02  0.24637163019E+02  0.15646304151E+03  0.12500000000E+03 0.  0.
         25    1    1    2    0    0 -0.79394176738E+02 -0.10849474141E+03  0.28147299973E+03  0.33604552339E+03  0.12500000000E+03 0.  0.
</event>
<event>
 5    0  0.5713700E-005  0.3113400E+03  0.7546771E-02  0.1079705E+00
         21   -1    0    0  502  501  0.00000000000E+00  0.00000000000E+00  0.40821801108E+03  0.40821801108E+03  0.00000000000E+00 0. -1.
         21   -1    0    0  501  502 -0.00000000000E+00 -0.00000000000E+00 -0.23745295260E+03  0.23745295260E+03  0.00000000000E+00 0. -1.
         25    1    1    2    0    0  0.13020727385E+03  0.13664486410E+03  0.20777631732E+03  0.30728122476E+03  0.12500000000E+03 0.  0.
         25    1    1    2    0    0  0.23796009941E+01 -0.53631119555E+02 -0.18609108262E+02  0.13730716804E+03  0.12500000000E+03 0.  0.
         25    1    1    2    0    0 -0.13258687484E+03 -0.83013744548E+02 -0.18402150572E+02  0.20108257088E+03  0.12500000000E+03 0.  0.
</event>
<event>
 5    0  0.5713700E-005  0.3424867E+03  0.7546771E-02  0.1065742E+00
         21   -1    0    0  502  501  0.00000000000E+00  0.00000000000E+00  0.35565628619E+03  0.35565628619E+03  0.00000000000E+00 0.  1.
         21   -1    0    0  501  502 -0.00000000000E+00 -0.00000000000E+00 -0.32980472265E+03  0.32980472265E+03  0.00000000000E+00 0.  1.
         25    1    1    2    0    0 -0.12630656767E+03 -0.14598024363E+03 -0.99990307943E+02  0.25077209224E+03  0.12500000000E+03 0.  0.
         25    1    1    2    0    0  0.12709182637E+03  0.10260709332E+03  0.19669811706E+03  0.28459743004E+03  0.12500000000E+03 0.  0.
         25    1    1    2    0    0 -0.78525869722E+00  0.43373150306E+02 -0.70856245585E+02  0.15009148656E+03  0.12500000000E+03 0.  0.
</event>
<event>
 5    0  0.5713700E-005  0.4306880E+03  0.7546771E-02  0.1033643E+00
         21   -1    0    0  502  501  0.00000000000E+00  0.00000000000E+00  0.11639679920E+04  0.11639679920E+04  0.00000000000E+00 0. -1.
         21   -1    0    0  501  502 -0.00000000000E+00 -0.00000000000E+00 -0.15936191341E+03  0.15936191341E+03  0.00000000000E+00 0. -1.
         25    1    1    2    0    0  0.13244830431E+03 -0.11974265075E+03  0.24624010775E+03  0.32884653927E+03  0.12500000000E+03 0.  0.
         25    1    1    2    0    0 -0.11035078659E+03 -0.14042284347E+03  0.42221212212E+02  0.22204391869E+03  0.12500000000E+03 0.  0.
         25    1    1    2    0    0 -0.22097517723E+02  0.26016549422E+03  0.71614475861E+03  0.77243944744E+03  0.12500000000E+03 0.  0.
</event>
<event>
 5    0  0.5713700E-005  0.3149650E+03  0.7546771E-02  0.1077990E+00
         21   -1    0    0  502  501  0.00000000000E+00  0.00000000000E+00  0.14944329095E+03  0.14944329095E+03  0.00000000000E+00 0. -1.
         21   -1    0    0  501  502 -0.00000000000E+00 -0.00000000000E+00 -0.66381671718E+03  0.66381671718E+03  0.00000000000E+00 0. -1.
         25    1    1    2    0    0 -0.26285128493E+02 -0.20943916545E+03 -0.22210014643E+03  0.33092166301E+03  0.12500000000E+03 0.  0.
         25    1    1    2    0    0  0.63527940198E+02  0.63064316951E+01 -0.13121666216E+03  0.19214156941E+03  0.12500000000E+03 0.  0.
         25    1    1    2    0    0 -0.37242811705E+02  0.20313273375E+03 -0.16105661763E+03  0.29019677570E+03  0.12500000000E+03 0.  0.
</event>
<event>
 5    0  0.5713700E-005  0.2573081E+03  0.7546771E-02  0.1108771E+00
         21   -1    0    0  502  501  0.00000000000E+00  0.00000000000E+00  0.16969369717E+03  0.16969369717E+03  0.00000000000E+00 0. -1.
         21   -1    0    0  501  502 -0.00000000000E+00 -0.00000000000E+00 -0.39015866054E+03  0.39015866054E+03  0.00000000000E+00 0. -1.
         25    1    1    2    0    0 -0.31473554861E+02 -0.90108400846E+01 -0.26044649155E+03  0.29073898062E+03  0.12500000000E+03 0.  0.
         25    1    1    2    0    0 -0.19624753412E+02 -0.18778370322E+02  0.26031968540E+02  0.13053896554E+03  0.12500000000E+03 0.  0.
         25    1    1    2    0    0  0.51098308273E+02  0.27789210406E+02  0.13949559638E+02  0.13857441155E+03  0.12500000000E+03 0.  0.
</event>
<event>
 5    0  0.5713700E-005  0.2171278E+03  0.7546771E-02  0.1136043E+00
         21   -1    0    0  502  501  0.00000000000E+00  0.00000000000E+00  0.19652797803E+03  0.19652797803E+03  0.00000000000E+00 0. -1.
         21   -1    0    0  501  502 -0.00000000000E+00 -0.00000000000E+00 -0.23988678209E+03  0.23988678209E+03  0.00000000000E+00 0. -1.
         25    1    1    2    0    0 -0.50747436531E+02  0.29438174532E+02 -0.28637089676E+02  0.14102124428E+03  0.12500000000E+03 0.  0.
         25    1    1    2    0    0  0.64705237660E+02  0.88612416078E+01  0.48979448157E+02  0.14929593338E+03  0.12500000000E+03 0.  0.
         25    1    1    2    0    0 -0.13957801130E+02 -0.38299416140E+02 -0.63701162545E+02  0.14609758245E+03  0.12500000000E+03 0.  0.
</event>
<event>
 5    0  0.5713700E-005  0.3823934E+03  0.7546771E-02  0.1050053E+00
         21   -1    0    0  502  501  0.00000000000E+00  0.00000000000E+00  0.28903326245E+04  0.28903326245E+04  0.00000000000E+00 0.  1.
         21   -1    0    0  501  502 -0.00000000000E+00 -0.00000000000E+00 -0.50590970442E+02  0.50590970442E+02  0.00000000000E+00 0.  1.
         25    1    1    2    0    0  0.34368503104E+02  0.36740888480E+02  0.27906429482E+03  0.30989186426E+03  0.12500000000E+03 0.  0.
         25    1    1    2    0    0  0.16363840213E+03 -0.22049676352E+03  0.14579562058E+04  0.14888444000E+04  0.12500000000E+03 0.  0.
         25    1    1    2    0    0 -0.19800690524E+03  0.18375587504E+03  0.11027211535E+04  0.11421873307E+04  0.12500000000E+03 0.  0.
</event>
<event>
 5    0  0.5713700E-005  0.3737837E+03  0.7546771E-02  0.1053256E+00
         21   -1    0    0  502  501  0.00000000000E+00  0.00000000000E+00  0.23792542378E+03  0.23792542378E+03  0.00000000000E+00 0.  1.
         21   -1    0    0  501  502 -0.00000000000E+00 -0.00000000000E+00 -0.58721869953E+03  0.58721869953E+03  0.00000000000E+00 0.  1.
         25    1    1    2    0    0 -0.14851740619E+03  0.20023527872E+03 -0.84722347696E+02  0.29146948894E+03  0.12500000000E+03 0.  0.
         25    1    1    2    0    0 -0.32637223659E+02 -0.17995059583E+03 -0.21169411205E+03  0.30640953377E+03  0.12500000000E+03 0.  0.
         25    1    1    2    0    0  0.18115462985E+03 -0.20284682889E+02 -0.52876815996E+02  0.22726510059E+03  0.12500000000E+03 0.  0.
</event>
<event>
 5    0  0.5713700E-005  0.2530365E+03  0.7546771E-02  0.1111401E+00
         21   -1    0    0  502  501  0.00000000000E+00  0.00000000000E+00  0.94505822479E+02  0.94505822479E+02  0.00000000000E+00 0. -1.
         21   -1    0    0  501  502 -0.00000000000E+00 -0.00000000000E+00 -0.67749779564E+03  0.67749779564E+03  0.00000000000E+00 0. -1.
         25    1    1    2    0    0 -0.80080481485E+02  0.55525978645E+02 -0.36677752232E+03  0.39955821691E+03  0.12500000000E+03 0.  0.
         25    1    1    2    0    0 -0.16923508180E+02 -0.50558705398E+02 -0.55295312859E+02  0.14671455090E+03  0.12500000000E+03 0.  0.
         25    1    1    2    0    0  0.97003989664E+02 -0.49672732466E+01 -0.16091913798E+03  0.22573085031E+03  0.12500000000E+03 0.  0.
</event>
<event>
 5    0  0.5713700E-005  0.3050180E+03  0.7546771E-02  0.1082759E+00
         21   -1    0    0  502  501  0.00000000000E+00  0.00000000000E+00  0.13853809208E+03  0.13853809208E+03  0.00000000000E+00 0.  1.
         21   -1    0    0  501  502 -0.00000000000E+00 -0.00000000000E+00 -0.67155518046E+03  0.67155518046E+03  0.00000000000E+00 0.  1.
         25    1    1    2    0    0 -0.77445290461E+02  0.39774167056E+02  0.15716131208E+02  0.15313965574E+03  0.12500000000E+03 0.  0.
         25    1    1    2    0    0  0.75883596486E+01  0.79292871842E+02 -0.12423679184E+03  0.19340300715E+03  0.12500000000E+03 0.  0.
         25    1    1    2    0    0  0.69856930812E+02 -0.11906703890E+03 -0.42449642775E+03  0.46355060965E+03  0.12500000000E+03 0.  0.
</event>
<event>
 5    0  0.5713700E-005  0.2602463E+03  0.7546771E-02  0.1106995E+00
         21   -1    0    0  502  501  0.00000000000E+00  0.00000000000E+00  0.22769916788E+03  0.22769916788E+03  0.00000000000E+00 0.  1.
         21   -1    0    0  501  502 -0.00000000000E+00 -0.00000000000E+00 -0.29744575265E+03  0.29744575265E+03  0.00000000000E+00 0.  1.
         25    1    1    2    0    0 -0.25788876988E+02  0.19614142461E+02  0.12098925156E+03  0.17695530440E+03  0.12500000000E+03 0.  0.
         25    1    1    2    0    0  0.12555881825E+02 -0.31565503783E+02 -0.13021770046E+02  0.13018678002E+03  0.12500000000E+03 0.  0.
         25    1    1    2    0    0  0.13232995164E+02  0.11951361322E+02 -0.17771406628E+03  0.21800283611E+03  0.12500000000E+03 0.  0.
</event>
<event>
 5    0  0.5713700E-005  0.2495276E+03  0.7546771E-02  0.1113604E+00
         21   -1    0    0  502  501  0.00000000000E+00  0.00000000000E+00  0.36656729346E+03  0.36656729346E+03  0.00000000000E+00 0. -1.
         21   -1    0    0  501  502 -0.00000000000E+00 -0.00000000000E+00 -0.16985694626E+03  0.16985694626E+03  0.00000000000E+00 0. -1.
         25    1    1    2    0    0  0.72977029550E+02  0.37051883621E+02 -0.12529197270E+02  0.14993488489E+03  0.12500000000E+03 0.  0.
         25    1    1    2    0    0 -0.94186502853E+02 -0.71065473758E+02  0.47794182318E+02  0.17841155440E+03  0.12500000000E+03 0.  0.
         25    1    1    2    0    0  0.21209473302E+02  0.34013590137E+02  0.16144536216E+03  0.20807780043E+03  0.12500000000E+03 0.  0.
</event>
<event>
 5    0  0.5713700E-005  0.3149877E+03  0.7546771E-02  0.1077979E+00
         21   -1    0    0  502  501  0.00000000000E+00  0.00000000000E+00  0.12144969994E+04  0.12144969994E+04  0.00000000000E+00 0. -1.
         21   -1    0    0  501  502 -0.00000000000E+00 -0.00000000000E+00 -0.81694134564E+02  0.81694134564E+02  0.00000000000E+00 0. -1.
         25    1    1    2    0    0  0.64900616021E+02 -0.86309048527E+02  0.16970950279E+03  0.23682832844E+03  0.12500000000E+03 0.  0.
         25    1    1    2    0    0  0.51509754082E+02  0.48418721494E+02  0.82241274999E+03  0.83485648988E+03  0.12500000000E+03 0.  0.
         25    1    1    2    0    0 -0.11641037010E+03  0.37890327032E+02  0.14068061206E+03  0.22450631563E+03  0.12500000000E+03 0.  0.
</event>
<event>
 5    0  0.5713700E-005  0.3026248E+03  0.7546771E-02  0.1083936E+00
         21   -1    0    0  502  501  0.00000000000E+00  0.00000000000E+00  0.10436614466E+04  0.10436614466E+04  0.00000000000E+00 0. -1.
         21   -1    0    0  501  502 -0.00000000000E+00 -0.00000000000E+00 -0.87750445297E+02  0.87750445297E+02  0.00000000000E+00 0. -1.
         25    1    1    2    0    0 -0.53050480102E+02 -0.11648459880E+03  0.61780052722E+03  0.64318388244E+03  0.12500000000E+03 0.  0.
         25    1    1    2    0    0  0.63093866119E+02  0.56675209435E+02  0.35388407662E+02  0.15514591423E+03  0.12500000000E+03 0.  0.
         25    1    1    2    0    0 -0.10043386017E+02  0.59809389369E+02  0.30272206640E+03  0.33308209520E+03  0.12500000000E+03 0.  0.
</event>
<event>
 5    0  0.5713700E-005  0.2653088E+03  0.7546771E-02  0.1103995E+00
         21   -1    0    0  502  501  0.00000000000E+00  0.00000000000E+00  0.53184004008E+03  0.53184004008E+03  0.00000000000E+00 0. -1.
         21   -1    0    0  501  502 -0.00000000000E+00 -0.00000000000E+00 -0.13234953547E+03  0.13234953547E+03  0.00000000000E+00 0. -1.
         25    1    1    2    0    0  0.12481019809E+02  0.16602329061E+02  0.75145001154E+01  0.12693652310E+03  0.12500000000E+03 0.  0.
         25    1    1    2    0    0  0.79452857034E+02 -0.92980495753E+02  0.11042071199E+03  0.20682326445E+03  0.12500000000E+03 0.  0.
         25    1    1    2    0    0 -0.91933876843E+02  0.76378166691E+02  0.28155529251E+03  0.33042978800E+03  0.12500000000E+03 0.  0.
</event>
<event>
 5    0  0.5713700E-005  0.4291287E+03  0.7546771E-02  0.1034136E+00
         21   -1    0    0  502  501  0.00000000000E+00  0.00000000000E+00  0.17314013007E+03  0.17314013007E+03  0.00000000000E+00 0. -1.
         21   -1    0    0  501  502 -0.00000000000E+00 -0.00000000000E+00 -0.10635979284E+04  0.10635979284E+04  0.00000000000E+00 0. -1.
         25    1    1    2    0    0 -0.10636792305E+03  0.26909667711E+02 -0.67831344335E+02  0.17962281744E+03  0.12500000000E+03 0.  0.
         25    1    1    2    0    0 -0.90189983742E+02 -0.70556001046E+02  0.30008713913E+02  0.17215663032E+03  0.12500000000E+03 0.  0.
         25    1    1    2    0    0  0.19655790679E+03  0.43646333335E+02 -0.85263516792E+03  0.88495861073E+03  0.12500000000E+03 0.  0.
</event>
<event>
 5    0  0.5713700E-005  0.3191059E+03  0.7546771E-02  0.1076062E+00
         21   -1    0    0  502  501  0.00000000000E+00  0.00000000000E+00  0.10600033807E+04  0.10600033807E+04  0.00000000000E+00 0. -1.
         21   -1    0    0  501  502 -0.00000000000E+00 -0.00000000000E+00 -0.96064375976E+02  0.96064375976E+02  0.00000000000E+00 0. -1.
         25    1    1    2    0    0 -0.47005137019E+02 -0.20446011487E+02  0.38189716813E+03  0.40509007556E+03  0.12500000000E+03 0.  0.
         25    1    1    2    0    0  0.10137568417E+03  0.25399629917E+02  0.59219236917E+03  0.61419782859E+03  0.12500000000E+03 0.  0.
         25    1    1    2    0    0 -0.54370547154E+02 -0.49536184300E+01 -0.10150532616E+02  0.13677985248E+03  0.12500000000E+03 0.  0.
</event>
<event>
 5    0  0.5713700E-005  0.2412141E+03  0.7546771E-02  0.1118987E+00
         21   -1    0    0  502  501  0.00000000000E+00  0.00000000000E+00  0.29495868887E+03  0.29495868887E+03  0.00000000000E+00 0.  1.
         21   -1    0    0  501  502 -0.00000000000E+00 -0.00000000000E+00 -0.19726238112E+03  0.19726238112E+03  0.00000000000E+00 0.  1.
         25    1    1    2    0    0  0.99782256270E+01  0.59079646008E+02 -0.49793782084E+01  0.13870747552E+03  0.12500000000E+03 0.  0.
         25    1    1    2    0    0  0.29640057010E+02 -0.99322560481E+02  0.13662037236E+03  0.21221128656E+03  0.12500000000E+03 0.  0.
         25    1    1    2    0    0 -0.39618282637E+02  0.40242914473E+02 -0.33944686407E+02  0.14130230791E+03  0.12500000000E+03 0.  0.
</event>
<event>
 5    0  0.5713700E-005  0.3585673E+03  0.7546771E-02  0.1059153E+00
         21   -1    0    0  502  501  0.00000000000E+00  0.00000000000E+00  0.11230552043E+04  0.11230552043E+04  0.00000000000E+00 0. -1.
         21   -1    0    0  501  502 -0.00000000000E+00 -0.00000000000E+00 -0.11448279089E+03  0.11448279089E+03  0.00000000000E+00 0. -1.
         25    1    1    2    0    0  0.40351012170E+02 -0.24088159409E+03  0.25542837402E+03  0.37486104200E+03  0.12500000000E+03 0.  0.
         25    1    1    2    0    0  0.21076148304E+02  0.50205780123E+02  0.49229901681E+03  0.51083083925E+03  0.12500000000E+03 0.  0.
         25    1    1    2    0    0 -0.61427160474E+02  0.19067581396E+03  0.26084502255E+03  0.35184611390E+03  0.12500000000E+03 0.  0.
</event>
<event>
 5    0  0.5713700E-005  0.3773395E+03  0.7546771E-02  0.1051921E+00
         21   -1    0    0  502  501  0.00000000000E+00  0.00000000000E+00  0.10221506308E+03  0.10221506308E+03  0.00000000000E+00 0. -1.
         21   -1    0    0  501  502 -0.00000000000E+00 -0.00000000000E+00 -0.13929953906E+04  0.13929953906E+04  0.00000000000E+00 0. -1.
         25    1    1    2    0    0 -0.13087300768E+03 -0.10277363512E+03 -0.88969628416E+03  0.91371474885E+03  0.12500000000E+03 0.  0.
         25    1    1    2    0    0 -0.48949654242E+02 -0.60946602905E+02 -0.13265757345E+03  0.19832697459E+03  0.12500000000E+03 0.  0.
         25    1    1    2    0    0  0.17982266192E+03  0.16372023802E+03 -0.26842646989E+03  0.38316873022E+03  0.12500000000E+03 0.  0.
</event>
<event>
 5    0  0.5713700E-005  0.2387163E+03  0.7546771E-02  0.1120651E+00
         21   -1    0    0  502  501  0.00000000000E+00  0.00000000000E+00  0.16626954819E+03  0.16626954819E+03  0.00000000000E+00 0. -1.
         21   -1    0    0  501  502 -0.00000000000E+00 -0.00000000000E+00 -0.34272933880E+03  0.34272933880E+03  0.00000000000E+00 0. -1.
         25    1    1    2    0    0 -0.43336121604E+02  0.11983980011E+03 -0.46749610285E+02  0.18452675466E+03  0.12500000000E+03 0.  0.
         25    1    1    2    0    0  0.35893153751E+02 -0.97043105605E+02 -0.10910204435E+03  0.19553500687E+03  0.12500000000E+03 0.  0.
         25    1    1    2    0    0  0.74429678532E+01 -0.22796694503E+02 -0.20608135978E+02  0.12893712545E+03  0.12500000000E+03 0.  0.
</event>
<event>
 5    0  0.7243989E-005  0.2831469E+03  0.7546771E-02  0.1093982E+00
         21   -1    0    0  502  501  0.00000000000E+00  0.00000000000E+00  0.62137360100E+03  0.62137360100E+03  0.00000000000E+00 0. -1.
         21   -1    0    0  501  502 -0.00000000000E+00 -0.00000000000E+00 -0.12902410130E+03  0.12902410130E+03  0.00000000000E+00 0. -1.
         25    1    1    2    0    0 -0.15339644332E+02 -0.87318403272E+02  0.25412602166E+03  0.29675721242E+03  0.12500000000E+03 0.  0.
         25    1    1    2    0    0  0.62821807297E+02  0.14515706928E+02  0.26409101535E+03  0.29920954131E+03  0.12500000000E+03 0.  0.
         25    1    1    2    0    0 -0.47482162965E+02  0.72802696345E+02 -0.25867537307E+02  0.15443094859E+03  0.12500000000E+03 0.  0.
</event>
<event>
 5    0  0.5713700E-005  0.3290080E+03  0.7546771E-02  0.1071577E+00
         21   -1    0    0  502  501  0.00000000000E+00  0.00000000000E+00  0.43594580391E+03  0.43594580391E+03  0.00000000000E+00 0.  1.
         21   -1    0    0  501  502 -0.00000000000E+00 -0.00000000000E+00 -0.24830212435E+03  0.24830212435E+03  0.00000000000E+00 0.  1.
         25    1    1    2    0    0  0.76175047427E+02 -0.33053702699E+02  0.10483503432E+03  0.18305892366E+03  0.12500000000E+03 0.  0.
         25    1    1    2    0    0  0.97272640650E+02 -0.92349710601E+02  0.15815044121E+03  0.24213012560E+03  0.12500000000E+03 0.  0.
         25    1    1    2    0    0 -0.17344768808E+03  0.12540341330E+03 -0.75341795970E+02  0.25905887900E+03  0.12500000000E+03 0.  0.
</event>
<event>
 5    0  0.5713700E-005  0.2435343E+03  0.7546771E-02  0.1117461E+00
         21   -1    0    0  502  501  0.00000000000E+00  0.00000000000E+00  0.80984233335E+02  0.80984233335E+02  0.00000000000E+00 0. -1.
         21   -1    0    0  501  502 -0.00000000000E+00 -0.00000000000E+00 -0.73235189120E+03  0.73235189120E+03  0.00000000000E+00 0. -1.
         25    1    1    2    0    0 -0.32885520955E+02 -0.78630966171E+02 -0.27609771672E+03  0.31483207509E+03  0.12500000000E+03 0.  0.
         25    1    1    2    0    0  0.12175963741E+02  0.93799974548E+01 -0.32000422097E+03  0.34389524551E+03  0.12500000000E+03 0.  0.
         25    1    1    2    0    0  0.20709557214E+02  0.69250968716E+02 -0.55265720181E+02  0.15460880394E+03  0.12500000000E+03 0.  0.
</event>
<event>
 5    0  0.5713700E-005  0.2687404E+03  0.7546771E-02  0.1102003E+00
         21   -1    0    0  502  501  0.00000000000E+00  0.00000000000E+00  0.45623335977E+02  0.45623335977E+02  0.00000000000E+00 0. -1.
         21   -1    0    0  501  502 -0.00000000000E+00 -0.00000000000E+00 -0.15829922981E+04  0.15829922981E+04  0.00000000000E+00 0. -1.
         25    1    1    2    0    0  0.38870800999E+02 -0.99312767171E+02 -0.45011583716E+03  0.47916931429E+03  0.12500000000E+03 0.  0.
         25    1    1    2    0    0 -0.45990442421E+02 -0.79173146694E+02 -0.44909369141E+03  0.47507225936E+03  0.12500000000E+03 0.  0.
         25    1    1    2    0    0  0.71196414223E+01  0.17848591387E+03 -0.63815943354E+03  0.67437406042E+03  0.12500000000E+03 0.  0.
</event>
<event>
 5    0  0.5713700E-005  0.2462977E+03  0.7546771E-02  0.1115667E+00
         21   -1    0    0  502  501  0.00000000000E+00  0.00000000000E+00  0.91362865698E+02  0.91362865698E+02  0.00000000000E+00 0.  1.
         21   -1    0    0  501  502 -0.00000000000E+00 -0.00000000000E+00 -0.66397401797E+03  0.66397401797E+03  0.00000000000E+00 0.  1.
         25    1    1    2    0    0 -0.88173723259E+02  0.94928974027E+02 -0.35577763795E+03  0.39873405078E+03  0.12500000000E+03 0.  0.
         25    1    1    2    0    0  0.37441656698E+02 -0.60518078150E+02 -0.10698697736E+03  0.17926385236E+03  0.12500000000E+03 0.  0.
         25    1    1    2    0    0  0.50732066561E+02 -0.34410895876E+02 -0.10984653696E+03  0.17733898053E+03  0.12500000000E+03 0.  0.
</event>
<event>
 5    0  0.5713700E-005  0.2886997E+03  0.7546771E-02  0.1091030E+00
         21   -1    0    0  502  501  0.00000000000E+00  0.00000000000E+00  0.19365684471E+03  0.19365684471E+03  0.00000000000E+00 0.  1.
         21   -1    0    0  501  502 -0.00000000000E+00 -0.00000000000E+00 -0.43038774095E+03  0.43038774095E+03  0.00000000000E+00 0.  1.
         25    1    1    2    0    0  0.29500288087E+02  0.12586826028E+02  0.30691079841E+02  0.13264854906E+03  0.12500000000E+03 0.  0.
         25    1    1    2    0    0 -0.12950856748E+03  0.10803863166E+03 -0.11330383286E+03  0.23855308324E+03  0.12500000000E+03 0.  0.
         25    1    1    2    0    0  0.10000827940E+03 -0.12062545769E+03 -0.15411814323E+03  0.25284295336E+03  0.12500000000E+03 0.  0.
</event>
<event>
 5    0  0.5713700E-005  0.2981593E+03  0.7546771E-02  0.1086164E+00
         21   -1    0    0  502  501  0.00000000000E+00  0.00000000000E+00  0.38571498426E+03  0.38571498426E+03  0.00000000000E+00 0. -1.
         21   -1    0    0  501  502 -0.00000000000E+00 -0.00000000000E+00 -0.23047843697E+03  0.23047843697E+03  0.00000000000E+00 0. -1.
         25    1    1    2    0    0  0.29342356918E+02  0.14694831281E+03  0.56920370035E+02  0.20327249955E+03  0.12500000000E+03 0.  0.
         25    1    1    2    0    0  0.38430267788E+02 -0.10497133095E+03 -0.75977019456E+02  0.18410152984E+03  0.12500000000E+03 0.  0.
         25    1    1    2    0    0 -0.67772624706E+02 -0.41976981857E+02  0.17429319671E+03  0.22881939185E+03  0.12500000000E+03 0.  0.
</event>
<event>
 5    0  0.5805828E-005  0.2981591E+03  0.7546771E-02  0.1086164E+00
         21   -1    0    0  502  501  0.00000000000E+00  0.00000000000E+00  0.18462001820E+03  0.18462001820E+03  0.00000000000E+00 0. -1.
         21   -1    0    0  501  502 -0.00000000000E+00 -0.00000000000E+00 -0.48152335123E+03  0.48152335123E+03  0.00000000000E+00 0. -1.
         25    1    1    2    0    0  0.49235569444E+02  0.94451272402E+02 -0.89004688131E+02  0.18679405415E+03  0.12500000000E+03 0.  0.
         25    1    1    2    0    0 -0.97422557265E+01 -0.16186288215E+03  0.22347863226E+02  0.20595856660E+03  0.12500000000E+03 0.  0.
         25    1    1    2    0    0 -0.39493313717E+02  0.67411609748E+02 -0.23024650813E+03  0.27339074868E+03  0.12500000000E+03 0.  0.
</event>
<event>
 5    0  0.5713700E-005  0.3447703E+03  0.7546771E-02  0.1064782E+00
         21   -1    0    0  502  501  0.00000000000E+00  0.00000000000E+00  0.87135755896E+03  0.87135755896E+03  0.00000000000E+00 0. -1.
         21   -1    0    0  501  502 -0.00000000000E+00 -0.00000000000E+00 -0.13641535548E+03  0.13641535548E+03  0.00000000000E+00 0. -1.
         25    1    1    2    0    0 -0.22184031744E+02  0.16844302296E+03  0.16322884206E+03  0.26670927642E+03  0.12500000000E+03 0.  0.
         25    1    1    2    0    0 -0.11095894151E+02 -0.27553477246E+03  0.34667451907E+03  0.46027247568E+03  0.12500000000E+03 0.  0.
         25    1    1    2    0    0  0.33279925895E+02  0.10709174950E+03  0.22503884235E+03  0.28079116233E+03  0.12500000000E+03 0.  0.
</event>
<event>
 5    0  0.5713700E-005  0.2713132E+03  0.7546771E-02  0.1100530E+00
         21   -1    0    0  502  501  0.00000000000E+00  0.00000000000E+00  0.93862403539E+02  0.93862403539E+02  0.00000000000E+00 0. -1.
         21   -1    0    0  501  502 -0.00000000000E+00 -0.00000000000E+00 -0.78424226571E+03  0.78424226571E+03  0.00000000000E+00 0. -1.
         25    1    1    2    0    0 -0.75489637131E+02  0.27444194021E+02 -0.17998753176E+03  0.23339318904E+03  0.12500000000E+03 0.  0.
         25    1    1    2    0    0 -0.27764829978E+01  0.99848380832E+02 -0.95459369094E+02  0.18631934725E+03  0.12500000000E+03 0.  0.
         25    1    1    2    0    0  0.78266120129E+02 -0.12729257485E+03 -0.41493296132E+03  0.45839213296E+03  0.12500000000E+03 0.  0.
</event>
<event>
 5    0  0.5713700E-005  0.2306662E+03  0.7546771E-02  0.1126172E+00
         21   -1    0    0  502  501  0.00000000000E+00  0.00000000000E+00  0.70526738876E+03  0.70526738876E+03  0.00000000000E+00 0. -1.
         21   -1    0    0  501  502 -0.00000000000E+00 -0.00000000000E+00 -0.75442171180E+02  0.75442171180E+02  0.00000000000E+00 0. -1.
         25    1    1    2    0    0 -0.39883560015E+02  0.59631946335E+02  0.84297452655E+02  0.16696624781E+03  0.12500000000E+03 0.  0.
         25    1    1    2    0    0 -0.23392808081E+02 -0.60674815734E+02  0.26190157188E+03  0.29739887372E+03  0.12500000000E+03 0.  0.
         25    1    1    2    0    0  0.63276368096E+02  0.10428693989E+01  0.28362619304E+03  0.31634443842E+03  0.12500000000E+03 0.  0.
</event>
<event>
 5    0  0.5713700E-005  0.4634450E+03  0.7546771E-02  0.1023787E+00
         21   -1    0    0  502  501  0.00000000000E+00  0.00000000000E+00  0.61762919426E+03  0.61762919426E+03  0.00000000000E+00 0.  1.
         21   -1    0    0  501  502 -0.00000000000E+00 -0.00000000000E+00 -0.34775121861E+03  0.34775121861E+03  0.00000000000E+00 0.  1.
         25    1    1    2    0    0 -0.20511089427E+03 -0.17096702320E+02 -0.12798647976E+03  0.27270554666E+03  0.12500000000E+03 0.  0.
         25    1    1    2    0    0  0.20411067475E+03 -0.15326198397E+03  0.38824586785E+03  0.48115512798E+03  0.12500000000E+03 0.  0.
         25    1    1    2    0    0  0.10002195197E+01  0.17035868629E+03  0.96185875587E+01  0.21151973823E+03  0.12500000000E+03 0.  0.
</event>
<event>
 5    0  0.5713700E-005  0.3632643E+03  0.7546771E-02  0.1057299E+00
         21   -1    0    0  502  501  0.00000000000E+00  0.00000000000E+00  0.10782810321E+03  0.10782810321E+03  0.00000000000E+00 0.  1.
         21   -1    0    0  501  502 -0.00000000000E+00 -0.00000000000E+00 -0.12238083042E+04  0.12238083042E+04  0.00000000000E+00 0.  1.
         25    1    1    2    0    0  0.41767318921E+02  0.98016329083E+02 -0.16168060330E+03  0.23047196615E+03  0.12500000000E+03 0.  0.
         25    1    1    2    0    0 -0.66985562203E+02  0.15690367580E+03 -0.18583683164E+03  0.28154246041E+03  0.12500000000E+03 0.  0.
         25    1    1    2    0    0  0.25218243282E+02 -0.25492000488E+03 -0.76846276602E+03  0.81962198082E+03  0.12500000000E+03 0.  0.
</event>
<event>
 5    0  0.5713700E-005  0.2645940E+03  0.7546771E-02  0.1104414E+00
         21   -1    0    0  502  501  0.00000000000E+00  0.00000000000E+00  0.11540219264E+03  0.11540219264E+03  0.00000000000E+00 0.  1.
         21   -1    0    0  501  502 -0.00000000000E+00 -0.00000000000E+00 -0.60666060127E+03  0.60666060127E+03  0.00000000000E+00 0.  1.
         25    1    1    2    0    0 -0.11734668831E+03 -0.34179845134E+02 -0.98487404854E+02  0.20065711048E+03  0.12500000000E+03 0.  0.
         25    1    1    2    0    0  0.81413673146E+02  0.10501798158E+03 -0.28442017040E+03  0.33790057111E+03  0.12500000000E+03 0.  0.
         25    1    1    2    0    0  0.35933015168E+02 -0.70838136445E+02 -0.10835083337E+03  0.18350511232E+03  0.12500000000E+03 0.  0.
</event>
<event>
 5    0  0.5713700E-005  0.2194112E+03  0.7546771E-02  0.1134323E+00
         21   -1    0    0  502  501  0.00000000000E+00  0.00000000000E+00  0.15100600435E+03  0.15100600435E+03  0.00000000000E+00 0. -1.
         21   -1    0    0  501  502 -0.00000000000E+00 -0.00000000000E+00 -0.31880373372E+03  0.31880373372E+03  0.00000000000E+00 0. -1.
         25    1    1    2    0    0 -0.15040377853E+02  0.10371908654E+03 -0.63473366785E+02  0.17503636814E+03  0.12500000000E+03 0.  0.
         25    1    1    2    0    0 -0.15122449564E+02 -0.40062738398E+02 -0.53611001033E+02  0.14259330602E+03  0.12500000000E+03 0.  0.
         25    1    1    2    0    0  0.30162827417E+02 -0.63656348143E+02 -0.50713361548E+02  0.15218006392E+03  0.12500000000E+03 0.  0.
</event>
<event>
 5    0  0.5713700E-005  0.3832604E+03  0.7546771E-02  0.1049735E+00
         21   -1    0    0  502  501  0.00000000000E+00  0.00000000000E+00  0.10969346837E+04  0.10969346837E+04  0.00000000000E+00 0. -1.
         21   -1    0    0  501  502 -0.00000000000E+00 -0.00000000000E+00 -0.13390818219E+03  0.13390818219E+03  0.00000000000E+00 0. -1.
         25    1    1    2    0    0 -0.34683744291E+01  0.18501209325E+03  0.20488351934E+03  0.30305735557E+03  0.12500000000E+03 0.  0.
         25    1    1    2    0    0 -0.15329665857E+03  0.35386522816E+02  0.47925297118E+03  0.51967343775E+03  0.12500000000E+03 0.  0.
         25    1    1    2    0    0  0.15676503300E+03 -0.22039861606E+03  0.27889001101E+03  0.40811207257E+03  0.12500000000E+03 0.  0.
</event>
<event>
 5    0  0.5713700E-005  0.4397883E+03  0.7546771E-02  0.1030812E+00
         21   -1    0    0  502  501  0.00000000000E+00  0.00000000000E+00  0.10284752657E+03  0.10284752657E+03  0.00000000000E+00 0. -1.
         21   -1    0    0  501  502 -0.00000000000E+00 -0.00000000000E+00 -0.18805875772E+04  0.18805875772E+04  0.00000000000E+00 0. -1.
         25    1    1    2    0    0  0.16561009902E+03 -0.98669001209E+02 -0.91675477745E+03  0.94510665994E+03  0.12500000000E+03 0.  0.
         25    1    1    2    0    0 -0.13852767246E+02  0.48062565923E+02  0.18332351035E+02  0.13587856526E+03  0.12500000000E+03 0.  0.
         25    1    1    2    0    0 -0.15175733178E+03  0.50606435286E+02 -0.87931762419E+03  0.90244987853E+03  0.12500000000E+03 0.  0.
</event>
<event>
 5    0  0.5713700E-005  0.3062641E+03  0.7546771E-02  0.1082150E+00
         21   -1    0    0  502  501  0.00000000000E+00  0.00000000000E+00  0.53811684765E+03  0.53811684765E+03  0.00000000000E+00 0.  1.
         21   -1    0    0  501  502 -0.00000000000E+00 -0.00000000000E+00 -0.17430733329E+03  0.17430733329E+03  0.00000000000E+00 0.  1.
         25    1    1    2    0    0  0.53618588118E+02 -0.12160482590E+02  0.37985157930E+03  0.40365214309E+03  0.12500000000E+03 0.  0.
         25    1    1    2    0    0 -0.99555277552E+02  0.53033537124E+02 -0.18972169126E+02  0.16943657382E+03  0.12500000000E+03 0.  0.
         25    1    1    2    0    0  0.45936689434E+02 -0.40873054534E+02  0.29301041867E+01  0.13933546402E+03  0.12500000000E+03 0.  0.
</event>
<event>
 5    0  0.5713700E-005  0.3129208E+03  0.7546771E-02  0.1078954E+00
         21   -1    0    0  502  501  0.00000000000E+00  0.00000000000E+00  0.51867942913E+03  0.51867942913E+03  0.00000000000E+00 0.  1.
         21   -1    0    0  501  502 -0.00000000000E+00 -0.00000000000E+00 -0.18878603942E+03  0.18878603942E+03  0.00000000000E+00 0.  1.
         25    1    1    2    0    0  0.13260251883E+03  0.14099542144E+03 -0.16758598929E+02  0.23101728832E+03  0.12500000000E+03 0.  0.
         25    1    1    2    0    0 -0.38358959281E+02 -0.37337794748E+02  0.11369907576E+03  0.17725123555E+03  0.12500000000E+03 0.  0.
         25    1    1    2    0    0 -0.94243559551E+02 -0.10365762669E+03  0.23295291287E+03  0.29919694468E+03  0.12500000000E+03 0.  0.
</event>
<event>
 5    0  0.5713700E-005  0.2793949E+03  0.7546771E-02  0.1096020E+00
         21   -1    0    0  502  501  0.00000000000E+00  0.00000000000E+00  0.19482547680E+04  0.19482547680E+04  0.00000000000E+00 0. -1.
         21   -1    0    0  501  502 -0.00000000000E+00 -0.00000000000E+00 -0.40067389826E+02  0.40067389826E+02  0.00000000000E+00 0. -1.
         25    1    1    2    0    0 -0.12349135614E+02  0.45212020197E+02  0.66840467678E+03  0.68160578039E+03  0.12500000000E+03 0.  0.
         25    1    1    2    0    0 -0.25673885995E+02  0.11549742386E+03  0.31430376547E+03  0.35834433208E+03  0.12500000000E+03 0.  0.
         25    1    1    2    0    0  0.38023021609E+02 -0.16070944406E+03  0.92547893590E+03  0.94837204534E+03  0.12500000000E+03 0.  0.
</event>
<event>
 5    0  0.5713700E-005  0.2360290E+03  0.7546771E-02  0.1122467E+00
         21   -1    0    0  502  501  0.00000000000E+00  0.00000000000E+00  0.24637111864E+03  0.24637111864E+03  0.00000000000E+00 0. -1.
         21   -1    0    0  501  502 -0.00000000000E+00 -0.00000000000E+00 -0.22612102335E+03  0.22612102335E+03  0.00000000000E+00 0. -1.
         25    1    1    2    0    0 -0.72800895174E+02  0.45307341013E+02 -0.50944996351E+02  0.15991597213E+03  0.12500000000E+03 0.  0.
         25    1    1    2    0    0 -0.18262437598E+02  0.12650687441E+02  0.74847212935E+02  0.14737931267E+03  0.12500000000E+03 0.  0.
         25    1    1    2    0    0  0.91063332772E+02 -0.57958028454E+02 -0.36521212915E+01  0.16519685720E+03  0.12500000000E+03 0.  0.
</event>
<event>
 5    0  0.5713700E-005  0.3373622E+03  0.7546771E-02  0.1067925E+00
         21   -1    0    0  502  501  0.00000000000E+00  0.00000000000E+00  0.27969640153E+04  0.27969640153E+04  0.00000000000E+00 0.  1.
         21   -1    0    0  501  502 -0.00000000000E+00 -0.00000000000E+00 -0.40691718296E+02  0.40691718296E+02  0.00000000000E+00 0.  1.
         25    1    1    2    0    0 -0.52243213873E+01  0.57224072066E+02  0.31757905099E+03  0.34609730075E+03  0.12500000000E+03 0.  0.
         25    1    1    2    0    0 -0.57160459656E+02 -0.23795659998E+03  0.15374901081E+04  0.15618551451E+04  0.12500000000E+03 0.  0.
         25    1    1    2    0    0  0.62384781043E+02  0.18073252791E+03  0.90120313786E+03  0.92970328774E+03  0.12500000000E+03 0.  0.
</event>
<event>
 5    0  0.5713700E-005  0.3338215E+03  0.7546771E-02  0.1069458E+00
         21   -1    0    0  502  501  0.00000000000E+00  0.00000000000E+00  0.58142343714E+02  0.58142343714E+02  0.00000000000E+00 0.  1.
         21   -1    0    0  501  502 -0.00000000000E+00 -0.00000000000E+00 -0.19166204184E+04  0.19166204184E+04  0.00000000000E+00 0.  1.
         25    1    1    2    0    0 -0.15164426995E+03 -0.11962987141E+03 -0.84545566146E+03  0.87620064268E+03  0.12500000000E+03 0.  0.
         25    1    1    2    0    0  0.22065712804E+03  0.59845448243E+02 -0.74234369316E+03  0.78674659491E+03  0.12500000000E+03 0.  0.
         25    1    1    2    0    0 -0.69012858087E+02  0.59784423163E+02 -0.27067872004E+03  0.31181552450E+03  0.12500000000E+03 0.  0.
</event>
<event>
 5    0  0.5713700E-005  0.2506106E+03  0.7546771E-02  0.1112920E+00
         21   -1    0    0  502  501  0.00000000000E+00  0.00000000000E+00  0.10468668550E+03  0.10468668550E+03  0.00000000000E+00 0.  1.
         21   -1    0    0  501  502 -0.00000000000E+00 -0.00000000000E+00 -0.59993951673E+03  0.59993951673E+03  0.00000000000E+00 0.  1.
         25    1    1    2    0    0  0.38723892018E+01  0.10784271874E+03 -0.21233404382E+03  0.26899032241E+03  0.12500000000E+03 0.  0.
         25    1    1    2    0    0 -0.53753536986E+02  0.24533744272E+02 -0.85891410655E+02  0.16276879852E+03  0.12500000000E+03 0.  0.
         25    1    1    2    0    0  0.49881147784E+02 -0.13237646301E+03 -0.19702737675E+03  0.27286708130E+03  0.12500000000E+03 0.  0.
</event>
<event>
 5    0  0.5713700E-005  0.3884575E+03  0.7546771E-02  0.1047851E+00
         21   -1    0    0  502  501  0.00000000000E+00  0.00000000000E+00  0.13217218205E+04  0.13217218205E+04  0.00000000000E+00 0. -1.
         21   -1    0    0  501  502 -0.00000000000E+00 -0.00000000000E+00 -0.11416869612E+03  0.11416869612E+03  0.00000000000E+00 0. -1.
         25    1    1    2    0    0 -0.14793978636E+03 -0.89380602978E+02  0.80136639884E+03  0.82926966528E+03  0.12500000000E+03 0.  0.
         25    1    1    2    0    0  0.17069103734E+03 -0.90681414234E+02  0.20709843571E+03  0.30963415701E+03  0.12500000000E+03 0.  0.
         25    1    1    2    0    0 -0.22751250982E+02  0.18006201721E+03  0.19908828987E+03  0.29698669436E+03  0.12500000000E+03 0.  0.
</event>
<event>
 5    0  0.5713700E-005  0.2635237E+03  0.7546771E-02  0.1105044E+00
         21   -1    0    0  502  501  0.00000000000E+00  0.00000000000E+00  0.13731601764E+04  0.13731601764E+04  0.00000000000E+00 0.  1.
         21   -1    0    0  501  502 -0.00000000000E+00 -0.00000000000E+00 -0.50572916334E+02  0.50572916334E+02  0.00000000000E+00 0.  1.
         25    1    1    2    0    0 -0.92025268288E+02  0.86166809385E+02  0.44375841490E+03  0.47795386790E+03  0.12500000000E+03 0.  0.
         25    1    1    2    0    0  0.22322321047E+02  0.40635576343E+02  0.54496424960E+03  0.56103526576E+03  0.12500000000E+03 0.  0.
         25    1    1    2    0    0  0.69702947241E+02 -0.12680238573E+03  0.33386459561E+03  0.38474395912E+03  0.12500000000E+03 0.  0.
</event>
<event>
 5    0  0.5713700E-005  0.4944620E+03  0.7546771E-02  0.1015235E+00
         21   -1    0    0  502  501  0.00000000000E+00  0.00000000000E+00  0.21144007065E+03  0.21144007065E+03  0.00000000000E+00 0. -1.
         21   -1    0    0  501  502 -0.00000000000E+00 -0.00000000000E+00 -0.11563215077E+04  0.11563215077E+04  0.00000000000E+00 0. -1.
         25    1    1    2    0    0 -0.16670435271E+03  0.27053571549E+03 -0.10035523684E+03  0.35591584417E+03  0.12500000000E+03 0.  0.
         25    1    1    2    0    0  0.12754277951E+03  0.14563388350E+02 -0.56116767755E+03  0.58907844572E+03  0.12500000000E+03 0.  0.
         25    1    1    2    0    0  0.39161573200E+02 -0.28509910384E+03 -0.28335852264E+03  0.42276728844E+03  0.12500000000E+03 0.  0.
</event>
<event>
 5    0  0.5713700E-005  0.3388562E+03  0.7546771E-02  0.1067284E+00
         21   -1    0    0  502  501  0.00000000000E+00  0.00000000000E+00  0.11421998935E+03  0.11421998935E+03  0.00000000000E+00 0. -1.
         21   -1    0    0  501  502 -0.00000000000E+00 -0.00000000000E+00 -0.10052839382E+04  0.10052839382E+04  0.00000000000E+00 0. -1.
         25    1    1    2    0    0 -0.67184090981E+02 -0.10393979649E+03  0.76875108856E+01  0.17607180694E+03  0.12500000000E+03 0.  0.
         25    1    1    2    0    0  0.54997565000E+02  0.29045854255E+02 -0.39874244483E+03  0.42247950378E+03  0.12500000000E+03 0.  0.
         25    1    1    2    0    0  0.12186525981E+02  0.74893942234E+02 -0.50000901489E+03  0.52095261682E+03  0.12500000000E+03 0.  0.
</event>
<event>
 5    0  0.5713700E-005  0.5470537E+03  0.7546771E-02  0.1002178E+00
         21   -1    0    0  502  501  0.00000000000E+00  0.00000000000E+00  0.26012158147E+03  0.26012158147E+03  0.00000000000E+00 0.  1.
         21   -1    0    0  501  502 -0.00000000000E+00 -0.00000000000E+00 -0.11504918947E+04  0.11504918947E+04  0.00000000000E+00 0.  1.
         25    1    1    2    0    0  0.16334447232E+02 -0.23056011239E+03 -0.25334555641E+03  0.36501198685E+03  0.12500000000E+03 0.  0.
         25    1    1    2    0    0  0.14699647184E+03  0.47012942080E+03 -0.44890107455E+03  0.67806106640E+03  0.12500000000E+03 0.  0.
         25    1    1    2    0    0 -0.16333091907E+03 -0.23956930842E+03 -0.18812368229E+03  0.36754042294E+03  0.12500000000E+03 0.  0.
</event>
<event>
 5    0  0.6475525E-005  0.3039774E+03  0.7546771E-02  0.1083269E+00
         21   -1    0    0  502  501  0.00000000000E+00  0.00000000000E+00  0.35516441308E+03  0.35516441308E+03  0.00000000000E+00 0.  1.
         21   -1    0    0  501  502 -0.00000000000E+00 -0.00000000000E+00 -0.26016757595E+03  0.26016757595E+03  0.00000000000E+00 0.  1.
         25    1    1    2    0    0 -0.59612580542E+02 -0.29820033040E+01  0.12318283963E+03  0.18536872466E+03  0.12500000000E+03 0.  0.
         25    1    1    2    0    0 -0.67173692949E+02 -0.14009817615E+03  0.29944094432E+01  0.19943362423E+03  0.12500000000E+03 0.  0.
         25    1    1    2    0    0  0.12678627349E+03  0.14308017946E+03 -0.31180411941E+02  0.23052964015E+03  0.12500000000E+03 0.  0.
</event>
<event>
 5    0  0.5713700E-005  0.1181594E+04  0.7546771E-02  0.9129121E-01
         21   -1    0    0  502  501  0.00000000000E+00  0.00000000000E+00  0.19096199393E+04  0.19096199393E+04  0.00000000000E+00 0.  1.
         21   -1    0    0  501  502 -0.00000000000E+00 -0.00000000000E+00 -0.73112202618E+03  0.73112202618E+03  0.00000000000E+00 0.  1.
         25    1    1    2    0    0  0.97342792373E+03 -0.16260272670E+03  0.11813518233E+04  0.15444153262E+04  0.12500000000E+03 0.  0.
         25    1    1    2    0    0 -0.17584091080E+03  0.18560075882E+03  0.40777715542E+02  0.28749867768E+03  0.12500000000E+03 0.  0.
         25    1    1    2    0    0 -0.79758701294E+03 -0.22998032119E+02 -0.43631625708E+02  0.80882796159E+03  0.12500000000E+03 0.  0.
</event>
<event>
 5    0  0.5713700E-005  0.3680780E+03  0.7546771E-02  0.1055430E+00
         21   -1    0    0  502  501  0.00000000000E+00  0.00000000000E+00  0.11103595260E+04  0.11103595260E+04  0.00000000000E+00 0. -1.
         21   -1    0    0  501  502 -0.00000000000E+00 -0.00000000000E+00 -0.12201583027E+03  0.12201583027E+03  0.00000000000E+00 0.  1.
         25    1    1    2    0    0  0.24663167604E+03 -0.34162709443E+02  0.16637888337E+03  0.32450147484E+03  0.12500000000E+03 0.  0.
         25    1    1    2    0    0 -0.48788368957E+02  0.39720309196E+02  0.42017098410E+03  0.44286190148E+03  0.12500000000E+03 0.  0.
         25    1    1    2    0    0 -0.19784330708E+03 -0.55575997531E+01  0.40179382831E+03  0.46501198000E+03  0.12500000000E+03 0.  0.
</event>
<event>
 5    0  0.5713700E-005  0.2800230E+03  0.7546771E-02  0.1095676E+00
         21   -1    0    0  502  501  0.00000000000E+00  0.00000000000E+00  0.27748413008E+03  0.27748413008E+03  0.00000000000E+00 0. -1.
         21   -1    0    0  501  502 -0.00000000000E+00 -0.00000000000E+00 -0.28258510614E+03  0.28258510614E+03  0.00000000000E+00 0. -1.
         25    1    1    2    0    0 -0.11933247587E+03  0.11847989445E+03  0.55726214703E+01  0.20960386279E+03  0.12500000000E+03 0.  0.
         25    1    1    2    0    0  0.12406657620E+03 -0.88307905370E+00 -0.26282118158E+02  0.17807033693E+03  0.12500000000E+03 0.  0.
         25    1    1    2    0    0 -0.47341003279E+01 -0.11759681539E+03  0.15608520627E+02  0.17239503651E+03  0.12500000000E+03 0.  0.
</event>
<event>
 5    0  0.5713700E-005  0.2649889E+03  0.7546771E-02  0.1104182E+00
         21   -1    0    0  502  501  0.00000000000E+00  0.00000000000E+00  0.11733959343E+03  0.11733959343E+03  0.00000000000E+00 0.  1.
         21   -1    0    0  501  502 -0.00000000000E+00 -0.00000000000E+00 -0.59842661819E+03  0.59842661819E+03  0.00000000000E+00 0.  1.
         25    1    1    2    0    0  0.66685722108E+02 -0.70609480786E+02 -0.18076486221E+03  0.24027821316E+03  0.12500000000E+03 0.  0.
         25    1    1    2    0    0  0.82022789174E+02 -0.18393355778E+02 -0.89021492132E+02  0.17497393961E+03  0.12500000000E+03 0.  0.
         25    1    1    2    0    0 -0.14870851128E+03  0.89002836564E+02 -0.21130067042E+03  0.30051405885E+03  0.12500000000E+03 0.  0.
</event>
<event>
 5    0  0.5713700E-005  0.2324185E+03  0.7546771E-02  0.1124949E+00
         21   -1    0    0  502  501  0.00000000000E+00  0.00000000000E+00  0.16726095498E+03  0.16726095498E+03  0.00000000000E+00 0.  1.
         21   -1    0    0  501  502 -0.00000000000E+00 -0.00000000000E+00 -0.32295852449E+03  0.32295852449E+03  0.00000000000E+00 0.  1.
         25    1    1    2    0    0 -0.20458761519E+02 -0.94679114524E+02 -0.42641989062E+02  0.16378655281E+03  0.12500000000E+03 0.  0.
         25    1    1    2    0    0 -0.27314024763E+02  0.11208918309E+03 -0.77220646672E+02  0.18681024915E+03  0.12500000000E+03 0.  0.
         25    1    1    2    0    0  0.47772786282E+02 -0.17410068566E+02 -0.35834933776E+02  0.13962267751E+03  0.12500000000E+03 0.  0.
</event>
<event>
 5    0  0.5713700E-005  0.2802191E+03  0.7546771E-02  0.1095569E+00
         21   -1    0    0  502  501  0.00000000000E+00  0.00000000000E+00  0.14947567889E+04  0.14947567889E+04  0.00000000000E+00 0. -1.
         21   -1    0    0  501  502 -0.00000000000E+00 -0.00000000000E+00 -0.52532121689E+02  0.52532121689E+02  0.00000000000E+00 0. -1.
         25    1    1    2    0    0 -0.74709154104E+02  0.97112084980E+02  0.91232581462E+03  0.92896480384E+03  0.12500000000E+03 0.  0.
         25    1    1    2    0    0 -0.29559599963E+02 -0.43814678544E+02  0.31875032900E+03  0.34643941496E+03  0.12500000000E+03 0.  0.
         25    1    1    2    0    0  0.10426875407E+03 -0.53297406436E+02  0.21114852358E+03  0.27188469177E+03  0.12500000000E+03 0.  0.
</event>
<event>
 5    0  0.5713700E-005  0.3762297E+03  0.7546771E-02  0.1052336E+00
         21   -1    0    0  502  501  0.00000000000E+00  0.00000000000E+00  0.97579501167E+03  0.97579501167E+03  0.00000000000E+00 0.  1.
         21   -1    0    0  501  502 -0.00000000000E+00 -0.00000000000E+00 -0.14505993946E+03  0.14505993946E+03  0.00000000000E+00 0.  1.
         25    1    1    2    0    0  0.26465560443E+02 -0.18212682772E+03  0.69722287816E+03  0.73185746501E+03  0.12500000000E+03 0.  0.
         25    1    1    2    0    0  0.38698352186E+02  0.69076332541E+02  0.14599759111E+03  0.20786870565E+03  0.12500000000E+03 0.  0.
         25    1    1    2    0    0 -0.65163912630E+02  0.11305049517E+03 -0.12485397068E+02  0.18112878045E+03  0.12500000000E+03 0.  0.
</event>
<event>
 5    0  0.5713700E-005  0.3626017E+03  0.7546771E-02  0.1057558E+00
         21   -1    0    0  502  501  0.00000000000E+00  0.00000000000E+00  0.58140101564E+02  0.58140101564E+02  0.00000000000E+00 0.  1.
         21   -1    0    0  501  502 -0.00000000000E+00 -0.00000000000E+00 -0.22614335247E+04  0.22614335247E+04  0.00000000000E+00 0.  1.
         25    1    1    2    0    0  0.92209861689E+02 -0.11980954172E+03 -0.14882107195E+04  0.15010839851E+04  0.12500000000E+03 0.  0.
         25    1    1    2    0    0 -0.87505692631E+01  0.13400818476E+03 -0.16062045492E+03  0.24384153991E+03  0.12500000000E+03 0.  0.
         25    1    1    2    0    0 -0.83459292426E+02 -0.14198643038E+02 -0.55446224872E+03  0.57464810120E+03  0.12500000000E+03 0.  0.
</event>
<event>
 5    0  0.5713700E-005  0.5769968E+03  0.7546771E-02  0.9954314E-01
         21   -1    0    0  502  501  0.00000000000E+00  0.00000000000E+00  0.15607395200E+04  0.15607395200E+04  0.00000000000E+00 0. -1.
         21   -1    0    0  501  502 -0.00000000000E+00 -0.00000000000E+00 -0.21331254851E+03  0.21331254851E+03  0.00000000000E+00 0. -1.
         25    1    1    2    0    0  0.11784277755E+03 -0.11851978924E+02 -0.23910018099E+02  0.17385073652E+03  0.12500000000E+03 0.  0.
         25    1    1    2    0    0 -0.25134471351E+03 -0.69413005856E+02  0.13698793027E+04  0.14000666536E+04  0.12500000000E+03 0.  0.
         25    1    1    2    0    0  0.13350193596E+03  0.81264984780E+02  0.14576868717E+01  0.20013467842E+03  0.12500000000E+03 0.  0.
</event>
<event>
 5    0  0.5713700E-005  0.2663735E+03  0.7546771E-02  0.1103373E+00
         21   -1    0    0  502  501  0.00000000000E+00  0.00000000000E+00  0.64959207258E+02  0.64959207258E+02  0.00000000000E+00 0. -1.
         21   -1    0    0  501  502 -0.00000000000E+00 -0.00000000000E+00 -0.10922986719E+04  0.10922986719E+04  0.00000000000E+00 0. -1.
         25    1    1    2    0    0 -0.14771954725E+03  0.21185007556E+02 -0.35896097416E+03  0.40834770741E+03  0.12500000000E+03 0.  0.
         25    1    1    2    0    0  0.14807220724E+03  0.32753867149E+01 -0.28278495297E+03  0.34282420617E+03  0.12500000000E+03 0.  0.
         25    1    1    2    0    0 -0.35265998853E+00 -0.24460394271E+02 -0.38559353755E+03  0.40608596560E+03  0.12500000000E+03 0.  0.
</event>
<event>
 5    0  0.5713700E-005  0.2630847E+03  0.7546771E-02  0.1105304E+00
         21   -1    0    0  502  501  0.00000000000E+00  0.00000000000E+00  0.15697574981E+04  0.15697574981E+04  0.00000000000E+00 0.  1.
         21   -1    0    0  501  502 -0.00000000000E+00 -0.00000000000E+00 -0.44091896738E+02  0.44091896738E+02  0.00000000000E+00 0.  1.
         25    1    1    2    0    0 -0.28428776979E+02 -0.40249394510E+02  0.13261018024E+03  0.18878206754E+03  0.12500000000E+03 0.  0.
         25    1    1    2    0    0 -0.20517281845E+01 -0.53728272577E+02  0.51500787128E+03  0.53268099679E+03  0.12500000000E+03 0.  0.
         25    1    1    2    0    0  0.30480505164E+02  0.93977667087E+02  0.87804754988E+03  0.89238633055E+03  0.12500000000E+03 0.  0.
</event>
<event>
 5    0  0.5733972E-005  0.2568608E+03  0.7546771E-02  0.1109044E+00
         21   -1    0    0  502  501  0.00000000000E+00  0.00000000000E+00  0.37250353161E+03  0.37250353161E+03  0.00000000000E+00 0.  1.
         21   -1    0    0  501  502 -0.00000000000E+00 -0.00000000000E+00 -0.17711904318E+03  0.17711904318E+03  0.00000000000E+00 0.  1.
         25    1    1    2    0    0 -0.93567898248E+01  0.39439476294E+02 -0.55903570116E+01  0.13152670412E+03  0.12500000000E+03 0.  0.
         25    1    1    2    0    0  0.13672203251E+02  0.49631356639E+02  0.22518805121E+03  0.26264968896E+03  0.12500000000E+03 0.  0.
         25    1    1    2    0    0 -0.43154134264E+01 -0.89070832933E+02 -0.24213205767E+02  0.15544618170E+03  0.12500000000E+03 0.  0.
</event>
<event>
 5    0  0.5713700E-005  0.2350487E+03  0.7546771E-02  0.1123136E+00
         21   -1    0    0  502  501  0.00000000000E+00  0.00000000000E+00  0.21049716094E+03  0.21049716094E+03  0.00000000000E+00 0. -1.
         21   -1    0    0  501  502 -0.00000000000E+00 -0.00000000000E+00 -0.26246380768E+03  0.26246380768E+03  0.00000000000E+00 0. -1.
         25    1    1    2    0    0  0.10715530864E+03  0.70278079400E+02  0.30713334007E+01  0.17904106150E+03  0.12500000000E+03 0.  0.
         25    1    1    2    0    0 -0.43608647798E+02 -0.43323932750E+02 -0.58507060455E+02  0.15108525221E+03  0.12500000000E+03 0.  0.
         25    1    1    2    0    0 -0.63546660844E+02 -0.26954146650E+02  0.34690803122E+01  0.14283465491E+03  0.12500000000E+03 0.  0.
</event>
<event>
 5    0  0.5713700E-005  0.4089616E+03  0.7546771E-02  0.1040720E+00
         21   -1    0    0  502  501  0.00000000000E+00  0.00000000000E+00  0.35773148119E+03  0.35773148119E+03  0.00000000000E+00 0. -1.
         21   -1    0    0  501  502 -0.00000000000E+00 -0.00000000000E+00 -0.46752836614E+03  0.46752836614E+03  0.00000000000E+00 0. -1.
         25    1    1    2    0    0 -0.82363441774E+02  0.27522905024E+03  0.10472114321E+03  0.33034267734E+03  0.12500000000E+03 0.  0.
         25    1    1    2    0    0 -0.68030338753E+02 -0.17008707858E+03 -0.13178108649E+03  0.25797092093E+03  0.12500000000E+03 0.  0.
         25    1    1    2    0    0  0.15039378053E+03 -0.10514197166E+03 -0.82736941666E+02  0.23694624906E+03  0.12500000000E+03 0.  0.
</event>
<event>
 5    0  0.5713700E-005  0.3593539E+03  0.7546771E-02  0.1058840E+00
         21   -1    0    0  502  501  0.00000000000E+00  0.00000000000E+00  0.63661682598E+03  0.63661682598E+03  0.00000000000E+00 0. -1.
         21   -1    0    0  501  502 -0.00000000000E+00 -0.00000000000E+00 -0.20284608892E+03  0.20284608892E+03  0.00000000000E+00 0. -1.
         25    1    1    2    0    0  0.93861980201E+02 -0.18883555518E+02 -0.11363094437E+03  0.19417428129E+03  0.12500000000E+03 0.  0.
         25    1    1    2    0    0 -0.98359884081E+01  0.96217553338E+02  0.17266332047E+03  0.23407730876E+03  0.12500000000E+03 0.  0.
         25    1    1    2    0    0 -0.84025991793E+02 -0.77333997820E+02  0.37473836096E+03  0.41121132485E+03  0.12500000000E+03 0.  0.
</event>
<event>
 5    0  0.5713700E-005  0.3259041E+03  0.7546771E-02  0.1072964E+00
         21   -1    0    0  502  501  0.00000000000E+00  0.00000000000E+00  0.11904464761E+03  0.11904464761E+03  0.00000000000E+00 0.  1.
         21   -1    0    0  501  502 -0.00000000000E+00 -0.00000000000E+00 -0.89221572269E+03  0.89221572269E+03  0.00000000000E+00 0.  1.
         25    1    1    2    0    0 -0.78021394106E+02 -0.14523892030E+03 -0.23342779593E+03  0.31192181363E+03  0.12500000000E+03 0.  0.
         25    1    1    2    0    0  0.70210251275E+02 -0.48086977323E+02 -0.51951992340E+02  0.15989323400E+03  0.12500000000E+03 0.  0.
         25    1    1    2    0    0  0.78111428307E+01  0.19332589762E+03 -0.48779128682E+03  0.53944532266E+03  0.12500000000E+03 0.  0.
</event>
<event>
 5    0  0.5713700E-005  0.2865381E+03  0.7546771E-02  0.1092171E+00
         21   -1    0    0  502  501  0.00000000000E+00  0.00000000000E+00  0.56015279361E+02  0.56015279361E+02  0.00000000000E+00 0. -1.
         21   -1    0    0  501  502 -0.00000000000E+00 -0.00000000000E+00 -0.14657440266E+04  0.14657440266E+04  0.00000000000E+00 0. -1.
         25    1    1    2    0    0 -0.10631571092E+02 -0.86720775196E+02 -0.14378512091E+03  0.20960125035E+03  0.12500000000E+03 0.  0.
         25    1    1    2    0    0  0.87387230567E+02  0.14661751815E+02 -0.35475435341E+03  0.38642870791E+03  0.12500000000E+03 0.  0.
         25    1    1    2    0    0 -0.76755659475E+02  0.72059023381E+02 -0.91118927293E+03  0.92572934771E+03  0.12500000000E+03 0.  0.
</event>
<event>
 5    0  0.5713700E-005  0.3430394E+03  0.7546771E-02  0.1065509E+00
         21   -1    0    0  502  501  0.00000000000E+00  0.00000000000E+00  0.10046702463E+03  0.10046702463E+03  0.00000000000E+00 0.  1.
         21   -1    0    0  501  502 -0.00000000000E+00 -0.00000000000E+00 -0.11712902080E+04  0.11712902080E+04  0.00000000000E+00 0.  1.
         25    1    1    2    0    0  0.55709760643E+02  0.13054210796E+03 -0.60080885598E+03  0.62987387691E+03  0.12500000000E+03 0.  0.
         25    1    1    2    0    0  0.12306858661E+03 -0.49532374649E+02 -0.30952209167E+03  0.35920503668E+03  0.12500000000E+03 0.  0.
         25    1    1    2    0    0 -0.17877834725E+03 -0.81009733311E+02 -0.16049223576E+03  0.28267831908E+03  0.12500000000E+03 0.  0.
</event>
<event>
 5    0  0.5713700E-005  0.6659805E+03  0.7546771E-02  0.9777246E-01
         21   -1    0    0  502  501  0.00000000000E+00  0.00000000000E+00  0.26066609342E+03  0.26066609342E+03  0.00000000000E+00 0.  1.
         21   -1    0    0  501  502 -0.00000000000E+00 -0.00000000000E+00 -0.17015257882E+04  0.17015257882E+04  0.00000000000E+00 0.  1.
         25    1    1    2    0    0 -0.15890427301E+03  0.17528874481E+03  0.80711820685E+02  0.27949259388E+03  0.12500000000E+03 0.  0.
         25    1    1    2    0    0  0.19302750627E+03  0.48850834151E+02 -0.13282226045E+03  0.27002365646E+03  0.12500000000E+03 0.  0.
         25    1    1    2    0    0 -0.34123233264E+02 -0.22413957896E+03 -0.13887492550E+04  0.14126756313E+04  0.12500000000E+03 0.  0.
</event>
<event>
 5    0  0.5713700E-005  0.3359306E+03  0.7546771E-02  0.1068542E+00
         21   -1    0    0  502  501  0.00000000000E+00  0.00000000000E+00  0.12278878604E+03  0.12278878604E+03  0.00000000000E+00 0. -1.
         21   -1    0    0  501  502 -0.00000000000E+00 -0.00000000000E+00 -0.91905291166E+03  0.91905291166E+03  0.00000000000E+00 0. -1.
         25    1    1    2    0    0  0.15985762853E+03  0.15579075565E+02 -0.26272740782E+03  0.33233696727E+03  0.12500000000E+03 0.  0.
         25    1    1    2    0    0 -0.15321680065E+03 -0.15351857890E+03 -0.42685852916E+03  0.49485002373E+03  0.12500000000E+03 0.  0.
         25    1    1    2    0    0 -0.66408278754E+01  0.13793950334E+03 -0.10667818865E+03  0.21465470670E+03  0.12500000000E+03 0.  0.
</event>
<event>
 5    0  0.5713700E-005  0.3051901E+03  0.7546771E-02  0.1082675E+00
         21   -1    0    0  502  501  0.00000000000E+00  0.00000000000E+00  0.14324270689E+04  0.14324270689E+04  0.00000000000E+00 0.  1.
         21   -1    0    0  501  502 -0.00000000000E+00 -0.00000000000E+00 -0.65023184556E+02  0.65023184556E+02  0.00000000000E+00 0.  1.
         25    1    1    2    0    0  0.32113741762E+01  0.34637515339E+02  0.20284149165E+03  0.24078982771E+03  0.12500000000E+03 0.  0.
         25    1    1    2    0    0 -0.22234387960E+02  0.16908785882E+03  0.73385718059E+03  0.76371227141E+03  0.12500000000E+03 0.  0.
         25    1    1    2    0    0  0.19023013784E+02 -0.20372537416E+03  0.43070521213E+03  0.49294815436E+03  0.12500000000E+03 0.  0.
</event>
<event>
 5    0  0.5713700E-005  0.3102937E+03  0.7546771E-02  0.1080205E+00
         21   -1    0    0  502  501  0.00000000000E+00  0.00000000000E+00  0.79866269220E+02  0.79866269220E+02  0.00000000000E+00 0. -1.
         21   -1    0    0  501  502 -0.00000000000E+00 -0.00000000000E+00 -0.12055424286E+04  0.12055424286E+04  0.00000000000E+00 0. -1.
         25    1    1    2    0    0 -0.67743546682E+02 -0.58590219177E+02 -0.39277202066E+03  0.42180192284E+03  0.12500000000E+03 0.  0.
         25    1    1    2    0    0 -0.12404361336E+03 -0.52858387990E+02 -0.19235747485E+03  0.26609627079E+03  0.12500000000E+03 0.  0.
         25    1    1    2    0    0  0.19178716004E+03  0.11144860717E+03 -0.54054666385E+03  0.59751050417E+03  0.12500000000E+03 0.  0.
</event>
<event>
 5    0  0.5713700E-005  0.2334053E+03  0.7546771E-02  0.1124266E+00
         21   -1    0    0  502  501  0.00000000000E+00  0.00000000000E+00  0.74034218573E+02  0.74034218573E+02  0.00000000000E+00 0. -1.
         21   -1    0    0  501  502 -0.00000000000E+00 -0.00000000000E+00 -0.73584961757E+03  0.73584961757E+03  0.00000000000E+00 0. -1.
         25    1    1    2    0    0  0.30092196542E+02  0.27452954870E+02 -0.38685852312E+03  0.40858747158E+03  0.12500000000E+03 0.  0.
         25    1    1    2    0    0 -0.51638274749E+02  0.13974438005E+02 -0.60734473870E+02  0.14891431312E+03  0.12500000000E+03 0.  0.
         25    1    1    2    0    0  0.21546078207E+02 -0.41427392875E+02 -0.21422240201E+03  0.25238205144E+03  0.12500000000E+03 0.  0.
</event>
<event>
 5    0  0.5713700E-005  0.3595731E+03  0.7546771E-02  0.1058753E+00
         21   -1    0    0  502  501  0.00000000000E+00  0.00000000000E+00  0.22107377116E+03  0.22107377116E+03  0.00000000000E+00 0. -1.
         21   -1    0    0  501  502 -0.00000000000E+00 -0.00000000000E+00 -0.58484020654E+03  0.58484020654E+03  0.00000000000E+00 0. -1.
         25    1    1    2    0    0  0.77916884115E+02 -0.32391593147E+02  0.15406843300E+03  0.21559763028E+03  0.12500000000E+03 0.  0.
         25    1    1    2    0    0 -0.25157490585E+02 -0.29234853470E+02 -0.19585691767E+03  0.23552602444E+03  0.12500000000E+03 0.  0.
         25    1    1    2    0    0 -0.52759393530E+02  0.61626446617E+02 -0.32197795072E+03  0.35479032297E+03  0.12500000000E+03 0.  0.
</event>
<event>
 5    0  0.6163671E-005  0.3045183E+03  0.7546771E-02  0.1083004E+00
         21   -1    0    0  502  501  0.00000000000E+00  0.00000000000E+00  0.50213905301E+03  0.50213905301E+03  0.00000000000E+00 0.  1.
         21   -1    0    0  501  502 -0.00000000000E+00 -0.00000000000E+00 -0.18467277637E+03  0.18467277637E+03  0.00000000000E+00 0.  1.
         25    1    1    2    0    0 -0.58145215791E+02  0.10167240163E+03  0.61395525428E+02  0.18196855200E+03  0.12500000000E+03 0.  0.
         25    1    1    2    0    0  0.19257446956E+02 -0.19635777419E+03  0.25148459230E+03  0.34321527488E+03  0.12500000000E+03 0.  0.
         25    1    1    2    0    0  0.38887768835E+02  0.94685372552E+02  0.45861589021E+01  0.16162800250E+03  0.12500000000E+03 0.  0.
</event>
<event>
 5    0  0.5713700E-005  0.2466148E+03  0.7546771E-02  0.1115463E+00
         21   -1    0    0  502  501  0.00000000000E+00  0.00000000000E+00  0.88593358097E+02  0.88593358097E+02  0.00000000000E+00 0.  1.
         21   -1    0    0  501  502 -0.00000000000E+00 -0.00000000000E+00 -0.68649431654E+03  0.68649431654E+03  0.00000000000E+00 0.  1.
         25    1    1    2    0    0 -0.25488621082E+02 -0.67079239266E+02 -0.23442064639E+03  0.27518599819E+03  0.12500000000E+03 0.  0.
         25    1    1    2    0    0  0.50425969678E+02  0.10201943682E+03 -0.31798457610E+03  0.36012488743E+03  0.12500000000E+03 0.  0.
         25    1    1    2    0    0 -0.24937348597E+02 -0.34940197551E+02 -0.45495735954E+02  0.13977678902E+03  0.12500000000E+03 0.  0.
</event>
<event>
 5    0  0.5713700E-005  0.3143599E+03  0.7546771E-02  0.1078275E+00
         21   -1    0    0  502  501  0.00000000000E+00  0.00000000000E+00  0.17374132319E+04  0.17374132319E+04  0.00000000000E+00 0.  1.
         21   -1    0    0  501  502 -0.00000000000E+00 -0.00000000000E+00 -0.56878896873E+02  0.56878896873E+02  0.00000000000E+00 0.  1.
         25    1    1    2    0    0  0.16069821490E+03 -0.14810763179E+03  0.82616283843E+03  0.86367228882E+03  0.12500000000E+03 0.  0.
         25    1    1    2    0    0 -0.44068507278E+02  0.20215621244E+02  0.49284741895E+03  0.51075853693E+03  0.12500000000E+03 0.  0.
         25    1    1    2    0    0 -0.11662970762E+03  0.12789201055E+03  0.36152407761E+03  0.41986130300E+03  0.12500000000E+03 0.  0.
</event>
<event>
 5    0  0.5713700E-005  0.3093866E+03  0.7546771E-02  0.1080640E+00
         21   -1    0    0  502  501  0.00000000000E+00  0.00000000000E+00  0.14657904734E+04  0.14657904734E+04  0.00000000000E+00 0. -1.
         21   -1    0    0  501  502 -0.00000000000E+00 -0.00000000000E+00 -0.65302700020E+02  0.65302700020E+02  0.00000000000E+00 0. -1.
         25    1    1    2    0    0 -0.14079861606E+03 -0.10041784634E+03  0.67521888594E+03  0.70813384192E+03  0.12500000000E+03 0.  0.
         25    1    1    2    0    0  0.13753366924E+03 -0.50810951181E+02  0.36132870089E+03  0.40948833075E+03  0.12500000000E+03 0.  0.
         25    1    1    2    0    0  0.32649468165E+01  0.15122879752E+03  0.36394018659E+03  0.41347100079E+03  0.12500000000E+03 0.  0.
</event>
<event>
 5    0  0.5713700E-005  0.5515389E+03  0.7546771E-02  0.1001138E+00
         21   -1    0    0  502  501  0.00000000000E+00  0.00000000000E+00  0.26810827398E+03  0.26810827398E+03  0.00000000000E+00 0. -1.
         21   -1    0    0  501  502 -0.00000000000E+00 -0.00000000000E+00 -0.11345983636E+04  0.11345983636E+04  0.00000000000E+00 0. -1.
         25    1    1    2    0    0 -0.96239500632E+02 -0.37315898055E+02 -0.20592669069E+03  0.26207884247E+03  0.12500000000E+03 0.  0.
         25    1    1    2    0    0 -0.37340744861E+03 -0.29802829641E+02 -0.47106186199E+03  0.61469147477E+03  0.12500000000E+03 0.  0.
         25    1    1    2    0    0  0.46964694924E+03  0.67118727696E+02 -0.18950153694E+03  0.52593632033E+03  0.12500000000E+03 0.  0.
</event>
<event>
 5    0  0.5713700E-005  0.3578472E+03  0.7546771E-02  0.1059440E+00
         21   -1    0    0  502  501  0.00000000000E+00  0.00000000000E+00  0.38356971805E+03  0.38356971805E+03  0.00000000000E+00 0. -1.
         21   -1    0    0  501  502 -0.00000000000E+00 -0.00000000000E+00 -0.33384969981E+03  0.33384969981E+03  0.00000000000E+00 0. -1.
         25    1    1    2    0    0 -0.19110627762E+03 -0.36031914606E+02  0.86611453270E+02  0.24687335225E+03  0.12500000000E+03 0.  0.
         25    1    1    2    0    0  0.25458648475E+03  0.93126429743E+02 -0.87264252000E+02  0.31100942077E+03  0.12500000000E+03 0.  0.
         25    1    1    2    0    0 -0.63480207127E+02 -0.57094515136E+02  0.50372816969E+02  0.15953664483E+03  0.12500000000E+03 0.  0.
</event>
<event>
 5    0  0.5713700E-005  0.3379862E+03  0.7546771E-02  0.1067657E+00
         21   -1    0    0  502  501  0.00000000000E+00  0.00000000000E+00  0.62082992924E+03  0.62082992924E+03  0.00000000000E+00 0. -1.
         21   -1    0    0  501  502 -0.00000000000E+00 -0.00000000000E+00 -0.18400316082E+03  0.18400316082E+03  0.00000000000E+00 0. -1.
         25    1    1    2    0    0  0.68527731392E+02  0.56987183520E+02  0.20444873075E+03  0.25567141522E+03  0.12500000000E+03 0.  0.
         25    1    1    2    0    0 -0.62881683899E+02  0.16585288605E+03  0.21931446806E+02  0.21809923049E+03  0.12500000000E+03 0.  0.
         25    1    1    2    0    0 -0.56460474931E+01 -0.22284006957E+03  0.21044659086E+03  0.33106244436E+03  0.12500000000E+03 0.  0.
</event>
<event>
 5    0  0.5713700E-005  0.2656774E+03  0.7546771E-02  0.1103779E+00
         21   -1    0    0  502  501  0.00000000000E+00  0.00000000000E+00  0.27468951463E+03  0.27468951463E+03  0.00000000000E+00 0.  1.
         21   -1    0    0  501  502 -0.00000000000E+00 -0.00000000000E+00 -0.25696090816E+03  0.25696090816E+03  0.00000000000E+00 0.  1.
         25    1    1    2    0    0  0.10752651189E+03  0.77709954762E+02  0.20513893818E+02  0.18343011658E+03  0.12500000000E+03 0.  0.
         25    1    1    2    0    0 -0.13940053504E+03 -0.73960695631E+02 -0.55484167578E+02  0.20882094368E+03  0.12500000000E+03 0.  0.
         25    1    1    2    0    0  0.31874023156E+02 -0.37492591303E+01  0.52698880226E+02  0.13939936253E+03  0.12500000000E+03 0.  0.
</event>
<event>
 5    0  0.5713700E-005  0.3073045E+03  0.7546771E-02  0.1081645E+00
         21   -1    0    0  502  501  0.00000000000E+00  0.00000000000E+00  0.15200256093E+04  0.15200256093E+04  0.00000000000E+00 0. -1.
         21   -1    0    0  501  502 -0.00000000000E+00 -0.00000000000E+00 -0.62127932305E+02  0.62127932305E+02  0.00000000000E+00 0. -1.
         25    1    1    2    0    0 -0.81234971865E+02  0.62438284954E+02  0.24292330218E+03  0.29177798207E+03  0.12500000000E+03 0.  0.
         25    1    1    2    0    0 -0.10406130664E+03 -0.11625744496E+03  0.66148908424E+03  0.69104077855E+03  0.12500000000E+03 0.  0.
         25    1    1    2    0    0  0.18529627850E+03  0.53819160009E+02  0.55348529058E+03  0.59933478098E+03  0.12500000000E+03 0.  0.
</event>
<event>
 5    0  0.5713700E-005  0.2549395E+03  0.7546771E-02  0.1110222E+00
         21   -1    0    0  502  501  0.00000000000E+00  0.00000000000E+00  0.17144514568E+03  0.17144514568E+03  0.00000000000E+00 0.  1.
         21   -1    0    0  501  502 -0.00000000000E+00 -0.00000000000E+00 -0.37909594717E+03  0.37909594717E+03  0.00000000000E+00 0.  1.
         25    1    1    2    0    0  0.11234558906E+03 -0.54533559323E+02 -0.14646493583E+03  0.22950472305E+03  0.12500000000E+03 0.  0.
         25    1    1    2    0    0 -0.11813585018E+03  0.33381512338E+02 -0.80245838780E+02  0.19270391565E+03  0.12500000000E+03 0.  0.
         25    1    1    2    0    0  0.57902611230E+01  0.21152046986E+02  0.19059973122E+02  0.12833245416E+03  0.12500000000E+03 0.  0.
</event>
<event>
 5    0  0.5713700E-005  0.2401749E+03  0.7546771E-02  0.1119676E+00
         21   -1    0    0  502  501  0.00000000000E+00  0.00000000000E+00  0.13309239010E+03  0.13309239010E+03  0.00000000000E+00 0.  1.
         21   -1    0    0  501  502 -0.00000000000E+00 -0.00000000000E+00 -0.43341294201E+03  0.43341294201E+03  0.00000000000E+00 0.  1.
         25    1    1    2    0    0  0.58002823461E+01 -0.48754253413E+02 -0.12615536087E+03  0.18425741661E+03  0.12500000000E+03 0.  0.
         25    1    1    2    0    0  0.79967283026E+02 -0.20917165716E+02 -0.15284317214E+03  0.21405216525E+03  0.12500000000E+03 0.  0.
         25    1    1    2    0    0 -0.85767565372E+02  0.69671419129E+02 -0.21322018907E+02  0.16819575025E+03  0.12500000000E+03 0.  0.
</event>
<event>
 5    0  0.5713700E-005  0.2510922E+03  0.7546771E-02  0.1112617E+00
         21   -1    0    0  502  501  0.00000000000E+00  0.00000000000E+00  0.51035550543E+03  0.51035550543E+03  0.00000000000E+00 0. -1.
         21   -1    0    0  501  502 -0.00000000000E+00 -0.00000000000E+00 -0.12353605210E+03  0.12353605210E+03  0.00000000000E+00 0. -1.
         25    1    1    2    0    0 -0.90919113547E+02  0.74469785720E+02  0.18980122991E+03  0.25585453107E+03  0.12500000000E+03 0.  0.
         25    1    1    2    0    0  0.49515754486E+02 -0.94974690525E+02  0.17962140985E+03  0.24364082716E+03  0.12500000000E+03 0.  0.
         25    1    1    2    0    0  0.41403359061E+02  0.20504904805E+02  0.17396813574E+02  0.13439619930E+03  0.12500000000E+03 0.  0.
</event>
<event>
 5    0  0.7068424E-005  0.4109564E+03  0.7546771E-02  0.1040051E+00
         21   -1    0    0  502  501  0.00000000000E+00  0.00000000000E+00  0.21012394942E+03  0.21012394942E+03  0.00000000000E+00 0. -1.
         21   -1    0    0  501  502 -0.00000000000E+00 -0.00000000000E+00 -0.80374049042E+03  0.80374049042E+03  0.00000000000E+00 0. -1.
         25    1    1    2    0    0 -0.21495296682E+02  0.12974462677E+03 -0.34258773362E+03  0.38766876477E+03  0.12500000000E+03 0.  0.
         25    1    1    2    0    0  0.14819859874E+03  0.14600793021E+03 -0.76527942219E+02  0.25448510034E+03  0.12500000000E+03 0.  0.
         25    1    1    2    0    0 -0.12670330206E+03 -0.27575255697E+03 -0.17450086516E+03  0.37171057474E+03  0.12500000000E+03 0.  0.
</event>
<event>
 5    0  0.5713700E-005  0.2606216E+03  0.7546771E-02  0.1106770E+00
         21   -1    0    0  502  501  0.00000000000E+00  0.00000000000E+00  0.46327604158E+03  0.46327604158E+03  0.00000000000E+00 0. -1.
         21   -1    0    0  501  502 -0.00000000000E+00 -0.00000000000E+00 -0.14661585732E+03  0.14661585732E+03  0.00000000000E+00 0. -1.
         25    1    1    2    0    0 -0.63844548663E+02 -0.10659108718E+02  0.36763969015E+01  0.14081285057E+03  0.12500000000E+03 0.  0.
         25    1    1    2    0    0 -0.14846019266E+02 -0.75782524605E+02  0.24344784918E+03  0.28435057692E+03  0.12500000000E+03 0.  0.
         25    1    1    2    0    0  0.78690567929E+02  0.86441633323E+02  0.69535938175E+02  0.18472847141E+03  0.12500000000E+03 0.  0.
</event>
<event>
 5    0  0.5713700E-005  0.4104728E+03  0.7546771E-02  0.1040212E+00
         21   -1    0    0  502  501  0.00000000000E+00  0.00000000000E+00  0.74408036855E+02  0.74408036855E+02  0.00000000000E+00 0.  1.
         21   -1    0    0  501  502 -0.00000000000E+00 -0.00000000000E+00 -0.22643775506E+04  0.22643775506E+04  0.00000000000E+00 0.  1.
         25    1    1    2    0    0  0.96987661373E+02  0.11442405166E+03 -0.17328510373E+03  0.26105975797E+03  0.12500000000E+03 0.  0.
         25    1    1    2    0    0 -0.21504667215E+03 -0.42336412414E+02 -0.16185729390E+04  0.16381211195E+04  0.12500000000E+03 0.  0.
         25    1    1    2    0    0  0.11805901078E+03 -0.72087639242E+02 -0.39811147096E+03  0.43960471002E+03  0.12500000000E+03 0.  0.
</event>
<event>
 5    0  0.5931421E-005  0.6932457E+03  0.7546771E-02  0.9728853E-01
         21   -1    0    0  502  501  0.00000000000E+00  0.00000000000E+00  0.32214934758E+03  0.32214934758E+03  0.00000000000E+00 0. -1.
         21   -1    0    0  501  502 -0.00000000000E+00 -0.00000000000E+00 -0.14918224594E+04  0.14918224594E+04  0.00000000000E+00 0. -1.
         25    1    1    2    0    0 -0.16072498145E+03  0.32424680736E+03 -0.52356665507E+03  0.64862589684E+03  0.12500000000E+03 0.  0.
         25    1    1    2    0    0 -0.10039408645E+03 -0.12283219890E+03  0.17783283639E+03  0.26910265584E+03  0.12500000000E+03 0.  0.
         25    1    1    2    0    0  0.26111906790E+03 -0.20141460845E+03 -0.82393929317E+03  0.89624325434E+03  0.12500000000E+03 0.  0.
</event>
<event>
 5    0  0.5713700E-005  0.4282420E+03  0.7546771E-02  0.1034417E+00
         21   -1    0    0  502  501  0.00000000000E+00  0.00000000000E+00  0.22585262052E+03  0.22585262052E+03  0.00000000000E+00 0.  1.
         21   -1    0    0  501  502 -0.00000000000E+00 -0.00000000000E+00 -0.81199506852E+03  0.81199506852E+03  0.00000000000E+00 0.  1.
         25    1    1    2    0    0 -0.63411218085E+02 -0.58307241772E+01 -0.25122832409E+03  0.28774233396E+03  0.12500000000E+03 0.  0.
         25    1    1    2    0    0 -0.51068551120E+02 -0.22176002481E+03 -0.38257377974E+03  0.46235614245E+03  0.12500000000E+03 0.  0.
         25    1    1    2    0    0  0.11447976920E+03  0.22759074899E+03  0.47659655830E+02  0.28774921264E+03  0.12500000000E+03 0.  0.
</event>
<event>
 5    0  0.5713700E-005  0.3394923E+03  0.7546771E-02  0.1067012E+00
         21   -1    0    0  502  501  0.00000000000E+00  0.00000000000E+00  0.22649505175E+03  0.22649505175E+03  0.00000000000E+00 0.  1.
         21   -1    0    0  501  502 -0.00000000000E+00 -0.00000000000E+00 -0.50886343990E+03  0.50886343990E+03  0.00000000000E+00 0.  1.
         25    1    1    2    0    0 -0.98424276905E+02 -0.11646549169E+03  0.10480378385E+02  0.19744970846E+03  0.12500000000E+03 0.  0.
         25    1    1    2    0    0 -0.83832951646E+02  0.11079562165E+03 -0.21837937688E+02  0.18816357002E+03  0.12500000000E+03 0.  0.
         25    1    1    2    0    0  0.18225722855E+03  0.56698700370E+01 -0.27101082885E+03  0.34974521318E+03  0.12500000000E+03 0.  0.
</event>
<event>
 5    0  0.5713700E-005  0.3246894E+03  0.7546771E-02  0.1073511E+00
         21   -1    0    0  502  501  0.00000000000E+00  0.00000000000E+00  0.90139267548E+03  0.90139267548E+03  0.00000000000E+00 0.  1.
         21   -1    0    0  501  502 -0.00000000000E+00 -0.00000000000E+00 -0.11695592120E+03  0.11695592120E+03  0.00000000000E+00 0.  1.
         25    1    1    2    0    0  0.34161711126E+02  0.11640807066E+03  0.23268363715E+03  0.29066223769E+03  0.12500000000E+03 0.  0.
         25    1    1    2    0    0  0.14037278616E+03 -0.97266320719E+02  0.43215894119E+03  0.48119809506E+03  0.12500000000E+03 0.  0.
         25    1    1    2    0    0 -0.17453449729E+03 -0.19141749940E+02  0.11959417594E+03  0.24648826393E+03  0.12500000000E+03 0.  0.
</event>
<event>
 5    0  0.5713700E-005  0.2596863E+03  0.7546771E-02  0.1107332E+00
         21   -1    0    0  502  501  0.00000000000E+00  0.00000000000E+00  0.64521190820E+03  0.64521190820E+03  0.00000000000E+00 0. -1.
         21   -1    0    0  501  502 -0.00000000000E+00 -0.00000000000E+00 -0.10451913308E+03  0.10451913308E+03  0.00000000000E+00 0. -1.
         25    1    1    2    0    0  0.14345447981E+03 -0.53000843128E+02  0.30250814074E+03  0.36128168009E+03  0.12500000000E+03 0.  0.
         25    1    1    2    0    0 -0.11205028135E+03  0.28980672680E+02  0.98078607531E+02  0.19656947422E+03  0.12500000000E+03 0.  0.
         25    1    1    2    0    0 -0.31404198457E+02  0.24020170448E+02  0.14010602684E+03  0.19187988698E+03  0.12500000000E+03 0.  0.
</event>
<event>
 5    0  0.5713700E-005  0.3923730E+03  0.7546771E-02  0.1046453E+00
         21   -1    0    0  502  501  0.00000000000E+00  0.00000000000E+00  0.80504966343E+02  0.80504966343E+02  0.00000000000E+00 0.  1.
         21   -1    0    0  501  502 -0.00000000000E+00 -0.00000000000E+00 -0.19123864445E+04  0.19123864445E+04  0.00000000000E+00 0.  1.
         25    1    1    2    0    0  0.91567187269E+02  0.12213103913E+03 -0.28984216090E+03  0.35061947855E+03  0.12500000000E+03 0.  0.
         25    1    1    2    0    0  0.15039776797E+03  0.90470924327E+02 -0.68945104719E+03  0.72233802560E+03  0.12500000000E+03 0.  0.
         25    1    1    2    0    0 -0.24196495524E+03 -0.21260196345E+03 -0.85258827009E+03  0.91993390671E+03  0.12500000000E+03 0.  0.
</event>
<event>
 5    0  0.5713700E-005  0.3874731E+03  0.7546771E-02  0.1048206E+00
         21   -1    0    0  502  501  0.00000000000E+00  0.00000000000E+00  0.79782544296E+03  0.79782544296E+03  0.00000000000E+00 0.  1.
         21   -1    0    0  501  502 -0.00000000000E+00 -0.00000000000E+00 -0.18818075215E+03  0.18818075215E+03  0.00000000000E+00 0.  1.
         25    1    1    2    0    0 -0.85319604951E+02  0.13026952676E+03  0.24081503593E+03  0.31283616498E+03  0.12500000000E+03 0.  0.
         25    1    1    2    0    0 -0.12607454691E+03 -0.20117687275E+03  0.64923119171E+02  0.27605603944E+03  0.12500000000E+03 0.  0.
         25    1    1    2    0    0  0.21139415186E+03  0.70907345987E+02  0.30390653571E+03  0.39711399069E+03  0.12500000000E+03 0.  0.
</event>
<event>
 5    0  0.5713700E-005  0.2374889E+03  0.7546771E-02  0.1121477E+00
         21   -1    0    0  502  501  0.00000000000E+00  0.00000000000E+00  0.44900217448E+03  0.44900217448E+03  0.00000000000E+00 0.  1.
         21   -1    0    0  501  502 -0.00000000000E+00 -0.00000000000E+00 -0.12561408385E+03  0.12561408385E+03  0.00000000000E+00 0.  1.
         25    1    1    2    0    0  0.39386845932E+02  0.10343850911E+03  0.21778680870E+03  0.27442110495E+03  0.12500000000E+03 0.  0.
         25    1    1    2    0    0 -0.76457505458E+01 -0.56164211833E+02  0.84628591287E+02  0.16124476629E+03  0.12500000000E+03 0.  0.
         25    1    1    2    0    0 -0.31741095386E+02 -0.47274297278E+02  0.20972690645E+02  0.13895038709E+03  0.12500000000E+03 0.  0.
</event>
<event>
 5    0  0.5971514E-005  0.3560842E+03  0.7546771E-02  0.1060145E+00
         21   -1    0    0  502  501  0.00000000000E+00  0.00000000000E+00  0.85157395897E+03  0.85157395897E+03  0.00000000000E+00 0.  1.
         21   -1    0    0  501  502 -0.00000000000E+00 -0.00000000000E+00 -0.14889599914E+03  0.14889599914E+03  0.00000000000E+00 0.  1.
         25    1    1    2    0    0  0.19917613203E+03  0.57592806511E+02  0.85636640469E+02  0.25680089004E+03  0.12500000000E+03 0.  0.
         25    1    1    2    0    0 -0.15201705822E+02 -0.85617787642E+02  0.41434688519E+03  0.44144064005E+03  0.12500000000E+03 0.  0.
         25    1    1    2    0    0 -0.18397442621E+03  0.28024981131E+02  0.20269443416E+03  0.30222842802E+03  0.12500000000E+03 0.  0.
</event>
<event>
 5    0  0.5713700E-005  0.4338035E+03  0.7546771E-02  0.1032665E+00
         21   -1    0    0  502  501  0.00000000000E+00  0.00000000000E+00  0.76259319112E+03  0.76259319112E+03  0.00000000000E+00 0.  1.
         21   -1    0    0  501  502 -0.00000000000E+00 -0.00000000000E+00 -0.24677047844E+03  0.24677047844E+03  0.00000000000E+00 0.  1.
         25    1    1    2    0    0 -0.26232939440E+01 -0.30185207289E+02 -0.40471971016E+02  0.13483697137E+03  0.12500000000E+03 0.  0.
         25    1    1    2    0    0  0.12359742910E+03 -0.14730664307E+03 -0.36045933863E+02  0.23216347887E+03  0.12500000000E+03 0.  0.
         25    1    1    2    0    0 -0.12097413516E+03  0.17749185036E+03  0.59234061756E+03  0.64236321932E+03  0.12500000000E+03 0.  0.
</event>
<event>
 5    0  0.5713700E-005  0.3782200E+03  0.7546771E-02  0.1051594E+00
         21   -1    0    0  502  501  0.00000000000E+00  0.00000000000E+00  0.16840606562E+03  0.16840606562E+03  0.00000000000E+00 0.  1.
         21   -1    0    0  501  502 -0.00000000000E+00 -0.00000000000E+00 -0.84943724956E+03  0.84943724956E+03  0.00000000000E+00 0.  1.
         25    1    1    2    0    0  0.78358612716E+02 -0.27739890372E+02 -0.61987436177E+03  0.63779212764E+03  0.12500000000E+03 0.  0.
         25    1    1    2    0    0 -0.67683985836E+02 -0.10339958004E+03  0.27759574226E+02  0.17795558168E+03  0.12500000000E+03 0.  0.
         25    1    1    2    0    0 -0.10674626880E+02  0.13113947041E+03 -0.88916396393E+02  0.20209560586E+03  0.12500000000E+03 0.  0.
</event>
<event>
 5    0  0.5713700E-005  0.3266055E+03  0.7546771E-02  0.1072649E+00
         21   -1    0    0  502  501  0.00000000000E+00  0.00000000000E+00  0.20672953791E+03  0.20672953791E+03  0.00000000000E+00 0. -1.
         21   -1    0    0  501  502 -0.00000000000E+00 -0.00000000000E+00 -0.51599372555E+03  0.51599372555E+03  0.00000000000E+00 0. -1.
         25    1    1    2    0    0 -0.29581781862E+02  0.19273295764E+03  0.36425717894E+01  0.23164486419E+03  0.12500000000E+03 0.  0.
         25    1    1    2    0    0  0.98574530666E+02 -0.13482688565E+03 -0.24751651624E+03  0.32370457674E+03  0.12500000000E+03 0.  0.
         25    1    1    2    0    0 -0.68992748804E+02 -0.57906071986E+02 -0.65390243193E+02  0.16737382252E+03  0.12500000000E+03 0.  0.
</event>
<event>
 5    0  0.5713700E-005  0.6990294E+03  0.7546771E-02  0.9718893E-01
         21   -1    0    0  502  501  0.00000000000E+00  0.00000000000E+00  0.18941389035E+03  0.18941389035E+03  0.00000000000E+00 0. -1.
         21   -1    0    0  501  502 -0.00000000000E+00 -0.00000000000E+00 -0.25797586041E+04  0.25797586041E+04  0.00000000000E+00 0. -1.
         25    1    1    2    0    0 -0.26161990824E+03 -0.23517029319E+03 -0.61311772205E+03  0.71783590345E+03  0.12500000000E+03 0.  0.
         25    1    1    2    0    0  0.49510784086E+03  0.43518721359E+03 -0.13742551778E+04  0.15292880627E+04  0.12500000000E+03 0.  0.
         25    1    1    2    0    0 -0.23348793262E+03 -0.20001692040E+03 -0.40297181391E+03  0.52204852832E+03  0.12500000000E+03 0.  0.
</event>
<event>
 5    0  0.5713700E-005  0.3188544E+03  0.7546771E-02  0.1076178E+00
         21   -1    0    0  502  501  0.00000000000E+00  0.00000000000E+00  0.54676831221E+03  0.54676831221E+03  0.00000000000E+00 0. -1.
         21   -1    0    0  501  502 -0.00000000000E+00 -0.00000000000E+00 -0.18594373508E+03  0.18594373508E+03  0.00000000000E+00 0. -1.
         25    1    1    2    0    0  0.65255416075E+01 -0.40015755484E+02 -0.10657843944E+03  0.16919753879E+03  0.12500000000E+03 0.  0.
         25    1    1    2    0    0 -0.12765593272E+02 -0.17424719495E+02  0.74348468566E+02  0.14703494822E+03  0.12500000000E+03 0.  0.
         25    1    1    2    0    0  0.62400516644E+01  0.57440474980E+02  0.39305454801E+03  0.41647956027E+03  0.12500000000E+03 0.  0.
</event>
<event>
 5    0  0.5713700E-005  0.2598377E+03  0.7546771E-02  0.1107241E+00
         21   -1    0    0  502  501  0.00000000000E+00  0.00000000000E+00  0.20154309693E+03  0.20154309693E+03  0.00000000000E+00 0. -1.
         21   -1    0    0  501  502 -0.00000000000E+00 -0.00000000000E+00 -0.33499358783E+03  0.33499358783E+03  0.00000000000E+00 0. -1.
         25    1    1    2    0    0  0.64987505374E+02  0.61583395068E+01 -0.25910784880E+02  0.14337946078E+03  0.12500000000E+03 0.  0.
         25    1    1    2    0    0 -0.57115852641E+02  0.12496736842E+03 -0.10161348096E+03  0.21172945781E+03  0.12500000000E+03 0.  0.
         25    1    1    2    0    0 -0.78716527334E+01 -0.13112570792E+03 -0.59262250616E+01  0.18142776617E+03  0.12500000000E+03 0.  0.
</event>
<event>
 5    0  0.5713700E-005  0.3713345E+03  0.7546771E-02  0.1054184E+00
         21   -1    0    0  502  501  0.00000000000E+00  0.00000000000E+00  0.14575299685E+04  0.14575299685E+04  0.00000000000E+00 0. -1.
         21   -1    0    0  501  502 -0.00000000000E+00 -0.00000000000E+00 -0.94604796010E+02  0.94604796010E+02  0.00000000000E+00 0. -1.
         25    1    1    2    0    0  0.15575710089E+03 -0.36283279740E+02  0.16110630969E+03  0.25914666482E+03  0.12500000000E+03 0.  0.
         25    1    1    2    0    0 -0.13678236189E+03 -0.14239204022E+03  0.41479038544E+03  0.47608924741E+03  0.12500000000E+03 0.  0.
         25    1    1    2    0    0 -0.18974738999E+02  0.17867531996E+03  0.78702847738E+03  0.81689885230E+03  0.12500000000E+03 0.  0.
</event>
<event>
 5    0  0.5713700E-005  0.3026831E+03  0.7546771E-02  0.1083907E+00
         21   -1    0    0  502  501  0.00000000000E+00  0.00000000000E+00  0.77806452684E+02  0.77806452684E+02  0.00000000000E+00 0. -1.
         21   -1    0    0  501  502 -0.00000000000E+00 -0.00000000000E+00 -0.11774991457E+04  0.11774991457E+04  0.00000000000E+00 0. -1.
         25    1    1    2    0    0  0.31267660506E+02 -0.11854285351E+03 -0.11560866134E+03  0.20981047945E+03  0.12500000000E+03 0.  0.
         25    1    1    2    0    0  0.71056177609E+02  0.83524703503E+02 -0.31384055958E+03  0.35517073825E+03  0.12500000000E+03 0.  0.
         25    1    1    2    0    0 -0.10232383811E+03  0.35018150003E+02 -0.67024347210E+03  0.69032438068E+03  0.12500000000E+03 0.  0.
</event>
<event>
 5    0  0.5713700E-005  0.4056305E+03  0.7546771E-02  0.1041847E+00
         21   -1    0    0  502  501  0.00000000000E+00  0.00000000000E+00  0.16522950767E+03  0.16522950767E+03  0.00000000000E+00 0.  1.
         21   -1    0    0  501  502 -0.00000000000E+00 -0.00000000000E+00 -0.99580346019E+03  0.99580346019E+03  0.00000000000E+00 0.  1.
         25    1    1    2    0    0 -0.24274998602E+03 -0.20404376479E+03 -0.25856000733E+03  0.42783138156E+03  0.12500000000E+03 0.  0.
         25    1    1    2    0    0  0.15642509478E+03 -0.42858050719E+01 -0.26818037387E+03  0.33471314783E+03  0.12500000000E+03 0.  0.
         25    1    1    2    0    0  0.86324891232E+02  0.20832956986E+03 -0.30383357131E+03  0.39848843845E+03  0.12500000000E+03 0.  0.
</event>
<event>
 5    0  0.5713700E-005  0.3068312E+03  0.7546771E-02  0.1081875E+00
         21   -1    0    0  502  501  0.00000000000E+00  0.00000000000E+00  0.10121952825E+04  0.10121952825E+04  0.00000000000E+00 0. -1.
         21   -1    0    0  501  502 -0.00000000000E+00 -0.00000000000E+00 -0.93011072880E+02  0.93011072880E+02  0.00000000000E+00 0. -1.
         25    1    1    2    0    0  0.12992381083E+03  0.84133156169E+02  0.33461815515E+03  0.38929795060E+03  0.12500000000E+03 0.  0.
         25    1    1    2    0    0 -0.14208146205E+03  0.38875632488E+02  0.14217624888E+03  0.23986984472E+03  0.12500000000E+03 0.  0.
         25    1    1    2    0    0  0.12157651226E+02 -0.12300878866E+03  0.44238980554E+03  0.47603856001E+03  0.12500000000E+03 0.  0.
</event>
<event>
 5    0  0.5713700E-005  0.2213949E+03  0.7546771E-02  0.1132847E+00
         21   -1    0    0  502  501  0.00000000000E+00  0.00000000000E+00  0.22702929454E+03  0.22702929454E+03  0.00000000000E+00 0.  1.
         21   -1    0    0  501  502 -0.00000000000E+00 -0.00000000000E+00 -0.21590032012E+03  0.21590032012E+03  0.00000000000E+00 0.  1.
         25    1    1    2    0    0 -0.56950681906E+01 -0.43751653205E+02 -0.17822485582E+02  0.13375082038E+03  0.12500000000E+03 0.  0.
         25    1    1    2    0    0 -0.73785571172E+02  0.49625644170E+02  0.45514165006E+02  0.16001110677E+03  0.12500000000E+03 0.  0.
         25    1    1    2    0    0  0.79480639362E+02 -0.58739909643E+01 -0.16562705002E+02  0.14916768752E+03  0.12500000000E+03 0.  0.
</event>
<event>
 5    0  0.5713700E-005  0.3057352E+03  0.7546771E-02  0.1082408E+00
         21   -1    0    0  502  501  0.00000000000E+00  0.00000000000E+00  0.39377018467E+03  0.39377018467E+03  0.00000000000E+00 0.  1.
         21   -1    0    0  501  502 -0.00000000000E+00 -0.00000000000E+00 -0.23738215426E+03  0.23738215426E+03  0.00000000000E+00 0.  1.
         25    1    1    2    0    0 -0.74968160441E+01 -0.14084465476E+03  0.22133269231E+03  0.29070015430E+03  0.12500000000E+03 0.  0.
         25    1    1    2    0    0  0.26944232462E+02  0.16152428953E+03 -0.39116548483E+02  0.20969309034E+03  0.12500000000E+03 0.  0.
         25    1    1    2    0    0 -0.19447416418E+02 -0.20679634766E+02 -0.25828113417E+02  0.13075909430E+03  0.12500000000E+03 0.  0.
</event>
<event>
 5    0  0.5713700E-005  0.2683978E+03  0.7546771E-02  0.1102200E+00
         21   -1    0    0  502  501  0.00000000000E+00  0.00000000000E+00  0.18228942663E+03  0.18228942663E+03  0.00000000000E+00 0.  1.
         21   -1    0    0  501  502 -0.00000000000E+00 -0.00000000000E+00 -0.39518134010E+03  0.39518134010E+03  0.00000000000E+00 0.  1.
         25    1    1    2    0    0 -0.51846536818E+02  0.10930849854E+03 -0.16698665596E+03  0.24113472272E+03  0.12500000000E+03 0.  0.
         25    1    1    2    0    0  0.22105954533E+02 -0.11788706541E+03 -0.96120296864E+02  0.19811649322E+03  0.12500000000E+03 0.  0.
         25    1    1    2    0    0  0.29740582285E+02  0.85785668724E+01  0.50215039345E+02  0.13821955079E+03  0.12500000000E+03 0.  0.
</event>
<event>
 5    0  0.5713700E-005  0.2967001E+03  0.7546771E-02  0.1086902E+00
         21   -1    0    0  502  501  0.00000000000E+00  0.00000000000E+00  0.13340089553E+04  0.13340089553E+04  0.00000000000E+00 0. -1.
         21   -1    0    0  501  502 -0.00000000000E+00 -0.00000000000E+00 -0.65989771328E+02  0.65989771328E+02  0.00000000000E+00 0. -1.
         25    1    1    2    0    0 -0.44108096296E+02 -0.68268535220E+02  0.26835781846E+03  0.30699680094E+03  0.12500000000E+03 0.  0.
         25    1    1    2    0    0  0.12538575784E+03  0.15907776293E+03  0.37295171332E+03  0.44243112842E+03  0.12500000000E+03 0.  0.
         25    1    1    2    0    0 -0.81277661541E+02 -0.90809227707E+02  0.62670965216E+03  0.65057079723E+03  0.12500000000E+03 0.  0.
</event>
<event>
 5    0  0.5713700E-005  0.4038953E+03  0.7546771E-02  0.1042439E+00
         21   -1    0    0  502  501  0.00000000000E+00  0.00000000000E+00  0.17264993801E+04  0.17264993801E+04  0.00000000000E+00 0. -1.
         21   -1    0    0  501  502 -0.00000000000E+00 -0.00000000000E+00 -0.94486829490E+02  0.94486829490E+02  0.00000000000E+00 0. -1.
         25    1    1    2    0    0  0.23088637979E+02 -0.62262015967E+02  0.51519894996E+02  0.15062849470E+03  0.12500000000E+03 0.  0.
         25    1    1    2    0    0 -0.17821202317E+03  0.19710184979E+03  0.74063954115E+03  0.79673119326E+03  0.12500000000E+03 0.  0.
         25    1    1    2    0    0  0.15512338519E+03 -0.13483983382E+03  0.83985311445E+03  0.87362652162E+03  0.12500000000E+03 0.  0.
</event>
<event>
 5    0  0.5713700E-005  0.3257987E+03  0.7546771E-02  0.1073011E+00
         21   -1    0    0  502  501  0.00000000000E+00  0.00000000000E+00  0.11191520385E+03  0.11191520385E+03  0.00000000000E+00 0.  1.
         21   -1    0    0  501  502 -0.00000000000E+00 -0.00000000000E+00 -0.94843927959E+03  0.94843927959E+03  0.00000000000E+00 0.  1.
         25    1    1    2    0    0 -0.97666809226E+02  0.16323308077E+03 -0.44215748166E+03  0.49730481886E+03  0.12500000000E+03 0.  0.
         25    1    1    2    0    0  0.32649468369E+01  0.42114143825E+01 -0.23914186280E+02  0.12737850758E+03  0.12500000000E+03 0.  0.
         25    1    1    2    0    0  0.94401862389E+02 -0.16744449515E+03 -0.37045240780E+03  0.43567115698E+03  0.12500000000E+03 0.  0.
</event>
<event>
 5    0  0.5713700E-005  0.2415231E+03  0.7546771E-02  0.1118782E+00
         21   -1    0    0  502  501  0.00000000000E+00  0.00000000000E+00  0.26486941478E+02  0.26486941478E+02  0.00000000000E+00 0.  1.
         21   -1    0    0  501  502 -0.00000000000E+00 -0.00000000000E+00 -0.22023466267E+04  0.22023466267E+04  0.00000000000E+00 0.  1.
         25    1    1    2    0    0  0.94340467032E+02  0.84119580108E+02 -0.93896460030E+03  0.95564415349E+03  0.12500000000E+03 0.  0.
         25    1    1    2    0    0  0.28239784240E+01 -0.83178092472E+01 -0.46508750532E+03  0.48167265691E+03  0.12500000000E+03 0.  0.
         25    1    1    2    0    0 -0.97164445456E+02 -0.75801770861E+02 -0.77180757958E+03  0.79151675776E+03  0.12500000000E+03 0.  0.
</event>
<event>
 5    0  0.5713700E-005  0.3367463E+03  0.7546771E-02  0.1068190E+00
         21   -1    0    0  502  501  0.00000000000E+00  0.00000000000E+00  0.18935968172E+03  0.18935968172E+03  0.00000000000E+00 0.  1.
         21   -1    0    0  501  502 -0.00000000000E+00 -0.00000000000E+00 -0.59885017922E+03  0.59885017922E+03  0.00000000000E+00 0.  1.
         25    1    1    2    0    0 -0.76599768766E+01  0.33949377125E+02  0.85022129293E+02  0.15512897190E+03  0.12500000000E+03 0.  0.
         25    1    1    2    0    0  0.84535163973E+02  0.94946351800E+02 -0.13389422560E+03  0.22296561914E+03  0.12500000000E+03 0.  0.
         25    1    1    2    0    0 -0.76875187096E+02 -0.12889572893E+03 -0.36061840119E+03  0.41011526990E+03  0.12500000000E+03 0.  0.
</event>
<event>
 5    0  0.5713700E-005  0.3916719E+03  0.7546771E-02  0.1046702E+00
         21   -1    0    0  502  501  0.00000000000E+00  0.00000000000E+00  0.17696153384E+04  0.17696153384E+04  0.00000000000E+00 0.  1.
         21   -1    0    0  501  502 -0.00000000000E+00 -0.00000000000E+00 -0.86689395649E+02  0.86689395649E+02  0.00000000000E+00 0.  1.
         25    1    1    2    0    0 -0.70208118485E+02  0.53497243772E+02  0.55993975400E+03  0.58047279273E+03  0.12500000000E+03 0.  0.
         25    1    1    2    0    0 -0.71030320303E+02  0.12294531023E+03  0.94113773760E+03  0.95996150800E+03  0.12500000000E+03 0.  0.
         25    1    1    2    0    0  0.14123843879E+03 -0.17644255400E+03  0.18184845114E+03  0.31587043331E+03  0.12500000000E+03 0.  0.
</event>
<event>
 5    0  0.5713700E-005  0.2638033E+03  0.7546771E-02  0.1104879E+00
         21   -1    0    0  502  501  0.00000000000E+00  0.00000000000E+00  0.36313733859E+02  0.36313733859E+02  0.00000000000E+00 0. -1.
         21   -1    0    0  501  502 -0.00000000000E+00 -0.00000000000E+00 -0.19164146342E+04  0.19164146342E+04  0.00000000000E+00 0. -1.
         25    1    1    2    0    0  0.25209237914E+02 -0.62549308468E+02 -0.64777382764E+03  0.66316201146E+03  0.12500000000E+03 0.  0.
         25    1    1    2    0    0 -0.74078270755E+02  0.84657884584E+02 -0.27295423959E+03  0.32059875940E+03  0.12500000000E+03 0.  0.
         25    1    1    2    0    0  0.48869032841E+02 -0.22108576116E+02 -0.95937283310E+03  0.96896759719E+03  0.12500000000E+03 0.  0.
</event>
<event>
 5    0  0.5713700E-005  0.5987735E+03  0.7546771E-02  0.9907954E-01
         21   -1    0    0  502  501  0.00000000000E+00  0.00000000000E+00  0.46238060974E+03  0.46238060974E+03  0.00000000000E+00 0.  1.
         21   -1    0    0  501  502 -0.00000000000E+00 -0.00000000000E+00 -0.77539964558E+03  0.77539964558E+03  0.00000000000E+00 0.  1.
         25    1    1    2    0    0 -0.52555692707E+03 -0.99864102874E+02 -0.88392103544E+02  0.55643605796E+03  0.12500000000E+03 0.  0.
         25    1    1    2    0    0  0.22286730857E+03 -0.72734787741E+02 -0.14507851669E+03  0.30270936983E+03  0.12500000000E+03 0.  0.
         25    1    1    2    0    0  0.30268961850E+03  0.17259889062E+03 -0.79548415608E+02  0.37863482753E+03  0.12500000000E+03 0.  0.
</event>
<event>
 5    0  0.5713700E-005  0.3114027E+03  0.7546771E-02  0.1079675E+00
         21   -1    0    0  502  501  0.00000000000E+00  0.00000000000E+00  0.15618637729E+03  0.15618637729E+03  0.00000000000E+00 0.  1.
         21   -1    0    0  501  502 -0.00000000000E+00 -0.00000000000E+00 -0.62087120072E+03  0.62087120072E+03  0.00000000000E+00 0.  1.
         25    1    1    2    0    0  0.65395381556E+02 -0.11025525948E+03 -0.33650034658E+03  0.38116959666E+03  0.12500000000E+03 0.  0.
         25    1    1    2    0    0 -0.67240325900E+02  0.47788560361E+02 -0.19096019484E+03  0.24268457706E+03  0.12500000000E+03 0.  0.
         25    1    1    2    0    0  0.18449443439E+01  0.62466699123E+02  0.62775717990E+02  0.15320340430E+03  0.12500000000E+03 0.  0.
</event>
<event>
 5    0  0.6262530E-005  0.2873786E+03  0.7546771E-02  0.1091726E+00
         21   -1    0    0  502  501  0.00000000000E+00  0.00000000000E+00  0.19032474316E+03  0.19032474316E+03  0.00000000000E+00 0.  1.
         21   -1    0    0  501  502 -0.00000000000E+00 -0.00000000000E+00 -0.43392406411E+03  0.43392406411E+03  0.00000000000E+00 0.  1.
         25    1    1    2    0    0 -0.13161310720E+03 -0.39991029885E+02 -0.72569755260E+01  0.18600794647E+03  0.12500000000E+03 0.  0.
         25    1    1    2    0    0  0.19032988906E+03  0.11369513372E+02 -0.14378785994E+03  0.26954532303E+03  0.12500000000E+03 0.  0.
         25    1    1    2    0    0 -0.58716781857E+02  0.28621516513E+02 -0.92554485487E+02  0.16869553777E+03  0.12500000000E+03 0.  0.
</event>
<event>
 5    0  0.5713700E-005  0.2930430E+03  0.7546771E-02  0.1088771E+00
         21   -1    0    0  502  501  0.00000000000E+00  0.00000000000E+00  0.23112134798E+03  0.23112134798E+03  0.00000000000E+00 0.  1.
         21   -1    0    0  501  502 -0.00000000000E+00 -0.00000000000E+00 -0.37155463488E+03  0.37155463488E+03  0.00000000000E+00 0.  1.
         25    1    1    2    0    0  0.68088932049E+02  0.85069072823E+02  0.12856902118E+03  0.20982812735E+03  0.12500000000E+03 0.  0.
         25    1    1    2    0    0 -0.66751798682E+02 -0.71630257991E+02 -0.17171520186E+03  0.23387562301E+03  0.12500000000E+03 0.  0.
         25    1    1    2    0    0 -0.13371333677E+01 -0.13438814832E+02 -0.97287106225E+02  0.15897223250E+03  0.12500000000E+03 0.  0.
</event>
<event>
 5    0  0.5713700E-005  0.2216025E+03  0.7546771E-02  0.1132694E+00
         21   -1    0    0  502  501  0.00000000000E+00  0.00000000000E+00  0.15853659747E+03  0.15853659747E+03  0.00000000000E+00 0. -1.
         21   -1    0    0  501  502 -0.00000000000E+00 -0.00000000000E+00 -0.30975591496E+03  0.30975591496E+03  0.00000000000E+00 0. -1.
         25    1    1    2    0    0 -0.78526928375E+01  0.10126094719E+01 -0.10652347580E+03  0.16442305513E+03  0.12500000000E+03 0.  0.
         25    1    1    2    0    0 -0.22640083787E+02 -0.79461595011E+02 -0.20132515345E+02  0.15118543796E+03  0.12500000000E+03 0.  0.
         25    1    1    2    0    0  0.30492776625E+02  0.78448985539E+02 -0.24563326344E+02  0.15268401933E+03  0.12500000000E+03 0.  0.
</event>
<event>
 5    0  0.5713700E-005  0.2840180E+03  0.7546771E-02  0.1093514E+00
         21   -1    0    0  502  501  0.00000000000E+00  0.00000000000E+00  0.15687675875E+04  0.15687675875E+04  0.00000000000E+00 0. -1.
         21   -1    0    0  501  502 -0.00000000000E+00 -0.00000000000E+00 -0.51420121035E+02  0.51420121035E+02  0.00000000000E+00 0. -1.
         25    1    1    2    0    0  0.12893628569E+03  0.81532191546E+01  0.84760553413E+03  0.86645899051E+03  0.12500000000E+03 0.  0.
         25    1    1    2    0    0 -0.69409500842E+02  0.93459079307E+02  0.38524761455E+03  0.42141784825E+03  0.12500000000E+03 0.  0.
         25    1    1    2    0    0 -0.59526784847E+02 -0.10161229846E+03  0.28449431777E+03  0.33231086975E+03  0.12500000000E+03 0.  0.
</event>
<event>
 5    0  0.5713700E-005  0.3209374E+03  0.7546771E-02  0.1075219E+00
         21   -1    0    0  502  501  0.00000000000E+00  0.00000000000E+00  0.35158464195E+03  0.35158464195E+03  0.00000000000E+00 0. -1.
         21   -1    0    0  501  502 -0.00000000000E+00 -0.00000000000E+00 -0.29296163150E+03  0.29296163150E+03  0.00000000000E+00 0. -1.
         25    1    1    2    0    0 -0.13041491349E+02 -0.74034329417E+02  0.11938455376E+03  0.18849093905E+03  0.12500000000E+03 0.  0.
         25    1    1    2    0    0 -0.91390705060E+02 -0.60309584966E+01  0.12294589993E+03  0.19781134381E+03  0.12500000000E+03 0.  0.
         25    1    1    2    0    0  0.10443219641E+03  0.80065287914E+02 -0.18370744324E+03  0.25824399059E+03  0.12500000000E+03 0.  0.
</event>
<event>
 5    0  0.5713700E-005  0.3546547E+03  0.7546771E-02  0.1060721E+00
         21   -1    0    0  502  501  0.00000000000E+00  0.00000000000E+00  0.76556117895E+02  0.76556117895E+02  0.00000000000E+00 0.  1.
         21   -1    0    0  501  502 -0.00000000000E+00 -0.00000000000E+00 -0.16429769113E+04  0.16429769113E+04  0.00000000000E+00 0.  1.
         25    1    1    2    0    0 -0.14986246210E+03 -0.18069394529E+01 -0.23162567422E+03  0.30288194983E+03  0.12500000000E+03 0.  0.
         25    1    1    2    0    0 -0.57285132899E+02 -0.75043814400E+02 -0.20124893391E+03  0.25502802578E+03  0.12500000000E+03 0.  0.
         25    1    1    2    0    0  0.20714759500E+03  0.76850753853E+02 -0.11335461853E+04  0.11616230536E+04  0.12500000000E+03 0.  0.
</event>
<event>
 5    0  0.5713700E-005  0.2709519E+03  0.7546771E-02  0.1100736E+00
         21   -1    0    0  502  501  0.00000000000E+00  0.00000000000E+00  0.59413106319E+03  0.59413106319E+03  0.00000000000E+00 0. -1.
         21   -1    0    0  501  502 -0.00000000000E+00 -0.00000000000E+00 -0.12356689196E+03  0.12356689196E+03  0.00000000000E+00 0. -1.
         25    1    1    2    0    0  0.22217444844E+02 -0.16934776636E+02  0.21392969506E+03  0.24934176534E+03  0.12500000000E+03 0.  0.
         25    1    1    2    0    0  0.92393248459E+02 -0.70618582276E+02  0.32193849246E+02  0.17373813759E+03  0.12500000000E+03 0.  0.
         25    1    1    2    0    0 -0.11461069330E+03  0.87553358912E+02  0.22444062693E+03  0.29461805222E+03  0.12500000000E+03 0.  0.
</event>
<event>
 5    0  0.5713700E-005  0.2329920E+03  0.7546771E-02  0.1124551E+00
         21   -1    0    0  502  501  0.00000000000E+00  0.00000000000E+00  0.64656519402E+02  0.64656519402E+02  0.00000000000E+00 0.  1.
         21   -1    0    0  501  502 -0.00000000000E+00 -0.00000000000E+00 -0.83959489739E+03  0.83959489739E+03  0.00000000000E+00 0.  1.
         25    1    1    2    0    0  0.36466425272E+01  0.73644975504E+02 -0.33669831435E+03  0.36664374439E+03  0.12500000000E+03 0.  0.
         25    1    1    2    0    0  0.28341996936E+02 -0.47506282869E+01 -0.33460557242E+03  0.35834581951E+03  0.12500000000E+03 0.  0.
         25    1    1    2    0    0 -0.31988639464E+02 -0.68894347217E+02 -0.10363449122E+03  0.17926185290E+03  0.12500000000E+03 0.  0.
</event>
<event>
 5    0  0.5713700E-005  0.3126527E+03  0.7546771E-02  0.1079081E+00
         21   -1    0    0  502  501  0.00000000000E+00  0.00000000000E+00  0.78894854802E+02  0.78894854802E+02  0.00000000000E+00 0. -1.
         21   -1    0    0  501  502 -0.00000000000E+00 -0.00000000000E+00 -0.12390121284E+04  0.12390121284E+04  0.00000000000E+00 0. -1.
         25    1    1    2    0    0 -0.33610079868E+02 -0.11052084125E+03 -0.81140543152E+02  0.18855577838E+03  0.12500000000E+03 0.  0.
         25    1    1    2    0    0  0.95325449708E+02  0.74862779810E+01 -0.58685692770E+03  0.60759282362E+03  0.12500000000E+03 0.  0.
         25    1    1    2    0    0 -0.61715369839E+02  0.10303456327E+03 -0.49211980278E+03  0.52175838123E+03  0.12500000000E+03 0.  0.
</event>
<event>
 5    0  0.5713700E-005  0.4921706E+03  0.7546771E-02  0.1015843E+00
         21   -1    0    0  502  501  0.00000000000E+00  0.00000000000E+00  0.44886172730E+03  0.44886172730E+03  0.00000000000E+00 0.  1.
         21   -1    0    0  501  502 -0.00000000000E+00 -0.00000000000E+00 -0.53965815194E+03  0.53965815194E+03  0.00000000000E+00 0.  1.
         25    1    1    2    0    0 -0.13986984152E+03  0.21745192111E+03  0.28144277335E+03  0.40209942207E+03  0.12500000000E+03 0.  0.
         25    1    1    2    0    0  0.17588988661E+03 -0.23744752537E+03 -0.24927226089E+03  0.40630067631E+03  0.12500000000E+03 0.  0.
         25    1    1    2    0    0 -0.36020045090E+02  0.19995604265E+02 -0.12296693710E+03  0.18011978086E+03  0.12500000000E+03 0.  0.
</event>
<event>
 5    0  0.5713700E-005  0.2927702E+03  0.7546771E-02  0.1088912E+00
         21   -1    0    0  502  501  0.00000000000E+00  0.00000000000E+00  0.38609806007E+03  0.38609806007E+03  0.00000000000E+00 0.  1.
         21   -1    0    0  501  502 -0.00000000000E+00 -0.00000000000E+00 -0.22200167010E+03  0.22200167010E+03  0.00000000000E+00 0.  1.
         25    1    1    2    0    0 -0.80543335224E+02  0.45156804265E+02 -0.67579616950E+01  0.15555396448E+03  0.12500000000E+03 0.  0.
         25    1    1    2    0    0 -0.91029370369E+02 -0.11003935907E+03  0.12088443342E+03  0.22501789497E+03  0.12500000000E+03 0.  0.
         25    1    1    2    0    0  0.17157270559E+03  0.64882554805E+02  0.49969918252E+02  0.22752787072E+03  0.12500000000E+03 0.  0.
</event>
<event>
 5    0  0.5713700E-005  0.5616834E+03  0.7546771E-02  0.9988253E-01
         21   -1    0    0  502  501  0.00000000000E+00  0.00000000000E+00  0.25805434531E+03  0.25805434531E+03  0.00000000000E+00 0.  1.
         21   -1    0    0  501  502 -0.00000000000E+00 -0.00000000000E+00 -0.12225653049E+04  0.12225653049E+04  0.00000000000E+00 0.  1.
         25    1    1    2    0    0  0.16911546802E+01 -0.27330285762E+02  0.25943504457E+02  0.13056749192E+03  0.12500000000E+03 0.  0.
         25    1    1    2    0    0 -0.42877477626E+03  0.15527136216E+02 -0.33852324474E+03  0.56063525393E+03  0.12500000000E+03 0.  0.
         25    1    1    2    0    0  0.42708362158E+03  0.11803149546E+02 -0.65193121927E+03  0.78941690432E+03  0.12500000000E+03 0.  0.
</event>
<event>
 5    0  0.5713700E-005  0.3147844E+03  0.7546771E-02  0.1078075E+00
         21   -1    0    0  502  501  0.00000000000E+00  0.00000000000E+00  0.99617468803E+02  0.99617468803E+02  0.00000000000E+00 0.  1.
         21   -1    0    0  501  502 -0.00000000000E+00 -0.00000000000E+00 -0.99469692387E+03  0.99469692387E+03  0.00000000000E+00 0.  1.
         25    1    1    2    0    0  0.72090499545E+02  0.14125395402E+03 -0.31251355545E+03  0.37207451134E+03  0.12500000000E+03 0.  0.
         25    1    1    2    0    0 -0.55752356815E+02 -0.15855057654E+03 -0.11767131111E+03  0.24024601572E+03  0.12500000000E+03 0.  0.
         25    1    1    2    0    0 -0.16338142730E+02  0.17296622527E+02 -0.46489458851E+03  0.48199386560E+03  0.12500000000E+03 0.  0.
</event>
<event>
 5    0  0.5713700E-005  0.2749388E+03  0.7546771E-02  0.1098486E+00
         21   -1    0    0  502  501  0.00000000000E+00  0.00000000000E+00  0.14629406930E+03  0.14629406930E+03  0.00000000000E+00 0. -1.
         21   -1    0    0  501  502 -0.00000000000E+00 -0.00000000000E+00 -0.51670834525E+03  0.51670834525E+03  0.00000000000E+00 0. -1.
         25    1    1    2    0    0 -0.33146871428E+02  0.12007531248E+03 -0.60776847680E+02  0.18664303086E+03  0.12500000000E+03 0.  0.
         25    1    1    2    0    0 -0.30562610196E+02 -0.45387876821E+02 -0.28438313946E+03  0.31542495544E+03  0.12500000000E+03 0.  0.
         25    1    1    2    0    0  0.63709481624E+02 -0.74687435661E+02 -0.25254288803E+02  0.16093442825E+03  0.12500000000E+03 0.  0.
</event>
<event>
 5    0  0.5713700E-005  0.4109041E+03  0.7546771E-02  0.1040068E+00
         21   -1    0    0  502  501  0.00000000000E+00  0.00000000000E+00  0.11314117993E+04  0.11314117993E+04  0.00000000000E+00 0. -1.
         21   -1    0    0  501  502 -0.00000000000E+00 -0.00000000000E+00 -0.14923138313E+03  0.14923138313E+03  0.00000000000E+00 0. -1.
         25    1    1    2    0    0 -0.19977385206E+02  0.19841372944E+03  0.56143494244E+03  0.60877031674E+03  0.12500000000E+03 0.  0.
         25    1    1    2    0    0 -0.11176587171E+03  0.72921291394E+02  0.78874466468E+02  0.19913640119E+03  0.12500000000E+03 0.  0.
         25    1    1    2    0    0  0.13174325691E+03 -0.27133502083E+03  0.34187100729E+03  0.47273646453E+03  0.12500000000E+03 0.  0.
</event>
<event>
 5    0  0.5713700E-005  0.3094551E+03  0.7546771E-02  0.1080607E+00
         21   -1    0    0  502  501  0.00000000000E+00  0.00000000000E+00  0.11989215655E+04  0.11989215655E+04  0.00000000000E+00 0. -1.
         21   -1    0    0  501  502 -0.00000000000E+00 -0.00000000000E+00 -0.79873839400E+02  0.79873839400E+02  0.00000000000E+00 0. -1.
         25    1    1    2    0    0 -0.52977987813E+02  0.94222765529E+02  0.10233406946E+03  0.19437556047E+03  0.12500000000E+03 0.  0.
         25    1    1    2    0    0  0.45139865792E+02  0.70158254483E+02  0.26321606160E+03  0.30309649163E+03  0.12500000000E+03 0.  0.
         25    1    1    2    0    0  0.78381220211E+01 -0.16438102001E+03  0.75349759509E+03  0.78132335284E+03  0.12500000000E+03 0.  0.
</event>
<event>
 5    0  0.5713700E-005  0.2508906E+03  0.7546771E-02  0.1112743E+00
         21   -1    0    0  502  501  0.00000000000E+00  0.00000000000E+00  0.20945395164E+02  0.20945395164E+02  0.00000000000E+00 0.  1.
         21   -1    0    0  501  502 -0.00000000000E+00 -0.00000000000E+00 -0.30052482677E+04  0.30052482677E+04  0.00000000000E+00 0.  1.
         25    1    1    2    0    0  0.46221005130E+02 -0.79001321898E+02 -0.59752357891E+03  0.61728195951E+03  0.12500000000E+03 0.  0.
         25    1    1    2    0    0  0.31608827468E+02  0.11443739058E+03 -0.14007191038E+04  0.14112880791E+04  0.12500000000E+03 0.  0.
         25    1    1    2    0    0 -0.77829832599E+02 -0.35436068680E+02 -0.98606018982E+03  0.99762362429E+03  0.12500000000E+03 0.  0.
</event>
<event>
 5    0  0.5713700E-005  0.3350118E+03  0.7546771E-02  0.1068941E+00
         21   -1    0    0  502  501  0.00000000000E+00  0.00000000000E+00  0.21391199561E+03  0.21391199561E+03  0.00000000000E+00 0. -1.
         21   -1    0    0  501  502 -0.00000000000E+00 -0.00000000000E+00 -0.52466862397E+03  0.52466862397E+03  0.00000000000E+00 0. -1.
         25    1    1    2    0    0  0.24072601696E+02  0.95707196279E+02 -0.20844289900E+03  0.26232193907E+03  0.12500000000E+03 0.  0.
         25    1    1    2    0    0 -0.13293926358E+03  0.97551770871E+02 -0.16483283342E+02  0.20757142008E+03  0.12500000000E+03 0.  0.
         25    1    1    2    0    0  0.10886666189E+03 -0.19325896715E+03 -0.85830446021E+02  0.26868726043E+03  0.12500000000E+03 0.  0.
</event>
<event>
 5    0  0.5713700E-005  0.4833075E+03  0.7546771E-02  0.1018230E+00
         21   -1    0    0  502  501  0.00000000000E+00  0.00000000000E+00  0.34158020976E+03  0.34158020976E+03  0.00000000000E+00 0.  1.
         21   -1    0    0  501  502 -0.00000000000E+00 -0.00000000000E+00 -0.68383983747E+03  0.68383983747E+03  0.00000000000E+00 0.  1.
         25    1    1    2    0    0 -0.65454710401E+02 -0.10915794988E+03  0.54262861011E+01  0.17847751039E+03  0.12500000000E+03 0.  0.
         25    1    1    2    0    0  0.15586518973E+03  0.11904670049E+03  0.18189720190E+03  0.29525864310E+03  0.12500000000E+03 0.  0.
         25    1    1    2    0    0 -0.90410479328E+02 -0.98887506100E+01 -0.52958311571E+03  0.55168389373E+03  0.12500000000E+03 0.  0.
</event>
<event>
 5    0  0.5713700E-005  0.3192127E+03  0.7546771E-02  0.1076012E+00
         21   -1    0    0  502  501  0.00000000000E+00  0.00000000000E+00  0.23196138196E+03  0.23196138196E+03  0.00000000000E+00 0. -1.
         21   -1    0    0  501  502 -0.00000000000E+00 -0.00000000000E+00 -0.43928328090E+03  0.43928328090E+03  0.00000000000E+00 0. -1.
         25    1    1    2    0    0 -0.13950714614E+03 -0.56999614148E+02 -0.27857373367E+02  0.19776812960E+03  0.12500000000E+03 0.  0.
         25    1    1    2    0    0 -0.48253097585E+02  0.11159900865E+03  0.88582121336E+01  0.17460288681E+03  0.12500000000E+03 0.  0.
         25    1    1    2    0    0  0.18776024372E+03 -0.54599394506E+02 -0.18832273771E+03  0.29887364645E+03  0.12500000000E+03 0.  0.
</event>
<event>
 5    0  0.5713700E-005  0.5824374E+03  0.7546771E-02  0.9942528E-01
         21   -1    0    0  502  501  0.00000000000E+00  0.00000000000E+00  0.18068220726E+04  0.18068220726E+04  0.00000000000E+00 0. -1.
         21   -1    0    0  501  502 -0.00000000000E+00 -0.00000000000E+00 -0.18775139592E+03  0.18775139592E+03  0.00000000000E+00 0. -1.
         25    1    1    2    0    0 -0.95152236675E+02  0.80861156441E+02  0.15677881062E+04  0.15777125913E+04  0.12500000000E+03 0.  0.
         25    1    1    2    0    0  0.15610624390E+03 -0.15138806068E+03 -0.55797374570E+01  0.25088570659E+03  0.12500000000E+03 0.  0.
         25    1    1    2    0    0 -0.60954007224E+02  0.70526904240E+02  0.56862307987E+02  0.16597517070E+03  0.12500000000E+03 0.  0.
</event>
<event>
 5    0  0.5713700E-005  0.4459605E+03  0.7546771E-02  0.1028934E+00
         21   -1    0    0  502  501  0.00000000000E+00  0.00000000000E+00  0.24796872228E+03  0.24796872228E+03  0.00000000000E+00 0.  1.
         21   -1    0    0  501  502 -0.00000000000E+00 -0.00000000000E+00 -0.80203977027E+03  0.80203977027E+03  0.00000000000E+00 0. -1.
         25    1    1    2    0    0 -0.30256375534E+03 -0.97715734727E+02 -0.27687714859E+03  0.43974895823E+03  0.12500000000E+03 0.  0.
         25    1    1    2    0    0  0.35457514240E+03  0.13993650600E+03 -0.21814898921E+03  0.45663961591E+03  0.12500000000E+03 0.  0.
         25    1    1    2    0    0 -0.52011387064E+02 -0.42220771275E+02 -0.59044910200E+02  0.15361991841E+03  0.12500000000E+03 0.  0.
</event>
<event>
 5    0  0.5713700E-005  0.3173593E+03  0.7546771E-02  0.1076871E+00
         21   -1    0    0  502  501  0.00000000000E+00  0.00000000000E+00  0.28996432409E+03  0.28996432409E+03  0.00000000000E+00 0. -1.
         21   -1    0    0  501  502 -0.00000000000E+00 -0.00000000000E+00 -0.34734240169E+03  0.34734240169E+03  0.00000000000E+00 0. -1.
         25    1    1    2    0    0 -0.12081484327E+03  0.40974485965E+02  0.30324347492E+02  0.18116208463E+03  0.12500000000E+03 0.  0.
         25    1    1    2    0    0 -0.77912876962E+02  0.76047125216E+02  0.30286904517E+02  0.16851076593E+03  0.12500000000E+03 0.  0.
         25    1    1    2    0    0  0.19872772023E+03 -0.11702161118E+03 -0.11798932961E+03  0.28763387522E+03  0.12500000000E+03 0.  0.
</event>
<event>
 5    0  0.5713700E-005  0.2970333E+03  0.7546771E-02  0.1086733E+00
         21   -1    0    0  502  501  0.00000000000E+00  0.00000000000E+00  0.62275567851E+03  0.62275567851E+03  0.00000000000E+00 0.  1.
         21   -1    0    0  501  502 -0.00000000000E+00 -0.00000000000E+00 -0.14167481914E+03  0.14167481914E+03  0.00000000000E+00 0.  1.
         25    1    1    2    0    0 -0.70623203481E+02 -0.21209432481E+02  0.99273938142E+01  0.14546831285E+03  0.12500000000E+03 0.  0.
         25    1    1    2    0    0  0.98908458512E+01 -0.44476747627E+02  0.44318454190E+03  0.46272405178E+03  0.12500000000E+03 0.  0.
         25    1    1    2    0    0  0.60732357630E+02  0.65686180108E+02  0.27968923657E+02  0.15623813302E+03  0.12500000000E+03 0.  0.
</event>
<event>
 5    0  0.5713700E-005  0.4494898E+03  0.7546771E-02  0.1027874E+00
         21   -1    0    0  502  501  0.00000000000E+00  0.00000000000E+00  0.67201414797E+03  0.67201414797E+03  0.00000000000E+00 0. -1.
         21   -1    0    0  501  502 -0.00000000000E+00 -0.00000000000E+00 -0.30065000561E+03  0.30065000561E+03  0.00000000000E+00 0. -1.
         25    1    1    2    0    0  0.12339898460E+02 -0.88619517957E+02 -0.53883976574E+01  0.15381718658E+03  0.12500000000E+03 0.  0.
         25    1    1    2    0    0  0.12004284998E+03  0.25513651854E+03  0.46398439213E+03  0.55714580234E+03  0.12500000000E+03 0.  0.
         25    1    1    2    0    0 -0.13238274844E+03 -0.16651700058E+03 -0.87231852111E+02  0.26170116467E+03  0.12500000000E+03 0.  0.
</event>
<event>
 5    0  0.5713700E-005  0.4057065E+03  0.7546771E-02  0.1041821E+00
         21   -1    0    0  502  501  0.00000000000E+00  0.00000000000E+00  0.12069016758E+04  0.12069016758E+04  0.00000000000E+00 0.  1.
         21   -1    0    0  501  502 -0.00000000000E+00 -0.00000000000E+00 -0.13638044481E+03  0.13638044481E+03  0.00000000000E+00 0.  1.
         25    1    1    2    0    0  0.11750393178E+03 -0.72957773288E+01  0.28983892488E+02  0.17414209249E+03  0.12500000000E+03 0.  0.
         25    1    1    2    0    0  0.74201588835E+01 -0.10687721231E+03  0.90148217450E+03  0.91639124189E+03  0.12500000000E+03 0.  0.
         25    1    1    2    0    0 -0.12492409067E+03  0.11417298963E+03  0.14005516404E+03  0.25274878628E+03  0.12500000000E+03 0.  0.
</event>
<event>
 5    0  0.5713700E-005  0.2383423E+03  0.7546771E-02  0.1120902E+00
         21   -1    0    0  502  501  0.00000000000E+00  0.00000000000E+00  0.87985845510E+03  0.87985845510E+03  0.00000000000E+00 0.  1.
         21   -1    0    0  501  502 -0.00000000000E+00 -0.00000000000E+00 -0.64563854990E+02  0.64563854990E+02  0.00000000000E+00 0.  1.
         25    1    1    2    0    0 -0.20724295379E+02  0.21451399276E+02  0.50670840555E+03  0.52275048274E+03  0.12500000000E+03 0.  0.
         25    1    1    2    0    0  0.24948661832E+01 -0.11121127436E+02  0.52732172007E+02  0.13614545823E+03  0.12500000000E+03 0.  0.
         25    1    1    2    0    0  0.18229429196E+02 -0.10330271840E+02  0.25585402256E+03  0.28552636912E+03  0.12500000000E+03 0.  0.
</event>
<event>
 5    0  0.5713700E-005  0.4506129E+03  0.7546771E-02  0.1027539E+00
         21   -1    0    0  502  501  0.00000000000E+00  0.00000000000E+00  0.96179172213E+03  0.96179172213E+03  0.00000000000E+00 0. -1.
         21   -1    0    0  501  502 -0.00000000000E+00 -0.00000000000E+00 -0.21111850517E+03  0.21111850517E+03  0.00000000000E+00 0. -1.
         25    1    1    2    0    0  0.10631631716E+03  0.29110486080E+03  0.92877446528E+02  0.34683774210E+03  0.12500000000E+03 0.  0.
         25    1    1    2    0    0 -0.14021175559E+03 -0.43726156477E+02  0.40853748930E+03  0.45177338714E+03  0.12500000000E+03 0.  0.
         25    1    1    2    0    0  0.33895438429E+02 -0.24737870432E+03  0.24925828113E+03  0.37429909806E+03  0.12500000000E+03 0.  0.
</event>
<event>
 5    0  0.5713700E-005  0.5755572E+03  0.7546771E-02  0.9957456E-01
         21   -1    0    0  502  501  0.00000000000E+00  0.00000000000E+00  0.11916403171E+04  0.11916403171E+04  0.00000000000E+00 0.  1.
         21   -1    0    0  501  502 -0.00000000000E+00 -0.00000000000E+00 -0.27799165422E+03  0.27799165422E+03  0.00000000000E+00 0.  1.
         25    1    1    2    0    0 -0.34930307849E+03  0.25365512865E+03  0.22096946610E+03  0.50080542117E+03  0.12500000000E+03 0.  0.
         25    1    1    2    0    0  0.35795576916E+03 -0.26217973077E+03  0.28434578290E+03  0.54161616312E+03  0.12500000000E+03 0.  0.
         25    1    1    2    0    0 -0.86526906688E+01  0.85246021249E+01  0.40833341392E+03  0.42721038707E+03  0.12500000000E+03 0.  0.
</event>
<event>
 5    0  0.5713700E-005  0.2178420E+03  0.7546771E-02  0.1135502E+00
         21   -1    0    0  502  501  0.00000000000E+00  0.00000000000E+00  0.29135024208E+02  0.29135024208E+02  0.00000000000E+00 0.  1.
         21   -1    0    0  501  502 -0.00000000000E+00 -0.00000000000E+00 -0.16288010476E+04  0.16288010476E+04  0.00000000000E+00 0.  1.
         25    1    1    2    0    0  0.28805981465E+02  0.81210202961E+02 -0.55630734749E+03  0.57665218851E+03  0.12500000000E+03 0.  0.
         25    1    1    2    0    0 -0.16696812190E+02 -0.90280063258E+02 -0.49868863760E+03  0.52224958653E+03  0.12500000000E+03 0.  0.
         25    1    1    2    0    0 -0.12109169275E+02  0.90698602967E+01 -0.54467003827E+03  0.55903429674E+03  0.12500000000E+03 0.  0.
</event>
<event>
 5    0  0.6583120E-005  0.4312660E+03  0.7546771E-02  0.1033461E+00
         21   -1    0    0  502  501  0.00000000000E+00  0.00000000000E+00  0.55271633286E+03  0.55271633286E+03  0.00000000000E+00 0. -1.
         21   -1    0    0  501  502 -0.00000000000E+00 -0.00000000000E+00 -0.33650234091E+03  0.33650234091E+03  0.00000000000E+00 0. -1.
         25    1    1    2    0    0 -0.43095744214E+02 -0.25682929838E+02 -0.14934863636E+03  0.20111407518E+03  0.12500000000E+03 0.  0.
         25    1    1    2    0    0 -0.23449641957E+03 -0.20248052598E+02  0.11132696067E+03  0.28882044006E+03  0.12500000000E+03 0.  0.
         25    1    1    2    0    0  0.27759216379E+03  0.45930982436E+02  0.25423566765E+03  0.39928415852E+03  0.12500000000E+03 0.  0.
</event>
<event>
 5    0  0.5713700E-005  0.2971161E+03  0.7546771E-02  0.1086691E+00
         21   -1    0    0  502  501  0.00000000000E+00  0.00000000000E+00  0.17936827940E+04  0.17936827940E+04  0.00000000000E+00 0. -1.
         21   -1    0    0  501  502 -0.00000000000E+00 -0.00000000000E+00 -0.49216044011E+02  0.49216044011E+02  0.00000000000E+00 0. -1.
         25    1    1    2    0    0 -0.51079586327E+02  0.14267279949E+03  0.45725134032E+03  0.49766297841E+03  0.12500000000E+03 0.  0.
         25    1    1    2    0    0  0.84143847828E+02 -0.12009853357E+02  0.25226156541E+03  0.29408386744E+03  0.12500000000E+03 0.  0.
         25    1    1    2    0    0 -0.33064261501E+02 -0.13066294614E+03  0.10349538443E+04  0.10511519922E+04  0.12500000000E+03 0.  0.
</event>
<event>
 5    0  0.5713700E-005  0.3905895E+03  0.7546771E-02  0.1047088E+00
         21   -1    0    0  502  501  0.00000000000E+00  0.00000000000E+00  0.16793887318E+03  0.16793887318E+03  0.00000000000E+00 0.  1.
         21   -1    0    0  501  502 -0.00000000000E+00 -0.00000000000E+00 -0.90842653294E+03  0.90842653294E+03  0.00000000000E+00 0.  1.
         25    1    1    2    0    0 -0.12083495251E+03 -0.17931507168E+03 -0.13385132601E+03  0.28336576743E+03  0.12500000000E+03 0.  0.
         25    1    1    2    0    0  0.34329746002E+02 -0.93162242889E+02 -0.36493079369E+03  0.39831798747E+03  0.12500000000E+03 0.  0.
         25    1    1    2    0    0  0.86505206513E+02  0.27247731457E+03 -0.24170554007E+03  0.39468165122E+03  0.12500000000E+03 0.  0.
</event>
<event>
 5    0  0.5713700E-005  0.2587538E+03  0.7546771E-02  0.1107894E+00
         21   -1    0    0  502  501  0.00000000000E+00  0.00000000000E+00  0.41019320552E+03  0.41019320552E+03  0.00000000000E+00 0. -1.
         21   -1    0    0  501  502 -0.00000000000E+00 -0.00000000000E+00 -0.16322443003E+03  0.16322443003E+03  0.00000000000E+00 0. -1.
         25    1    1    2    0    0 -0.61443041026E+02  0.67261076305E+02  0.44752588676E+02  0.16101892395E+03  0.12500000000E+03 0.  0.
         25    1    1    2    0    0  0.13675693756E+03 -0.95574475598E+02  0.94933280742E+02  0.22907262636E+03  0.12500000000E+03 0.  0.
         25    1    1    2    0    0 -0.75313896535E+02  0.28313399292E+02  0.10728290608E+03  0.18332608523E+03  0.12500000000E+03 0.  0.
</event>
<event>
 5    0  0.5713700E-005  0.3244769E+03  0.7546771E-02  0.1073607E+00
         21   -1    0    0  502  501  0.00000000000E+00  0.00000000000E+00  0.12355862806E+04  0.12355862806E+04  0.00000000000E+00 0.  1.
         21   -1    0    0  501  502 -0.00000000000E+00 -0.00000000000E+00 -0.85210792851E+02  0.85210792851E+02  0.00000000000E+00 0.  1.
         25    1    1    2    0    0 -0.10160649608E+03  0.12624010217E+03  0.47534525905E+03  0.51753121524E+03  0.12500000000E+03 0.  0.
         25    1    1    2    0    0  0.10991821922E+03 -0.17074346065E+03  0.20392313077E+03  0.31375944215E+03  0.12500000000E+03 0.  0.
         25    1    1    2    0    0 -0.83117231344E+01  0.44503358485E+02  0.47110709797E+03  0.48950641611E+03  0.12500000000E+03 0.  0.
</event>
<event>
 5    0  0.5713700E-005  0.6373614E+03  0.7546771E-02  0.9830788E-01
         21   -1    0    0  502  501  0.00000000000E+00  0.00000000000E+00  0.97952626497E+03  0.97952626497E+03  0.00000000000E+00 0.  1.
         21   -1    0    0  501  502 -0.00000000000E+00 -0.00000000000E+00 -0.41472049537E+03  0.41472049537E+03  0.00000000000E+00 0.  1.
         25    1    1    2    0    0  0.45390508588E+03  0.32031193767E+03  0.27498537292E+03  0.63235395130E+03  0.12500000000E+03 0.  0.
         25    1    1    2    0    0 -0.32843637099E+03 -0.12967546633E+03  0.29554736171E+01  0.37459299403E+03  0.12500000000E+03 0.  0.
         25    1    1    2    0    0 -0.12546871490E+03 -0.19063647135E+03  0.28686492306E+03  0.38729981501E+03  0.12500000000E+03 0.  0.
</event>
<event>
 5    0  0.5713700E-005  0.2927594E+03  0.7546771E-02  0.1088917E+00
         21   -1    0    0  502  501  0.00000000000E+00  0.00000000000E+00  0.19851777377E+04  0.19851777377E+04  0.00000000000E+00 0. -1.
         21   -1    0    0  501  502 -0.00000000000E+00 -0.00000000000E+00 -0.43174002721E+02  0.43174002721E+02  0.00000000000E+00 0. -1.
         25    1    1    2    0    0  0.97135915610E+02  0.32327798146E+02  0.21631600606E+03  0.26999645759E+03  0.12500000000E+03 0.  0.
         25    1    1    2    0    0  0.92358656877E+01  0.70372607492E+02  0.73124933513E+03  0.74524371532E+03  0.12500000000E+03 0.  0.
         25    1    1    2    0    0 -0.10637178130E+03 -0.10270040564E+03  0.99443839382E+03  0.10131115675E+04  0.12500000000E+03 0.  0.
</event>
<event>
 5    0  0.5713700E-005  0.4687154E+03  0.7546771E-02  0.1022283E+00
         21   -1    0    0  502  501  0.00000000000E+00  0.00000000000E+00  0.13560673404E+04  0.13560673404E+04  0.00000000000E+00 0.  1.
         21   -1    0    0  501  502 -0.00000000000E+00 -0.00000000000E+00 -0.16200828487E+03  0.16200828487E+03  0.00000000000E+00 0.  1.
         25    1    1    2    0    0 -0.31641414393E+03 -0.41781730757E+01  0.28315706422E+03  0.44264917330E+03  0.12500000000E+03 0.  0.
         25    1    1    2    0    0  0.15677010654E+03  0.20042536519E+03  0.53410716948E+03  0.60468393546E+03  0.12500000000E+03 0.  0.
         25    1    1    2    0    0  0.15964403739E+03 -0.19624719211E+03  0.37679482186E+03  0.47074251653E+03  0.12500000000E+03 0.  0.
</event>
<event>
 5    0  0.5713700E-005  0.3172362E+03  0.7546771E-02  0.1076928E+00
         21   -1    0    0  502  501  0.00000000000E+00  0.00000000000E+00  0.11646091710E+03  0.11646091710E+03  0.00000000000E+00 0. -1.
         21   -1    0    0  501  502 -0.00000000000E+00 -0.00000000000E+00 -0.86414256339E+03  0.86414256339E+03  0.00000000000E+00 0. -1.
         25    1    1    2    0    0 -0.32375818675E+02  0.20773204192E+03 -0.41946431701E+03  0.48556782031E+03  0.12500000000E+03 0.  0.
         25    1    1    2    0    0 -0.48252856033E+01 -0.99192936854E+02 -0.46699144250E+02  0.16633800581E+03  0.12500000000E+03 0.  0.
         25    1    1    2    0    0  0.37201104278E+02 -0.10853910506E+03 -0.28151818503E+03  0.32869765437E+03  0.12500000000E+03 0.  0.
</event>
<event>
 5    0  0.7044084E-005  0.3176662E+03  0.7546771E-02  0.1076728E+00
         21   -1    0    0  502  501  0.00000000000E+00  0.00000000000E+00  0.19152349779E+03  0.19152349779E+03  0.00000000000E+00 0. -1.
         21   -1    0    0  501  502 -0.00000000000E+00 -0.00000000000E+00 -0.52688997159E+03  0.52688997159E+03  0.00000000000E+00 0. -1.
         25    1    1    2    0    0  0.55086935176E+02  0.27429894297E+02 -0.10803377083E+02  0.13974506247E+03  0.12500000000E+03 0.  0.
         25    1    1    2    0    0  0.11324415693E+03  0.35975203375E+02 -0.31535150765E+03  0.35943014302E+03  0.12500000000E+03 0.  0.
         25    1    1    2    0    0 -0.16833109211E+03 -0.63405097672E+02 -0.92115890632E+01  0.21923826389E+03  0.12500000000E+03 0.  0.
</event>
<event>
 5    0  0.5713700E-005  0.2472634E+03  0.7546771E-02  0.1115047E+00
         21   -1    0    0  502  501  0.00000000000E+00  0.00000000000E+00  0.27265357517E+03  0.27265357517E+03  0.00000000000E+00 0. -1.
         21   -1    0    0  501  502 -0.00000000000E+00 -0.00000000000E+00 -0.22423766263E+03  0.22423766263E+03  0.00000000000E+00 0. -1.
         25    1    1    2    0    0 -0.69608327372E+02 -0.46440873825E+02  0.55713308270E+02  0.16040899825E+03  0.12500000000E+03 0.  0.
         25    1    1    2    0    0  0.49483795164E+02 -0.33800491272E+02  0.82921492496E+02  0.16153047116E+03  0.12500000000E+03 0.  0.
         25    1    1    2    0    0  0.20124532208E+02  0.80241365098E+02 -0.90218888235E+02  0.17495176839E+03  0.12500000000E+03 0.  0.
</event>
<event>
 5    0  0.5713700E-005  0.2662821E+03  0.7546771E-02  0.1103427E+00
         21   -1    0    0  502  501  0.00000000000E+00  0.00000000000E+00  0.27385044709E+03  0.27385044709E+03  0.00000000000E+00 0. -1.
         21   -1    0    0  501  502 -0.00000000000E+00 -0.00000000000E+00 -0.25892291737E+03  0.25892291737E+03  0.00000000000E+00 0. -1.
         25    1    1    2    0    0  0.33455427059E+02  0.21557461653E+02  0.41634337880E+02  0.13763142026E+03  0.12500000000E+03 0.  0.
         25    1    1    2    0    0  0.25701426518E+02 -0.97564511197E+02  0.10304331154E+03  0.19084632882E+03  0.12500000000E+03 0.  0.
         25    1    1    2    0    0 -0.59156853578E+02  0.76007049544E+02 -0.12975011969E+03  0.20429561538E+03  0.12500000000E+03 0.  0.
</event>
<event>
 5    0  0.5713700E-005  0.4855949E+03  0.7546771E-02  0.1017609E+00
         21   -1    0    0  502  501  0.00000000000E+00  0.00000000000E+00  0.77458273100E+03  0.77458273100E+03  0.00000000000E+00 0.  1.
         21   -1    0    0  501  502 -0.00000000000E+00 -0.00000000000E+00 -0.30442507956E+03  0.30442507956E+03  0.00000000000E+00 0.  1.
         25    1    1    2    0    0  0.51754755021E+01  0.34093557999E+02  0.48154187349E+02  0.13832202284E+03  0.12500000000E+03 0.  0.
         25    1    1    2    0    0 -0.19536462484E+03 -0.27439626115E+03 -0.51520290995E+02  0.36296003245E+03  0.12500000000E+03 0.  0.
         25    1    1    2    0    0  0.19018914933E+03  0.24030270315E+03  0.47352375509E+03  0.57772575527E+03  0.12500000000E+03 0.  0.
</event>
<event>
 5    0  0.5713700E-005  0.5437400E+03  0.7546771E-02  0.1002953E+00
         21   -1    0    0  502  501  0.00000000000E+00  0.00000000000E+00  0.12700697986E+03  0.12700697986E+03  0.00000000000E+00 0.  1.
         21   -1    0    0  501  502 -0.00000000000E+00 -0.00000000000E+00 -0.23278500135E+04  0.23278500135E+04  0.00000000000E+00 0.  1.
         25    1    1    2    0    0  0.27876793461E+03  0.17391669756E+03 -0.16888865782E+04  0.17250859263E+04  0.12500000000E+03 0.  0.
         25    1    1    2    0    0 -0.31630898527E+03 -0.10886107452E+03 -0.44140049022E+03  0.56776887945E+03  0.12500000000E+03 0.  0.
         25    1    1    2    0    0  0.37541050654E+02 -0.65055623042E+02 -0.70555965260E+02  0.16200218766E+03  0.12500000000E+03 0.  0.
</event>
<event>
 5    0  0.5713700E-005  0.3340252E+03  0.7546771E-02  0.1069370E+00
         21   -1    0    0  502  501  0.00000000000E+00  0.00000000000E+00  0.33195576971E+03  0.33195576971E+03  0.00000000000E+00 0.  1.
         21   -1    0    0  501  502 -0.00000000000E+00 -0.00000000000E+00 -0.33610746793E+03  0.33610746793E+03  0.00000000000E+00 0.  1.
         25    1    1    2    0    0  0.14181561439E+02  0.12086352048E+03 -0.78514198099E+02  0.19130757061E+03  0.12500000000E+03 0.  0.
         25    1    1    2    0    0 -0.10724206853E+03 -0.22572504458E+03  0.73467529989E+02  0.28892063785E+03  0.12500000000E+03 0.  0.
         25    1    1    2    0    0  0.93060507090E+02  0.10486152410E+03  0.89496988800E+00  0.18783502918E+03  0.12500000000E+03 0.  0.
</event>
<event>
 5    0  0.5713700E-005  0.2207247E+03  0.7546771E-02  0.1133344E+00
         21   -1    0    0  502  501  0.00000000000E+00  0.00000000000E+00  0.13973668854E+03  0.13973668854E+03  0.00000000000E+00 0. -1.
         21   -1    0    0  501  502 -0.00000000000E+00 -0.00000000000E+00 -0.34865128637E+03  0.34865128637E+03  0.00000000000E+00 0. -1.
         25    1    1    2    0    0 -0.85482321696E+01 -0.49922800619E+02 -0.87078710919E+02  0.16053990217E+03  0.12500000000E+03 0.  0.
         25    1    1    2    0    0 -0.54975798132E+02 -0.33187334888E+02 -0.44276017678E+02  0.14734009406E+03  0.12500000000E+03 0.  0.
         25    1    1    2    0    0  0.63524030302E+02  0.83110135507E+02 -0.77559869237E+02  0.18050797868E+03  0.12500000000E+03 0.  0.
</event>
<event>
 5    0  0.5713700E-005  0.3211598E+03  0.7546771E-02  0.1075117E+00
         21   -1    0    0  502  501  0.00000000000E+00  0.00000000000E+00  0.75749435152E+03  0.75749435152E+03  0.00000000000E+00 0.  1.
         21   -1    0    0  501  502 -0.00000000000E+00 -0.00000000000E+00 -0.13616418388E+03  0.13616418388E+03  0.00000000000E+00 0.  1.
         25    1    1    2    0    0 -0.22708598084E+03 -0.89856729695E+01  0.19121402271E+03  0.32223685000E+03  0.12500000000E+03 0.  0.
         25    1    1    2    0    0  0.76030129063E+02  0.26267793012E+02  0.30191474083E+03  0.33652353291E+03  0.12500000000E+03 0.  0.
         25    1    1    2    0    0  0.15105585178E+03 -0.17282120043E+02  0.12820140410E+03  0.23489815249E+03  0.12500000000E+03 0.  0.
</event>
<event>
 5    0  0.5713700E-005  0.3524892E+03  0.7546771E-02  0.1061598E+00
         21   -1    0    0  502  501  0.00000000000E+00  0.00000000000E+00  0.15980349737E+03  0.15980349737E+03  0.00000000000E+00 0. -1.
         21   -1    0    0  501  502 -0.00000000000E+00 -0.00000000000E+00 -0.77750881241E+03  0.77750881241E+03  0.00000000000E+00 0. -1.
         25    1    1    2    0    0 -0.85104519136E+02  0.12307154549E+03 -0.32448836962E+02  0.19765452564E+03  0.12500000000E+03 0.  0.
         25    1    1    2    0    0  0.17003827260E+03  0.31160939895E+02 -0.40754158894E+03  0.45999909243E+03  0.12500000000E+03 0.  0.
         25    1    1    2    0    0 -0.84933753462E+02 -0.15423248539E+03 -0.17771488914E+03  0.27965869171E+03  0.12500000000E+03 0.  0.
</event>
<event>
 5    0  0.6259998E-005  0.4640522E+03  0.7546771E-02  0.1023612E+00
         21   -1    0    0  502  501  0.00000000000E+00  0.00000000000E+00  0.43340662293E+03  0.43340662293E+03  0.00000000000E+00 0. -1.
         21   -1    0    0  501  502 -0.00000000000E+00 -0.00000000000E+00 -0.49686464180E+03  0.49686464180E+03  0.00000000000E+00 0. -1.
         25    1    1    2    0    0 -0.19149319758E+03  0.19516443966E+02  0.17278300753E+03  0.28727948760E+03  0.12500000000E+03 0.  0.
         25    1    1    2    0    0  0.21979577260E+03 -0.15941028865E+03  0.46489050911E+02  0.30250298120E+03  0.12500000000E+03 0.  0.
         25    1    1    2    0    0 -0.28302575020E+02  0.13989384468E+03 -0.28273007731E+03  0.34048879592E+03  0.12500000000E+03 0.  0.
</event>
<event>
 5    0  0.5713700E-005  0.2898797E+03  0.7546771E-02  0.1090412E+00
         21   -1    0    0  502  501  0.00000000000E+00  0.00000000000E+00  0.20097824905E+03  0.20097824905E+03  0.00000000000E+00 0.  1.
         21   -1    0    0  501  502 -0.00000000000E+00 -0.00000000000E+00 -0.41810627095E+03  0.41810627095E+03  0.00000000000E+00 0.  1.
         25    1    1    2    0    0  0.12589136104E+02  0.90242896503E+02 -0.19743731466E+03  0.25081618755E+03  0.12500000000E+03 0.  0.
         25    1    1    2    0    0  0.14199047945E+02 -0.11245182536E+03 -0.11763889603E+03  0.20569622225E+03  0.12500000000E+03 0.  0.
         25    1    1    2    0    0 -0.26788184050E+02  0.22208928859E+02  0.97948188794E+02  0.16257211020E+03  0.12500000000E+03 0.  0.
</event>
<event>
 5    0  0.5713700E-005  0.2684005E+03  0.7546771E-02  0.1102199E+00
         21   -1    0    0  502  501  0.00000000000E+00  0.00000000000E+00  0.27620292865E+03  0.27620292865E+03  0.00000000000E+00 0.  1.
         21   -1    0    0  501  502 -0.00000000000E+00 -0.00000000000E+00 -0.26081841129E+03  0.26081841129E+03  0.00000000000E+00 0.  1.
         25    1    1    2    0    0  0.41538045065E+02 -0.11004792037E+03 -0.34038377685E+02  0.17498447109E+03  0.12500000000E+03 0.  0.
         25    1    1    2    0    0  0.54658647412E+02 -0.32365135859E+01  0.90231223628E+02  0.16359925573E+03  0.12500000000E+03 0.  0.
         25    1    1    2    0    0 -0.96196692477E+02  0.11328443396E+03 -0.40808328590E+02  0.19843761313E+03  0.12500000000E+03 0.  0.
</event>
<event>
 5    0  0.5713700E-005  0.3286621E+03  0.7546771E-02  0.1071730E+00
         21   -1    0    0  502  501  0.00000000000E+00  0.00000000000E+00  0.18253665029E+03  0.18253665029E+03  0.00000000000E+00 0. -1.
         21   -1    0    0  501  502 -0.00000000000E+00 -0.00000000000E+00 -0.59176498215E+03  0.59176498215E+03  0.00000000000E+00 0. -1.
         25    1    1    2    0    0  0.32149314759E+01 -0.18541373998E+03 -0.18855813384E+03  0.29251967557E+03  0.12500000000E+03 0.  0.
         25    1    1    2    0    0 -0.18326464237E+02 -0.30033399449E+02  0.24281327876E+02  0.13210771082E+03  0.12500000000E+03 0.  0.
         25    1    1    2    0    0  0.15111532761E+02  0.21544713943E+03 -0.24495152590E+03  0.34967424605E+03  0.12500000000E+03 0.  0.
</event>
<event>
 5    0  0.5713700E-005  0.2524704E+03  0.7546771E-02  0.1111753E+00
         21   -1    0    0  502  501  0.00000000000E+00  0.00000000000E+00  0.15491974375E+03  0.15491974375E+03  0.00000000000E+00 0.  1.
         21   -1    0    0  501  502 -0.00000000000E+00 -0.00000000000E+00 -0.41144718495E+03  0.41144718495E+03  0.00000000000E+00 0.  1.
         25    1    1    2    0    0 -0.43945877893E+02 -0.28537031059E+02 -0.18389073634E+02  0.13677997059E+03  0.12500000000E+03 0.  0.
         25    1    1    2    0    0  0.65575503226E+02  0.56983151261E+01 -0.26278806853E+03  0.29835412915E+03  0.12500000000E+03 0.  0.
         25    1    1    2    0    0 -0.21629625333E+02  0.22838715933E+02  0.24649700968E+02  0.13123282895E+03  0.12500000000E+03 0.  0.
</event>
<event>
 5    0  0.5713700E-005  0.2895766E+03  0.7546771E-02  0.1090570E+00
         21   -1    0    0  502  501  0.00000000000E+00  0.00000000000E+00  0.70952799685E+03  0.70952799685E+03  0.00000000000E+00 0. -1.
         21   -1    0    0  501  502 -0.00000000000E+00 -0.00000000000E+00 -0.11818363049E+03  0.11818363049E+03  0.00000000000E+00 0. -1.
         25    1    1    2    0    0 -0.11554592958E+03  0.18882411558E+02  0.19057065886E+03  0.25622174639E+03  0.12500000000E+03 0.  0.
         25    1    1    2    0    0  0.52552487987E+02  0.86485520596E+02  0.35602114906E+03  0.39066298499E+03  0.12500000000E+03 0.  0.
         25    1    1    2    0    0  0.62993441594E+02 -0.10536793215E+03  0.44752558443E+02  0.18082689595E+03  0.12500000000E+03 0.  0.
</event>
<event>
 5    0  0.5713700E-005  0.4187733E+03  0.7546771E-02  0.1037466E+00
         21   -1    0    0  502  501  0.00000000000E+00  0.00000000000E+00  0.11697548398E+03  0.11697548398E+03  0.00000000000E+00 0.  1.
         21   -1    0    0  501  502 -0.00000000000E+00 -0.00000000000E+00 -0.14992121341E+04  0.14992121341E+04  0.00000000000E+00 0.  1.
         25    1    1    2    0    0  0.11121398088E+03 -0.10873629574E+02 -0.77782248368E+02  0.18482928211E+03  0.12500000000E+03 0.  0.
         25    1    1    2    0    0 -0.10343747631E+03  0.19917077714E+03 -0.10894212720E+04  0.11192997890E+04  0.12500000000E+03 0.  0.
         25    1    1    2    0    0 -0.77765045715E+01 -0.18829714757E+03 -0.21503312982E+03  0.31205854695E+03  0.12500000000E+03 0.  0.
</event>
<event>
 5    0  0.5713700E-005  0.3368398E+03  0.7546771E-02  0.1068150E+00
         21   -1    0    0  502  501  0.00000000000E+00  0.00000000000E+00  0.11431991570E+03  0.11431991570E+03  0.00000000000E+00 0.  1.
         21   -1    0    0  501  502 -0.00000000000E+00 -0.00000000000E+00 -0.99248712448E+03  0.99248712448E+03  0.00000000000E+00 0.  1.
         25    1    1    2    0    0 -0.14825991288E+03 -0.23122387700E+02 -0.46001993425E+03  0.49975892837E+03  0.12500000000E+03 0.  0.
         25    1    1    2    0    0  0.12941166307E+03 -0.75264539429E+02 -0.43830685911E+02  0.19989561891E+03  0.12500000000E+03 0.  0.
         25    1    1    2    0    0  0.18848249808E+02  0.98386927130E+02 -0.37431658862E+03  0.40715249289E+03  0.12500000000E+03 0.  0.
</event>
<event>
 5    0  0.5713700E-005  0.7845987E+03  0.7546771E-02  0.9582581E-01
         21   -1    0    0  502  501  0.00000000000E+00  0.00000000000E+00  0.30867815785E+03  0.30867815785E+03  0.00000000000E+00 0.  1.
         21   -1    0    0  501  502 -0.00000000000E+00 -0.00000000000E+00 -0.19942942468E+04  0.19942942468E+04  0.00000000000E+00 0.  1.
         25    1    1    2    0    0  0.22223860457E+03  0.13417009617E+03  0.21327813753E+03  0.35847479133E+03  0.12500000000E+03 0.  0.
         25    1    1    2    0    0 -0.12563532866E+02 -0.29941491606E+02 -0.96542488918E+03  0.97402492367E+03  0.12500000000E+03 0.  0.
         25    1    1    2    0    0 -0.20967507170E+03 -0.10422860457E+03 -0.93346933730E+03  0.97047268966E+03  0.12500000000E+03 0.  0.
</event>
<event>
 5    0  0.5713700E-005  0.3504972E+03  0.7546771E-02  0.1062411E+00
         21   -1    0    0  502  501  0.00000000000E+00  0.00000000000E+00  0.12733522613E+03  0.12733522613E+03  0.00000000000E+00 0.  1.
         21   -1    0    0  501  502 -0.00000000000E+00 -0.00000000000E+00 -0.96476260472E+03  0.96476260472E+03  0.00000000000E+00 0.  1.
         25    1    1    2    0    0 -0.22859134730E+03  0.84348579369E+02 -0.24663099660E+03  0.36853837708E+03  0.12500000000E+03 0.  0.
         25    1    1    2    0    0  0.33935274835E+02  0.34943344660E+02 -0.97621619184E+02  0.16591449830E+03  0.12500000000E+03 0.  0.
         25    1    1    2    0    0  0.19465607246E+03 -0.11929192403E+03 -0.49317476281E+03  0.55764495547E+03  0.12500000000E+03 0.  0.
</event>
<event>
 5    0  0.5948413E-005  0.3006527E+03  0.7546771E-02  0.1084915E+00
         21   -1    0    0  502  501  0.00000000000E+00  0.00000000000E+00  0.61543560025E+03  0.61543560025E+03  0.00000000000E+00 0. -1.
         21   -1    0    0  501  502 -0.00000000000E+00 -0.00000000000E+00 -0.14687486851E+03  0.14687486851E+03  0.00000000000E+00 0. -1.
         25    1    1    2    0    0 -0.55320713899E+02  0.63117768538E+02  0.33555104557E+03  0.36778218863E+03  0.12500000000E+03 0.  0.
         25    1    1    2    0    0 -0.49359894035E+02  0.60822094869E+02 -0.49413481062E+01  0.14759791084E+03  0.12500000000E+03 0.  0.
         25    1    1    2    0    0  0.10468060793E+03 -0.12393986341E+03  0.13795103428E+03  0.24693036929E+03  0.12500000000E+03 0.  0.
</event>
<event>
 5    0  0.5713700E-005  0.3937249E+03  0.7546771E-02  0.1045974E+00
         21   -1    0    0  502  501  0.00000000000E+00  0.00000000000E+00  0.25618816507E+03  0.25618816507E+03  0.00000000000E+00 0.  1.
         21   -1    0    0  501  502 -0.00000000000E+00 -0.00000000000E+00 -0.60509940386E+03  0.60509940386E+03  0.00000000000E+00 0.  1.
         25    1    1    2    0    0  0.94676853174E+02  0.19033612324E+03 -0.62304824224E+02  0.25435887533E+03  0.12500000000E+03 0.  0.
         25    1    1    2    0    0  0.89488116004E+01 -0.81674642696E+02  0.95710043410E+02  0.17758446131E+03  0.12500000000E+03 0.  0.
         25    1    1    2    0    0 -0.10362566477E+03 -0.10866148055E+03 -0.38231645798E+03  0.42934423228E+03  0.12500000000E+03 0.  0.
</event>
<event>
 5    0  0.5713700E-005  0.4315936E+03  0.7546771E-02  0.1033358E+00
         21   -1    0    0  502  501  0.00000000000E+00  0.00000000000E+00  0.28505546979E+03  0.28505546979E+03  0.00000000000E+00 0.  1.
         21   -1    0    0  501  502 -0.00000000000E+00 -0.00000000000E+00 -0.65346239700E+03  0.65346239700E+03  0.00000000000E+00 0.  1.
         25    1    1    2    0    0 -0.97580827415E+02  0.48526864180E+01 -0.10428356775E+03  0.18985686436E+03  0.12500000000E+03 0.  0.
         25    1    1    2    0    0 -0.22292086245E+03  0.16807196554E+03 -0.17872308941E+03  0.35427226706E+03  0.12500000000E+03 0.  0.
         25    1    1    2    0    0  0.32050168987E+03 -0.17292465196E+03 -0.85400270047E+02  0.39438873537E+03  0.12500000000E+03 0.  0.
</event>
<event>
 5    0  0.5713700E-005  0.3931034E+03  0.7546771E-02  0.1046194E+00
         21   -1    0    0  502  501  0.00000000000E+00  0.00000000000E+00  0.13732686082E+04  0.13732686082E+04  0.00000000000E+00 0. -1.
         21   -1    0    0  501  502 -0.00000000000E+00 -0.00000000000E+00 -0.11252734103E+03  0.11252734103E+03  0.00000000000E+00 0. -1.
         25    1    1    2    0    0  0.28447609484E+03 -0.83410252069E+01  0.67628028349E+03  0.74429580348E+03  0.12500000000E+03 0.  0.
         25    1    1    2    0    0 -0.23601077102E+03  0.70631672730E+02  0.50000706840E+03  0.57124599402E+03  0.12500000000E+03 0.  0.
         25    1    1    2    0    0 -0.48465323814E+02 -0.62290647523E+02  0.84453915323E+02  0.17025415177E+03  0.12500000000E+03 0.  0.
</event>
<event>
 5    0  0.5713700E-005  0.4021406E+03  0.7546771E-02  0.1043041E+00
         21   -1    0    0  502  501  0.00000000000E+00  0.00000000000E+00  0.12945494221E+03  0.12945494221E+03  0.00000000000E+00 0. -1.
         21   -1    0    0  501  502 -0.00000000000E+00 -0.00000000000E+00 -0.12492152147E+04  0.12492152147E+04  0.00000000000E+00 0. -1.
         25    1    1    2    0    0 -0.97112069579E+02 -0.11659783518E+03 -0.67902400451E+03  0.70691188130E+03  0.12500000000E+03 0.  0.
         25    1    1    2    0    0  0.64386937517E+02  0.24703855923E+03 -0.13395976712E+03  0.31423549557E+03  0.12500000000E+03 0.  0.
         25    1    1    2    0    0  0.32725132062E+02 -0.13044072405E+03 -0.30677650085E+03  0.35752278002E+03  0.12500000000E+03 0.  0.
</event>
<event>
 5    0  0.5713700E-005  0.3493847E+03  0.7546771E-02  0.1062868E+00
         21   -1    0    0  502  501  0.00000000000E+00  0.00000000000E+00  0.35313256554E+04  0.35313256554E+04  0.00000000000E+00 0.  1.
         21   -1    0    0  501  502 -0.00000000000E+00 -0.00000000000E+00 -0.34567667255E+02  0.34567667255E+02  0.00000000000E+00 0.  1.
         25    1    1    2    0    0 -0.29439396991E+02  0.81402511390E+02  0.10931352236E+04  0.11036587625E+04  0.12500000000E+03 0.  0.
         25    1    1    2    0    0  0.18346862153E+03  0.11741538214E+03  0.10277817233E+04  0.10580204997E+04  0.12500000000E+03 0.  0.
         25    1    1    2    0    0 -0.15402922454E+03 -0.19881789353E+03  0.13758410412E+04  0.14042140604E+04  0.12500000000E+03 0.  0.
</event>
<event>
 5    0  0.5713700E-005  0.2790885E+03  0.7546771E-02  0.1096188E+00
         21   -1    0    0  502  501  0.00000000000E+00  0.00000000000E+00  0.48005201893E+03  0.48005201893E+03  0.00000000000E+00 0. -1.
         21   -1    0    0  501  502 -0.00000000000E+00 -0.00000000000E+00 -0.16225412174E+03  0.16225412174E+03  0.00000000000E+00 0. -1.
         25    1    1    2    0    0  0.55830910278E+02  0.12961752810E+02 -0.73174248120E+02  0.15577088356E+03  0.12500000000E+03 0.  0.
         25    1    1    2    0    0 -0.31916445298E+02  0.12268118590E+02  0.87152536068E+02  0.15617211901E+03  0.12500000000E+03 0.  0.
         25    1    1    2    0    0 -0.23914464980E+02 -0.25229871400E+02  0.30381960925E+03  0.33036313809E+03  0.12500000000E+03 0.  0.
</event>
<event>
 5    0  0.5713700E-005  0.2431032E+03  0.7546771E-02  0.1117743E+00
         21   -1    0    0  502  501  0.00000000000E+00  0.00000000000E+00  0.21594117619E+03  0.21594117619E+03  0.00000000000E+00 0.  1.
         21   -1    0    0  501  502 -0.00000000000E+00 -0.00000000000E+00 -0.27368174694E+03  0.27368174694E+03  0.00000000000E+00 0.  1.
         25    1    1    2    0    0  0.35330278463E+02  0.14801340736E+02 -0.44003120628E+02  0.13794412959E+03  0.12500000000E+03 0.  0.
         25    1    1    2    0    0  0.60306397728E+02  0.42096292317E+02 -0.86850656998E+02  0.16904731898E+03  0.12500000000E+03 0.  0.
         25    1    1    2    0    0 -0.95636676191E+02 -0.56897633054E+02  0.73113206878E+02  0.18263147456E+03  0.12500000000E+03 0.  0.
</event>
<event>
 5    0  0.5713700E-005  0.2680454E+03  0.7546771E-02  0.1102404E+00
         21   -1    0    0  502  501  0.00000000000E+00  0.00000000000E+00  0.22915048830E+03  0.22915048830E+03  0.00000000000E+00 0.  1.
         21   -1    0    0  501  502 -0.00000000000E+00 -0.00000000000E+00 -0.31354211980E+03  0.31354211980E+03  0.00000000000E+00 0.  1.
         25    1    1    2    0    0 -0.73919146350E+01 -0.12800564504E+03 -0.28553443393E+02  0.18132949207E+03  0.12500000000E+03 0.  0.
         25    1    1    2    0    0  0.47939480563E+02  0.81425730151E+02  0.71778687428E+02  0.17235290336E+03  0.12500000000E+03 0.  0.
         25    1    1    2    0    0 -0.40547565928E+02  0.46579914892E+02 -0.12761687553E+03  0.18901021267E+03  0.12500000000E+03 0.  0.
</event>
<event>
 5    0  0.5713700E-005  0.3238621E+03  0.7546771E-02  0.1073885E+00
         21   -1    0    0  502  501  0.00000000000E+00  0.00000000000E+00  0.10199811832E+03  0.10199811832E+03  0.00000000000E+00 0. -1.
         21   -1    0    0  501  502 -0.00000000000E+00 -0.00000000000E+00 -0.10283195725E+04  0.10283195725E+04  0.00000000000E+00 0. -1.
         25    1    1    2    0    0 -0.73081395341E+02 -0.92757587922E+02 -0.54214953878E+03  0.56876707259E+03  0.12500000000E+03 0.  0.
         25    1    1    2    0    0 -0.58636804035E+01  0.92212239767E+02 -0.38339224998E+03  0.41370532660E+03  0.12500000000E+03 0.  0.
         25    1    1    2    0    0  0.78945075744E+02  0.54534815557E+00 -0.77966545015E+00  0.14784529166E+03  0.12500000000E+03 0.  0.
</event>
<event>
 5    0  0.5713700E-005  0.3701758E+03  0.7546771E-02  0.1054626E+00
         21   -1    0    0  502  501  0.00000000000E+00  0.00000000000E+00  0.75804119806E+03  0.75804119806E+03  0.00000000000E+00 0. -1.
         21   -1    0    0  501  502 -0.00000000000E+00 -0.00000000000E+00 -0.18076870450E+03  0.18076870450E+03  0.00000000000E+00 0. -1.
         25    1    1    2    0    0 -0.12237891184E+03  0.21982123422E+00  0.14659400292E+03  0.22823551011E+03  0.12500000000E+03 0.  0.
         25    1    1    2    0    0  0.23567332387E+03 -0.17421728810E+03  0.28706275944E+03  0.42886315639E+03  0.12500000000E+03 0.  0.
         25    1    1    2    0    0 -0.11329441203E+03  0.17399746686E+03  0.14361573121E+03  0.28171123606E+03  0.12500000000E+03 0.  0.
</event>
<event>
 5    0  0.5713700E-005  0.3910838E+03  0.7546771E-02  0.1046912E+00
         21   -1    0    0  502  501  0.00000000000E+00  0.00000000000E+00  0.16988453959E+03  0.16988453959E+03  0.00000000000E+00 0.  1.
         21   -1    0    0  501  502 -0.00000000000E+00 -0.00000000000E+00 -0.90029698076E+03  0.90029698076E+03  0.00000000000E+00 0.  1.
         25    1    1    2    0    0  0.20753426743E+03  0.16886863809E+03 -0.11407842410E+03  0.31658486372E+03  0.12500000000E+03 0.  0.
         25    1    1    2    0    0 -0.18191623908E+03 -0.18672652033E+03 -0.51125315378E+03  0.58733729550E+03  0.12500000000E+03 0.  0.
         25    1    1    2    0    0 -0.25618028349E+02  0.17857882236E+02 -0.10508086330E+03  0.16625936114E+03  0.12500000000E+03 0.  0.
</event>
<event>
 5    0  0.5713700E-005  0.3257788E+03  0.7546771E-02  0.1073020E+00
         21   -1    0    0  502  501  0.00000000000E+00  0.00000000000E+00  0.71684509858E+03  0.71684509858E+03  0.00000000000E+00 0. -1.
         21   -1    0    0  501  502 -0.00000000000E+00 -0.00000000000E+00 -0.14805401913E+03  0.14805401913E+03  0.00000000000E+00 0. -1.
         25    1    1    2    0    0  0.94253346051E+02  0.16332518822E+03  0.86641333037E+02  0.24226128651E+03  0.12500000000E+03 0.  0.
         25    1    1    2    0    0 -0.14153351771E+03 -0.70668067460E+02  0.14508983482E+03  0.24839841498E+03  0.12500000000E+03 0.  0.
         25    1    1    2    0    0  0.47280171659E+02 -0.92657120760E+02  0.33705991159E+03  0.37423941623E+03  0.12500000000E+03 0.  0.
</event>
<event>
 5    0  0.5713700E-005  0.3473671E+03  0.7546771E-02  0.1063701E+00
         21   -1    0    0  502  501  0.00000000000E+00  0.00000000000E+00  0.64310602448E+03  0.64310602448E+03  0.00000000000E+00 0. -1.
         21   -1    0    0  501  502 -0.00000000000E+00 -0.00000000000E+00 -0.18762676100E+03  0.18762676100E+03  0.00000000000E+00 0. -1.
         25    1    1    2    0    0 -0.21841723486E+03  0.23375459500E+02  0.50825914190E+02  0.25779987228E+03  0.12500000000E+03 0.  0.
         25    1    1    2    0    0  0.18091979512E+03 -0.36519216659E+02  0.37838517668E+03  0.43916507988E+03  0.12500000000E+03 0.  0.
         25    1    1    2    0    0  0.37497439745E+02  0.13143757160E+02  0.26268172612E+02  0.13376783332E+03  0.12500000000E+03 0.  0.
</event>
<event>
 5    0  0.5713700E-005  0.3578074E+03  0.7546771E-02  0.1059455E+00
         21   -1    0    0  502  501  0.00000000000E+00  0.00000000000E+00  0.12424272960E+03  0.12424272960E+03  0.00000000000E+00 0. -1.
         21   -1    0    0  501  502 -0.00000000000E+00 -0.00000000000E+00 -0.10304515319E+04  0.10304515319E+04  0.00000000000E+00 0. -1.
         25    1    1    2    0    0  0.24024959202E+03 -0.31085778141E+02 -0.64469486271E+03  0.69995904028E+03  0.12500000000E+03 0.  0.
         25    1    1    2    0    0 -0.20506197003E+03  0.25076980528E+02 -0.18171356559E+03  0.30219875318E+03  0.12500000000E+03 0.  0.
         25    1    1    2    0    0 -0.35187621987E+02  0.60087976126E+01 -0.79800374014E+02  0.15253646804E+03  0.12500000000E+03 0.  0.
</event>
<event>
 5    0  0.5713700E-005  0.2392994E+03  0.7546771E-02  0.1120260E+00
         21   -1    0    0  502  501  0.00000000000E+00  0.00000000000E+00  0.17874758945E+03  0.17874758945E+03  0.00000000000E+00 0. -1.
         21   -1    0    0  501  502 -0.00000000000E+00 -0.00000000000E+00 -0.32036362639E+03  0.32036362639E+03  0.00000000000E+00 0. -1.
         25    1    1    2    0    0 -0.23681182353E+02  0.12706614139E+02 -0.29098620096E+02  0.13112584082E+03  0.12500000000E+03 0.  0.
         25    1    1    2    0    0 -0.42614016267E+02 -0.80198807745E+02  0.28514635080E+02  0.15711743239E+03  0.12500000000E+03 0.  0.
         25    1    1    2    0    0  0.66295198620E+02  0.67492193606E+02 -0.14103205192E+03  0.21086794263E+03  0.12500000000E+03 0.  0.
</event>
<event>
 5    0  0.5713700E-005  0.2567565E+03  0.7546771E-02  0.1109108E+00
         21   -1    0    0  502  501  0.00000000000E+00  0.00000000000E+00  0.23429605565E+03  0.23429605565E+03  0.00000000000E+00 0.  1.
         21   -1    0    0  501  502 -0.00000000000E+00 -0.00000000000E+00 -0.28137012135E+03  0.28137012135E+03  0.00000000000E+00 0.  1.
         25    1    1    2    0    0  0.97215846463E+02 -0.87119936207E+02 -0.13791128449E+02  0.18126223907E+03  0.12500000000E+03 0.  0.
         25    1    1    2    0    0 -0.12892481290E+03  0.95714248059E+02 -0.19143729124E+02  0.20438763912E+03  0.12500000000E+03 0.  0.
         25    1    1    2    0    0  0.31708966433E+02 -0.85943118515E+01 -0.14139208134E+02  0.13001629881E+03  0.12500000000E+03 0.  0.
</event>
<event>
 5    0  0.5713700E-005  0.2532038E+03  0.7546771E-02  0.1111297E+00
         21   -1    0    0  502  501  0.00000000000E+00  0.00000000000E+00  0.30451638163E+02  0.30451638163E+02  0.00000000000E+00 0.  1.
         21   -1    0    0  501  502 -0.00000000000E+00 -0.00000000000E+00 -0.21053771592E+04  0.21053771592E+04  0.00000000000E+00 0.  1.
         25    1    1    2    0    0  0.33655946230E+02  0.17892587414E+02 -0.21299053827E+03  0.24988564743E+03  0.12500000000E+03 0.  0.
         25    1    1    2    0    0  0.98329414449E+01  0.66001571808E+02 -0.78839350554E+03  0.80102572606E+03  0.12500000000E+03 0.  0.
         25    1    1    2    0    0 -0.43488887675E+02 -0.83894159222E+02 -0.10735414772E+04  0.10849174238E+04  0.12500000000E+03 0.  0.
</event>
<event>
 5    0  0.5713700E-005  0.3334813E+03  0.7546771E-02  0.1069607E+00
         21   -1    0    0  502  501  0.00000000000E+00  0.00000000000E+00  0.12230395588E+03  0.12230395588E+03  0.00000000000E+00 0. -1.
         21   -1    0    0  501  502 -0.00000000000E+00 -0.00000000000E+00 -0.90929002016E+03  0.90929002016E+03  0.00000000000E+00 0. -1.
         25    1    1    2    0    0  0.15227486701E+02  0.13486744681E+03 -0.70665739992E+03  0.73034976924E+03  0.12500000000E+03 0.  0.
         25    1    1    2    0    0  0.40758584502E+01 -0.50477728694E+02 -0.60817899656E+02  0.14794739144E+03  0.12500000000E+03 0.  0.
         25    1    1    2    0    0 -0.19303345151E+02 -0.84389718119E+02 -0.19510764704E+02  0.15329681535E+03  0.12500000000E+03 0.  0.
</event>
<event>
 5    0  0.5713700E-005  0.2557944E+03  0.7546771E-02  0.1109697E+00
         21   -1    0    0  502  501  0.00000000000E+00  0.00000000000E+00  0.24026252885E+03  0.24026252885E+03  0.00000000000E+00 0.  1.
         21   -1    0    0  501  502 -0.00000000000E+00 -0.00000000000E+00 -0.27233024491E+03  0.27233024491E+03  0.00000000000E+00 0.  1.
         25    1    1    2    0    0  0.10398481798E+03  0.70494331904E+02 -0.69007135420E+02  0.19018222299E+03  0.12500000000E+03 0.  0.
         25    1    1    2    0    0 -0.11098552502E+03 -0.95177350204E+02  0.15102907414E+02  0.19294976696E+03  0.12500000000E+03 0.  0.
         25    1    1    2    0    0  0.70007070438E+01  0.24683018300E+02  0.21836511951E+02  0.12946078381E+03  0.12500000000E+03 0.  0.
</event>
<event>
 5    0  0.5713700E-005  0.2694742E+03  0.7546771E-02  0.1101581E+00
         21   -1    0    0  502  501  0.00000000000E+00  0.00000000000E+00  0.32832120390E+03  0.32832120390E+03  0.00000000000E+00 0. -1.
         21   -1    0    0  501  502 -0.00000000000E+00 -0.00000000000E+00 -0.22117468239E+03  0.22117468239E+03  0.00000000000E+00 0. -1.
         25    1    1    2    0    0  0.32524239573E+02 -0.60234844636E+02 -0.57266272982E+01  0.14263189310E+03  0.12500000000E+03 0.  0.
         25    1    1    2    0    0  0.30539357701E+02 -0.57705166700E+02  0.16448697072E+03  0.21666449217E+03  0.12500000000E+03 0.  0.
         25    1    1    2    0    0 -0.63063597273E+02  0.11794001134E+03 -0.51613821915E+02  0.19019950102E+03  0.12500000000E+03 0.  0.
</event>
<event>
 5    0  0.5713700E-005  0.2064906E+03  0.7546771E-02  0.1144376E+00
         21   -1    0    0  502  501  0.00000000000E+00  0.00000000000E+00  0.12173837183E+03  0.12173837183E+03  0.00000000000E+00 0.  1.
         21   -1    0    0  501  502 -0.00000000000E+00 -0.00000000000E+00 -0.35024595389E+03  0.35024595389E+03  0.00000000000E+00 0.  1.
         25    1    1    2    0    0  0.48868507415E+02 -0.37144406316E+02 -0.35677736099E+02  0.14375583046E+03  0.12500000000E+03 0.  0.
         25    1    1    2    0    0 -0.40410578795E+02  0.47743503855E+02 -0.10609187167E+03  0.17547917903E+03  0.12500000000E+03 0.  0.
         25    1    1    2    0    0 -0.84579286198E+01 -0.10599097539E+02 -0.86737974289E+02  0.15274931623E+03  0.12500000000E+03 0.  0.
</event>
<event>
 5    0  0.5713700E-005  0.2871113E+03  0.7546771E-02  0.1091867E+00
         21   -1    0    0  502  501  0.00000000000E+00  0.00000000000E+00  0.25015043925E+03  0.25015043925E+03  0.00000000000E+00 0. -1.
         21   -1    0    0  501  502 -0.00000000000E+00 -0.00000000000E+00 -0.32953326648E+03  0.32953326648E+03  0.00000000000E+00 0. -1.
         25    1    1    2    0    0 -0.14400589388E+02 -0.12794774995E+03 -0.14022912449E+03  0.22774373986E+03  0.12500000000E+03 0.  0.
         25    1    1    2    0    0  0.22017666650E+02  0.92273290979E+02  0.13065549311E+03  0.20419352525E+03  0.12500000000E+03 0.  0.
         25    1    1    2    0    0 -0.76170772618E+01  0.35674458975E+02 -0.69809195862E+02  0.14774644062E+03  0.12500000000E+03 0.  0.
</event>
<event>
 5    0  0.5713700E-005  0.2326915E+03  0.7546771E-02  0.1124760E+00
         21   -1    0    0  502  501  0.00000000000E+00  0.00000000000E+00  0.11711568602E+03  0.11711568602E+03  0.00000000000E+00 0. -1.
         21   -1    0    0  501  502 -0.00000000000E+00 -0.00000000000E+00 -0.46232360816E+03  0.46232360816E+03  0.00000000000E+00 0. -1.
         25    1    1    2    0    0 -0.26145051924E+02  0.23535911626E+02 -0.15908957229E+01  0.12986544508E+03  0.12500000000E+03 0.  0.
         25    1    1    2    0    0  0.54550414357E+02 -0.40450116587E+02 -0.10037996511E+03  0.17410656804E+03  0.12500000000E+03 0.  0.
         25    1    1    2    0    0 -0.28405362433E+02  0.16914204961E+02 -0.24323706131E+03  0.27546728107E+03  0.12500000000E+03 0.  0.
</event>
<event>
 5    0  0.5713700E-005  0.2562864E+03  0.7546771E-02  0.1109395E+00
         21   -1    0    0  502  501  0.00000000000E+00  0.00000000000E+00  0.21914625518E+03  0.21914625518E+03  0.00000000000E+00 0.  1.
         21   -1    0    0  501  502 -0.00000000000E+00 -0.00000000000E+00 -0.29972094777E+03  0.29972094777E+03  0.00000000000E+00 0.  1.
         25    1    1    2    0    0 -0.55943117449E+00 -0.31799315907E+02 -0.55137811735E+02  0.14027361740E+03  0.12500000000E+03 0.  0.
         25    1    1    2    0    0 -0.56458434906E+02 -0.68939649658E+02  0.85090759928E+02  0.17551543406E+03  0.12500000000E+03 0.  0.
         25    1    1    2    0    0  0.57017866081E+02  0.10073896557E+03 -0.11052764079E+03  0.20307815149E+03  0.12500000000E+03 0.  0.
</event>
<event>
 5    0  0.5713700E-005  0.2326402E+03  0.7546771E-02  0.1124795E+00
         21   -1    0    0  502  501  0.00000000000E+00  0.00000000000E+00  0.29435661317E+03  0.29435661317E+03  0.00000000000E+00 0. -1.
         21   -1    0    0  501  502 -0.00000000000E+00 -0.00000000000E+00 -0.18386364720E+03  0.18386364720E+03  0.00000000000E+00 0. -1.
         25    1    1    2    0    0  0.46647173609E+02  0.22575854605E+02  0.13186889858E+03  0.18894452739E+03  0.12500000000E+03 0.  0.
         25    1    1    2    0    0 -0.77465471718E+02  0.34120084006E+01  0.26532980489E+02  0.14947086727E+03  0.12500000000E+03 0.  0.
         25    1    1    2    0    0  0.30818298109E+02 -0.25987863006E+02 -0.47908913093E+02  0.13980486571E+03  0.12500000000E+03 0.  0.
</event>
<event>
 5    0  0.5713700E-005  0.4474535E+03  0.7546771E-02  0.1028484E+00
         21   -1    0    0  502  501  0.00000000000E+00  0.00000000000E+00  0.11971666631E+04  0.11971666631E+04  0.00000000000E+00 0.  1.
         21   -1    0    0  501  502 -0.00000000000E+00 -0.00000000000E+00 -0.16724042051E+03  0.16724042051E+03  0.00000000000E+00 0.  1.
         25    1    1    2    0    0 -0.37636431837E+01  0.11145026136E+03  0.71154086237E+02  0.18199788393E+03  0.12500000000E+03 0.  0.
         25    1    1    2    0    0 -0.22604147817E+03 -0.19054616823E+03  0.80991853340E+03  0.87120354845E+03  0.12500000000E+03 0.  0.
         25    1    1    2    0    0  0.22980512135E+03  0.79095906864E+02  0.14885362294E+03  0.31120565121E+03  0.12500000000E+03 0.  0.
</event>
<event>
 5    0  0.5713700E-005  0.4248460E+03  0.7546771E-02  0.1035501E+00
         21   -1    0    0  502  501  0.00000000000E+00  0.00000000000E+00  0.67465291574E+03  0.67465291574E+03  0.00000000000E+00 0.  1.
         21   -1    0    0  501  502 -0.00000000000E+00 -0.00000000000E+00 -0.26753620851E+03  0.26753620851E+03  0.00000000000E+00 0.  1.
         25    1    1    2    0    0 -0.12063754682E+03  0.39674960704E+02  0.20092469268E+03  0.26855772627E+03  0.12500000000E+03 0.  0.
         25    1    1    2    0    0 -0.14242973022E+03  0.71545560564E+02  0.28726121985E+03  0.35149538221E+03  0.12500000000E+03 0.  0.
         25    1    1    2    0    0  0.26306727705E+03 -0.11122052127E+03 -0.81069205294E+02  0.32213601576E+03  0.12500000000E+03 0.  0.
</event>
<event>
 5    0  0.5713700E-005  0.3117192E+03  0.7546771E-02  0.1079525E+00
         21   -1    0    0  502  501  0.00000000000E+00  0.00000000000E+00  0.17363633384E+03  0.17363633384E+03  0.00000000000E+00 0. -1.
         21   -1    0    0  501  502 -0.00000000000E+00 -0.00000000000E+00 -0.55961121673E+03  0.55961121673E+03  0.00000000000E+00 0.  1.
         25    1    1    2    0    0 -0.93829259908E+02 -0.14241058280E+03 -0.57449199354E+02  0.21911210513E+03  0.12500000000E+03 0.  0.
         25    1    1    2    0    0  0.12406061489E+03  0.18811801357E+03 -0.23431482083E+03  0.34829277692E+03  0.12500000000E+03 0.  0.
         25    1    1    2    0    0 -0.30231354986E+02 -0.45707430767E+02 -0.94210862709E+02  0.16584266853E+03  0.12500000000E+03 0.  0.
</event>
<event>
 5    0  0.7508859E-005  0.8735395E+03  0.7546771E-02  0.9459277E-01
         21   -1    0    0  502  501  0.00000000000E+00  0.00000000000E+00  0.95660082996E+03  0.95660082996E+03  0.00000000000E+00 0.  1.
         21   -1    0    0  501  502 -0.00000000000E+00 -0.00000000000E+00 -0.79769033742E+03  0.79769033742E+03  0.00000000000E+00 0.  1.
         25    1    1    2    0    0  0.22116619954E+03  0.21892233839E+03 -0.57565964960E+03  0.66622106710E+03  0.12500000000E+03 0.  0.
         25    1    1    2    0    0  0.53735043711E+02  0.21864950629E+03  0.15058796974E+03  0.29832331145E+03  0.12500000000E+03 0.  0.
         25    1    1    2    0    0 -0.27490124325E+03 -0.43757184468E+03  0.58398217240E+03  0.78974678884E+03  0.12500000000E+03 0.  0.
</event>
<event>
 5    0  0.5713700E-005  0.2758852E+03  0.7546771E-02  0.1097958E+00
         21   -1    0    0  502  501  0.00000000000E+00  0.00000000000E+00  0.76487994528E+03  0.76487994528E+03  0.00000000000E+00 0. -1.
         21   -1    0    0  501  502 -0.00000000000E+00 -0.00000000000E+00 -0.99509233913E+02  0.99509233913E+02  0.00000000000E+00 0. -1.
         25    1    1    2    0    0 -0.14198240965E+02 -0.67625139835E+02  0.42708256846E+03  0.45033239931E+03  0.12500000000E+03 0.  0.
         25    1    1    2    0    0  0.10683273586E+03 -0.74085701843E+01  0.13431426217E+03  0.21244632589E+03  0.12500000000E+03 0.  0.
         25    1    1    2    0    0 -0.92634494893E+02  0.75033710019E+02  0.10397388074E+03  0.20161045399E+03  0.12500000000E+03 0.  0.
</event>
<event>
 5    0  0.5713700E-005  0.3814477E+03  0.7546771E-02  0.1050400E+00
         21   -1    0    0  502  501  0.00000000000E+00  0.00000000000E+00  0.19987613209E+03  0.19987613209E+03  0.00000000000E+00 0.  1.
         21   -1    0    0  501  502 -0.00000000000E+00 -0.00000000000E+00 -0.72796268391E+03  0.72796268391E+03  0.00000000000E+00 0.  1.
         25    1    1    2    0    0  0.22557491822E+03  0.10409251126E+03 -0.16965728922E+03  0.32577275886E+03  0.12500000000E+03 0.  0.
         25    1    1    2    0    0 -0.54611028955E+02 -0.20476085501E+03 -0.14881912495E+03  0.28754391696E+03  0.12500000000E+03 0.  0.
         25    1    1    2    0    0 -0.17096388926E+03  0.10066834375E+03 -0.20961013765E+03  0.31452214019E+03  0.12500000000E+03 0.  0.
</event>
<event>
 5    0  0.5713700E-005  0.3046626E+03  0.7546771E-02  0.1082933E+00
         21   -1    0    0  502  501  0.00000000000E+00  0.00000000000E+00  0.22112584410E+03  0.22112584410E+03  0.00000000000E+00 0.  1.
         21   -1    0    0  501  502 -0.00000000000E+00 -0.00000000000E+00 -0.41975786306E+03  0.41975786306E+03  0.00000000000E+00 0.  1.
         25    1    1    2    0    0 -0.66163980848E+02  0.17322622909E+03  0.35929066151E+02  0.22649701234E+03  0.12500000000E+03 0.  0.
         25    1    1    2    0    0  0.59356663822E+02 -0.16097988971E+03 -0.11785684277E+03  0.24280233487E+03  0.12500000000E+03 0.  0.
         25    1    1    2    0    0  0.68073170257E+01 -0.12246339376E+02 -0.11670424234E+03  0.17158435993E+03  0.12500000000E+03 0.  0.
</event>
<event>
 5    0  0.5713700E-005  0.4134878E+03  0.7546771E-02  0.1039207E+00
         21   -1    0    0  502  501  0.00000000000E+00  0.00000000000E+00  0.12345880684E+04  0.12345880684E+04  0.00000000000E+00 0.  1.
         21   -1    0    0  501  502 -0.00000000000E+00 -0.00000000000E+00 -0.13848519796E+03  0.13848519796E+03  0.00000000000E+00 0. -1.
         25    1    1    2    0    0 -0.97750282495E+02  0.29592400411E+03  0.38007062238E+03  0.50715363741E+03  0.12500000000E+03 0.  0.
         25    1    1    2    0    0 -0.77349120738E+02 -0.52730342621E+02  0.29964355212E+03  0.33789737175E+03  0.12500000000E+03 0.  0.
         25    1    1    2    0    0  0.17509940323E+03 -0.24319366149E+03  0.41638869595E+03  0.52802225722E+03  0.12500000000E+03 0.  0.
</event>
<event>
 5    0  0.5713700E-005  0.3766484E+03  0.7546771E-02  0.1052180E+00
         21   -1    0    0  502  501  0.00000000000E+00  0.00000000000E+00  0.11254621320E+04  0.11254621320E+04  0.00000000000E+00 0. -1.
         21   -1    0    0  501  502 -0.00000000000E+00 -0.00000000000E+00 -0.12604958795E+03  0.12604958795E+03  0.00000000000E+00 0. -1.
         25    1    1    2    0    0  0.53718468772E+02  0.21921145183E+02 -0.32895366397E+02  0.14168032899E+03  0.12500000000E+03 0.  0.
         25    1    1    2    0    0 -0.14911254589E+03  0.49002005210E+02  0.32630486698E+03  0.38306084904E+03  0.12500000000E+03 0.  0.
         25    1    1    2    0    0  0.95394077115E+02 -0.70923150393E+02  0.70600304343E+03  0.72677054188E+03  0.12500000000E+03 0.  0.
</event>
<event>
 5    0  0.6087336E-005  0.4116587E+03  0.7546771E-02  0.1039816E+00
         21   -1    0    0  502  501  0.00000000000E+00  0.00000000000E+00  0.24166375549E+03  0.24166375549E+03  0.00000000000E+00 0. -1.
         21   -1    0    0  501  502 -0.00000000000E+00 -0.00000000000E+00 -0.70123402761E+03  0.70123402761E+03  0.00000000000E+00 0. -1.
         25    1    1    2    0    0  0.11997837550E+03 -0.24363572013E+03 -0.22691335813E+03  0.37532365607E+03  0.12500000000E+03 0.  0.
         25    1    1    2    0    0 -0.12444415331E+03  0.29126244043E+02  0.55498435016E+02  0.18718910672E+03  0.12500000000E+03 0.  0.
         25    1    1    2    0    0  0.44657778165E+01  0.21450947609E+03 -0.28815534901E+03  0.38038502030E+03  0.12500000000E+03 0.  0.
</event>
<event>
 5    0  0.5713700E-005  0.2218729E+03  0.7546771E-02  0.1132494E+00
         21   -1    0    0  502  501  0.00000000000E+00  0.00000000000E+00  0.41752234965E+03  0.41752234965E+03  0.00000000000E+00 0.  1.
         21   -1    0    0  501  502 -0.00000000000E+00 -0.00000000000E+00 -0.11790411411E+03  0.11790411411E+03  0.00000000000E+00 0.  1.
         25    1    1    2    0    0 -0.30642232829E+02  0.11562672523E+02  0.14300079992E+03  0.19273523447E+03  0.12500000000E+03 0.  0.
         25    1    1    2    0    0 -0.44664535699E+02 -0.66267010601E+02  0.87117979161E+02  0.17204877139E+03  0.12500000000E+03 0.  0.
         25    1    1    2    0    0  0.75306768528E+02  0.54704338077E+02  0.69499456455E+02  0.17064245790E+03  0.12500000000E+03 0.  0.
</event>
<event>
 5    0  0.6405406E-005  0.3367405E+03  0.7546771E-02  0.1068193E+00
         21   -1    0    0  502  501  0.00000000000E+00  0.00000000000E+00  0.31178399175E+03  0.31178399175E+03  0.00000000000E+00 0.  1.
         21   -1    0    0  501  502 -0.00000000000E+00 -0.00000000000E+00 -0.36369462138E+03  0.36369462138E+03  0.00000000000E+00 0.  1.
         25    1    1    2    0    0  0.10722328925E+03  0.49208611326E+02  0.15504075743E+03  0.23147560919E+03  0.12500000000E+03 0.  0.
         25    1    1    2    0    0  0.37425795990E+02 -0.12834716059E+03 -0.12404940391E+03  0.22110390871E+03  0.12500000000E+03 0.  0.
         25    1    1    2    0    0 -0.14464908524E+03  0.79138549267E+02 -0.82901983158E+02  0.22289909523E+03  0.12500000000E+03 0.  0.
</event>
<event>
 5    0  0.5713700E-005  0.3979885E+03  0.7546771E-02  0.1044478E+00
         21   -1    0    0  502  501  0.00000000000E+00  0.00000000000E+00  0.10417871189E+04  0.10417871189E+04  0.00000000000E+00 0. -1.
         21   -1    0    0  501  502 -0.00000000000E+00 -0.00000000000E+00 -0.15204150235E+03  0.15204150235E+03  0.00000000000E+00 0. -1.
         25    1    1    2    0    0  0.28733778223E+03  0.33437935596E+02  0.51502780528E+03  0.60378782436E+03  0.12500000000E+03 0.  0.
         25    1    1    2    0    0 -0.24527297458E+03 -0.31830598992E+02  0.36431106703E+03  0.45773308014E+03  0.12500000000E+03 0.  0.
         25    1    1    2    0    0 -0.42064807659E+02 -0.16073366033E+01  0.10406744190E+02  0.13230771670E+03  0.12500000000E+03 0.  0.
</event>
<event>
 5    0  0.5713700E-005  0.3324583E+03  0.7546771E-02  0.1070054E+00
         21   -1    0    0  502  501  0.00000000000E+00  0.00000000000E+00  0.46600824001E+03  0.46600824001E+03  0.00000000000E+00 0. -1.
         21   -1    0    0  501  502 -0.00000000000E+00 -0.00000000000E+00 -0.23718150052E+03  0.23718150052E+03  0.00000000000E+00 0. -1.
         25    1    1    2    0    0  0.11728687900E+02  0.66163681882E+02  0.88368509404E+02  0.16718010759E+03  0.12500000000E+03 0.  0.
         25    1    1    2    0    0 -0.55128924049E+02 -0.21994188081E+03  0.19707447317E+03  0.32538742627E+03  0.12500000000E+03 0.  0.
         25    1    1    2    0    0  0.43400236149E+02  0.15377819893E+03 -0.56616243082E+02  0.21062220667E+03  0.12500000000E+03 0.  0.
</event>
<event>
 5    0  0.5713700E-005  0.2532363E+03  0.7546771E-02  0.1111277E+00
         21   -1    0    0  502  501  0.00000000000E+00  0.00000000000E+00  0.40659791542E+03  0.40659791542E+03  0.00000000000E+00 0.  1.
         21   -1    0    0  501  502 -0.00000000000E+00 -0.00000000000E+00 -0.15771993966E+03  0.15771993966E+03  0.00000000000E+00 0.  1.
         25    1    1    2    0    0 -0.22748617994E+02  0.49435512914E+02 -0.32327754443E+02  0.14011228806E+03  0.12500000000E+03 0.  0.
         25    1    1    2    0    0  0.46895956456E+02 -0.80102637219E+02  0.24155124071E+03  0.28738069718E+03  0.12500000000E+03 0.  0.
         25    1    1    2    0    0 -0.24147338462E+02  0.30667124304E+02  0.39654489488E+02  0.13682486983E+03  0.12500000000E+03 0.  0.
</event>
<event>
 5    0  0.5713700E-005  0.3834625E+03  0.7546771E-02  0.1049661E+00
         21   -1    0    0  502  501  0.00000000000E+00  0.00000000000E+00  0.12419822491E+03  0.12419822491E+03  0.00000000000E+00 0.  1.
         21   -1    0    0  501  502 -0.00000000000E+00 -0.00000000000E+00 -0.11839417956E+04  0.11839417956E+04  0.00000000000E+00 0.  1.
         25    1    1    2    0    0  0.23361061256E+03 -0.72240291590E+02 -0.52821283821E+03  0.59533719897E+03  0.12500000000E+03 0.  0.
         25    1    1    2    0    0 -0.21496923970E+03  0.18148354969E+03 -0.34835558973E+03  0.46489210546E+03  0.12500000000E+03 0.  0.
         25    1    1    2    0    0 -0.18641372860E+02 -0.10924325810E+03 -0.18317514276E+03  0.24791071608E+03  0.12500000000E+03 0.  0.
</event>
<event>
 5    0  0.5713700E-005  0.2290887E+03  0.7546771E-02  0.1127283E+00
         21   -1    0    0  502  501  0.00000000000E+00  0.00000000000E+00  0.47838817748E+02  0.47838817748E+02  0.00000000000E+00 0. -1.
         21   -1    0    0  501  502 -0.00000000000E+00 -0.00000000000E+00 -0.10970508132E+04  0.10970508132E+04  0.00000000000E+00 0. -1.
         25    1    1    2    0    0  0.56616198153E+02  0.58743934686E+01 -0.55680573366E+03  0.57349588266E+03  0.12500000000E+03 0.  0.
         25    1    1    2    0    0 -0.95905053554E+02  0.41045950292E+01 -0.29028228373E+03  0.33030808534E+03  0.12500000000E+03 0.  0.
         25    1    1    2    0    0  0.39288855401E+02 -0.99789884978E+01 -0.20212397809E+03  0.24108566297E+03  0.12500000000E+03 0.  0.
</event>
<event>
 5    0  0.5713700E-005  0.2908998E+03  0.7546771E-02  0.1089880E+00
         21   -1    0    0  502  501  0.00000000000E+00  0.00000000000E+00  0.39249895346E+03  0.39249895346E+03  0.00000000000E+00 0.  1.
         21   -1    0    0  501  502 -0.00000000000E+00 -0.00000000000E+00 -0.21559978122E+03  0.21559978122E+03  0.00000000000E+00 0.  1.
         25    1    1    2    0    0 -0.94575564379E+02 -0.15695050671E+02  0.38793732308E+02  0.16223694296E+03  0.12500000000E+03 0.  0.
         25    1    1    2    0    0  0.61839661062E+02 -0.12401270070E+03  0.17054811863E+03  0.25281407078E+03  0.12500000000E+03 0.  0.
         25    1    1    2    0    0  0.32735903317E+02  0.13970775137E+03 -0.32442678696E+02  0.19304772094E+03  0.12500000000E+03 0.  0.
</event>
<event>
 5    0  0.5779173E-005  0.2844330E+03  0.7546771E-02  0.1093292E+00
         21   -1    0    0  502  501  0.00000000000E+00  0.00000000000E+00  0.11433809974E+03  0.11433809974E+03  0.00000000000E+00 0.  1.
         21   -1    0    0  501  502 -0.00000000000E+00 -0.00000000000E+00 -0.70756945422E+03  0.70756945422E+03  0.00000000000E+00 0.  1.
         25    1    1    2    0    0  0.13067012081E+03  0.87215859527E+02 -0.34835113655E+03  0.40206318031E+03  0.12500000000E+03 0.  0.
         25    1    1    2    0    0 -0.12819539659E+03 -0.77011903997E+02 -0.21635190697E+03  0.29120103144E+03  0.12500000000E+03 0.  0.
         25    1    1    2    0    0 -0.24747242261E+01 -0.10203955530E+02 -0.28528310971E+02  0.12864334221E+03  0.12500000000E+03 0.  0.
</event>
<event>
 5    0  0.5713700E-005  0.2617194E+03  0.7546771E-02  0.1106115E+00
         21   -1    0    0  502  501  0.00000000000E+00  0.00000000000E+00  0.66197546931E+02  0.66197546931E+02  0.00000000000E+00 0. -1.
         21   -1    0    0  501  502 -0.00000000000E+00 -0.00000000000E+00 -0.10347366201E+04  0.10347366201E+04  0.00000000000E+00 0. -1.
         25    1    1    2    0    0  0.27899059280E+02 -0.72321791106E+02 -0.31836557889E+03  0.35069992986E+03  0.12500000000E+03 0.  0.
         25    1    1    2    0    0 -0.13766937098E+03 -0.13553377441E+02 -0.34694332930E+03  0.39386701244E+03  0.12500000000E+03 0.  0.
         25    1    1    2    0    0  0.10977031170E+03  0.85875168546E+02 -0.30323016493E+03  0.35636722468E+03  0.12500000000E+03 0.  0.
</event>
<event>
 5    0  0.5713700E-005  0.3491572E+03  0.7546771E-02  0.1062962E+00
         21   -1    0    0  502  501  0.00000000000E+00  0.00000000000E+00  0.28201743516E+03  0.28201743516E+03  0.00000000000E+00 0.  1.
         21   -1    0    0  501  502 -0.00000000000E+00 -0.00000000000E+00 -0.43228077882E+03  0.43228077882E+03  0.00000000000E+00 0.  1.
         25    1    1    2    0    0 -0.15491318967E+03  0.11126504732E+03 -0.11975013205E+03  0.25757154582E+03  0.12500000000E+03 0.  0.
         25    1    1    2    0    0  0.15031976421E+03  0.45690692655E+02  0.92788672572E+02  0.22117506339E+03  0.12500000000E+03 0.  0.
         25    1    1    2    0    0  0.45934254632E+01 -0.15695573997E+03 -0.12330188418E+03  0.23555160477E+03  0.12500000000E+03 0.  0.
</event>
<event>
 5    0  0.5713700E-005  0.1957246E+03  0.7546771E-02  0.1153397E+00
         21   -1    0    0  502  501  0.00000000000E+00  0.00000000000E+00  0.74805892725E+03  0.74805892725E+03  0.00000000000E+00 0. -1.
         21   -1    0    0  501  502 -0.00000000000E+00 -0.00000000000E+00 -0.51210005456E+02  0.51210005456E+02  0.00000000000E+00 0. -1.
         25    1    1    2    0    0 -0.17573719292E+02  0.54506835442E+01  0.19396934252E+03  0.23149006760E+03  0.12500000000E+03 0.  0.
         25    1    1    2    0    0  0.10774652809E+02 -0.17411409385E+02  0.33406964900E+03  0.35727689640E+03  0.12500000000E+03 0.  0.
         25    1    1    2    0    0  0.67990664835E+01  0.11960725841E+02  0.16880993028E+03  0.21050196870E+03  0.12500000000E+03 0.  0.
</event>
<event>
 5    0  0.5713700E-005  0.3218262E+03  0.7546771E-02  0.1074812E+00
         21   -1    0    0  502  501  0.00000000000E+00  0.00000000000E+00  0.13647009379E+03  0.13647009379E+03  0.00000000000E+00 0.  1.
         21   -1    0    0  501  502 -0.00000000000E+00 -0.00000000000E+00 -0.75893614573E+03  0.75893614573E+03  0.00000000000E+00 0.  1.
         25    1    1    2    0    0 -0.15807761938E+03  0.11607102588E+03 -0.24754835215E+03  0.33965600753E+03  0.12500000000E+03 0.  0.
         25    1    1    2    0    0  0.21656568908E+03 -0.92772602710E+02 -0.27966910228E+03  0.38645473250E+03  0.12500000000E+03 0.  0.
         25    1    1    2    0    0 -0.58488069699E+02 -0.23298423172E+02 -0.95248597509E+02  0.16929549949E+03  0.12500000000E+03 0.  0.
</event>
<event>
 5    0  0.5713700E-005  0.4099038E+03  0.7546771E-02  0.1040403E+00
         21   -1    0    0  502  501  0.00000000000E+00  0.00000000000E+00  0.48659934777E+03  0.48659934777E+03  0.00000000000E+00 0. -1.
         21   -1    0    0  501  502 -0.00000000000E+00 -0.00000000000E+00 -0.34529661965E+03  0.34529661965E+03  0.00000000000E+00 0. -1.
         25    1    1    2    0    0 -0.23487016850E+03  0.21165009646E+03  0.18255836263E+02  0.34046737721E+03  0.12500000000E+03 0.  0.
         25    1    1    2    0    0  0.96790997379E+02 -0.19651849152E+03  0.16304466784E+03  0.30032745195E+03  0.12500000000E+03 0.  0.
         25    1    1    2    0    0  0.13807917112E+03 -0.15131604944E+02 -0.39997775975E+02  0.19110113827E+03  0.12500000000E+03 0.  0.
</event>
<event>
 5    0  0.5713700E-005  0.3766329E+03  0.7546771E-02  0.1052185E+00
         21   -1    0    0  502  501  0.00000000000E+00  0.00000000000E+00  0.39527837683E+04  0.39527837683E+04  0.00000000000E+00 0. -1.
         21   -1    0    0  501  502 -0.00000000000E+00 -0.00000000000E+00 -0.35886688804E+02  0.35886688804E+02  0.00000000000E+00 0. -1.
         25    1    1    2    0    0  0.15238585713E+03  0.20056901396E+03  0.23870741143E+04  0.24035800811E+04  0.12500000000E+03 0.  0.
         25    1    1    2    0    0 -0.21540313843E+02 -0.43334272613E+02  0.92215157978E+03  0.93184246544E+03  0.12500000000E+03 0.  0.
         25    1    1    2    0    0 -0.13084554329E+03 -0.15723474134E+03  0.60767138543E+03  0.65324791064E+03  0.12500000000E+03 0.  0.
</event>
<event>
 5    0  0.5713700E-005  0.3587277E+03  0.7546771E-02  0.1059089E+00
         21   -1    0    0  502  501  0.00000000000E+00  0.00000000000E+00  0.94263320914E+03  0.94263320914E+03  0.00000000000E+00 0. -1.
         21   -1    0    0  501  502 -0.00000000000E+00 -0.00000000000E+00 -0.13651710192E+03  0.13651710192E+03  0.00000000000E+00 0. -1.
         25    1    1    2    0    0 -0.14550249317E+03 -0.40732580923E+02  0.29142524312E+03  0.35126028953E+03  0.12500000000E+03 0.  0.
         25    1    1    2    0    0 -0.12580179577E+03  0.80120085650E+02  0.11060530279E+03  0.22383889954E+03  0.12500000000E+03 0.  0.
         25    1    1    2    0    0  0.27130428894E+03 -0.39387504727E+02  0.40408556130E+03  0.50405112199E+03  0.12500000000E+03 0.  0.
</event>
<event>
 5    0  0.5713700E-005  0.2653881E+03  0.7546771E-02  0.1103948E+00
         21   -1    0    0  502  501  0.00000000000E+00  0.00000000000E+00  0.28987814592E+02  0.28987814592E+02  0.00000000000E+00 0. -1.
         21   -1    0    0  501  502 -0.00000000000E+00 -0.00000000000E+00 -0.24296712104E+04  0.24296712104E+04  0.00000000000E+00 0. -1.
         25    1    1    2    0    0 -0.18272961333E+02 -0.15863990178E+03 -0.81986177480E+03  0.84457021574E+03  0.12500000000E+03 0.  0.
         25    1    1    2    0    0 -0.30890776169E+02  0.12570449915E+03 -0.10626692900E+04  0.10777972356E+04  0.12500000000E+03 0.  0.
         25    1    1    2    0    0  0.49163737502E+02  0.32935402634E+02 -0.51815233102E+03  0.53629157366E+03  0.12500000000E+03 0.  0.
</event>
<event>
 5    0  0.5713700E-005  0.3296939E+03  0.7546771E-02  0.1071272E+00
         21   -1    0    0  502  501  0.00000000000E+00  0.00000000000E+00  0.63611486651E+02  0.63611486651E+02  0.00000000000E+00 0. -1.
         21   -1    0    0  501  502 -0.00000000000E+00 -0.00000000000E+00 -0.17087802938E+04  0.17087802938E+04  0.00000000000E+00 0. -1.
         25    1    1    2    0    0 -0.41667197259E+02 -0.73719191762E+02 -0.28886523861E+03  0.32594294077E+03  0.12500000000E+03 0.  0.
         25    1    1    2    0    0  0.22317393574E+03 -0.40153407313E+01 -0.87128301967E+03  0.90806488144E+03  0.12500000000E+03 0.  0.
         25    1    1    2    0    0 -0.18150673848E+03  0.77734532493E+02 -0.48502054887E+03  0.53838395823E+03  0.12500000000E+03 0.  0.
</event>
<event>
 5    0  0.5713700E-005  0.2847349E+03  0.7546771E-02  0.1093131E+00
         21   -1    0    0  502  501  0.00000000000E+00  0.00000000000E+00  0.17403929713E+03  0.17403929713E+03  0.00000000000E+00 0. -1.
         21   -1    0    0  501  502 -0.00000000000E+00 -0.00000000000E+00 -0.46583721391E+03  0.46583721391E+03  0.00000000000E+00 0. -1.
         25    1    1    2    0    0  0.82111484998E+02 -0.68772936802E+02  0.59472350676E+02  0.17502563612E+03  0.12500000000E+03 0.  0.
         25    1    1    2    0    0 -0.39844904855E+02  0.95259663323E+02 -0.13925482674E+03  0.21372628914E+03  0.12500000000E+03 0.  0.
         25    1    1    2    0    0 -0.42266580143E+02 -0.26486726521E+02 -0.21201544072E+03  0.25112458578E+03  0.12500000000E+03 0.  0.
</event>
<event>
 5    0  0.5713700E-005  0.3855860E+03  0.7546771E-02  0.1048888E+00
         21   -1    0    0  502  501  0.00000000000E+00  0.00000000000E+00  0.17783169286E+03  0.17783169286E+03  0.00000000000E+00 0.  1.
         21   -1    0    0  501  502 -0.00000000000E+00 -0.00000000000E+00 -0.83605209400E+03  0.83605209400E+03  0.00000000000E+00 0.  1.
         25    1    1    2    0    0  0.95634139180E+02  0.53593759025E+02  0.15620452919E+02  0.16699454522E+03  0.12500000000E+03 0.  0.
         25    1    1    2    0    0 -0.19859185705E+03  0.12592376319E+03 -0.41128631088E+03  0.48997647835E+03  0.12500000000E+03 0.  0.
         25    1    1    2    0    0  0.10295771787E+03 -0.17951752222E+03 -0.26255454318E+03  0.35691276329E+03  0.12500000000E+03 0.  0.
</event>
<event>
 5    0  0.5713700E-005  0.3356837E+03  0.7546771E-02  0.1068649E+00
         21   -1    0    0  502  501  0.00000000000E+00  0.00000000000E+00  0.47904745959E+03  0.47904745959E+03  0.00000000000E+00 0. -1.
         21   -1    0    0  501  502 -0.00000000000E+00 -0.00000000000E+00 -0.23522420661E+03  0.23522420661E+03  0.00000000000E+00 0. -1.
         25    1    1    2    0    0  0.99141244761E+02  0.14339332755E+02  0.22019431952E+03  0.27229605437E+03  0.12500000000E+03 0.  0.
         25    1    1    2    0    0 -0.11119900521E+02 -0.65077625969E+02  0.17223247422E+03  0.22281780621E+03  0.12500000000E+03 0.  0.
         25    1    1    2    0    0 -0.88021344240E+02  0.50738293214E+02 -0.14860354076E+03  0.21915780562E+03  0.12500000000E+03 0.  0.
</event>
<event>
 5    0  0.5713700E-005  0.2889927E+03  0.7546771E-02  0.1090876E+00
         21   -1    0    0  502  501  0.00000000000E+00  0.00000000000E+00  0.38245559234E+03  0.38245559234E+03  0.00000000000E+00 0.  1.
         21   -1    0    0  501  502 -0.00000000000E+00 -0.00000000000E+00 -0.21836982846E+03  0.21836982846E+03  0.00000000000E+00 0.  1.
         25    1    1    2    0    0  0.45677469741E+01  0.14444992653E+03  0.85114847152E+02  0.20917978581E+03  0.12500000000E+03 0.  0.
         25    1    1    2    0    0 -0.59680270115E+02  0.29004903951E+02  0.94719056160E+02  0.17029303771E+03  0.12500000000E+03 0.  0.
         25    1    1    2    0    0  0.55112523141E+02 -0.17345483048E+03 -0.15748139437E+02  0.22135259727E+03  0.12500000000E+03 0.  0.
</event>
<event>
 5    0  0.5713700E-005  0.2666521E+03  0.7546771E-02  0.1103211E+00
         21   -1    0    0  502  501  0.00000000000E+00  0.00000000000E+00  0.48603399614E+02  0.48603399614E+02  0.00000000000E+00 0.  1.
         21   -1    0    0  501  502 -0.00000000000E+00 -0.00000000000E+00 -0.14629292202E+04  0.14629292202E+04  0.00000000000E+00 0.  1.
         25    1    1    2    0    0  0.14628049176E+02  0.10451037436E+03 -0.30522696748E+03  0.34630174682E+03  0.12500000000E+03 0.  0.
         25    1    1    2    0    0 -0.56201232634E+02 -0.14647585619E+03 -0.46435486057E+03  0.50583020029E+03  0.12500000000E+03 0.  0.
         25    1    1    2    0    0  0.41573183457E+02  0.41965481826E+02 -0.64474399259E+03  0.65940067275E+03  0.12500000000E+03 0.  0.
</event>
<event>
 5    0  0.5713700E-005  0.3621963E+03  0.7546771E-02  0.1057718E+00
         21   -1    0    0  502  501  0.00000000000E+00  0.00000000000E+00  0.85323934757E+03  0.85323934757E+03  0.00000000000E+00 0. -1.
         21   -1    0    0  501  502 -0.00000000000E+00 -0.00000000000E+00 -0.15375069961E+03  0.15375069961E+03  0.00000000000E+00 0. -1.
         25    1    1    2    0    0  0.29003260269E+01  0.18743845064E+03  0.44695870076E+03  0.50053837501E+03  0.12500000000E+03 0.  0.
         25    1    1    2    0    0  0.63188639576E+02 -0.24447116826E+03  0.19867647508E+03  0.34475541770E+03  0.12500000000E+03 0.  0.
         25    1    1    2    0    0 -0.66088965602E+02  0.57032717619E+02  0.53853472121E+02  0.16169625448E+03  0.12500000000E+03 0.  0.
</event>
<event>
 5    0  0.5713700E-005  0.3260554E+03  0.7546771E-02  0.1072896E+00
         21   -1    0    0  502  501  0.00000000000E+00  0.00000000000E+00  0.10038918600E+04  0.10038918600E+04  0.00000000000E+00 0. -1.
         21   -1    0    0  501  502 -0.00000000000E+00 -0.00000000000E+00 -0.10589999370E+03  0.10589999370E+03  0.00000000000E+00 0. -1.
         25    1    1    2    0    0  0.17567411693E+03 -0.77456261333E+02  0.30846661714E+03  0.38423628364E+03  0.12500000000E+03 0.  0.
         25    1    1    2    0    0 -0.19893928612E+03  0.67649113799E+02  0.53232873612E+03  0.58579187896E+03  0.12500000000E+03 0.  0.
         25    1    1    2    0    0  0.23265169195E+02  0.98071475343E+01  0.57196513011E+02  0.13976369107E+03  0.12500000000E+03 0.  0.
</event>
<event>
 5    0  0.5713700E-005  0.4603489E+03  0.7546771E-02  0.1024680E+00
         21   -1    0    0  502  501  0.00000000000E+00  0.00000000000E+00  0.15707740506E+04  0.15707740506E+04  0.00000000000E+00 0.  1.
         21   -1    0    0  501  502 -0.00000000000E+00 -0.00000000000E+00 -0.13491508800E+03  0.13491508800E+03  0.00000000000E+00 0.  1.
         25    1    1    2    0    0 -0.27107263929E+03 -0.12941875294E+03  0.11765235705E+04  0.12206810810E+04  0.12500000000E+03 0.  0.
         25    1    1    2    0    0  0.15957346371E+03  0.73534113902E+02  0.71425515806E+02  0.22715096420E+03  0.12500000000E+03 0.  0.
         25    1    1    2    0    0  0.11149917558E+03  0.55884639043E+02  0.18790987624E+03  0.25785709341E+03  0.12500000000E+03 0.  0.
</event>
<event>
 5    0  0.6451579E-005  0.3873653E+03  0.7546771E-02  0.1048245E+00
         21   -1    0    0  502  501  0.00000000000E+00  0.00000000000E+00  0.64913883013E+03  0.64913883013E+03  0.00000000000E+00 0.  1.
         21   -1    0    0  501  502 -0.00000000000E+00 -0.00000000000E+00 -0.23115534625E+03  0.23115534625E+03  0.00000000000E+00 0.  1.
         25    1    1    2    0    0 -0.67541403359E+02 -0.64720858564E+02  0.28530997515E+03  0.32523439643E+03  0.12500000000E+03 0.  0.
         25    1    1    2    0    0  0.15399948946E+03 -0.13452132846E+03  0.18039101912E+03  0.29996291495E+03  0.12500000000E+03 0.  0.
         25    1    1    2    0    0 -0.86458086102E+02  0.19924218702E+03 -0.47717510386E+02  0.25509686501E+03  0.12500000000E+03 0.  0.
</event>
<event>
 5    0  0.5713700E-005  0.2353422E+03  0.7546771E-02  0.1122935E+00
         21   -1    0    0  502  501  0.00000000000E+00  0.00000000000E+00  0.21208027683E+04  0.21208027683E+04  0.00000000000E+00 0. -1.
         21   -1    0    0  501  502 -0.00000000000E+00 -0.00000000000E+00 -0.26115560227E+02  0.26115560227E+02  0.00000000000E+00 0. -1.
         25    1    1    2    0    0 -0.46296464858E+02  0.33968114504E+02  0.59591488772E+03  0.61158543873E+03  0.12500000000E+03 0.  0.
         25    1    1    2    0    0 -0.45499420327E+02  0.52678323722E+02  0.88035333870E+03  0.89190369660E+03  0.12500000000E+03 0.  0.
         25    1    1    2    0    0  0.91795885185E+02 -0.86646438226E+02  0.61841898166E+03  0.64342919321E+03  0.12500000000E+03 0.  0.
</event>
<event>
 5    0  0.5713700E-005  0.3576195E+03  0.7546771E-02  0.1059530E+00
         21   -1    0    0  502  501  0.00000000000E+00  0.00000000000E+00  0.10943329636E+04  0.10943329636E+04  0.00000000000E+00 0. -1.
         21   -1    0    0  501  502 -0.00000000000E+00 -0.00000000000E+00 -0.11686725301E+03  0.11686725301E+03  0.00000000000E+00 0. -1.
         25    1    1    2    0    0  0.37531804410E+02 -0.46190180933E+02  0.71464389527E+02  0.15580220835E+03  0.12500000000E+03 0.  0.
         25    1    1    2    0    0 -0.18749312132E+02  0.47894109135E+02  0.91847646402E+03  0.92836921392E+03  0.12500000000E+03 0.  0.
         25    1    1    2    0    0 -0.18782492278E+02 -0.17039282022E+01 -0.12475142996E+02  0.12702879430E+03  0.12500000000E+03 0.  0.
</event>
<event>
 5    0  0.5713700E-005  0.2232466E+03  0.7546771E-02  0.1131486E+00
         21   -1    0    0  502  501  0.00000000000E+00  0.00000000000E+00  0.22069664048E+03  0.22069664048E+03  0.00000000000E+00 0.  1.
         21   -1    0    0  501  502 -0.00000000000E+00 -0.00000000000E+00 -0.22582594006E+03  0.22582594006E+03  0.00000000000E+00 0.  1.
         25    1    1    2    0    0  0.31963722000E+02 -0.68493808110E+02  0.41930040141E+02  0.15197437132E+03  0.12500000000E+03 0.  0.
         25    1    1    2    0    0 -0.73409315994E+02  0.15065221558E+02 -0.30566335850E+01  0.14577459170E+03  0.12500000000E+03 0.  0.
         25    1    1    2    0    0  0.41445593994E+02  0.53428586552E+02 -0.44002706141E+02  0.14877361752E+03  0.12500000000E+03 0.  0.
</event>
<event>
 5    0  0.5713700E-005  0.6329833E+03  0.7546771E-02  0.9839244E-01
         21   -1    0    0  502  501  0.00000000000E+00  0.00000000000E+00  0.57564333239E+03  0.57564333239E+03  0.00000000000E+00 0.  1.
         21   -1    0    0  501  502 -0.00000000000E+00 -0.00000000000E+00 -0.69603481801E+03  0.69603481801E+03  0.00000000000E+00 0.  1.
         25    1    1    2    0    0 -0.90375491410E+02 -0.16172420591E+03 -0.40313391240E+03  0.46093860714E+03  0.12500000000E+03 0.  0.
         25    1    1    2    0    0 -0.27870455366E+03 -0.60077434229E+02  0.10773162384E+03  0.32941862289E+03  0.12500000000E+03 0.  0.
         25    1    1    2    0    0  0.36908004507E+03  0.22180164014E+03  0.17501080294E+03  0.48132092036E+03  0.12500000000E+03 0.  0.
</event>
<event>
 5    0  0.5713700E-005  0.4076354E+03  0.7546771E-02  0.1041167E+00
         21   -1    0    0  502  501  0.00000000000E+00  0.00000000000E+00  0.61783578536E+03  0.61783578536E+03  0.00000000000E+00 0.  1.
         21   -1    0    0  501  502 -0.00000000000E+00 -0.00000000000E+00 -0.26894943143E+03  0.26894943143E+03  0.00000000000E+00 0.  1.
         25    1    1    2    0    0 -0.12040229130E+03  0.34461698034E+02  0.12707634596E+03  0.21784792421E+03  0.12500000000E+03 0.  0.
         25    1    1    2    0    0 -0.16969750453E+03 -0.15904835011E+03  0.12827531883E+01  0.26404595466E+03  0.12500000000E+03 0.  0.
         25    1    1    2    0    0  0.29009979583E+03  0.12458665208E+03  0.22052725479E+03  0.40489133791E+03  0.12500000000E+03 0.  0.
</event>
<event>
 5    0  0.5713700E-005  0.2804228E+03  0.7546771E-02  0.1095458E+00
         21   -1    0    0  502  501  0.00000000000E+00  0.00000000000E+00  0.12673768134E+03  0.12673768134E+03  0.00000000000E+00 0.  1.
         21   -1    0    0  501  502 -0.00000000000E+00 -0.00000000000E+00 -0.62047015405E+03  0.62047015405E+03  0.00000000000E+00 0.  1.
         25    1    1    2    0    0 -0.99772867882E+02  0.15165433225E+02 -0.13481925011E+03  0.20972802800E+03  0.12500000000E+03 0.  0.
         25    1    1    2    0    0  0.20088452460E+03  0.13124412638E+01 -0.23837025809E+03  0.33585963536E+03  0.12500000000E+03 0.  0.
         25    1    1    2    0    0 -0.10111165672E+03 -0.16477874489E+02 -0.12054296451E+03  0.20162017202E+03  0.12500000000E+03 0.  0.
</event>
<event>
 5    0  0.5713700E-005  0.2822472E+03  0.7546771E-02  0.1094468E+00
         21   -1    0    0  502  501  0.00000000000E+00  0.00000000000E+00  0.36474172558E+03  0.36474172558E+03  0.00000000000E+00 0. -1.
         21   -1    0    0  501  502 -0.00000000000E+00 -0.00000000000E+00 -0.21841073506E+03  0.21841073506E+03  0.00000000000E+00 0. -1.
         25    1    1    2    0    0  0.61534763690E+02 -0.10176215062E+03  0.23345908454E+03  0.29029331131E+03  0.12500000000E+03 0.  0.
         25    1    1    2    0    0 -0.26080423413E+02  0.33055207645E+02 -0.51699894561E+02  0.14167114856E+03  0.12500000000E+03 0.  0.
         25    1    1    2    0    0 -0.35454340276E+02  0.68706942977E+02 -0.35428199453E+02  0.15118800076E+03  0.12500000000E+03 0.  0.
</event>
<event>
 5    0  0.5713700E-005  0.2842357E+03  0.7546771E-02  0.1093398E+00
         21   -1    0    0  502  501  0.00000000000E+00  0.00000000000E+00  0.96721642931E+03  0.96721642931E+03  0.00000000000E+00 0. -1.
         21   -1    0    0  501  502 -0.00000000000E+00 -0.00000000000E+00 -0.83528305030E+02  0.83528305030E+02  0.00000000000E+00 0. -1.
         25    1    1    2    0    0  0.17399106307E+02 -0.13519137603E+03  0.56217809193E+03  0.59181808362E+03  0.12500000000E+03 0.  0.
         25    1    1    2    0    0 -0.11383054869E+02  0.48454787290E+02  0.26373084976E+03  0.29606823785E+03  0.12500000000E+03 0.  0.
         25    1    1    2    0    0 -0.60160514381E+01  0.86736588740E+02  0.57779182588E+02  0.16285841287E+03  0.12500000000E+03 0.  0.
</event>
<event>
 5    0  0.5713700E-005  0.3765301E+03  0.7546771E-02  0.1052224E+00
         21   -1    0    0  502  501  0.00000000000E+00  0.00000000000E+00  0.29896748222E+03  0.29896748222E+03  0.00000000000E+00 0. -1.
         21   -1    0    0  501  502 -0.00000000000E+00 -0.00000000000E+00 -0.47421529183E+03  0.47421529183E+03  0.00000000000E+00 0. -1.
         25    1    1    2    0    0 -0.19028244436E+03  0.53340635446E+02 -0.32847343690E+03  0.40320271672E+03  0.12500000000E+03 0.  0.
         25    1    1    2    0    0  0.50823333793E+02 -0.28175118248E+02  0.10944436112E+03  0.17601112671E+03  0.12500000000E+03 0.  0.
         25    1    1    2    0    0  0.13945911057E+03 -0.25165517197E+02  0.43781266169E+02  0.19396893062E+03  0.12500000000E+03 0.  0.
</event>
<event>
 5    0  0.5713700E-005  0.3397509E+03  0.7546771E-02  0.1066902E+00
         21   -1    0    0  502  501  0.00000000000E+00  0.00000000000E+00  0.60875629145E+03  0.60875629145E+03  0.00000000000E+00 0. -1.
         21   -1    0    0  501  502 -0.00000000000E+00 -0.00000000000E+00 -0.18961720330E+03  0.18961720330E+03  0.00000000000E+00 0. -1.
         25    1    1    2    0    0 -0.13971681621E+03  0.94472827384E+02  0.94665135940E+01  0.21014404280E+03  0.12500000000E+03 0.  0.
         25    1    1    2    0    0  0.18218195740E+03 -0.14668472611E+03  0.33671878164E+03  0.42861545981E+03  0.12500000000E+03 0.  0.
         25    1    1    2    0    0 -0.42465141195E+02  0.52211898725E+02  0.72953792919E+02  0.15961399214E+03  0.12500000000E+03 0.  0.
</event>
<event>
 5    0  0.5713700E-005  0.2705142E+03  0.7546771E-02  0.1100986E+00
         21   -1    0    0  502  501  0.00000000000E+00  0.00000000000E+00  0.82976689731E+03  0.82976689731E+03  0.00000000000E+00 0.  1.
         21   -1    0    0  501  502 -0.00000000000E+00 -0.00000000000E+00 -0.88190953273E+02  0.88190953273E+02  0.00000000000E+00 0.  1.
         25    1    1    2    0    0  0.93342283392E+02  0.19360675295E+02  0.17542545002E+03  0.23555616344E+03  0.12500000000E+03 0.  0.
         25    1    1    2    0    0 -0.39795691201E+02 -0.14505465135E+03  0.30254427172E+03  0.36025350140E+03  0.12500000000E+03 0.  0.
         25    1    1    2    0    0 -0.53546592191E+02  0.12569397605E+03  0.26360622229E+03  0.32214818575E+03  0.12500000000E+03 0.  0.
</event>
<event>
 5    0  0.6051568E-005  0.3225581E+03  0.7546771E-02  0.1074478E+00
         21   -1    0    0  502  501  0.00000000000E+00  0.00000000000E+00  0.14379485121E+03  0.14379485121E+03  0.00000000000E+00 0. -1.
         21   -1    0    0  501  502 -0.00000000000E+00 -0.00000000000E+00 -0.72355662563E+03  0.72355662563E+03  0.00000000000E+00 0. -1.
         25    1    1    2    0    0  0.25013870857E+02 -0.11598423378E+03 -0.17178686577E+02  0.17319972140E+03  0.12500000000E+03 0.  0.
         25    1    1    2    0    0 -0.10882933824E+03  0.17853893010E+03 -0.33237797641E+03  0.41209233629E+03  0.12500000000E+03 0.  0.
         25    1    1    2    0    0  0.83815467383E+02 -0.62554696314E+02 -0.23020511143E+03  0.28205941916E+03  0.12500000000E+03 0.  0.
</event>
<event>
 5    0  0.5938403E-005  0.3744624E+03  0.7546771E-02  0.1053000E+00
         21   -1    0    0  502  501  0.00000000000E+00  0.00000000000E+00  0.68493331491E+03  0.68493331491E+03  0.00000000000E+00 0. -1.
         21   -1    0    0  501  502 -0.00000000000E+00 -0.00000000000E+00 -0.20472371246E+03  0.20472371246E+03  0.00000000000E+00 0. -1.
         25    1    1    2    0    0 -0.23232635669E+02 -0.16686663445E+03  0.91575059285E+02  0.22890002301E+03  0.12500000000E+03 0.  0.
         25    1    1    2    0    0  0.10405791252E+03 -0.78077424650E+02  0.32169223838E+01  0.18044246171E+03  0.12500000000E+03 0.  0.
         25    1    1    2    0    0 -0.80825276850E+02  0.24494405910E+03  0.38541762079E+03  0.48031454265E+03  0.12500000000E+03 0.  0.
</event>
<event>
 5    0  0.5713700E-005  0.2268764E+03  0.7546771E-02  0.1128858E+00
         21   -1    0    0  502  501  0.00000000000E+00  0.00000000000E+00  0.20070522151E+04  0.20070522151E+04  0.00000000000E+00 0. -1.
         21   -1    0    0  501  502 -0.00000000000E+00 -0.00000000000E+00 -0.25646028408E+02  0.25646028408E+02  0.00000000000E+00 0. -1.
         25    1    1    2    0    0  0.31682734789E+02 -0.71174005705E+02  0.74603855995E+03  0.76043939121E+03  0.12500000000E+03 0.  0.
         25    1    1    2    0    0  0.50349463563E+02  0.10643320740E+01  0.45136592513E+03  0.47105456123E+03  0.12500000000E+03 0.  0.
         25    1    1    2    0    0 -0.82032198351E+02  0.70109673631E+02  0.78400170165E+03  0.80120429111E+03  0.12500000000E+03 0.  0.
</event>
<event>
 5    0  0.5713700E-005  0.2084739E+03  0.7546771E-02  0.1142780E+00
         21   -1    0    0  502  501  0.00000000000E+00  0.00000000000E+00  0.21368120076E+02  0.21368120076E+02  0.00000000000E+00 0.  1.
         21   -1    0    0  501  502 -0.00000000000E+00 -0.00000000000E+00 -0.20339342862E+04  0.20339342862E+04  0.00000000000E+00 0.  1.
         25    1    1    2    0    0  0.41350056063E+02 -0.36931555192E+02 -0.70476770891E+03  0.71791106025E+03  0.12500000000E+03 0.  0.
         25    1    1    2    0    0 -0.20031120388E+02 -0.35288956314E+02 -0.70816564742E+03  0.72025699608E+03  0.12500000000E+03 0.  0.
         25    1    1    2    0    0 -0.21318935675E+02  0.72220511506E+02 -0.59963280983E+03  0.61713434998E+03  0.12500000000E+03 0.  0.
</event>
<event>
 5    0  0.5713700E-005  0.2580373E+03  0.7546771E-02  0.1108328E+00
         21   -1    0    0  502  501  0.00000000000E+00  0.00000000000E+00  0.91247330191E+02  0.91247330191E+02  0.00000000000E+00 0.  1.
         21   -1    0    0  501  502 -0.00000000000E+00 -0.00000000000E+00 -0.72970068214E+03  0.72970068214E+03  0.00000000000E+00 0.  1.
         25    1    1    2    0    0 -0.88346656241E+02  0.20970386497E+02 -0.18348549381E+03  0.23986832892E+03  0.12500000000E+03 0.  0.
         25    1    1    2    0    0  0.75719427314E+02 -0.66059728135E+02 -0.72536002557E+02  0.17602213219E+03  0.12500000000E+03 0.  0.
         25    1    1    2    0    0  0.12627228927E+02  0.45089341637E+02 -0.38243185558E+03  0.40505755122E+03  0.12500000000E+03 0.  0.
</event>
<event>
 5    0  0.5713700E-005  0.2477201E+03  0.7546771E-02  0.1114754E+00
         21   -1    0    0  502  501  0.00000000000E+00  0.00000000000E+00  0.35020630095E+03  0.35020630095E+03  0.00000000000E+00 0. -1.
         21   -1    0    0  501  502 -0.00000000000E+00 -0.00000000000E+00 -0.17522594627E+03  0.17522594627E+03  0.00000000000E+00 0. -1.
         25    1    1    2    0    0  0.70342940184E+02  0.63506229919E+02  0.13457785535E+03  0.20668180768E+03  0.12500000000E+03 0.  0.
         25    1    1    2    0    0  0.12812049539E+02  0.32923550070E+02 -0.17696964338E+02  0.13109649618E+03  0.12500000000E+03 0.  0.
         25    1    1    2    0    0 -0.83154989723E+02 -0.96429779990E+02  0.58099463659E+02  0.18765394337E+03  0.12500000000E+03 0.  0.
</event>
<event>
 5    0  0.7052214E-005  0.3823625E+03  0.7546771E-02  0.1050064E+00
         21   -1    0    0  502  501  0.00000000000E+00  0.00000000000E+00  0.64782431514E+03  0.64782431514E+03  0.00000000000E+00 0. -1.
         21   -1    0    0  501  502 -0.00000000000E+00 -0.00000000000E+00 -0.22568010307E+03  0.22568010307E+03  0.00000000000E+00 0. -1.
         25    1    1    2    0    0  0.10174829606E+03  0.37829944176E+02  0.26240626391E+03  0.31026741332E+03  0.12500000000E+03 0.  0.
         25    1    1    2    0    0 -0.12977635131E+03  0.19130365461E+03  0.14440339742E+02  0.26319671928E+03  0.12500000000E+03 0.  0.
         25    1    1    2    0    0  0.28028055256E+02 -0.22913359879E+03  0.14529760842E+03  0.30004028561E+03  0.12500000000E+03 0.  0.
</event>
<event>
 5    0  0.5713700E-005  0.5634194E+03  0.7546771E-02  0.9984347E-01
         21   -1    0    0  502  501  0.00000000000E+00  0.00000000000E+00  0.10485526772E+04  0.10485526772E+04  0.00000000000E+00 0.  1.
         21   -1    0    0  501  502 -0.00000000000E+00 -0.00000000000E+00 -0.30274248438E+03  0.30274248438E+03  0.00000000000E+00 0.  1.
         25    1    1    2    0    0 -0.17541975447E+00 -0.19069447733E+03  0.34868336989E+03  0.41661673862E+03  0.12500000000E+03 0.  0.
         25    1    1    2    0    0  0.29695669629E+03  0.49578296864E+02  0.47352106698E+03  0.57488128154E+03  0.12500000000E+03 0.  0.
         25    1    1    2    0    0 -0.29678127653E+03  0.14111618046E+03 -0.76394244015E+02  0.35979714147E+03  0.12500000000E+03 0.  0.
</event>
<event>
 5    0  0.5713700E-005  0.4602596E+03  0.7546771E-02  0.1024706E+00
         21   -1    0    0  502  501  0.00000000000E+00  0.00000000000E+00  0.56986600792E+03  0.56986600792E+03  0.00000000000E+00 0.  1.
         21   -1    0    0  501  502 -0.00000000000E+00 -0.00000000000E+00 -0.37173457452E+03  0.37173457452E+03  0.00000000000E+00 0.  1.
         25    1    1    2    0    0 -0.12985428676E+03 -0.31591316104E+03 -0.85563925302E+02  0.37364347502E+03  0.12500000000E+03 0.  0.
         25    1    1    2    0    0  0.14468009190E+03  0.90592916480E+02  0.44797371188E+02  0.21626652532E+03  0.12500000000E+03 0.  0.
         25    1    1    2    0    0 -0.14825805140E+02  0.22532024456E+03  0.23889798751E+03  0.35169058211E+03  0.12500000000E+03 0.  0.
</event>
<event>
 5    0  0.6017029E-005  0.3085480E+03  0.7546771E-02  0.1081044E+00
         21   -1    0    0  502  501  0.00000000000E+00  0.00000000000E+00  0.29088540620E+03  0.29088540620E+03  0.00000000000E+00 0.  1.
         21   -1    0    0  501  502 -0.00000000000E+00 -0.00000000000E+00 -0.32728299243E+03  0.32728299243E+03  0.00000000000E+00 0.  1.
         25    1    1    2    0    0 -0.14253815161E+03 -0.12364720276E+02  0.64067345206E+02  0.20049846806E+03  0.12500000000E+03 0.  0.
         25    1    1    2    0    0 -0.46999152712E+02  0.87448042580E+02 -0.36274080943E+01  0.15966915355E+03  0.12500000000E+03 0.  0.
         25    1    1    2    0    0  0.18953730433E+03 -0.75083322304E+02 -0.96837523341E+02  0.25800077703E+03  0.12500000000E+03 0.  0.
</event>
<event>
 5    0  0.5713700E-005  0.2613906E+03  0.7546771E-02  0.1106311E+00
         21   -1    0    0  502  501  0.00000000000E+00  0.00000000000E+00  0.82637179268E+02  0.82637179268E+02  0.00000000000E+00 0.  1.
         21   -1    0    0  501  502 -0.00000000000E+00 -0.00000000000E+00 -0.82680749288E+03  0.82680749288E+03  0.00000000000E+00 0.  1.
         25    1    1    2    0    0 -0.10262241260E+03  0.42742172513E+01 -0.46938135247E+03  0.49648109989E+03  0.12500000000E+03 0.  0.
         25    1    1    2    0    0  0.18974008390E+02 -0.21511127260E+02 -0.21469195441E+03  0.25008074072E+03  0.12500000000E+03 0.  0.
         25    1    1    2    0    0  0.83648404209E+02  0.17236910009E+02 -0.60097006738E+02  0.16288283155E+03  0.12500000000E+03 0.  0.
</event>
<event>
 5    0  0.5713700E-005  0.3093731E+03  0.7546771E-02  0.1080647E+00
         21   -1    0    0  502  501  0.00000000000E+00  0.00000000000E+00  0.13592060632E+04  0.13592060632E+04  0.00000000000E+00 0. -1.
         21   -1    0    0  501  502 -0.00000000000E+00 -0.00000000000E+00 -0.70417363801E+02  0.70417363801E+02  0.00000000000E+00 0. -1.
         25    1    1    2    0    0 -0.49080294934E+02  0.51911082434E+02  0.61467925083E+03  0.63131546570E+03  0.12500000000E+03 0.  0.
         25    1    1    2    0    0  0.13419145903E+03 -0.15547139306E+03  0.43515373383E+03  0.49715437623E+03  0.12500000000E+03 0.  0.
         25    1    1    2    0    0 -0.85111164098E+02  0.10356031063E+03  0.23895571470E+03  0.30115358503E+03  0.12500000000E+03 0.  0.
</event>
<event>
 5    0  0.5713700E-005  0.3227298E+03  0.7546771E-02  0.1074400E+00
         21   -1    0    0  502  501  0.00000000000E+00  0.00000000000E+00  0.22974959889E+04  0.22974959889E+04  0.00000000000E+00 0.  1.
         21   -1    0    0  501  502 -0.00000000000E+00 -0.00000000000E+00 -0.45333939947E+02  0.45333939947E+02  0.00000000000E+00 0.  1.
         25    1    1    2    0    0 -0.13684181244E+03  0.10464033812E+03  0.48144110610E+03  0.52638941919E+03  0.12500000000E+03 0.  0.
         25    1    1    2    0    0  0.67533068068E+02 -0.16962759954E+03  0.13367683186E+04  0.13549571121E+04  0.12500000000E+03 0.  0.
         25    1    1    2    0    0  0.69308744374E+02  0.64987261429E+02  0.43395262424E+03  0.46148339762E+03  0.12500000000E+03 0.  0.
</event>
<event>
 5    0  0.5713700E-005  0.2352857E+03  0.7546771E-02  0.1122974E+00
         21   -1    0    0  502  501  0.00000000000E+00  0.00000000000E+00  0.12087089495E+03  0.12087089495E+03  0.00000000000E+00 0.  1.
         21   -1    0    0  501  502 -0.00000000000E+00 -0.00000000000E+00 -0.45800418500E+03  0.45800418500E+03  0.00000000000E+00 0.  1.
         25    1    1    2    0    0  0.23743914901E+02 -0.92125131621E+02 -0.22194145947E+03  0.27190775054E+03  0.12500000000E+03 0.  0.
         25    1    1    2    0    0  0.47469683581E+01  0.58867932248E+02 -0.11444343901E+02  0.13872252940E+03  0.12500000000E+03 0.  0.
         25    1    1    2    0    0 -0.28490883259E+02  0.33257199373E+02 -0.10374748668E+03  0.16824480001E+03  0.12500000000E+03 0.  0.
</event>
<event>
 5    0  0.5713700E-005  0.2823532E+03  0.7546771E-02  0.1094411E+00
         21   -1    0    0  502  501  0.00000000000E+00  0.00000000000E+00  0.18997323876E+03  0.18997323876E+03  0.00000000000E+00 0.  1.
         21   -1    0    0  501  502 -0.00000000000E+00 -0.00000000000E+00 -0.41965550274E+03  0.41965550274E+03  0.00000000000E+00 0.  1.
         25    1    1    2    0    0  0.13683778661E+03 -0.56019931082E+02 -0.10473206728E+03  0.22012864066E+03  0.12500000000E+03 0.  0.
         25    1    1    2    0    0 -0.12012360865E+03 -0.72537800997E+02 -0.77394223375E+02  0.20323946403E+03  0.12500000000E+03 0.  0.
         25    1    1    2    0    0 -0.16714177954E+02  0.12855773208E+03 -0.47555973329E+02  0.18626063680E+03  0.12500000000E+03 0.  0.
</event>
<event>
 5    0  0.5713700E-005  0.3108160E+03  0.7546771E-02  0.1079955E+00
         21   -1    0    0  502  501  0.00000000000E+00  0.00000000000E+00  0.29008299407E+03  0.29008299407E+03  0.00000000000E+00 0. -1.
         21   -1    0    0  501  502 -0.00000000000E+00 -0.00000000000E+00 -0.33303074794E+03  0.33303074794E+03  0.00000000000E+00 0. -1.
         25    1    1    2    0    0  0.64556331714E+02  0.12787852223E+02 -0.89806761708E+02  0.16739564982E+03  0.12500000000E+03 0.  0.
         25    1    1    2    0    0 -0.21839526019E+03 -0.13467627516E+02  0.52532639532E+02  0.25741512170E+03  0.12500000000E+03 0.  0.
         25    1    1    2    0    0  0.15383892848E+03  0.67977529300E+00 -0.56736316881E+01  0.19830297049E+03  0.12500000000E+03 0.  0.
</event>
<event>
 5    0  0.5713700E-005  0.2370090E+03  0.7546771E-02  0.1121801E+00
         21   -1    0    0  502  501  0.00000000000E+00  0.00000000000E+00  0.67418867602E+02  0.67418867602E+02  0.00000000000E+00 0.  1.
         21   -1    0    0  501  502 -0.00000000000E+00 -0.00000000000E+00 -0.83319833539E+03  0.83319833539E+03  0.00000000000E+00 0.  1.
         25    1    1    2    0    0 -0.63662773531E+00 -0.97403624390E+02 -0.26313994230E+03  0.30717340473E+03  0.12500000000E+03 0.  0.
         25    1    1    2    0    0 -0.31658389138E+02  0.94141541332E+02 -0.39243456627E+03  0.42366823366E+03  0.12500000000E+03 0.  0.
         25    1    1    2    0    0  0.32295016873E+02  0.32620830581E+01 -0.11020495922E+03  0.16977556460E+03  0.12500000000E+03 0.  0.
</event>
<event>
 5    0  0.5713700E-005  0.2288050E+03  0.7546771E-02  0.1127484E+00
         21   -1    0    0  502  501  0.00000000000E+00  0.00000000000E+00  0.55111944343E+03  0.55111944343E+03  0.00000000000E+00 0. -1.
         21   -1    0    0  501  502 -0.00000000000E+00 -0.00000000000E+00 -0.94991595721E+02  0.94991595721E+02  0.00000000000E+00 0. -1.
         25    1    1    2    0    0  0.10628909728E+03  0.31992131435E+02  0.13960874054E+03  0.21779914855E+03  0.12500000000E+03 0.  0.
         25    1    1    2    0    0 -0.90214901032E+01 -0.11917322667E+02  0.10926353678E+03  0.16669412207E+03  0.12500000000E+03 0.  0.
         25    1    1    2    0    0 -0.97267607176E+02 -0.20074808768E+02  0.20725557039E+03  0.26161776853E+03  0.12500000000E+03 0.  0.
</event>
<event>
 5    0  0.6234698E-005  0.2758414E+03  0.7546771E-02  0.1097982E+00
         21   -1    0    0  502  501  0.00000000000E+00  0.00000000000E+00  0.60189179882E+03  0.60189179882E+03  0.00000000000E+00 0. -1.
         21   -1    0    0  501  502 -0.00000000000E+00 -0.00000000000E+00 -0.12641549682E+03  0.12641549682E+03  0.00000000000E+00 0. -1.
         25    1    1    2    0    0 -0.13084244688E+03  0.96678051814E+02  0.23601930823E+03  0.31272432823E+03  0.12500000000E+03 0.  0.
         25    1    1    2    0    0  0.67578144067E+02 -0.17165301273E+02  0.21774002446E+02  0.14477762364E+03  0.12500000000E+03 0.  0.
         25    1    1    2    0    0  0.63264302811E+02 -0.79512750540E+02  0.21768299132E+03  0.27080534378E+03  0.12500000000E+03 0.  0.
</event>
<event>
 5    0  0.5713700E-005  0.4490165E+03  0.7546771E-02  0.1028016E+00
         21   -1    0    0  502  501  0.00000000000E+00  0.00000000000E+00  0.22746833918E+03  0.22746833918E+03  0.00000000000E+00 0.  1.
         21   -1    0    0  501  502 -0.00000000000E+00 -0.00000000000E+00 -0.88634661497E+03  0.88634661497E+03  0.00000000000E+00 0.  1.
         25    1    1    2    0    0 -0.26631539942E+02 -0.59314374821E+02 -0.84089492961E+02  0.16408374937E+03  0.12500000000E+03 0.  0.
         25    1    1    2    0    0  0.52050411686E+02 -0.15516104308E+03 -0.65579657555E+03  0.68737060103E+03  0.12500000000E+03 0.  0.
         25    1    1    2    0    0 -0.25418871743E+02  0.21447541790E+03  0.81007792728E+02  0.26236060376E+03  0.12500000000E+03 0.  0.
</event>
<event>
 5    0  0.5713700E-005  0.3194071E+03  0.7546771E-02  0.1075923E+00
         21   -1    0    0  502  501  0.00000000000E+00  0.00000000000E+00  0.55108694752E+03  0.55108694752E+03  0.00000000000E+00 0. -1.
         21   -1    0    0  501  502 -0.00000000000E+00 -0.00000000000E+00 -0.18512662026E+03  0.18512662026E+03  0.00000000000E+00 0. -1.
         25    1    1    2    0    0  0.99246025785E+02  0.22667416413E+02  0.32117621878E+03  0.35936436789E+03  0.12500000000E+03 0.  0.
         25    1    1    2    0    0  0.73914839587E+02 -0.60341574205E+02  0.22177376484E+02  0.15881229523E+03  0.12500000000E+03 0.  0.
         25    1    1    2    0    0 -0.17316086537E+03  0.37674157791E+02  0.22606731999E+02  0.21803690466E+03  0.12500000000E+03 0.  0.
</event>
<event>
 5    0  0.5713700E-005  0.2863268E+03  0.7546771E-02  0.1092283E+00
         21   -1    0    0  502  501  0.00000000000E+00  0.00000000000E+00  0.72036241487E+03  0.72036241487E+03  0.00000000000E+00 0. -1.
         21   -1    0    0  501  502 -0.00000000000E+00 -0.00000000000E+00 -0.11380805308E+03  0.11380805308E+03  0.00000000000E+00 0. -1.
         25    1    1    2    0    0 -0.16798546715E+03 -0.53891657649E+02  0.14526715438E+03  0.26048219532E+03  0.12500000000E+03 0.  0.
         25    1    1    2    0    0  0.42191145315E+02  0.90494915345E+02  0.21366312749E+03  0.26692012756E+03  0.12500000000E+03 0.  0.
         25    1    1    2    0    0  0.12579432183E+03 -0.36603257697E+02  0.24762407992E+03  0.30676814508E+03  0.12500000000E+03 0.  0.
</event>
<event>
 5    0  0.5713700E-005  0.2849092E+03  0.7546771E-02  0.1093037E+00
         21   -1    0    0  502  501  0.00000000000E+00  0.00000000000E+00  0.95326442747E+03  0.95326442747E+03  0.00000000000E+00 0. -1.
         21   -1    0    0  501  502 -0.00000000000E+00 -0.00000000000E+00 -0.85152943278E+02  0.85152943278E+02  0.00000000000E+00 0. -1.
         25    1    1    2    0    0  0.15826116217E+03  0.10512198204E+02  0.36084455710E+03  0.41351045470E+03  0.12500000000E+03 0.  0.
         25    1    1    2    0    0  0.14010842366E+02  0.54515727371E+02  0.14348958846E+03  0.19845032182E+03  0.12500000000E+03 0.  0.
         25    1    1    2    0    0 -0.17227200454E+03 -0.65027925574E+02  0.36377733864E+03  0.42645659423E+03  0.12500000000E+03 0.  0.
</event>
<event>
 5    0  0.5713700E-005  0.3654589E+03  0.7546771E-02  0.1056443E+00
         21   -1    0    0  502  501  0.00000000000E+00  0.00000000000E+00  0.13097939608E+03  0.13097939608E+03  0.00000000000E+00 0. -1.
         21   -1    0    0  501  502 -0.00000000000E+00 -0.00000000000E+00 -0.10197040324E+04  0.10197040324E+04  0.00000000000E+00 0. -1.
         25    1    1    2    0    0 -0.22650911753E+03 -0.34529629522E+02 -0.39583576160E+03  0.47414093454E+03  0.12500000000E+03 0.  0.
         25    1    1    2    0    0  0.16287624743E+03 -0.12314860871E+03 -0.18175684215E+03  0.30059075414E+03  0.12500000000E+03 0.  0.
         25    1    1    2    0    0  0.63632870104E+02  0.15767823823E+03 -0.31113203252E+03  0.37595173976E+03  0.12500000000E+03 0.  0.
</event>
<event>
 5    0  0.5713700E-005  0.3169484E+03  0.7546771E-02  0.1077062E+00
         21   -1    0    0  502  501  0.00000000000E+00  0.00000000000E+00  0.19344969153E+03  0.19344969153E+03  0.00000000000E+00 0.  1.
         21   -1    0    0  501  502 -0.00000000000E+00 -0.00000000000E+00 -0.51928908268E+03  0.51928908268E+03  0.00000000000E+00 0.  1.
         25    1    1    2    0    0 -0.38151322549E+02 -0.89061819893E+02 -0.31955329857E+03  0.35654851255E+03  0.12500000000E+03 0.  0.
         25    1    1    2    0    0  0.33939744982E+02  0.16247453555E+03  0.20205678251E+02  0.20876577887E+03  0.12500000000E+03 0.  0.
         25    1    1    2    0    0  0.42115775673E+01 -0.73412715657E+02 -0.26491770827E+02  0.14742448279E+03  0.12500000000E+03 0.  0.
</event>
<event>
 5    0  0.5713700E-005  0.3158976E+03  0.7546771E-02  0.1077553E+00
         21   -1    0    0  502  501  0.00000000000E+00  0.00000000000E+00  0.78525613798E+03  0.78525613798E+03  0.00000000000E+00 0.  1.
         21   -1    0    0  501  502 -0.00000000000E+00 -0.00000000000E+00 -0.12708119926E+03  0.12708119926E+03  0.00000000000E+00 0.  1.
         25    1    1    2    0    0  0.15271941357E+03  0.38862811821E+02  0.96197136797E+02  0.22296283671E+03  0.12500000000E+03 0.  0.
         25    1    1    2    0    0 -0.16936201072E+03  0.74227213878E+01  0.15700774980E+03  0.26270710109E+03  0.12500000000E+03 0.  0.
         25    1    1    2    0    0  0.16642597146E+02 -0.46285533209E+02  0.40497005213E+03  0.42666739944E+03  0.12500000000E+03 0.  0.
</event>
<event>
 5    0  0.5713700E-005  0.2575280E+03  0.7546771E-02  0.1108638E+00
         21   -1    0    0  502  501  0.00000000000E+00  0.00000000000E+00  0.80611065405E+03  0.80611065405E+03  0.00000000000E+00 0.  1.
         21   -1    0    0  501  502 -0.00000000000E+00 -0.00000000000E+00 -0.82272426588E+02  0.82272426588E+02  0.00000000000E+00 0.  1.
         25    1    1    2    0    0  0.73616730480E+02 -0.89195787315E+02  0.37331929786E+03  0.41032622343E+03  0.12500000000E+03 0.  0.
         25    1    1    2    0    0 -0.10292995791E+03  0.10840967226E+03  0.19879829531E+03  0.27837563739E+03  0.12500000000E+03 0.  0.
         25    1    1    2    0    0  0.29313227431E+02 -0.19213884941E+02  0.15172063429E+03  0.19968121982E+03  0.12500000000E+03 0.  0.
</event>
<event>
 5    0  0.5713700E-005  0.4660383E+03  0.7546771E-02  0.1023044E+00
         21   -1    0    0  502  501  0.00000000000E+00  0.00000000000E+00  0.54259901525E+03  0.54259901525E+03  0.00000000000E+00 0.  1.
         21   -1    0    0  501  502 -0.00000000000E+00 -0.00000000000E+00 -0.40028031104E+03  0.40028031104E+03  0.00000000000E+00 0.  1.
         25    1    1    2    0    0 -0.40688652197E+03  0.40267244202E+02  0.65142527308E+02  0.43248889186E+03  0.12500000000E+03 0.  0.
         25    1    1    2    0    0  0.22023658510E+03 -0.89610019517E+02  0.80313379046E+02  0.28037358626E+03  0.12500000000E+03 0.  0.
         25    1    1    2    0    0  0.18664993687E+03  0.49342775315E+02 -0.31372021498E+01  0.23001684818E+03  0.12500000000E+03 0.  0.
</event>
<event>
 5    0  0.5713700E-005  0.4581370E+03  0.7546771E-02  0.1025323E+00
         21   -1    0    0  502  501  0.00000000000E+00  0.00000000000E+00  0.11802467372E+04  0.11802467372E+04  0.00000000000E+00 0. -1.
         21   -1    0    0  501  502 -0.00000000000E+00 -0.00000000000E+00 -0.17783529794E+03  0.17783529794E+03  0.00000000000E+00 0. -1.
         25    1    1    2    0    0  0.19742732291E+03 -0.10376472718E+03  0.52397522751E+03  0.58302633344E+03  0.12500000000E+03 0.  0.
         25    1    1    2    0    0 -0.18681264276E+03 -0.11551225259E+03  0.45611149956E+03  0.52144486192E+03  0.12500000000E+03 0.  0.
         25    1    1    2    0    0 -0.10614680155E+02  0.21927697977E+03  0.22324712228E+02  0.25361083981E+03  0.12500000000E+03 0.  0.
</event>
<event>
 5    0  0.5713700E-005  0.2836568E+03  0.7546771E-02  0.1093708E+00
         21   -1    0    0  502  501  0.00000000000E+00  0.00000000000E+00  0.10143489557E+04  0.10143489557E+04  0.00000000000E+00 0.  1.
         21   -1    0    0  501  502 -0.00000000000E+00 -0.00000000000E+00 -0.79322996910E+02  0.79322996910E+02  0.00000000000E+00 0.  1.
         25    1    1    2    0    0  0.19678735319E+02  0.15712800275E+03  0.24212858917E+03  0.31516299841E+03  0.12500000000E+03 0.  0.
         25    1    1    2    0    0  0.41128774491E+02 -0.70315337524E+02  0.51698535946E+03  0.53808427284E+03  0.12500000000E+03 0.  0.
         25    1    1    2    0    0 -0.60807509810E+02 -0.86812665227E+02  0.17591201020E+03  0.24042468140E+03  0.12500000000E+03 0.  0.
</event>
<event>
 5    0  0.5713700E-005  0.3740828E+03  0.7546771E-02  0.1053143E+00
         21   -1    0    0  502  501  0.00000000000E+00  0.00000000000E+00  0.99081752732E+02  0.99081752732E+02  0.00000000000E+00 0.  1.
         21   -1    0    0  501  502 -0.00000000000E+00 -0.00000000000E+00 -0.14123483861E+04  0.14123483861E+04  0.00000000000E+00 0.  1.
         25    1    1    2    0    0 -0.62665755921E+02  0.22091242980E+03 -0.44491369996E+03  0.51604505522E+03  0.12500000000E+03 0.  0.
         25    1    1    2    0    0  0.12211404964E+03 -0.27642412394E+03 -0.68484248940E+03  0.75891789589E+03  0.12500000000E+03 0.  0.
         25    1    1    2    0    0 -0.59448293715E+02  0.55511694141E+02 -0.18351044403E+03  0.23646718774E+03  0.12500000000E+03 0.  0.
</event>
<event>
 5    0  0.5713700E-005  0.3386419E+03  0.7546771E-02  0.1067376E+00
         21   -1    0    0  502  501  0.00000000000E+00  0.00000000000E+00  0.10065058705E+04  0.10065058705E+04  0.00000000000E+00 0.  1.
         21   -1    0    0  501  502 -0.00000000000E+00 -0.00000000000E+00 -0.11393707972E+03  0.11393707972E+03  0.00000000000E+00 0.  1.
         25    1    1    2    0    0  0.69327170920E+02 -0.16968303855E+03  0.59278743487E+03  0.63294591645E+03  0.12500000000E+03 0.  0.
         25    1    1    2    0    0 -0.44168967971E+02 -0.36286406631E+02  0.14622868757E+03  0.20068739399E+03  0.12500000000E+03 0.  0.
         25    1    1    2    0    0 -0.25158202949E+02  0.20596944518E+03  0.15355266833E+03  0.28680963979E+03  0.12500000000E+03 0.  0.
</event>
<event>
 5    0  0.5713700E-005  0.2724237E+03  0.7546771E-02  0.1099900E+00
         21   -1    0    0  502  501  0.00000000000E+00  0.00000000000E+00  0.53178117015E+03  0.53178117015E+03  0.00000000000E+00 0. -1.
         21   -1    0    0  501  502 -0.00000000000E+00 -0.00000000000E+00 -0.13955869785E+03  0.13955869785E+03  0.00000000000E+00 0. -1.
         25    1    1    2    0    0  0.50416424383E+02  0.10916460557E+03  0.23775593473E+03  0.29429850740E+03  0.12500000000E+03 0.  0.
         25    1    1    2    0    0 -0.70324995949E+02 -0.15322751730E+03  0.97177020769E+02  0.23128478220E+03  0.12500000000E+03 0.  0.
         25    1    1    2    0    0  0.19908571566E+02  0.44062911732E+02  0.57289516799E+02  0.14575657840E+03  0.12500000000E+03 0.  0.
</event>
<event>
 5    0  0.5713700E-005  0.4270083E+03  0.7546771E-02  0.1034809E+00
         21   -1    0    0  502  501  0.00000000000E+00  0.00000000000E+00  0.21665425629E+03  0.21665425629E+03  0.00000000000E+00 0.  1.
         21   -1    0    0  501  502 -0.00000000000E+00 -0.00000000000E+00 -0.84159954691E+03  0.84159954691E+03  0.00000000000E+00 0.  1.
         25    1    1    2    0    0 -0.80388783519E+02  0.15255886747E+03 -0.28154377131E+02  0.21483536373E+03  0.12500000000E+03 0.  0.
         25    1    1    2    0    0 -0.12302360966E+03 -0.27602693307E+03 -0.31772430477E+03  0.45595987779E+03  0.12500000000E+03 0.  0.
         25    1    1    2    0    0  0.20341239317E+03  0.12346806560E+03 -0.27906660872E+03  0.38745856168E+03  0.12500000000E+03 0.  0.
</event>
<event>
 5    0  0.5713700E-005  0.2323915E+03  0.7546771E-02  0.1124968E+00
         21   -1    0    0  502  501  0.00000000000E+00  0.00000000000E+00  0.16321887537E+03  0.16321887537E+03  0.00000000000E+00 0. -1.
         21   -1    0    0  501  502 -0.00000000000E+00 -0.00000000000E+00 -0.33087970382E+03  0.33087970382E+03  0.00000000000E+00 0. -1.
         25    1    1    2    0    0  0.22306401385E+02  0.81102316339E+02  0.38266749607E+01  0.15071431485E+03  0.12500000000E+03 0.  0.
         25    1    1    2    0    0  0.31105014482E+01  0.28541999304E+02 -0.60071463308E+02  0.14162592152E+03  0.12500000000E+03 0.  0.
         25    1    1    2    0    0 -0.25416902833E+02 -0.10964431564E+03 -0.11141604011E+03  0.20175834281E+03  0.12500000000E+03 0.  0.
</event>
<event>
 5    0  0.5713700E-005  0.3228805E+03  0.7546771E-02  0.1074331E+00
         21   -1    0    0  502  501  0.00000000000E+00  0.00000000000E+00  0.41266689175E+03  0.41266689175E+03  0.00000000000E+00 0.  1.
         21   -1    0    0  501  502 -0.00000000000E+00 -0.00000000000E+00 -0.25262944686E+03  0.25262944686E+03  0.00000000000E+00 0.  1.
         25    1    1    2    0    0 -0.30783912135E+02 -0.67209927910E+02 -0.13892078412E+02  0.14588630333E+03  0.12500000000E+03 0.  0.
         25    1    1    2    0    0 -0.18005939886E+03 -0.19189841261E+02  0.13076151814E+03  0.25595548783E+03  0.12500000000E+03 0.  0.
         25    1    1    2    0    0  0.21084331100E+03  0.86399769172E+02  0.43168005160E+02  0.26345454745E+03  0.12500000000E+03 0.  0.
</event>
<event>
 5    0  0.5713700E-005  0.6749333E+03  0.7546771E-02  0.9761087E-01
         21   -1    0    0  502  501  0.00000000000E+00  0.00000000000E+00  0.11285642527E+04  0.11285642527E+04  0.00000000000E+00 0.  1.
         21   -1    0    0  501  502 -0.00000000000E+00 -0.00000000000E+00 -0.40364117654E+03  0.40364117654E+03  0.00000000000E+00 0.  1.
         25    1    1    2    0    0  0.16872235335E+03 -0.51943484217E+02  0.45029472228E+02  0.22094798356E+03  0.12500000000E+03 0.  0.
         25    1    1    2    0    0  0.70850441375E+02 -0.45276497073E+03  0.79425220176E+02  0.48161111840E+03  0.12500000000E+03 0.  0.
         25    1    1    2    0    0 -0.23957279472E+03  0.50470845495E+03  0.60046838373E+03  0.82964632725E+03  0.12500000000E+03 0.  0.
</event>
<event>
 5    0  0.5713700E-005  0.3648092E+03  0.7546771E-02  0.1056696E+00
         21   -1    0    0  502  501  0.00000000000E+00  0.00000000000E+00  0.25761973635E+03  0.25761973635E+03  0.00000000000E+00 0. -1.
         21   -1    0    0  501  502 -0.00000000000E+00 -0.00000000000E+00 -0.51659754743E+03  0.51659754743E+03  0.00000000000E+00 0. -1.
         25    1    1    2    0    0  0.11812323726E+02  0.22575719604E+02 -0.93773584288E+02  0.15832775884E+03  0.12500000000E+03 0.  0.
         25    1    1    2    0    0 -0.11859071929E+03  0.14613247938E+03  0.11195882357E+03  0.25214725540E+03  0.12500000000E+03 0.  0.
         25    1    1    2    0    0  0.10677839556E+03 -0.16870819898E+03 -0.27716305036E+03  0.36374226954E+03  0.12500000000E+03 0.  0.
</event>
<event>
 5    0  0.5713700E-005  0.3100289E+03  0.7546771E-02  0.1080332E+00
         21   -1    0    0  502  501  0.00000000000E+00  0.00000000000E+00  0.26682924477E+03  0.26682924477E+03  0.00000000000E+00 0. -1.
         21   -1    0    0  501  502 -0.00000000000E+00 -0.00000000000E+00 -0.36022266892E+03  0.36022266892E+03  0.00000000000E+00 0. -1.
         25    1    1    2    0    0 -0.90035529004E+02 -0.43329069362E+02  0.10404596560E+03  0.19087788686E+03  0.12500000000E+03 0.  0.
         25    1    1    2    0    0 -0.62843421121E+02  0.10372159338E+03 -0.13524188865E+03  0.22050585696E+03  0.12500000000E+03 0.  0.
         25    1    1    2    0    0  0.15287895012E+03 -0.60392524013E+02 -0.62197501109E+02  0.21566816986E+03  0.12500000000E+03 0.  0.
</event>
<event>
 5    0  0.6017789E-005  0.3102691E+03  0.7546771E-02  0.1080217E+00
         21   -1    0    0  502  501  0.00000000000E+00  0.00000000000E+00  0.21284042312E+03  0.21284042312E+03  0.00000000000E+00 0.  1.
         21   -1    0    0  501  502 -0.00000000000E+00 -0.00000000000E+00 -0.45229612358E+03  0.45229612358E+03  0.00000000000E+00 0.  1.
         25    1    1    2    0    0 -0.88710741760E+02  0.38336416242E+02  0.19783973891E+02  0.15923467630E+03  0.12500000000E+03 0.  0.
         25    1    1    2    0    0 -0.23006953519E+02  0.12683030719E+03 -0.18810149240E+03  0.26004310830E+03  0.12500000000E+03 0.  0.
         25    1    1    2    0    0  0.11171769528E+03 -0.16516672343E+03 -0.71138181950E+02  0.24585876209E+03  0.12500000000E+03 0.  0.
</event>
<event>
 5    0  0.5713700E-005  0.3448605E+03  0.7546771E-02  0.1064744E+00
         21   -1    0    0  502  501  0.00000000000E+00  0.00000000000E+00  0.49108536585E+03  0.49108536585E+03  0.00000000000E+00 0. -1.
         21   -1    0    0  501  502 -0.00000000000E+00 -0.00000000000E+00 -0.24217527481E+03  0.24217527481E+03  0.00000000000E+00 0. -1.
         25    1    1    2    0    0  0.70775618813E+02  0.55327914154E+02 -0.62758793473E+02  0.16623487138E+03  0.12500000000E+03 0.  0.
         25    1    1    2    0    0 -0.18320672792E+02  0.15917822514E+03  0.21402751565E+03  0.29513747960E+03  0.12500000000E+03 0.  0.
         25    1    1    2    0    0 -0.52454946022E+02 -0.21450613929E+03  0.97641368858E+02  0.27188828969E+03  0.12500000000E+03 0.  0.
</event>
<event>
 5    0  0.5713700E-005  0.3404879E+03  0.7546771E-02  0.1066588E+00
         21   -1    0    0  502  501  0.00000000000E+00  0.00000000000E+00  0.93941913526E+03  0.93941913526E+03  0.00000000000E+00 0. -1.
         21   -1    0    0  501  502 -0.00000000000E+00 -0.00000000000E+00 -0.12340821863E+03  0.12340821863E+03  0.00000000000E+00 0. -1.
         25    1    1    2    0    0 -0.12110959423E+03  0.13715237798E+03  0.51874013469E+03  0.56408743643E+03  0.12500000000E+03 0.  0.
         25    1    1    2    0    0  0.18086601107E+03 -0.81613401909E+02  0.10936901613E+03  0.25876600052E+03  0.12500000000E+03 0.  0.
         25    1    1    2    0    0 -0.59756416842E+02 -0.55538976074E+02  0.18790176581E+03  0.23997391694E+03  0.12500000000E+03 0.  0.
</event>
<event>
 5    0  0.5713700E-005  0.2731452E+03  0.7546771E-02  0.1099493E+00
         21   -1    0    0  502  501  0.00000000000E+00  0.00000000000E+00  0.29196456148E+02  0.29196456148E+02  0.00000000000E+00 0.  1.
         21   -1    0    0  501  502 -0.00000000000E+00 -0.00000000000E+00 -0.25553887296E+04  0.25553887296E+04  0.00000000000E+00 0.  1.
         25    1    1    2    0    0  0.61951674616E+02  0.11182544513E+03 -0.51112987844E+03  0.54149948550E+03  0.12500000000E+03 0.  0.
         25    1    1    2    0    0  0.47306373358E+02 -0.66809137863E+02 -0.63491765320E+03  0.65226281528E+03  0.12500000000E+03 0.  0.
         25    1    1    2    0    0 -0.10925804797E+03 -0.45016307270E+02 -0.13801447418E+04  0.13908228850E+04  0.12500000000E+03 0.  0.
</event>
<event>
 5    0  0.5713700E-005  0.4679206E+03  0.7546771E-02  0.1022509E+00
         21   -1    0    0  502  501  0.00000000000E+00  0.00000000000E+00  0.46631537439E+03  0.46631537439E+03  0.00000000000E+00 0. -1.
         21   -1    0    0  501  502 -0.00000000000E+00 -0.00000000000E+00 -0.46953126906E+03  0.46953126906E+03  0.00000000000E+00 0. -1.
         25    1    1    2    0    0 -0.10539160305E+03 -0.35419640706E+03 -0.88681428413E+01  0.39021292741E+03  0.12500000000E+03 0.  0.
         25    1    1    2    0    0 -0.96328172882E+02  0.68499618592E+02 -0.20818315917E+02  0.17329084487E+03  0.12500000000E+03 0.  0.
         25    1    1    2    0    0  0.20171977593E+03  0.28569678846E+03  0.26470564086E+02  0.37234287116E+03  0.12500000000E+03 0.  0.
</event>
<event>
 5    0  0.5713700E-005  0.4191866E+03  0.7546771E-02  0.1037331E+00
         21   -1    0    0  502  501  0.00000000000E+00  0.00000000000E+00  0.89637239664E+03  0.89637239664E+03  0.00000000000E+00 0. -1.
         21   -1    0    0  501  502 -0.00000000000E+00 -0.00000000000E+00 -0.19603169096E+03  0.19603169096E+03  0.00000000000E+00 0. -1.
         25    1    1    2    0    0  0.76729128356E+02 -0.19357352383E+03  0.47947922941E+02  0.24755215932E+03  0.12500000000E+03 0.  0.
         25    1    1    2    0    0 -0.13121952376E+03 -0.10409222077E+03  0.23845704259E+03  0.31708124353E+03  0.12500000000E+03 0.  0.
         25    1    1    2    0    0  0.54490395408E+02  0.29766574460E+03  0.41393574015E+03  0.52777068475E+03  0.12500000000E+03 0.  0.
</event>
<event>
 5    0  0.5713700E-005  0.3605548E+03  0.7546771E-02  0.1058364E+00
         21   -1    0    0  502  501  0.00000000000E+00  0.00000000000E+00  0.33381161990E+03  0.33381161990E+03  0.00000000000E+00 0.  1.
         21   -1    0    0  501  502 -0.00000000000E+00 -0.00000000000E+00 -0.38944042269E+03  0.38944042269E+03  0.00000000000E+00 0.  1.
         25    1    1    2    0    0  0.12167348779E+03 -0.11528239979E+03 -0.13577310700E+03  0.24930665036E+03  0.12500000000E+03 0.  0.
         25    1    1    2    0    0 -0.23251563736E+03  0.12589196533E+03  0.10563762757E+02  0.29265833601E+03  0.12500000000E+03 0.  0.
         25    1    1    2    0    0  0.11084214958E+03 -0.10609565541E+02  0.69580541455E+02  0.18128705622E+03  0.12500000000E+03 0.  0.
</event>
<event>
 5    0  0.5713700E-005  0.2678264E+03  0.7546771E-02  0.1102530E+00
         21   -1    0    0  502  501  0.00000000000E+00  0.00000000000E+00  0.24383087877E+03  0.24383087877E+03  0.00000000000E+00 0.  1.
         21   -1    0    0  501  502 -0.00000000000E+00 -0.00000000000E+00 -0.29418340866E+03  0.29418340866E+03  0.00000000000E+00 0.  1.
         25    1    1    2    0    0  0.40775585996E+01  0.93438253419E+02 -0.69079870940E+02  0.17071719965E+03  0.12500000000E+03 0.  0.
         25    1    1    2    0    0  0.10737546804E+03  0.17173714764E+02 -0.45450306014E+00  0.16567931129E+03  0.12500000000E+03 0.  0.
         25    1    1    2    0    0 -0.11145302664E+03 -0.11061196818E+03  0.19181844110E+02  0.20161777649E+03  0.12500000000E+03 0.  0.
</event>
<event>
 5    0  0.5713700E-005  0.3923669E+03  0.7546771E-02  0.1046455E+00
         21   -1    0    0  502  501  0.00000000000E+00  0.00000000000E+00  0.46156355859E+03  0.46156355859E+03  0.00000000000E+00 0.  1.
         21   -1    0    0  501  502 -0.00000000000E+00 -0.00000000000E+00 -0.33354412069E+03  0.33354412069E+03  0.00000000000E+00 0.  1.
         25    1    1    2    0    0  0.16708890069E+03  0.18249063358E+03  0.21817568197E+03  0.35277069079E+03  0.12500000000E+03 0.  0.
         25    1    1    2    0    0 -0.19560252140E+03 -0.19537304351E+03 -0.75420348250E+02  0.31264069063E+03  0.12500000000E+03 0.  0.
         25    1    1    2    0    0  0.28513620716E+02  0.12882409929E+02 -0.14735895820E+02  0.12969629786E+03  0.12500000000E+03 0.  0.
</event>
<event>
 5    0  0.5713700E-005  0.3403080E+03  0.7546771E-02  0.1066665E+00
         21   -1    0    0  502  501  0.00000000000E+00  0.00000000000E+00  0.19677629760E+03  0.19677629760E+03  0.00000000000E+00 0.  1.
         21   -1    0    0  501  502 -0.00000000000E+00 -0.00000000000E+00 -0.58853409139E+03  0.58853409139E+03  0.00000000000E+00 0.  1.
         25    1    1    2    0    0 -0.14322846014E+03 -0.13994028300E+03 -0.31527418669E+03  0.39385338312E+03  0.12500000000E+03 0.  0.
         25    1    1    2    0    0  0.39663893849E+02 -0.31468831967E+02  0.20164207198E+02  0.13636387759E+03  0.12500000000E+03 0.  0.
         25    1    1    2    0    0  0.10356456629E+03  0.17140911497E+03 -0.96647814291E+02  0.25509312827E+03  0.12500000000E+03 0.  0.
</event>
<event>
 5    0  0.5713700E-005  0.3177276E+03  0.7546771E-02  0.1076700E+00
         21   -1    0    0  502  501  0.00000000000E+00  0.00000000000E+00  0.29220161732E+02  0.29220161732E+02  0.00000000000E+00 0.  1.
         21   -1    0    0  501  502 -0.00000000000E+00 -0.00000000000E+00 -0.34548338469E+04  0.34548338469E+04  0.00000000000E+00 0.  1.
         25    1    1    2    0    0  0.41458898609E+02  0.17042223619E+03 -0.13389419418E+04  0.13561537901E+04  0.12500000000E+03 0.  0.
         25    1    1    2    0    0  0.24246284380E+02  0.20122412556E+02 -0.31397653971E+03  0.33940987210E+03  0.12500000000E+03 0.  0.
         25    1    1    2    0    0 -0.65705182989E+02 -0.19054464874E+03 -0.17726952036E+04  0.17884903464E+04  0.12500000000E+03 0.  0.
</event>
<event>
 5    0  0.5713700E-005  0.2990974E+03  0.7546771E-02  0.1085693E+00
         21   -1    0    0  502  501  0.00000000000E+00  0.00000000000E+00  0.60628439975E+02  0.60628439975E+02  0.00000000000E+00 0. -1.
         21   -1    0    0  501  502 -0.00000000000E+00 -0.00000000000E+00 -0.14755325925E+04  0.14755325925E+04  0.00000000000E+00 0. -1.
         25    1    1    2    0    0 -0.96516353631E+02 -0.10494687124E+02 -0.81780254442E+03  0.83297751869E+03  0.12500000000E+03 0.  0.
         25    1    1    2    0    0  0.20651398235E+02  0.12757164901E+03 -0.23931584238E+03  0.29932938094E+03  0.12500000000E+03 0.  0.
         25    1    1    2    0    0  0.75864955396E+02 -0.11707696189E+03 -0.35778576572E+03  0.40385413285E+03  0.12500000000E+03 0.  0.
</event>
<event>
 5    0  0.5713700E-005  0.4656566E+03  0.7546771E-02  0.1023153E+00
         21   -1    0    0  502  501  0.00000000000E+00  0.00000000000E+00  0.29396954445E+03  0.29396954445E+03  0.00000000000E+00 0.  1.
         21   -1    0    0  501  502 -0.00000000000E+00 -0.00000000000E+00 -0.73761416553E+03  0.73761416553E+03  0.00000000000E+00 0.  1.
         25    1    1    2    0    0  0.97428169581E+02 -0.23903947324E+02 -0.63620361720E+03  0.65608207525E+03  0.12500000000E+03 0.  0.
         25    1    1    2    0    0 -0.10245657054E+03  0.13572364897E+02  0.21923460885E+02  0.16366794455E+03  0.12500000000E+03 0.  0.
         25    1    1    2    0    0  0.50284009633E+01  0.10331582427E+02  0.17063553523E+03  0.21183369018E+03  0.12500000000E+03 0.  0.
</event>
<event>
 5    0  0.5713700E-005  0.2814516E+03  0.7546771E-02  0.1094899E+00
         21   -1    0    0  502  501  0.00000000000E+00  0.00000000000E+00  0.92707028407E+03  0.92707028407E+03  0.00000000000E+00 0.  1.
         21   -1    0    0  501  502 -0.00000000000E+00 -0.00000000000E+00 -0.85446574712E+02  0.85446574712E+02  0.00000000000E+00 0.  1.
         25    1    1    2    0    0  0.54924852234E+02 -0.17378743268E+00  0.38901600366E+03  0.41228051215E+03  0.12500000000E+03 0.  0.
         25    1    1    2    0    0 -0.65589188312E+02 -0.14491655499E+03  0.22453832941E+03  0.30223370247E+03  0.12500000000E+03 0.  0.
         25    1    1    2    0    0  0.10664336078E+02  0.14509034242E+03  0.22806937628E+03  0.29800264416E+03  0.12500000000E+03 0.  0.
</event>
<event>
 5    0  0.5713700E-005  0.2884246E+03  0.7546771E-02  0.1091175E+00
         21   -1    0    0  502  501  0.00000000000E+00  0.00000000000E+00  0.64515137883E+03  0.64515137883E+03  0.00000000000E+00 0. -1.
         21   -1    0    0  501  502 -0.00000000000E+00 -0.00000000000E+00 -0.12894454754E+03  0.12894454754E+03  0.00000000000E+00 0. -1.
         25    1    1    2    0    0  0.56933862943E+02 -0.10317772541E+03  0.36132347321E+02  0.17554957788E+03  0.12500000000E+03 0.  0.
         25    1    1    2    0    0  0.21041967252E+02  0.93991887634E+02  0.90431147778E+02  0.18187916817E+03  0.12500000000E+03 0.  0.
         25    1    1    2    0    0 -0.77975830196E+02  0.91858377734E+01  0.38964333620E+03  0.41666718032E+03  0.12500000000E+03 0.  0.
</event>
<event>
 5    0  0.5713700E-005  0.3444248E+03  0.7546771E-02  0.1064927E+00
         21   -1    0    0  502  501  0.00000000000E+00  0.00000000000E+00  0.27929701632E+03  0.27929701632E+03  0.00000000000E+00 0.  1.
         21   -1    0    0  501  502 -0.00000000000E+00 -0.00000000000E+00 -0.42473930487E+03  0.42473930487E+03  0.00000000000E+00 0.  1.
         25    1    1    2    0    0 -0.36263985296E+02  0.23506820085E+03  0.82747627813E+00  0.26869652100E+03  0.12500000000E+03 0.  0.
         25    1    1    2    0    0 -0.63569756924E+02 -0.20111186650E+03 -0.10472296547E+03  0.26660644467E+03  0.12500000000E+03 0.  0.
         25    1    1    2    0    0  0.99833742220E+02 -0.33956334343E+02 -0.41546799355E+02  0.16873335552E+03  0.12500000000E+03 0.  0.
</event>
<event>
 5    0  0.5713700E-005  0.4422649E+03  0.7546771E-02  0.1030054E+00
         21   -1    0    0  502  501  0.00000000000E+00  0.00000000000E+00  0.11173275942E+04  0.11173275942E+04  0.00000000000E+00 0. -1.
         21   -1    0    0  501  502 -0.00000000000E+00 -0.00000000000E+00 -0.17505901567E+03  0.17505901567E+03  0.00000000000E+00 0.  1.
         25    1    1    2    0    0  0.79252419216E+02 -0.22331293179E+03  0.64487734871E+03  0.69831325803E+03  0.12500000000E+03 0.  0.
         25    1    1    2    0    0 -0.15488185734E+03  0.18618303366E+03  0.34158357643E+03  0.43698609982E+03  0.12500000000E+03 0.  0.
         25    1    1    2    0    0  0.75629438125E+02  0.37129898132E+02 -0.44192346612E+02  0.15708725201E+03  0.12500000000E+03 0.  0.
</event>
<event>
 5    0  0.5713700E-005  0.3191770E+03  0.7546771E-02  0.1076029E+00
         21   -1    0    0  502  501  0.00000000000E+00  0.00000000000E+00  0.60196394330E+03  0.60196394330E+03  0.00000000000E+00 0. -1.
         21   -1    0    0  501  502 -0.00000000000E+00 -0.00000000000E+00 -0.16923595731E+03  0.16923595731E+03  0.00000000000E+00 0. -1.
         25    1    1    2    0    0  0.92445171774E+02  0.20327795361E+03  0.10644466724E+03  0.27717053125E+03  0.12500000000E+03 0.  0.
         25    1    1    2    0    0  0.22825291926E+02 -0.46014986809E+02  0.85418217417E+02  0.15987384035E+03  0.12500000000E+03 0.  0.
         25    1    1    2    0    0 -0.11527046370E+03 -0.15726296680E+03  0.24086510133E+03  0.33415552901E+03  0.12500000000E+03 0.  0.
</event>
<event>
 5    0  0.5713700E-005  0.3479076E+03  0.7546771E-02  0.1063477E+00
         21   -1    0    0  502  501  0.00000000000E+00  0.00000000000E+00  0.28107790962E+03  0.28107790962E+03  0.00000000000E+00 0. -1.
         21   -1    0    0  501  502 -0.00000000000E+00 -0.00000000000E+00 -0.43062674603E+03  0.43062674603E+03  0.00000000000E+00 0. -1.
         25    1    1    2    0    0  0.80759947213E+02 -0.54950251799E+02 -0.51839936431E+02  0.16689541113E+03  0.12500000000E+03 0.  0.
         25    1    1    2    0    0  0.48212176090E+01  0.24936127986E+03  0.18780736663E+01  0.27898533867E+03  0.12500000000E+03 0.  0.
         25    1    1    2    0    0 -0.85581164822E+02 -0.19441102806E+03 -0.99586973641E+02  0.26582390585E+03  0.12500000000E+03 0.  0.
</event>
<event>
 5    0  0.5713700E-005  0.2574757E+03  0.7546771E-02  0.1108669E+00
         21   -1    0    0  502  501  0.00000000000E+00  0.00000000000E+00  0.17110028901E+03  0.17110028901E+03  0.00000000000E+00 0.  1.
         21   -1    0    0  501  502 -0.00000000000E+00 -0.00000000000E+00 -0.38745541576E+03  0.38745541576E+03  0.00000000000E+00 0.  1.
         25    1    1    2    0    0 -0.54198363953E+02  0.39811023978E+02 -0.22152430529E+03  0.26309769691E+03  0.12500000000E+03 0.  0.
         25    1    1    2    0    0  0.96876296595E+02 -0.37367208011E+02 -0.79916346676E+01  0.16269662351E+03  0.12500000000E+03 0.  0.
         25    1    1    2    0    0 -0.42677932642E+02 -0.24438159675E+01  0.13160813201E+02  0.13276138435E+03  0.12500000000E+03 0.  0.
</event>
<event>
 5    0  0.5713700E-005  0.3592019E+03  0.7546771E-02  0.1058900E+00
         21   -1    0    0  502  501  0.00000000000E+00  0.00000000000E+00  0.44377671658E+03  0.44377671658E+03  0.00000000000E+00 0. -1.
         21   -1    0    0  501  502 -0.00000000000E+00 -0.00000000000E+00 -0.29074531587E+03  0.29074531587E+03  0.00000000000E+00 0. -1.
         25    1    1    2    0    0 -0.25502359283E+03 -0.28998848103E+02  0.85582294937E+02  0.29803908351E+03  0.12500000000E+03 0.  0.
         25    1    1    2    0    0  0.20672977625E+03 -0.29736092536E+02 -0.50451663315E+02  0.24857957663E+03  0.12500000000E+03 0.  0.
         25    1    1    2    0    0  0.48293816582E+02  0.58734940638E+02  0.11790076909E+03  0.18790337231E+03  0.12500000000E+03 0.  0.
</event>
<event>
 5    0  0.5713700E-005  0.2737795E+03  0.7546771E-02  0.1099136E+00
         21   -1    0    0  502  501  0.00000000000E+00  0.00000000000E+00  0.63969034011E+02  0.63969034011E+02  0.00000000000E+00 0. -1.
         21   -1    0    0  501  502 -0.00000000000E+00 -0.00000000000E+00 -0.11717418252E+04  0.11717418252E+04  0.00000000000E+00 0. -1.
         25    1    1    2    0    0 -0.52085756980E+02  0.92117764527E+02 -0.10329764820E+03  0.19363370767E+03  0.12500000000E+03 0.  0.
         25    1    1    2    0    0  0.51938761803E+02 -0.34053184523E+02 -0.50541931196E+03  0.52433856930E+03  0.12500000000E+03 0.  0.
         25    1    1    2    0    0  0.14699517718E+00 -0.58064580005E+02 -0.49905583103E+03  0.51773858225E+03  0.12500000000E+03 0.  0.
</event>
<event>
 5    0  0.5713700E-005  0.5803492E+03  0.7546771E-02  0.9947035E-01
         21   -1    0    0  502  501  0.00000000000E+00  0.00000000000E+00  0.12299155070E+04  0.12299155070E+04  0.00000000000E+00 0. -1.
         21   -1    0    0  501  502 -0.00000000000E+00 -0.00000000000E+00 -0.27384417513E+03  0.27384417513E+03  0.00000000000E+00 0. -1.
         25    1    1    2    0    0  0.23165657954E+03  0.24189722430E+03  0.26527284046E+03  0.44516706735E+03  0.12500000000E+03 0.  0.
         25    1    1    2    0    0  0.12702258334E+03  0.77878499259E+02 -0.15645165329E+02  0.19511424480E+03  0.12500000000E+03 0.  0.
         25    1    1    2    0    0 -0.35867916288E+03 -0.31977572356E+03  0.70644365669E+03  0.86347836993E+03  0.12500000000E+03 0.  0.
</event>
<event>
 5    0  0.5713700E-005  0.3100195E+03  0.7546771E-02  0.1080337E+00
         21   -1    0    0  502  501  0.00000000000E+00  0.00000000000E+00  0.44269489580E+03  0.44269489580E+03  0.00000000000E+00 0.  1.
         21   -1    0    0  501  502 -0.00000000000E+00 -0.00000000000E+00 -0.21710677239E+03  0.21710677239E+03  0.00000000000E+00 0.  1.
         25    1    1    2    0    0  0.11433903257E+03  0.91548246349E+02  0.32681225155E+02  0.19531399913E+03  0.12500000000E+03 0.  0.
         25    1    1    2    0    0  0.12081453240E+02  0.96615629355E+02  0.10916112982E+03  0.19241022221E+03  0.12500000000E+03 0.  0.
         25    1    1    2    0    0 -0.12642048581E+03 -0.18816387570E+03  0.83745768440E+02  0.27207744685E+03  0.12500000000E+03 0.  0.
</event>
<event>
 5    0  0.5713700E-005  0.2963157E+03  0.7546771E-02  0.1087097E+00
         21   -1    0    0  502  501  0.00000000000E+00  0.00000000000E+00  0.76931018128E+02  0.76931018128E+02  0.00000000000E+00 0. -1.
         21   -1    0    0  501  502 -0.00000000000E+00 -0.00000000000E+00 -0.11413210015E+04  0.11413210015E+04  0.00000000000E+00 0. -1.
         25    1    1    2    0    0  0.20099886227E+02 -0.11691294896E+02 -0.18992483923E+02  0.12855507088E+03  0.12500000000E+03 0.  0.
         25    1    1    2    0    0  0.23839713916E+01  0.61495865127E+02 -0.76837508500E+03  0.78090504929E+03  0.12500000000E+03 0.  0.
         25    1    1    2    0    0 -0.22483857618E+02 -0.49804570231E+02 -0.27702241444E+03  0.30879189946E+03  0.12500000000E+03 0.  0.
</event>
<event>
 5    0  0.5713700E-005  0.2956715E+03  0.7546771E-02  0.1087425E+00
         21   -1    0    0  502  501  0.00000000000E+00  0.00000000000E+00  0.18971503839E+03  0.18971503839E+03  0.00000000000E+00 0. -1.
         21   -1    0    0  501  502 -0.00000000000E+00 -0.00000000000E+00 -0.46080496620E+03  0.46080496620E+03  0.00000000000E+00 0. -1.
         25    1    1    2    0    0 -0.13233411026E+03  0.39596078983E+02 -0.28396622377E+03  0.33962035047E+03  0.12500000000E+03 0.  0.
         25    1    1    2    0    0  0.12283037158E+03 -0.31555599363E+01  0.34304349235E+02  0.17860304061E+03  0.12500000000E+03 0.  0.
         25    1    1    2    0    0  0.95037386864E+01 -0.36440519046E+02 -0.21428053279E+02  0.13229661350E+03  0.12500000000E+03 0.  0.
</event>
<event>
 5    0  0.5713700E-005  0.3455639E+03  0.7546771E-02  0.1064451E+00
         21   -1    0    0  502  501  0.00000000000E+00  0.00000000000E+00  0.24265874945E+03  0.24265874945E+03  0.00000000000E+00 0. -1.
         21   -1    0    0  501  502 -0.00000000000E+00 -0.00000000000E+00 -0.49210841624E+03  0.49210841624E+03  0.00000000000E+00 0. -1.
         25    1    1    2    0    0  0.19054450382E+03 -0.15366446782E+03 -0.15502725600E+03  0.31556049612E+03  0.12500000000E+03 0.  0.
         25    1    1    2    0    0 -0.46130458617E+02  0.10308323439E+03 -0.13694326552E+03  0.21710050759E+03  0.12500000000E+03 0.  0.
         25    1    1    2    0    0 -0.14441404520E+03  0.50581233429E+02  0.42520854726E+02  0.20210616199E+03  0.12500000000E+03 0.  0.
</event>
<event>
 5    0  0.5713700E-005  0.2696839E+03  0.7546771E-02  0.1101461E+00
         21   -1    0    0  502  501  0.00000000000E+00  0.00000000000E+00  0.23716753958E+03  0.23716753958E+03  0.00000000000E+00 0. -1.
         21   -1    0    0  501  502 -0.00000000000E+00 -0.00000000000E+00 -0.30665830215E+03  0.30665830215E+03  0.00000000000E+00 0. -1.
         25    1    1    2    0    0 -0.11191109874E+03  0.43813434304E+02 -0.76999257509E+02  0.18973032626E+03  0.12500000000E+03 0.  0.
         25    1    1    2    0    0 -0.56174977081E+02  0.10866420737E+02 -0.85846264118E-01  0.13747259552E+03  0.12500000000E+03 0.  0.
         25    1    1    2    0    0  0.16808607582E+03 -0.54679855041E+02  0.75943412048E+01  0.21662291995E+03  0.12500000000E+03 0.  0.
</event>
<event>
 5    0  0.5713700E-005  0.2557354E+03  0.7546771E-02  0.1109733E+00
         21   -1    0    0  502  501  0.00000000000E+00  0.00000000000E+00  0.34660045766E+03  0.34660045766E+03  0.00000000000E+00 0.  1.
         21   -1    0    0  501  502 -0.00000000000E+00 -0.00000000000E+00 -0.18869164628E+03  0.18869164628E+03  0.00000000000E+00 0.  1.
         25    1    1    2    0    0 -0.45770770558E+02 -0.11758254638E+03  0.80192981604E+01  0.17779181025E+03  0.12500000000E+03 0.  0.
         25    1    1    2    0    0 -0.28728006180E+02  0.32893894377E+00  0.10385877890E+03  0.16503651867E+03  0.12500000000E+03 0.  0.
         25    1    1    2    0    0  0.74498776738E+02  0.11725360743E+03  0.46030734323E+02  0.19246377502E+03  0.12500000000E+03 0.  0.
</event>
<event>
 5    0  0.5966429E-005  0.2466464E+03  0.7546771E-02  0.1115443E+00
         21   -1    0    0  502  501  0.00000000000E+00  0.00000000000E+00  0.13392965539E+03  0.13392965539E+03  0.00000000000E+00 0. -1.
         21   -1    0    0  501  502 -0.00000000000E+00 -0.00000000000E+00 -0.45422669341E+03  0.45422669341E+03  0.00000000000E+00 0. -1.
         25    1    1    2    0    0  0.34335579718E+02 -0.52754491839E+02 -0.48582926552E+02  0.14814610760E+03  0.12500000000E+03 0.  0.
         25    1    1    2    0    0  0.32386966636E+02 -0.34167368971E+01 -0.81511698734E+00  0.12917528446E+03  0.12500000000E+03 0.  0.
         25    1    1    2    0    0 -0.66722546354E+02  0.56171228736E+02 -0.27089899447E+03  0.31083495675E+03  0.12500000000E+03 0.  0.
</event>
<event>
 5    0  0.5713700E-005  0.3010969E+03  0.7546771E-02  0.1084694E+00
         21   -1    0    0  502  501  0.00000000000E+00  0.00000000000E+00  0.18293273777E+03  0.18293273777E+03  0.00000000000E+00 0. -1.
         21   -1    0    0  501  502 -0.00000000000E+00 -0.00000000000E+00 -0.49558842327E+03  0.49558842327E+03  0.00000000000E+00 0.  1.
         25    1    1    2    0    0 -0.10738649845E+03 -0.52942964980E+02 -0.45293356342E+02  0.17891703586E+03  0.12500000000E+03 0.  0.
         25    1    1    2    0    0  0.84621544900E+02  0.18481966441E+03 -0.14206960520E+03  0.27771907917E+03  0.12500000000E+03 0.  0.
         25    1    1    2    0    0  0.22764953554E+02 -0.13187669943E+03 -0.12529272396E+03  0.22188504600E+03  0.12500000000E+03 0.  0.
</event>
<event>
 5    0  0.7632623E-005  0.3149458E+03  0.7546771E-02  0.1077999E+00
         21   -1    0    0  502  501  0.00000000000E+00  0.00000000000E+00  0.36899466972E+03  0.36899466972E+03  0.00000000000E+00 0.  1.
         21   -1    0    0  501  502 -0.00000000000E+00 -0.00000000000E+00 -0.26881384111E+03  0.26881384111E+03  0.00000000000E+00 0.  1.
         25    1    1    2    0    0 -0.49546093887E+02  0.17632366245E+03 -0.10717235066E+03  0.24628390549E+03  0.12500000000E+03 0.  0.
         25    1    1    2    0    0 -0.27539951583E+02 -0.93145082866E+02  0.13437793403E+03  0.20764605595E+03  0.12500000000E+03 0.  0.
         25    1    1    2    0    0  0.77086045470E+02 -0.83178579580E+02  0.72975245245E+02  0.18387854939E+03  0.12500000000E+03 0.  0.
</event>
<event>
 5    0  0.5713700E-005  0.2636736E+03  0.7546771E-02  0.1104956E+00
         21   -1    0    0  502  501  0.00000000000E+00  0.00000000000E+00  0.71103831573E+02  0.71103831573E+02  0.00000000000E+00 0.  1.
         21   -1    0    0  501  502 -0.00000000000E+00 -0.00000000000E+00 -0.97777798848E+03  0.97777798848E+03  0.00000000000E+00 0.  1.
         25    1    1    2    0    0 -0.10313892539E+03 -0.11748428027E+03 -0.47288701830E+03  0.51350494265E+03  0.12500000000E+03 0.  0.
         25    1    1    2    0    0  0.10706174456E+03  0.71191601969E+02 -0.22635148559E+03  0.28877405764E+03  0.12500000000E+03 0.  0.
         25    1    1    2    0    0 -0.39228191699E+01  0.46292678303E+02 -0.20743565302E+03  0.24660281977E+03  0.12500000000E+03 0.  0.
</event>
<event>
 5    0  0.5713700E-005  0.5580350E+03  0.7546771E-02  0.9996511E-01
         21   -1    0    0  502  501  0.00000000000E+00  0.00000000000E+00  0.15149843302E+04  0.15149843302E+04  0.00000000000E+00 0.  1.
         21   -1    0    0  501  502 -0.00000000000E+00 -0.00000000000E+00 -0.20554866493E+03  0.20554866493E+03  0.00000000000E+00 0.  1.
         25    1    1    2    0    0  0.12842452183E+03  0.35542654668E+03  0.11850545501E+04  0.12501200640E+04  0.12500000000E+03 0.  0.
         25    1    1    2    0    0 -0.53453728853E+02 -0.17282216020E+03  0.66154455625E+02  0.22962188960E+03  0.12500000000E+03 0.  0.
         25    1    1    2    0    0 -0.74970792974E+02 -0.18260438648E+03  0.58226659535E+02  0.24079104145E+03  0.12500000000E+03 0.  0.
</event>
<event>
 5    0  0.6627892E-005  0.3577668E+03  0.7546771E-02  0.1059472E+00
         21   -1    0    0  502  501  0.00000000000E+00  0.00000000000E+00  0.33588064109E+03  0.33588064109E+03  0.00000000000E+00 0.  1.
         21   -1    0    0  501  502 -0.00000000000E+00 -0.00000000000E+00 -0.38107917715E+03  0.38107917715E+03  0.00000000000E+00 0.  1.
         25    1    1    2    0    0 -0.99815086696E+02 -0.10736025117E+03 -0.28831741064E+02  0.19479616104E+03  0.12500000000E+03 0.  0.
         25    1    1    2    0    0 -0.30554254610E+02 -0.91889041766E+01  0.18638424634E+03  0.22667616927E+03  0.12500000000E+03 0.  0.
         25    1    1    2    0    0  0.13036934131E+03  0.11654915534E+03 -0.20275104133E+03  0.29548748793E+03  0.12500000000E+03 0.  0.
</event>
<event>
 5    0  0.5713700E-005  0.3554627E+03  0.7546771E-02  0.1060395E+00
         21   -1    0    0  502  501  0.00000000000E+00  0.00000000000E+00  0.24718190394E+03  0.24718190394E+03  0.00000000000E+00 0. -1.
         21   -1    0    0  501  502 -0.00000000000E+00 -0.00000000000E+00 -0.51117701044E+03  0.51117701044E+03  0.00000000000E+00 0. -1.
         25    1    1    2    0    0 -0.12520275245E+01  0.11030026726E+03  0.66547956869E+02  0.17950305595E+03  0.12500000000E+03 0.  0.
         25    1    1    2    0    0  0.29863200120E+02 -0.14047262998E+03 -0.39025395480E+03  0.43422058879E+03  0.12500000000E+03 0.  0.
         25    1    1    2    0    0 -0.28611172596E+02  0.30172362712E+02  0.59710891433E+02  0.14463526964E+03  0.12500000000E+03 0.  0.
</event>
<event>
 5    0  0.5713700E-005  0.2513934E+03  0.7546771E-02  0.1112427E+00
         21   -1    0    0  502  501  0.00000000000E+00  0.00000000000E+00  0.16361378424E+04  0.16361378424E+04  0.00000000000E+00 0. -1.
         21   -1    0    0  501  502 -0.00000000000E+00 -0.00000000000E+00 -0.38626715453E+02  0.38626715453E+02  0.00000000000E+00 0. -1.
         25    1    1    2    0    0 -0.17213392024E+02 -0.68064147029E+01  0.12061385417E+03  0.17468637601E+03  0.12500000000E+03 0.  0.
         25    1    1    2    0    0  0.53470546673E+01 -0.34247599055E+02  0.79294589240E+03  0.80348595340E+03  0.12500000000E+03 0.  0.
         25    1    1    2    0    0  0.11866337356E+02  0.41054013758E+02  0.68395138034E+03  0.69659222841E+03  0.12500000000E+03 0.  0.
</event>
<event>
 5    0  0.5713700E-005  0.5141671E+03  0.7546771E-02  0.1010146E+00
         21   -1    0    0  502  501  0.00000000000E+00  0.00000000000E+00  0.24417894495E+03  0.24417894495E+03  0.00000000000E+00 0. -1.
         21   -1    0    0  501  502 -0.00000000000E+00 -0.00000000000E+00 -0.10826806890E+04  0.10826806890E+04  0.00000000000E+00 0. -1.
         25    1    1    2    0    0 -0.16877750797E+03  0.12773211286E+02  0.66387502811E+02  0.22063839795E+03  0.12500000000E+03 0.  0.
         25    1    1    2    0    0 -0.64874726589E+01 -0.22377760231E+03 -0.15894769083E+03  0.30167510838E+03  0.12500000000E+03 0.  0.
         25    1    1    2    0    0  0.17526498062E+03  0.21100439102E+03 -0.74594155601E+03  0.80454612761E+03  0.12500000000E+03 0.  0.
</event>
<event>
 5    0  0.5713700E-005  0.2953156E+03  0.7546771E-02  0.1087606E+00
         21   -1    0    0  502  501  0.00000000000E+00  0.00000000000E+00  0.78738664100E+03  0.78738664100E+03  0.00000000000E+00 0.  1.
         21   -1    0    0  501  502 -0.00000000000E+00 -0.00000000000E+00 -0.11076043164E+03  0.11076043164E+03  0.00000000000E+00 0.  1.
         25    1    1    2    0    0 -0.93074128322E+02  0.15658891756E+03  0.40369443338E+03  0.46019243584E+03  0.12500000000E+03 0.  0.
         25    1    1    2    0    0  0.83873470256E+02 -0.52664661693E+02  0.61106260709E+02  0.17078436902E+03  0.12500000000E+03 0.  0.
         25    1    1    2    0    0  0.92006580657E+01 -0.10392425587E+03  0.21182551526E+03  0.26717026777E+03  0.12500000000E+03 0.  0.
</event>
<event>
 5    0  0.5713700E-005  0.4278693E+03  0.7546771E-02  0.1034535E+00
         21   -1    0    0  502  501  0.00000000000E+00  0.00000000000E+00  0.92676876080E+03  0.92676876080E+03  0.00000000000E+00 0. -1.
         21   -1    0    0  501  502 -0.00000000000E+00 -0.00000000000E+00 -0.19753813674E+03  0.19753813674E+03  0.00000000000E+00 0. -1.
         25    1    1    2    0    0 -0.49032369886E+02 -0.84328695390E+02  0.64860459621E+03  0.66770384482E+03  0.12500000000E+03 0.  0.
         25    1    1    2    0    0 -0.12989946877E+03 -0.57292060101E+02  0.29676607488E+02  0.19147311344E+03  0.12500000000E+03 0.  0.
         25    1    1    2    0    0  0.17893183866E+03  0.14162075549E+03  0.50949420360E+02  0.26512993929E+03  0.12500000000E+03 0.  0.
</event>
<event>
 5    0  0.5713700E-005  0.3054638E+03  0.7546771E-02  0.1082541E+00
         21   -1    0    0  502  501  0.00000000000E+00  0.00000000000E+00  0.60744683120E+02  0.60744683120E+02  0.00000000000E+00 0.  1.
         21   -1    0    0  501  502 -0.00000000000E+00 -0.00000000000E+00 -0.15360709812E+04  0.15360709812E+04  0.00000000000E+00 0.  1.
         25    1    1    2    0    0  0.13824856150E+02 -0.83183939659E+02 -0.11168477563E+04  0.11269803038E+04  0.12500000000E+03 0.  0.
         25    1    1    2    0    0  0.91769492667E+01  0.10462013797E+03 -0.13498977581E+03  0.21184151916E+03  0.12500000000E+03 0.  0.
         25    1    1    2    0    0 -0.23001805417E+02 -0.21436198314E+02 -0.22348876598E+03  0.25799384134E+03  0.12500000000E+03 0.  0.
</event>
<event>
 5    0  0.5713700E-005  0.2703933E+03  0.7546771E-02  0.1101055E+00
         21   -1    0    0  502  501  0.00000000000E+00  0.00000000000E+00  0.51324724499E+03  0.51324724499E+03  0.00000000000E+00 0.  1.
         21   -1    0    0  501  502 -0.00000000000E+00 -0.00000000000E+00 -0.14245091985E+03  0.14245091985E+03  0.00000000000E+00 0.  1.
         25    1    1    2    0    0  0.62053162241E+02 -0.35596768726E+02  0.82375038622E+02  0.16591676189E+03  0.12500000000E+03 0.  0.
         25    1    1    2    0    0 -0.14753080030E+03  0.92463284639E+02  0.86680878752E+02  0.23119985031E+03  0.12500000000E+03 0.  0.
         25    1    1    2    0    0  0.85477638057E+02 -0.56866515913E+02  0.20174040777E+03  0.25858155264E+03  0.12500000000E+03 0.  0.
</event>
<event>
 5    0  0.5713700E-005  0.3248485E+03  0.7546771E-02  0.1073439E+00
         21   -1    0    0  502  501  0.00000000000E+00  0.00000000000E+00  0.91373313762E+02  0.91373313762E+02  0.00000000000E+00 0.  1.
         21   -1    0    0  501  502 -0.00000000000E+00 -0.00000000000E+00 -0.11548945412E+04  0.11548945412E+04  0.00000000000E+00 0.  1.
         25    1    1    2    0    0  0.63339286624E+02  0.38175839255E+02 -0.16726996578E+02  0.14619867423E+03  0.12500000000E+03 0.  0.
         25    1    1    2    0    0 -0.14119906173E+03 -0.18397639581E+02 -0.60178192502E+03  0.63090580395E+03  0.12500000000E+03 0.  0.
         25    1    1    2    0    0  0.77859775108E+02 -0.19778199674E+02 -0.44501230584E+03  0.46916337678E+03  0.12500000000E+03 0.  0.
</event>
<event>
 5    0  0.5713700E-005  0.2879824E+03  0.7546771E-02  0.1091407E+00
         21   -1    0    0  502  501  0.00000000000E+00  0.00000000000E+00  0.76170693188E+03  0.76170693188E+03  0.00000000000E+00 0.  1.
         21   -1    0    0  501  502 -0.00000000000E+00 -0.00000000000E+00 -0.10887897819E+03  0.10887897819E+03  0.00000000000E+00 0.  1.
         25    1    1    2    0    0  0.10612977678E+03 -0.42383691011E+02  0.29124474566E+03  0.33691008987E+03  0.12500000000E+03 0.  0.
         25    1    1    2    0    0 -0.10766909969E+03 -0.51180809163E+02  0.33271711838E+03  0.37488370346E+03  0.12500000000E+03 0.  0.
         25    1    1    2    0    0  0.15393229106E+01  0.93564500174E+02  0.28866089659E+02  0.15879211674E+03  0.12500000000E+03 0.  0.
</event>
<event>
 5    0  0.5713700E-005  0.2975653E+03  0.7546771E-02  0.1086464E+00
         21   -1    0    0  502  501  0.00000000000E+00  0.00000000000E+00  0.40777206985E+02  0.40777206985E+02  0.00000000000E+00 0.  1.
         21   -1    0    0  501  502 -0.00000000000E+00 -0.00000000000E+00 -0.21714366479E+04  0.21714366479E+04  0.00000000000E+00 0.  1.
         25    1    1    2    0    0 -0.42194947876E+02  0.85462440694E+02 -0.25020010139E+03  0.29548152756E+03  0.12500000000E+03 0.  0.
         25    1    1    2    0    0  0.11525533652E+03  0.45177318730E+02 -0.92253096434E+03  0.93915555841E+03  0.12500000000E+03 0.  0.
         25    1    1    2    0    0 -0.73060388644E+02 -0.13063975942E+03 -0.95792837516E+03  0.97757676889E+03  0.12500000000E+03 0.  0.
</event>
<event>
 5    0  0.5713700E-005  0.2813457E+03  0.7546771E-02  0.1094956E+00
         21   -1    0    0  502  501  0.00000000000E+00  0.00000000000E+00  0.33297375210E+03  0.33297375210E+03  0.00000000000E+00 0. -1.
         21   -1    0    0  501  502 -0.00000000000E+00 -0.00000000000E+00 -0.23772264924E+03  0.23772264924E+03  0.00000000000E+00 0. -1.
         25    1    1    2    0    0  0.13919757656E+03 -0.12433016736E+03 -0.30778848335E+02  0.22672955992E+03  0.12500000000E+03 0.  0.
         25    1    1    2    0    0 -0.95547042344E+02  0.75664624561E+02  0.97788260676E+02  0.20010476415E+03  0.12500000000E+03 0.  0.
         25    1    1    2    0    0 -0.43650534216E+02  0.48665542797E+02  0.28241690516E+02  0.14386207727E+03  0.12500000000E+03 0.  0.
</event>
<event>
 5    0  0.5713700E-005  0.2237087E+03  0.7546771E-02  0.1131148E+00
         21   -1    0    0  502  501  0.00000000000E+00  0.00000000000E+00  0.53169695781E+02  0.53169695781E+02  0.00000000000E+00 0. -1.
         21   -1    0    0  501  502 -0.00000000000E+00 -0.00000000000E+00 -0.94124255073E+03  0.94124255073E+03  0.00000000000E+00 0. -1.
         25    1    1    2    0    0  0.72307031895E+01 -0.34373315084E+02 -0.18744838545E+03  0.22802566756E+03  0.12500000000E+03 0.  0.
         25    1    1    2    0    0 -0.81864554597E+02 -0.20045644827E+02 -0.40952073702E+03  0.43638958194E+03  0.12500000000E+03 0.  0.
         25    1    1    2    0    0  0.74633851407E+02  0.54418959911E+02 -0.29110373249E+03  0.32999699702E+03  0.12500000000E+03 0.  0.
</event>
<event>
 5    0  0.5713700E-005  0.4569052E+03  0.7546771E-02  0.1025683E+00
         21   -1    0    0  502  501  0.00000000000E+00  0.00000000000E+00  0.50490971774E+03  0.50490971774E+03  0.00000000000E+00 0.  1.
         21   -1    0    0  501  502 -0.00000000000E+00 -0.00000000000E+00 -0.41346481537E+03  0.41346481537E+03  0.00000000000E+00 0.  1.
         25    1    1    2    0    0 -0.14560489496E+03 -0.30856670171E+02  0.13905515086E+03  0.23898588768E+03  0.12500000000E+03 0.  0.
         25    1    1    2    0    0  0.30201116405E+03  0.19550970071E+03 -0.13763749888E+03  0.40497390951E+03  0.12500000000E+03 0.  0.
         25    1    1    2    0    0 -0.15640626909E+03 -0.16465303054E+03  0.90027250393E+02  0.27441473592E+03  0.12500000000E+03 0.  0.
</event>
<event>
 5    0  0.5713700E-005  0.4130499E+03  0.7546771E-02  0.1039352E+00
         21   -1    0    0  502  501  0.00000000000E+00  0.00000000000E+00  0.28662097634E+03  0.28662097634E+03  0.00000000000E+00 0. -1.
         21   -1    0    0  501  502 -0.00000000000E+00 -0.00000000000E+00 -0.59524672270E+03  0.59524672270E+03  0.00000000000E+00 0. -1.
         25    1    1    2    0    0  0.24436283658E+02 -0.49421748645E+02  0.12238476189E+03  0.18341938595E+03  0.12500000000E+03 0.  0.
         25    1    1    2    0    0  0.19497775325E+02 -0.13122549319E+03 -0.43789146237E+03  0.47431448020E+03  0.12500000000E+03 0.  0.
         25    1    1    2    0    0 -0.43934058983E+02  0.18064724184E+03  0.68809541174E+01  0.22413383290E+03  0.12500000000E+03 0.  0.
</event>
<event>
 5    0  0.5713700E-005  0.2846264E+03  0.7546771E-02  0.1093189E+00
         21   -1    0    0  502  501  0.00000000000E+00  0.00000000000E+00  0.52571172843E+03  0.52571172843E+03  0.00000000000E+00 0.  1.
         21   -1    0    0  501  502 -0.00000000000E+00 -0.00000000000E+00 -0.15410003213E+03  0.15410003213E+03  0.00000000000E+00 0.  1.
         25    1    1    2    0    0 -0.89744587734E+02 -0.13053063558E+03  0.15107483860E+03  0.25207329234E+03  0.12500000000E+03 0.  0.
         25    1    1    2    0    0  0.11941158622E+03  0.91303040734E+02  0.34887660431E+02  0.19858882401E+03  0.12500000000E+03 0.  0.
         25    1    1    2    0    0 -0.29666998485E+02  0.39227594846E+02  0.18564919726E+03  0.22914964421E+03  0.12500000000E+03 0.  0.
</event>
<event>
 5    0  0.5713700E-005  0.2643106E+03  0.7546771E-02  0.1104581E+00
         21   -1    0    0  502  501  0.00000000000E+00  0.00000000000E+00  0.37154099102E+03  0.37154099102E+03  0.00000000000E+00 0. -1.
         21   -1    0    0  501  502 -0.00000000000E+00 -0.00000000000E+00 -0.18802789173E+03  0.18802789173E+03  0.00000000000E+00 0. -1.
         25    1    1    2    0    0  0.35513888405E+02 -0.17606051801E+01  0.10711640050E+03  0.16841395208E+03  0.12500000000E+03 0.  0.
         25    1    1    2    0    0 -0.13453562099E+03  0.44287778484E+02 -0.34883515695E+02  0.19210179673E+03  0.12500000000E+03 0.  0.
         25    1    1    2    0    0  0.99021732588E+02 -0.42527173304E+02  0.11128021449E+03  0.19905313394E+03  0.12500000000E+03 0.  0.
</event>
<event>
 5    0  0.5713700E-005  0.3318023E+03  0.7546771E-02  0.1070342E+00
         21   -1    0    0  502  501  0.00000000000E+00  0.00000000000E+00  0.21409069112E+04  0.21409069112E+04  0.00000000000E+00 0. -1.
         21   -1    0    0  501  502 -0.00000000000E+00 -0.00000000000E+00 -0.51423436923E+02  0.51423436923E+02  0.00000000000E+00 0. -1.
         25    1    1    2    0    0 -0.14252606619E+03 -0.61545077321E+02  0.15939910303E+04  0.16064040217E+04  0.12500000000E+03 0.  0.
         25    1    1    2    0    0  0.41377974217E+02 -0.15712123329E+02  0.18126729700E+03  0.22459261015E+03  0.12500000000E+03 0.  0.
         25    1    1    2    0    0  0.10114809198E+03  0.77257200650E+02  0.31422514694E+03  0.36133371629E+03  0.12500000000E+03 0.  0.
</event>
<event>
 5    0  0.5713700E-005  0.3737862E+03  0.7546771E-02  0.1053255E+00
         21   -1    0    0  502  501  0.00000000000E+00  0.00000000000E+00  0.21677258459E+03  0.21677258459E+03  0.00000000000E+00 0. -1.
         21   -1    0    0  501  502 -0.00000000000E+00 -0.00000000000E+00 -0.64452856635E+03  0.64452856635E+03  0.00000000000E+00 0. -1.
         25    1    1    2    0    0 -0.20830621548E+03  0.22149989609E+03 -0.24733622482E+03  0.41140477815E+03  0.12500000000E+03 0.  0.
         25    1    1    2    0    0  0.11341805794E+03 -0.18487751919E+03 -0.12199937267E+03  0.27848195615E+03  0.12500000000E+03 0.  0.
         25    1    1    2    0    0  0.94888157541E+02 -0.36622376901E+02 -0.58420384268E+02  0.17141441663E+03  0.12500000000E+03 0.  0.
</event>
<event>
 5    0  0.5713700E-005  0.2711479E+03  0.7546771E-02  0.1100624E+00
         21   -1    0    0  502  501  0.00000000000E+00  0.00000000000E+00  0.24881348393E+02  0.24881348393E+02  0.00000000000E+00 0. -1.
         21   -1    0    0  501  502 -0.00000000000E+00 -0.00000000000E+00 -0.29548709955E+04  0.29548709955E+04  0.00000000000E+00 0. -1.
         25    1    1    2    0    0  0.81940419757E+02  0.21867548462E+02 -0.50668695331E+03  0.52872402132E+03  0.12500000000E+03 0.  0.
         25    1    1    2    0    0  0.96442759866E+01  0.10071916075E+03 -0.13648145997E+04  0.13742566183E+04  0.12500000000E+03 0.  0.
         25    1    1    2    0    0 -0.91584695743E+02 -0.12258670922E+03 -0.10584880942E+04  0.10767717043E+04  0.12500000000E+03 0.  0.
</event>
<event>
 5    0  0.5713700E-005  0.5247974E+03  0.7546771E-02  0.1007502E+00
         21   -1    0    0  502  501  0.00000000000E+00  0.00000000000E+00  0.68087235119E+03  0.68087235119E+03  0.00000000000E+00 0.  1.
         21   -1    0    0  501  502 -0.00000000000E+00 -0.00000000000E+00 -0.40449917718E+03  0.40449917718E+03  0.00000000000E+00 0.  1.
         25    1    1    2    0    0  0.13620829357E+03  0.55810031010E+02  0.23231969036E+03  0.30210080656E+03  0.12500000000E+03 0.  0.
         25    1    1    2    0    0  0.48875313997E+02  0.28649088433E+03  0.16529350108E+03  0.35694924656E+03  0.12500000000E+03 0.  0.
         25    1    1    2    0    0 -0.18508360757E+03 -0.34230091534E+03 -0.12124001743E+03  0.42632147525E+03  0.12500000000E+03 0.  0.
</event>
<event>
 5    0  0.5713700E-005  0.2261015E+03  0.7546771E-02  0.1129414E+00
         21   -1    0    0  502  501  0.00000000000E+00  0.00000000000E+00  0.10738048057E+04  0.10738048057E+04  0.00000000000E+00 0. -1.
         21   -1    0    0  501  502 -0.00000000000E+00 -0.00000000000E+00 -0.47608195125E+02  0.47608195125E+02  0.00000000000E+00 0. -1.
         25    1    1    2    0    0 -0.23428633412E+02  0.62677123963E+02  0.21979419272E+03  0.26155651375E+03  0.12500000000E+03 0.  0.
         25    1    1    2    0    0  0.26234548665E+02 -0.97895111231E+02  0.34803016411E+03  0.38343408752E+03  0.12500000000E+03 0.  0.
         25    1    1    2    0    0 -0.28059152528E+01  0.35217987268E+02  0.45837225373E+03  0.47642239953E+03  0.12500000000E+03 0.  0.
</event>
<event>
 5    0  0.5713700E-005  0.5163585E+03  0.7546771E-02  0.1009595E+00
         21   -1    0    0  502  501  0.00000000000E+00  0.00000000000E+00  0.19173610023E+03  0.19173610023E+03  0.00000000000E+00 0. -1.
         21   -1    0    0  501  502 -0.00000000000E+00 -0.00000000000E+00 -0.13905891797E+04  0.13905891797E+04  0.00000000000E+00 0.  1.
         25    1    1    2    0    0 -0.40917562153E+03 -0.41003169416E+02 -0.28181827770E+03  0.51395767414E+03  0.12500000000E+03 0.  0.
         25    1    1    2    0    0  0.28126221441E+03  0.13172629616E+03 -0.67948388813E+03  0.75748505239E+03  0.12500000000E+03 0.  0.
         25    1    1    2    0    0  0.12791340712E+03 -0.90723126744E+02 -0.23755091368E+03  0.31088255344E+03  0.12500000000E+03 0.  0.
</event>
<event>
 5    0  0.5713700E-005  0.2522984E+03  0.7546771E-02  0.1111861E+00
         21   -1    0    0  502  501  0.00000000000E+00  0.00000000000E+00  0.61887812940E+03  0.61887812940E+03  0.00000000000E+00 0. -1.
         21   -1    0    0  501  502 -0.00000000000E+00 -0.00000000000E+00 -0.10285463415E+03  0.10285463415E+03  0.00000000000E+00 0. -1.
         25    1    1    2    0    0  0.23550404815E+01 -0.73335745202E+02  0.39198627924E+03  0.41792573604E+03  0.12500000000E+03 0.  0.
         25    1    1    2    0    0 -0.21039782542E+02  0.81294371608E+02  0.63174443742E+02  0.16330173804E+03  0.12500000000E+03 0.  0.
         25    1    1    2    0    0  0.18684742060E+02 -0.79586264064E+01  0.60862772277E+02  0.14050528947E+03  0.12500000000E+03 0.  0.
</event>
<event>
 5    0  0.5713700E-005  0.2952678E+03  0.7546771E-02  0.1087630E+00
         21   -1    0    0  502  501  0.00000000000E+00  0.00000000000E+00  0.13556304841E+03  0.13556304841E+03  0.00000000000E+00 0.  1.
         21   -1    0    0  501  502 -0.00000000000E+00 -0.00000000000E+00 -0.64311814016E+03  0.64311814016E+03  0.00000000000E+00 0.  1.
         25    1    1    2    0    0 -0.17963979727E+02 -0.82313381715E+02  0.24631968943E+02  0.15274138690E+03  0.12500000000E+03 0.  0.
         25    1    1    2    0    0 -0.23117647035E+02 -0.53088652910E+02 -0.18397347613E+03  0.22983487680E+03  0.12500000000E+03 0.  0.
         25    1    1    2    0    0  0.41081626762E+02  0.13540203462E+03 -0.34821358456E+03  0.39610492487E+03  0.12500000000E+03 0.  0.
</event>
<event>
 5    0  0.5713700E-005  0.2421625E+03  0.7546771E-02  0.1118361E+00
         21   -1    0    0  502  501  0.00000000000E+00  0.00000000000E+00  0.54799687567E+02  0.54799687567E+02  0.00000000000E+00 0. -1.
         21   -1    0    0  501  502 -0.00000000000E+00 -0.00000000000E+00 -0.10701278668E+04  0.10701278668E+04  0.00000000000E+00 0. -1.
         25    1    1    2    0    0  0.10675961575E+02  0.39696842244E+02 -0.22629373011E+03  0.26177025753E+03  0.12500000000E+03 0.  0.
         25    1    1    2    0    0 -0.32175467816E+02  0.87190874405E+02 -0.24518332252E+03  0.29047783212E+03  0.12500000000E+03 0.  0.
         25    1    1    2    0    0  0.21499506241E+02 -0.12688771665E+03 -0.54385112656E+03  0.57267946468E+03  0.12500000000E+03 0.  0.
</event>
<event>
 5    0  0.5713700E-005  0.2579133E+03  0.7546771E-02  0.1108403E+00
         21   -1    0    0  502  501  0.00000000000E+00  0.00000000000E+00  0.26061786631E+04  0.26061786631E+04  0.00000000000E+00 0. -1.
         21   -1    0    0  501  502 -0.00000000000E+00 -0.00000000000E+00 -0.25523675151E+02  0.25523675151E+02  0.00000000000E+00 0. -1.
         25    1    1    2    0    0 -0.81736249580E+02 -0.51562635707E+02  0.10527151687E+04  0.10645063393E+04  0.12500000000E+03 0.  0.
         25    1    1    2    0    0  0.81406999074E+02 -0.76996990170E+02  0.66911049965E+03  0.68984744454E+03  0.12500000000E+03 0.  0.
         25    1    1    2    0    0  0.32925050551E+00  0.12855962588E+03  0.85882931959E+03  0.87734855445E+03  0.12500000000E+03 0.  0.
</event>
<event>
 5    0  0.5713700E-005  0.3020013E+03  0.7546771E-02  0.1084244E+00
         21   -1    0    0  502  501  0.00000000000E+00  0.00000000000E+00  0.17502065533E+03  0.17502065533E+03  0.00000000000E+00 0.  1.
         21   -1    0    0  501  502 -0.00000000000E+00 -0.00000000000E+00 -0.52110872480E+03  0.52110872480E+03  0.00000000000E+00 0.  1.
         25    1    1    2    0    0 -0.50118793101E+02  0.38583505140E+02  0.17914236950E+02  0.14123207913E+03  0.12500000000E+03 0.  0.
         25    1    1    2    0    0  0.32551329876E+02  0.44322995157E+02  0.23896744745E+02  0.13863683272E+03  0.12500000000E+03 0.  0.
         25    1    1    2    0    0  0.17567463225E+02 -0.82906500297E+02 -0.38789905117E+03  0.41626046828E+03  0.12500000000E+03 0.  0.
</event>
<event>
 5    0  0.5713700E-005  0.2464150E+03  0.7546771E-02  0.1115592E+00
         21   -1    0    0  502  501  0.00000000000E+00  0.00000000000E+00  0.98260967786E+02  0.98260967786E+02  0.00000000000E+00 0. -1.
         21   -1    0    0  501  502 -0.00000000000E+00 -0.00000000000E+00 -0.61794963686E+03  0.61794963686E+03  0.00000000000E+00 0. -1.
         25    1    1    2    0    0 -0.25377114658E+02  0.22454945918E+01 -0.97753622976E+02  0.16071655484E+03  0.12500000000E+03 0.  0.
         25    1    1    2    0    0 -0.22998963665E+02 -0.49006740277E+02 -0.31165797764E+02  0.13973875580E+03  0.12500000000E+03 0.  0.
         25    1    1    2    0    0  0.48376078323E+02  0.46761245685E+02 -0.39076924833E+03  0.41575529400E+03  0.12500000000E+03 0.  0.
</event>
<event>
 5    0  0.5713700E-005  0.2867297E+03  0.7546771E-02  0.1092069E+00
         21   -1    0    0  502  501  0.00000000000E+00  0.00000000000E+00  0.19684194064E+03  0.19684194064E+03  0.00000000000E+00 0. -1.
         21   -1    0    0  501  502 -0.00000000000E+00 -0.00000000000E+00 -0.41766478421E+03  0.41766478421E+03  0.00000000000E+00 0. -1.
         25    1    1    2    0    0 -0.84592703076E+02 -0.37372740293E+02 -0.51999989245E+02  0.16395623200E+03  0.12500000000E+03 0.  0.
         25    1    1    2    0    0 -0.82505029975E+02 -0.93048305029E+01 -0.18250655835E+03  0.23627802200E+03  0.12500000000E+03 0.  0.
         25    1    1    2    0    0  0.16709773305E+03  0.46677570796E+02  0.13683704022E+02  0.21427247084E+03  0.12500000000E+03 0.  0.
</event>
<event>
 5    0  0.5713700E-005  0.2969804E+03  0.7546771E-02  0.1086760E+00
         21   -1    0    0  502  501  0.00000000000E+00  0.00000000000E+00  0.22462333196E+03  0.22462333196E+03  0.00000000000E+00 0.  1.
         21   -1    0    0  501  502 -0.00000000000E+00 -0.00000000000E+00 -0.39264550308E+03  0.39264550308E+03  0.00000000000E+00 0.  1.
         25    1    1    2    0    0  0.13132186622E+03 -0.17200412413E+02  0.37441356678E+02  0.18592509762E+03  0.12500000000E+03 0.  0.
         25    1    1    2    0    0  0.45145568416E+02  0.78144676984E+02 -0.73762088442E+02  0.17091096682E+03  0.12500000000E+03 0.  0.
         25    1    1    2    0    0 -0.17646743464E+03 -0.60944264571E+02 -0.13170143935E+03  0.26043277059E+03  0.12500000000E+03 0.  0.
</event>
<event>
 5    0  0.5713700E-005  0.3807788E+03  0.7546771E-02  0.1050646E+00
         21   -1    0    0  502  501  0.00000000000E+00  0.00000000000E+00  0.23244857894E+03  0.23244857894E+03  0.00000000000E+00 0. -1.
         21   -1    0    0  501  502 -0.00000000000E+00 -0.00000000000E+00 -0.62376172447E+03  0.62376172447E+03  0.00000000000E+00 0. -1.
         25    1    1    2    0    0  0.13963391020E+03 -0.77202552041E+02 -0.84094631352E+02  0.21944195119E+03  0.12500000000E+03 0.  0.
         25    1    1    2    0    0  0.96464871157E+01 -0.18924541694E+03 -0.10914063542E+03  0.25188005250E+03  0.12500000000E+03 0.  0.
         25    1    1    2    0    0 -0.14928039732E+03  0.26644796899E+03 -0.19807787876E+03  0.38488829971E+03  0.12500000000E+03 0.  0.
</event>
<event>
 5    0  0.5713700E-005  0.2463837E+03  0.7546771E-02  0.1115612E+00
         21   -1    0    0  502  501  0.00000000000E+00  0.00000000000E+00  0.98698226142E+03  0.98698226142E+03  0.00000000000E+00 0.  1.
         21   -1    0    0  501  502 -0.00000000000E+00 -0.00000000000E+00 -0.61505593327E+02  0.61505593327E+02  0.00000000000E+00 0.  1.
         25    1    1    2    0    0 -0.47098586735E+02 -0.71714166442E+02  0.15007470491E+03  0.21332748439E+03  0.12500000000E+03 0.  0.
         25    1    1    2    0    0  0.83521673740E+02  0.41875260495E+02  0.26469955984E+03  0.30727880566E+03  0.12500000000E+03 0.  0.
         25    1    1    2    0    0 -0.36423087006E+02  0.29838905947E+02  0.51070240334E+03  0.52788156470E+03  0.12500000000E+03 0.  0.
</event>
<event>
 5    0  0.5713700E-005  0.2777105E+03  0.7546771E-02  0.1096946E+00
         21   -1    0    0  502  501  0.00000000000E+00  0.00000000000E+00  0.62505190594E+02  0.62505190594E+02  0.00000000000E+00 0.  1.
         21   -1    0    0  501  502 -0.00000000000E+00 -0.00000000000E+00 -0.12338675281E+04  0.12338675281E+04  0.00000000000E+00 0.  1.
         25    1    1    2    0    0 -0.42122489358E+02 -0.47739312132E+02 -0.49090685846E+03  0.51055645106E+03  0.12500000000E+03 0.  0.
         25    1    1    2    0    0  0.12802058966E+03  0.82701366537E+02 -0.20012894121E+03  0.28090101550E+03  0.12500000000E+03 0.  0.
         25    1    1    2    0    0 -0.85898100299E+02 -0.34962054405E+02 -0.48032653783E+03  0.50491525212E+03  0.12500000000E+03 0.  0.
</event>
<event>
 5    0  0.5713700E-005  0.3887443E+03  0.7546771E-02  0.1047748E+00
         21   -1    0    0  502  501  0.00000000000E+00  0.00000000000E+00  0.13665314430E+03  0.13665314430E+03  0.00000000000E+00 0.  1.
         21   -1    0    0  501  502 -0.00000000000E+00 -0.00000000000E+00 -0.11058813930E+04  0.11058813930E+04  0.00000000000E+00 0.  1.
         25    1    1    2    0    0  0.20210780062E+03 -0.34335635815E+02 -0.31534274465E+03  0.39634901989E+03  0.12500000000E+03 0.  0.
         25    1    1    2    0    0  0.86470072233E+02  0.72527354436E+02 -0.70985261668E+02  0.18275994612E+03  0.12500000000E+03 0.  0.
         25    1    1    2    0    0 -0.28857787285E+03 -0.38191718620E+02 -0.58290024241E+03  0.66342557131E+03  0.12500000000E+03 0.  0.
</event>
<event>
 5    0  0.5774368E-005  0.4381219E+03  0.7546771E-02  0.1031325E+00
         21   -1    0    0  502  501  0.00000000000E+00  0.00000000000E+00  0.96689796562E+03  0.96689796562E+03  0.00000000000E+00 0.  1.
         21   -1    0    0  501  502 -0.00000000000E+00 -0.00000000000E+00 -0.19852227145E+03  0.19852227145E+03  0.00000000000E+00 0.  1.
         25    1    1    2    0    0 -0.27805388658E+03 -0.16192156756E+03  0.39702747275E+03  0.52610680665E+03  0.12500000000E+03 0.  0.
         25    1    1    2    0    0  0.14836502423E+03  0.65474971321E+02 -0.11797719687E+02  0.20509348716E+03  0.12500000000E+03 0.  0.
         25    1    1    2    0    0  0.12968886235E+03  0.96446596238E+02  0.38314594110E+03  0.43421994326E+03  0.12500000000E+03 0.  0.
</event>
<event>
 5    0  0.5713700E-005  0.3333976E+03  0.7546771E-02  0.1069643E+00
         21   -1    0    0  502  501  0.00000000000E+00  0.00000000000E+00  0.67104550980E+02  0.67104550980E+02  0.00000000000E+00 0.  1.
         21   -1    0    0  501  502 -0.00000000000E+00 -0.00000000000E+00 -0.16564297084E+04  0.16564297084E+04  0.00000000000E+00 0.  1.
         25    1    1    2    0    0 -0.12177309846E+03 -0.37615703116E+02 -0.10880021377E+03  0.20906007544E+03  0.12500000000E+03 0.  0.
         25    1    1    2    0    0  0.31594935500E+02 -0.25442780838E+02 -0.93219837460E+03  0.94141615912E+03  0.12500000000E+03 0.  0.
         25    1    1    2    0    0  0.90178162958E+02  0.63058483954E+02 -0.54832656903E+03  0.57305802479E+03  0.12500000000E+03 0.  0.
</event>
<event>
 5    0  0.5713700E-005  0.2776988E+03  0.7546771E-02  0.1096952E+00
         21   -1    0    0  502  501  0.00000000000E+00  0.00000000000E+00  0.90928518426E+03  0.90928518426E+03  0.00000000000E+00 0.  1.
         21   -1    0    0  501  502 -0.00000000000E+00 -0.00000000000E+00 -0.84810149290E+02  0.84810149290E+02  0.00000000000E+00 0.  1.
         25    1    1    2    0    0 -0.37000048471E+02 -0.92397469174E+02  0.52707080145E+03  0.55075850028E+03  0.12500000000E+03 0.  0.
         25    1    1    2    0    0 -0.11062787888E+02  0.57864349928E+01  0.25612578075E+02  0.12820636592E+03  0.12500000000E+03 0.  0.
         25    1    1    2    0    0  0.48062836359E+02  0.86611034181E+02  0.27179165545E+03  0.31513046735E+03  0.12500000000E+03 0.  0.
</event>
<event>
 5    0  0.5713700E-005  0.3100564E+03  0.7546771E-02  0.1080319E+00
         21   -1    0    0  502  501  0.00000000000E+00  0.00000000000E+00  0.13680523533E+03  0.13680523533E+03  0.00000000000E+00 0. -1.
         21   -1    0    0  501  502 -0.00000000000E+00 -0.00000000000E+00 -0.70271407244E+03  0.70271407244E+03  0.00000000000E+00 0. -1.
         25    1    1    2    0    0  0.61495760892E+02 -0.96382971773E+02  0.96143475669E+01  0.16967274836E+03  0.12500000000E+03 0.  0.
         25    1    1    2    0    0 -0.11767906472E+03  0.10525260830E+03 -0.29059875641E+03  0.35355213343E+03  0.12500000000E+03 0.  0.
         25    1    1    2    0    0  0.56183303833E+02 -0.88696365309E+01 -0.28492442826E+03  0.31629442598E+03  0.12500000000E+03 0.  0.
</event>
<event>
 5    0  0.5713700E-005  0.3423895E+03  0.7546771E-02  0.1065783E+00
         21   -1    0    0  502  501  0.00000000000E+00  0.00000000000E+00  0.67824378787E+03  0.67824378787E+03  0.00000000000E+00 0. -1.
         21   -1    0    0  501  502 -0.00000000000E+00 -0.00000000000E+00 -0.17284427739E+03  0.17284427739E+03  0.00000000000E+00 0. -1.
         25    1    1    2    0    0 -0.39810280932E+02  0.16825266256E+03  0.28959277743E+03  0.35969819803E+03  0.12500000000E+03 0.  0.
         25    1    1    2    0    0  0.85972207097E+02 -0.12092946099E+03  0.27628067050E+03  0.33759615493E+03  0.12500000000E+03 0.  0.
         25    1    1    2    0    0 -0.46161926165E+02 -0.47323201570E+02 -0.60473937457E+02  0.15379371231E+03  0.12500000000E+03 0.  0.
</event>
<event>
 5    0  0.5713700E-005  0.3375876E+03  0.7546771E-02  0.1067828E+00
         21   -1    0    0  502  501  0.00000000000E+00  0.00000000000E+00  0.98855782917E+03  0.98855782917E+03  0.00000000000E+00 0.  1.
         21   -1    0    0  501  502 -0.00000000000E+00 -0.00000000000E+00 -0.11528450567E+03  0.11528450567E+03  0.00000000000E+00 0.  1.
         25    1    1    2    0    0  0.16322355223E+03 -0.33640345670E+02  0.29812136942E+03  0.36369623557E+03  0.12500000000E+03 0.  0.
         25    1    1    2    0    0 -0.90700071596E+02 -0.70052364408E+02  0.37288032875E+02  0.17363534819E+03  0.12500000000E+03 0.  0.
         25    1    1    2    0    0 -0.72523480634E+02  0.10369271008E+03  0.53786392119E+03  0.56651075108E+03  0.12500000000E+03 0.  0.
</event>
<event>
 5    0  0.5713700E-005  0.2469166E+03  0.7546771E-02  0.1115269E+00
         21   -1    0    0  502  501  0.00000000000E+00  0.00000000000E+00  0.51197491925E+02  0.51197491925E+02  0.00000000000E+00 0. -1.
         21   -1    0    0  501  502 -0.00000000000E+00 -0.00000000000E+00 -0.11908356494E+04  0.11908356494E+04  0.00000000000E+00 0. -1.
         25    1    1    2    0    0 -0.42985279787E+02  0.20480015920E+02 -0.77686628877E+03  0.78829778381E+03  0.12500000000E+03 0.  0.
         25    1    1    2    0    0  0.29031065592E+02 -0.97219535407E+01 -0.26311822630E+03  0.29290530921E+03  0.12500000000E+03 0.  0.
         25    1    1    2    0    0  0.13954214195E+02 -0.10758062380E+02 -0.99653642444E+02  0.16083004835E+03  0.12500000000E+03 0.  0.
</event>
<event>
 5    0  0.5713700E-005  0.3209468E+03  0.7546771E-02  0.1075214E+00
         21   -1    0    0  502  501  0.00000000000E+00  0.00000000000E+00  0.10571654773E+04  0.10571654773E+04  0.00000000000E+00 0. -1.
         21   -1    0    0  501  502 -0.00000000000E+00 -0.00000000000E+00 -0.97436853264E+02  0.97436853264E+02  0.00000000000E+00 0. -1.
         25    1    1    2    0    0  0.15115943502E+03  0.90709127193E+02  0.30631397598E+03  0.37487407543E+03  0.12500000000E+03 0.  0.
         25    1    1    2    0    0 -0.72107161611E+02  0.10366972216E+03  0.32557116264E+03  0.37090219195E+03  0.12500000000E+03 0.  0.
         25    1    1    2    0    0 -0.79052273412E+02 -0.19437884935E+03  0.32784348542E+03  0.40882606319E+03  0.12500000000E+03 0.  0.
</event>
<event>
 5    0  0.5713700E-005  0.2272738E+03  0.7546771E-02  0.1128573E+00
         21   -1    0    0  502  501  0.00000000000E+00  0.00000000000E+00  0.35533100439E+03  0.35533100439E+03  0.00000000000E+00 0. -1.
         21   -1    0    0  501  502 -0.00000000000E+00 -0.00000000000E+00 -0.14536693762E+03  0.14536693762E+03  0.00000000000E+00 0. -1.
         25    1    1    2    0    0  0.74154548621E+02  0.12286575790E+02  0.25688847373E+02  0.14810392940E+03  0.12500000000E+03 0.  0.
         25    1    1    2    0    0 -0.97631599391E+02  0.36787153709E+02  0.82909712472E+02  0.18271355806E+03  0.12500000000E+03 0.  0.
         25    1    1    2    0    0  0.23477050770E+02 -0.49073729499E+02  0.10136550693E+03  0.16988045454E+03  0.12500000000E+03 0.  0.
</event>
<event>
 5    0  0.5713700E-005  0.2919903E+03  0.7546771E-02  0.1089315E+00
         21   -1    0    0  502  501  0.00000000000E+00  0.00000000000E+00  0.32098817252E+03  0.32098817252E+03  0.00000000000E+00 0. -1.
         21   -1    0    0  501  502 -0.00000000000E+00 -0.00000000000E+00 -0.26561210568E+03  0.26561210568E+03  0.00000000000E+00 0. -1.
         25    1    1    2    0    0  0.17427167322E+03  0.92046414274E+02  0.58243369216E+02  0.24054198911E+03  0.12500000000E+03 0.  0.
         25    1    1    2    0    0 -0.46506537178E+02 -0.28761072030E+02 -0.58500753198E+02  0.14844997605E+03  0.12500000000E+03 0.  0.
         25    1    1    2    0    0 -0.12776513604E+03 -0.63285342244E+02  0.55633450826E+02  0.19760831304E+03  0.12500000000E+03 0.  0.
</event>
<event>
 5    0  0.5713700E-005  0.2792647E+03  0.7546771E-02  0.1096091E+00
         21   -1    0    0  502  501  0.00000000000E+00  0.00000000000E+00  0.16321896760E+03  0.16321896760E+03  0.00000000000E+00 0.  1.
         21   -1    0    0  501  502 -0.00000000000E+00 -0.00000000000E+00 -0.47781674339E+03  0.47781674339E+03  0.00000000000E+00 0.  1.
         25    1    1    2    0    0  0.33810247571E+02 -0.42100906470E+01 -0.25482711750E+02  0.13204251702E+03  0.12500000000E+03 0.  0.
         25    1    1    2    0    0  0.95051050377E+02 -0.25011426251E+02  0.95506393857E+01  0.15929999477E+03  0.12500000000E+03 0.  0.
         25    1    1    2    0    0 -0.12886129795E+03  0.29221516898E+02 -0.29866570343E+03  0.34969319919E+03  0.12500000000E+03 0.  0.
</event>
<event>
 5    0  0.5981324E-005  0.2545896E+03  0.7546771E-02  0.1110438E+00
         21   -1    0    0  502  501  0.00000000000E+00  0.00000000000E+00  0.58603108115E+03  0.58603108115E+03  0.00000000000E+00 0. -1.
         21   -1    0    0  501  502 -0.00000000000E+00 -0.00000000000E+00 -0.11060140125E+03  0.11060140125E+03  0.00000000000E+00 0. -1.
         25    1    1    2    0    0  0.10045044148E+03 -0.89415311692E+02  0.29534802121E+03  0.34776549971E+03  0.12500000000E+03 0.  0.
         25    1    1    2    0    0 -0.65343401065E+02  0.70660268039E+02  0.53534617335E+02  0.16659408391E+03  0.12500000000E+03 0.  0.
         25    1    1    2    0    0 -0.35107040419E+02  0.18755043652E+02  0.12654704136E+03  0.18227289877E+03  0.12500000000E+03 0.  0.
</event>
<event>
 5    0  0.5713700E-005  0.2566702E+03  0.7546771E-02  0.1109161E+00
         21   -1    0    0  502  501  0.00000000000E+00  0.00000000000E+00  0.52458372251E+03  0.52458372251E+03  0.00000000000E+00 0.  1.
         21   -1    0    0  501  502 -0.00000000000E+00 -0.00000000000E+00 -0.12558449857E+03  0.12558449857E+03  0.00000000000E+00 0.  1.
         25    1    1    2    0    0  0.12099524341E+02  0.90005497497E+02  0.13069534814E+03  0.20237011166E+03  0.12500000000E+03 0.  0.
         25    1    1    2    0    0  0.78754426457E+02 -0.10365605197E+02  0.22376563684E+03  0.26833890081E+03  0.12500000000E+03 0.  0.
         25    1    1    2    0    0 -0.90853950799E+02 -0.79639892300E+02  0.44538238959E+02  0.17945920860E+03  0.12500000000E+03 0.  0.
</event>
<event>
 5    0  0.5713700E-005  0.3183214E+03  0.7546771E-02  0.1076424E+00
         21   -1    0    0  502  501  0.00000000000E+00  0.00000000000E+00  0.19127464580E+03  0.19127464580E+03  0.00000000000E+00 0.  1.
         21   -1    0    0  501  502 -0.00000000000E+00 -0.00000000000E+00 -0.52975398056E+03  0.52975398056E+03  0.00000000000E+00 0.  1.
         25    1    1    2    0    0 -0.30158257316E+02  0.28613106655E+01 -0.57429796900E+02  0.14085769115E+03  0.12500000000E+03 0.  0.
         25    1    1    2    0    0 -0.10690911132E+03 -0.18449020217E+03 -0.12113439450E+03  0.27525394513E+03  0.12500000000E+03 0.  0.
         25    1    1    2    0    0  0.13706736863E+03  0.18162889150E+03 -0.15991514336E+03  0.30491699009E+03  0.12500000000E+03 0.  0.
</event>
<event>
 5    0  0.5713700E-005  0.2651083E+03  0.7546771E-02  0.1104112E+00
         21   -1    0    0  502  501  0.00000000000E+00  0.00000000000E+00  0.14499429578E+04  0.14499429578E+04  0.00000000000E+00 0. -1.
         21   -1    0    0  501  502 -0.00000000000E+00 -0.00000000000E+00 -0.48472542237E+02  0.48472542237E+02  0.00000000000E+00 0. -1.
         25    1    1    2    0    0 -0.13058838223E+03 -0.24387488714E+02  0.30706432152E+03  0.35715763008E+03  0.12500000000E+03 0.  0.
         25    1    1    2    0    0  0.74795141961E+02  0.81824105705E+02  0.70470741881E+03  0.72424239289E+03  0.12500000000E+03 0.  0.
         25    1    1    2    0    0  0.55793240265E+02 -0.57436616991E+02  0.38969867528E+03  0.41701547711E+03  0.12500000000E+03 0.  0.
</event>
<event>
 5    0  0.5713700E-005  0.3045016E+03  0.7546771E-02  0.1083012E+00
         21   -1    0    0  502  501  0.00000000000E+00  0.00000000000E+00  0.17688693981E+03  0.17688693981E+03  0.00000000000E+00 0.  1.
         21   -1    0    0  501  502 -0.00000000000E+00 -0.00000000000E+00 -0.52418359676E+03  0.52418359676E+03  0.00000000000E+00 0.  1.
         25    1    1    2    0    0  0.11387363227E+03 -0.94886620707E+01 -0.24141864735E+03  0.29489863025E+03  0.12500000000E+03 0.  0.
         25    1    1    2    0    0  0.42442414702E+02  0.20609403480E+02 -0.15004139037E+03  0.20090675674E+03  0.12500000000E+03 0.  0.
         25    1    1    2    0    0 -0.15631604697E+03 -0.11120741409E+02  0.44163380776E+02  0.20526514958E+03  0.12500000000E+03 0.  0.
</event>
<event>
 5    0  0.5713700E-005  0.2953677E+03  0.7546771E-02  0.1087579E+00
         21   -1    0    0  502  501  0.00000000000E+00  0.00000000000E+00  0.12261506330E+03  0.12261506330E+03  0.00000000000E+00 0.  1.
         21   -1    0    0  501  502 -0.00000000000E+00 -0.00000000000E+00 -0.71151193966E+03  0.71151193966E+03  0.00000000000E+00 0.  1.
         25    1    1    2    0    0 -0.36156222896E+02 -0.13178456809E+03 -0.25194485554E+03  0.31269098976E+03  0.12500000000E+03 0.  0.
         25    1    1    2    0    0  0.14434913363E+03  0.15176913721E+02 -0.20121607527E+03  0.27781274276E+03  0.12500000000E+03 0.  0.
         25    1    1    2    0    0 -0.10819291073E+03  0.11660765437E+03 -0.13573594554E+03  0.24362327044E+03  0.12500000000E+03 0.  0.
</event>
<event>
 5    0  0.5713700E-005  0.2376518E+03  0.7546771E-02  0.1121367E+00
         21   -1    0    0  502  501  0.00000000000E+00  0.00000000000E+00  0.90417191262E+03  0.90417191262E+03  0.00000000000E+00 0.  1.
         21   -1    0    0  501  502 -0.00000000000E+00 -0.00000000000E+00 -0.62464207664E+02  0.62464207664E+02  0.00000000000E+00 0.  1.
         25    1    1    2    0    0 -0.48897631823E+02 -0.15990229855E+02  0.74704298075E+02  0.15444221573E+03  0.12500000000E+03 0.  0.
         25    1    1    2    0    0  0.33456838207E+02  0.35699065593E+01  0.27147631801E+03  0.30075986351E+03  0.12500000000E+03 0.  0.
         25    1    1    2    0    0  0.15440793616E+02  0.12420323296E+02  0.49552708887E+03  0.51143404105E+03  0.12500000000E+03 0.  0.
</event>
<event>
 5    0  0.5713700E-005  0.3315754E+03  0.7546771E-02  0.1070442E+00
         21   -1    0    0  502  501  0.00000000000E+00  0.00000000000E+00  0.21031499939E+03  0.21031499939E+03  0.00000000000E+00 0. -1.
         21   -1    0    0  501  502 -0.00000000000E+00 -0.00000000000E+00 -0.52275044305E+03  0.52275044305E+03  0.00000000000E+00 0. -1.
         25    1    1    2    0    0  0.10613974865E+02  0.40731278463E+02 -0.59294368908E+02  0.14461160289E+03  0.12500000000E+03 0.  0.
         25    1    1    2    0    0  0.77276845018E+02 -0.21886488849E+03 -0.23482533017E+03  0.35304601100E+03  0.12500000000E+03 0.  0.
         25    1    1    2    0    0 -0.87890819883E+02  0.17813361003E+03 -0.18315744574E+02  0.23540782855E+03  0.12500000000E+03 0.  0.
</event>
<event>
 5    0  0.5713700E-005  0.2665960E+03  0.7546771E-02  0.1103244E+00
         21   -1    0    0  502  501  0.00000000000E+00  0.00000000000E+00  0.17357582384E+03  0.17357582384E+03  0.00000000000E+00 0.  1.
         21   -1    0    0  501  502 -0.00000000000E+00 -0.00000000000E+00 -0.40946627571E+03  0.40946627571E+03  0.00000000000E+00 0.  1.
         25    1    1    2    0    0  0.69029497140E+01 -0.32010747214E+02  0.63247322553E+02  0.14386647442E+03  0.12500000000E+03 0.  0.
         25    1    1    2    0    0 -0.91091928962E+02  0.62936479082E+02 -0.14105446971E+03  0.21858660377E+03  0.12500000000E+03 0.  0.
         25    1    1    2    0    0  0.84188979248E+02 -0.30925731868E+02 -0.15808330471E+03  0.22058902137E+03  0.12500000000E+03 0.  0.
</event>
<event>
 5    0  0.5713700E-005  0.4678220E+03  0.7546771E-02  0.1022537E+00
         21   -1    0    0  502  501  0.00000000000E+00  0.00000000000E+00  0.21678466815E+03  0.21678466815E+03  0.00000000000E+00 0.  1.
         21   -1    0    0  501  502 -0.00000000000E+00 -0.00000000000E+00 -0.10095612129E+04  0.10095612129E+04  0.00000000000E+00 0.  1.
         25    1    1    2    0    0  0.71793255479E+02  0.27234184974E+02 -0.81897105105E+03  0.83200634302E+03  0.12500000000E+03 0.  0.
         25    1    1    2    0    0 -0.14458679184E+03  0.81332082747E+01  0.11279271246E+03  0.22207810661E+03  0.12500000000E+03 0.  0.
         25    1    1    2    0    0  0.72793536363E+02 -0.35367393248E+02 -0.86598206150E+02  0.17226143141E+03  0.12500000000E+03 0.  0.
</event>
<event>
 5    0  0.5713700E-005  0.2430381E+03  0.7546771E-02  0.1117785E+00
         21   -1    0    0  502  501  0.00000000000E+00  0.00000000000E+00  0.79451303627E+02  0.79451303627E+02  0.00000000000E+00 0. -1.
         21   -1    0    0  501  502 -0.00000000000E+00 -0.00000000000E+00 -0.74344302137E+03  0.74344302137E+03  0.00000000000E+00 0.  1.
         25    1    1    2    0    0  0.74725334850E+02  0.38220553094E+02 -0.11723401448E+03  0.19082321792E+03  0.12500000000E+03 0.  0.
         25    1    1    2    0    0 -0.66855242821E+02  0.63676607684E+02 -0.25524227655E+03  0.29882763191E+03  0.12500000000E+03 0.  0.
         25    1    1    2    0    0 -0.78700920295E+01 -0.10189716078E+03 -0.29151542672E+03  0.33324347517E+03  0.12500000000E+03 0.  0.
</event>
<event>
 5    0  0.5713700E-005  0.2713616E+03  0.7546771E-02  0.1100503E+00
         21   -1    0    0  502  501  0.00000000000E+00  0.00000000000E+00  0.46886717237E+03  0.46886717237E+03  0.00000000000E+00 0. -1.
         21   -1    0    0  501  502 -0.00000000000E+00 -0.00000000000E+00 -0.15705322780E+03  0.15705322780E+03  0.00000000000E+00 0. -1.
         25    1    1    2    0    0  0.23775953710E+02  0.78661993937E+01  0.17756254394E+02  0.12871463646E+03  0.12500000000E+03 0.  0.
         25    1    1    2    0    0 -0.77728653748E+02 -0.14176317571E+03  0.19329851315E+03  0.28129674151E+03  0.12500000000E+03 0.  0.
         25    1    1    2    0    0  0.53952700039E+02  0.13389697632E+03  0.10075917704E+03  0.21590902220E+03  0.12500000000E+03 0.  0.
</event>
<event>
 5    0  0.5713700E-005  0.3975920E+03  0.7546771E-02  0.1044617E+00
         21   -1    0    0  502  501  0.00000000000E+00  0.00000000000E+00  0.26523517898E+03  0.26523517898E+03  0.00000000000E+00 0. -1.
         21   -1    0    0  501  502 -0.00000000000E+00 -0.00000000000E+00 -0.59599723337E+03  0.59599723337E+03  0.00000000000E+00 0. -1.
         25    1    1    2    0    0 -0.12265170708E+03 -0.14616654763E+02 -0.38383192192E+02  0.17987594972E+03  0.12500000000E+03 0.  0.
         25    1    1    2    0    0 -0.15739639163E+03 -0.81863437917E+02 -0.28699497869E+03  0.35981434708E+03  0.12500000000E+03 0.  0.
         25    1    1    2    0    0  0.28004809871E+03  0.96480092680E+02 -0.53838835015E+01  0.32154211556E+03  0.12500000000E+03 0.  0.
</event>
<event>
 5    0  0.5713700E-005  0.2338078E+03  0.7546771E-02  0.1123988E+00
         21   -1    0    0  502  501  0.00000000000E+00  0.00000000000E+00  0.22851807968E+04  0.22851807968E+04  0.00000000000E+00 0. -1.
         21   -1    0    0  501  502 -0.00000000000E+00 -0.00000000000E+00 -0.23922002253E+02  0.23922002253E+02  0.00000000000E+00 0. -1.
         25    1    1    2    0    0  0.16403564406E+02  0.28339388171E+02  0.38363726673E+03  0.40481446401E+03  0.12500000000E+03 0.  0.
         25    1    1    2    0    0 -0.95765191577E+02 -0.54979871724E+02  0.10310089034E+04  0.10444128097E+04  0.12500000000E+03 0.  0.
         25    1    1    2    0    0  0.79361627171E+02  0.26640483553E+02  0.84661262446E+03  0.85987552537E+03  0.12500000000E+03 0.  0.
</event>
<event>
 5    0  0.5713700E-005  0.3651390E+03  0.7546771E-02  0.1056567E+00
         21   -1    0    0  502  501  0.00000000000E+00  0.00000000000E+00  0.15534504635E+03  0.15534504635E+03  0.00000000000E+00 0.  1.
         21   -1    0    0  501  502 -0.00000000000E+00 -0.00000000000E+00 -0.85826030956E+03  0.85826030956E+03  0.00000000000E+00 0.  1.
         25    1    1    2    0    0  0.13507163778E+03 -0.33789294028E+02 -0.50853744614E+03  0.54186843223E+03  0.12500000000E+03 0.  0.
         25    1    1    2    0    0 -0.22143082321E+03  0.37152716572E+02 -0.49350540781E+02  0.26167233268E+03  0.12500000000E+03 0.  0.
         25    1    1    2    0    0  0.86359185437E+02 -0.33634225438E+01 -0.14502727629E+03  0.21006459099E+03  0.12500000000E+03 0.  0.
</event>
<event>
 5    0  0.5713700E-005  0.2839226E+03  0.7546771E-02  0.1093566E+00
         21   -1    0    0  502  501  0.00000000000E+00  0.00000000000E+00  0.20778644180E+04  0.20778644180E+04  0.00000000000E+00 0. -1.
         21   -1    0    0  501  502 -0.00000000000E+00 -0.00000000000E+00 -0.38795632917E+02  0.38795632917E+02  0.00000000000E+00 0. -1.
         25    1    1    2    0    0  0.17862644127E+02  0.18655210036E+03  0.57906287318E+03  0.62133692254E+03  0.12500000000E+03 0.  0.
         25    1    1    2    0    0 -0.34907519121E+02 -0.12939266601E+03  0.89717818916E+03  0.91570448290E+03  0.12500000000E+03 0.  0.
         25    1    1    2    0    0  0.17044874994E+02 -0.57159434353E+02  0.56282772269E+03  0.57961864543E+03  0.12500000000E+03 0.  0.
</event>
<event>
 5    0  0.5713700E-005  0.2628181E+03  0.7546771E-02  0.1105462E+00
         21   -1    0    0  502  501  0.00000000000E+00  0.00000000000E+00  0.49565332059E+03  0.49565332059E+03  0.00000000000E+00 0. -1.
         21   -1    0    0  501  502 -0.00000000000E+00 -0.00000000000E+00 -0.13935816378E+03  0.13935816378E+03  0.00000000000E+00 0. -1.
         25    1    1    2    0    0 -0.48488902720E+02  0.85367005128E+02  0.11418343031E+03  0.19570783073E+03  0.12500000000E+03 0.  0.
         25    1    1    2    0    0 -0.16827880789E+02 -0.86092011742E+02  0.25547202421E+03  0.29763394835E+03  0.12500000000E+03 0.  0.
         25    1    1    2    0    0  0.65316783509E+02  0.72500661408E+00 -0.13360297707E+02  0.14166970529E+03  0.12500000000E+03 0.  0.
</event>
<event>
 5    0  0.5713700E-005  0.2371244E+03  0.7546771E-02  0.1121723E+00
         21   -1    0    0  502  501  0.00000000000E+00  0.00000000000E+00  0.42042397813E+02  0.42042397813E+02  0.00000000000E+00 0.  1.
         21   -1    0    0  501  502 -0.00000000000E+00 -0.00000000000E+00 -0.13374108261E+04  0.13374108261E+04  0.00000000000E+00 0.  1.
         25    1    1    2    0    0 -0.27388688105E+02 -0.11271179552E+03 -0.48689166002E+03  0.51589008294E+03  0.12500000000E+03 0.  0.
         25    1    1    2    0    0 -0.49867461474E+01  0.11660061029E+03 -0.39651026211E+03  0.43181704217E+03  0.12500000000E+03 0.  0.
         25    1    1    2    0    0  0.32375434253E+02 -0.38888147700E+01 -0.41196650613E+03  0.43174609876E+03  0.12500000000E+03 0.  0.
</event>
<event>
 5    0  0.5713700E-005  0.2519593E+03  0.7546771E-02  0.1112073E+00
         21   -1    0    0  502  501  0.00000000000E+00  0.00000000000E+00  0.75576240690E+02  0.75576240690E+02  0.00000000000E+00 0. -1.
         21   -1    0    0  501  502 -0.00000000000E+00 -0.00000000000E+00 -0.83999244466E+03  0.83999244466E+03  0.00000000000E+00 0. -1.
         25    1    1    2    0    0  0.97433390822E+02 -0.69939429419E+02 -0.30474824269E+03  0.35054426376E+03  0.12500000000E+03 0.  0.
         25    1    1    2    0    0  0.33606694164E+02 -0.63151283916E+01 -0.14947278554E+03  0.19782923029E+03  0.12500000000E+03 0.  0.
         25    1    1    2    0    0 -0.13104008499E+03  0.76254557811E+02 -0.31019517574E+03  0.36719519130E+03  0.12500000000E+03 0.  0.
</event>
<event>
 5    0  0.5713700E-005  0.2822414E+03  0.7546771E-02  0.1094471E+00
         21   -1    0    0  502  501  0.00000000000E+00  0.00000000000E+00  0.38500701175E+03  0.38500701175E+03  0.00000000000E+00 0. -1.
         21   -1    0    0  501  502 -0.00000000000E+00 -0.00000000000E+00 -0.20690590342E+03  0.20690590342E+03  0.00000000000E+00 0. -1.
         25    1    1    2    0    0 -0.31858168251E+02  0.35669397783E+02  0.12244599806E+03  0.18139810160E+03  0.12500000000E+03 0.  0.
         25    1    1    2    0    0 -0.58389496011E+02 -0.22008020665E+02  0.16856045969E+03  0.21893221505E+03  0.12500000000E+03 0.  0.
         25    1    1    2    0    0  0.90247664262E+02 -0.13661377118E+02 -0.11290534942E+03  0.19158259852E+03  0.12500000000E+03 0.  0.
</event>
<event>
 5    0  0.5713700E-005  0.4009015E+03  0.7546771E-02  0.1043468E+00
         21   -1    0    0  502  501  0.00000000000E+00  0.00000000000E+00  0.40565012305E+03  0.40565012305E+03  0.00000000000E+00 0.  1.
         21   -1    0    0  501  502 -0.00000000000E+00 -0.00000000000E+00 -0.39620844857E+03  0.39620844857E+03  0.00000000000E+00 0.  1.
         25    1    1    2    0    0 -0.47090130063E+02  0.37442181304E+02 -0.54152094428E+02  0.14891892634E+03  0.12500000000E+03 0.  0.
         25    1    1    2    0    0 -0.38929051347E+02  0.16316958279E+02  0.32228827666E+03  0.34824768117E+03  0.12500000000E+03 0.  0.
         25    1    1    2    0    0  0.86019181409E+02 -0.53759139583E+02 -0.25869450775E+03  0.30469196412E+03  0.12500000000E+03 0.  0.
</event>
<event>
 5    0  0.5713700E-005  0.3189898E+03  0.7546771E-02  0.1076115E+00
         21   -1    0    0  502  501  0.00000000000E+00  0.00000000000E+00  0.68892648401E+03  0.68892648401E+03  0.00000000000E+00 0.  1.
         21   -1    0    0  501  502 -0.00000000000E+00 -0.00000000000E+00 -0.14770004555E+03  0.14770004555E+03  0.00000000000E+00 0.  1.
         25    1    1    2    0    0 -0.70048213787E+02  0.58884306688E+02  0.29416237549E+03  0.33246145187E+03  0.12500000000E+03 0.  0.
         25    1    1    2    0    0 -0.61160740931E+02  0.90594751745E+02  0.20779336604E+03  0.26599084241E+03  0.12500000000E+03 0.  0.
         25    1    1    2    0    0  0.13120895472E+03 -0.14947905843E+03  0.39270696929E+02  0.23817423527E+03  0.12500000000E+03 0.  0.
</event>
<event>
 5    0  0.5713700E-005  0.2761473E+03  0.7546771E-02  0.1097812E+00
         21   -1    0    0  502  501  0.00000000000E+00  0.00000000000E+00  0.77232435343E+02  0.77232435343E+02  0.00000000000E+00 0.  1.
         21   -1    0    0  501  502 -0.00000000000E+00 -0.00000000000E+00 -0.98737410198E+03  0.98737410198E+03  0.00000000000E+00 0.  1.
         25    1    1    2    0    0 -0.25844367885E+02 -0.12184475467E+03 -0.58199030653E+03  0.60815441500E+03  0.12500000000E+03 0.  0.
         25    1    1    2    0    0  0.29786567032E+01  0.42249523172E+02 -0.51294204265E+02  0.14159798726E+03  0.12500000000E+03 0.  0.
         25    1    1    2    0    0  0.22865711182E+02  0.79595231500E+02 -0.27685715585E+03  0.31485413507E+03  0.12500000000E+03 0.  0.
</event>
<event>
 5    0  0.5713700E-005  0.3119434E+03  0.7546771E-02  0.1079418E+00
         21   -1    0    0  502  501  0.00000000000E+00  0.00000000000E+00  0.54078793313E+02  0.54078793313E+02  0.00000000000E+00 0.  1.
         21   -1    0    0  501  502 -0.00000000000E+00 -0.00000000000E+00 -0.17993872870E+04  0.17993872870E+04  0.00000000000E+00 0.  1.
         25    1    1    2    0    0  0.93652409184E+01  0.76320680139E+02 -0.17093609340E+03  0.22529248097E+03  0.12500000000E+03 0.  0.
         25    1    1    2    0    0 -0.75146427902E+02  0.36333273432E+02 -0.12312458524E+04  0.12403864081E+04  0.12500000000E+03 0.  0.
         25    1    1    2    0    0  0.65781186984E+02 -0.11265395357E+03 -0.34312654789E+03  0.38778719123E+03  0.12500000000E+03 0.  0.
</event>
<event>
 5    0  0.5713700E-005  0.2474263E+03  0.7546771E-02  0.1114942E+00
         21   -1    0    0  502  501  0.00000000000E+00  0.00000000000E+00  0.52147672986E+02  0.52147672986E+02  0.00000000000E+00 0. -1.
         21   -1    0    0  501  502 -0.00000000000E+00 -0.00000000000E+00 -0.11739694208E+04  0.11739694208E+04  0.00000000000E+00 0. -1.
         25    1    1    2    0    0  0.24636259331E+02  0.11163298566E+02 -0.24613145453E+03  0.27737566118E+03  0.12500000000E+03 0.  0.
         25    1    1    2    0    0  0.42060102120E+02 -0.19277457389E+02 -0.74165601524E+03  0.75353786733E+03  0.12500000000E+03 0.  0.
         25    1    1    2    0    0 -0.66696361452E+02  0.81141588235E+01 -0.13403427804E+03  0.19520356527E+03  0.12500000000E+03 0.  0.
</event>
<event>
 5    0  0.5713700E-005  0.4336784E+03  0.7546771E-02  0.1032704E+00
         21   -1    0    0  502  501  0.00000000000E+00  0.00000000000E+00  0.50943717742E+03  0.50943717742E+03  0.00000000000E+00 0.  1.
         21   -1    0    0  501  502 -0.00000000000E+00 -0.00000000000E+00 -0.36918578584E+03  0.36918578584E+03  0.00000000000E+00 0.  1.
         25    1    1    2    0    0  0.25074346010E+03  0.96574048988E+02  0.33591125361E+02  0.29824854304E+03  0.12500000000E+03 0.  0.
         25    1    1    2    0    0 -0.25890484291E+03  0.40989655547E+02 -0.95426577647E+02  0.30568464349E+03  0.12500000000E+03 0.  0.
         25    1    1    2    0    0  0.81613828135E+01 -0.13756370454E+03  0.20208684386E+03  0.27468977673E+03  0.12500000000E+03 0.  0.
</event>
<event>
 5    0  0.5713700E-005  0.2803714E+03  0.7546771E-02  0.1095486E+00
         21   -1    0    0  502  501  0.00000000000E+00  0.00000000000E+00  0.21701791322E+03  0.21701791322E+03  0.00000000000E+00 0. -1.
         21   -1    0    0  501  502 -0.00000000000E+00 -0.00000000000E+00 -0.36221940255E+03  0.36221940255E+03  0.00000000000E+00 0. -1.
         25    1    1    2    0    0 -0.38171259209E+02  0.12657410293E+02 -0.10594320030E+03  0.16871934316E+03  0.12500000000E+03 0.  0.
         25    1    1    2    0    0 -0.10012800435E+01 -0.13951415653E+03  0.67617944801E+02  0.19915418372E+03  0.12500000000E+03 0.  0.
         25    1    1    2    0    0  0.39172539253E+02  0.12685674623E+03 -0.10687623383E+03  0.21136378889E+03  0.12500000000E+03 0.  0.
</event>
<event>
 5    0  0.5713700E-005  0.5321690E+03  0.7546771E-02  0.1005707E+00
         21   -1    0    0  502  501  0.00000000000E+00  0.00000000000E+00  0.26274182512E+03  0.26274182512E+03  0.00000000000E+00 0. -1.
         21   -1    0    0  501  502 -0.00000000000E+00 -0.00000000000E+00 -0.10778788493E+04  0.10778788493E+04  0.00000000000E+00 0. -1.
         25    1    1    2    0    0  0.26978338641E+03 -0.62742042139E+02 -0.32488329947E+03  0.44485255727E+03  0.12500000000E+03 0.  0.
         25    1    1    2    0    0 -0.73305500436E+02 -0.24220992027E+03 -0.11842681815E+02  0.28249706367E+03  0.12500000000E+03 0.  0.
         25    1    1    2    0    0 -0.19647788598E+03  0.30495196241E+03 -0.47841104285E+03  0.61327105343E+03  0.12500000000E+03 0.  0.
</event>
<event>
 5    0  0.5713700E-005  0.3016071E+03  0.7546771E-02  0.1084440E+00
         21   -1    0    0  502  501  0.00000000000E+00  0.00000000000E+00  0.85398076505E+02  0.85398076505E+02  0.00000000000E+00 0. -1.
         21   -1    0    0  501  502 -0.00000000000E+00 -0.00000000000E+00 -0.10652098365E+04  0.10652098365E+04  0.00000000000E+00 0. -1.
         25    1    1    2    0    0 -0.66174091201E+02 -0.28839229466E+02 -0.87842399010E+02  0.16897336644E+03  0.12500000000E+03 0.  0.
         25    1    1    2    0    0 -0.48697451470E+02 -0.75671701955E+02 -0.15631664353E+03  0.21944826566E+03  0.12500000000E+03 0.  0.
         25    1    1    2    0    0  0.11487154267E+03  0.10451093142E+03 -0.73565271750E+03  0.76218628095E+03  0.12500000000E+03 0.  0.
</event>
<event>
 5    0  0.5713700E-005  0.3641772E+03  0.7546771E-02  0.1056942E+00
         21   -1    0    0  502  501  0.00000000000E+00  0.00000000000E+00  0.18241690367E+03  0.18241690367E+03  0.00000000000E+00 0.  1.
         21   -1    0    0  501  502 -0.00000000000E+00 -0.00000000000E+00 -0.72704353063E+03  0.72704353063E+03  0.00000000000E+00 0.  1.
         25    1    1    2    0    0 -0.87704552076E+02  0.61662030987E+02  0.32134906132E+02  0.16778541865E+03  0.12500000000E+03 0.  0.
         25    1    1    2    0    0  0.38011539317E+02 -0.21127971351E+03 -0.21873606528E+03  0.33099012178E+03  0.12500000000E+03 0.  0.
         25    1    1    2    0    0  0.49693012759E+02  0.14961768253E+03 -0.35802546782E+03  0.41068489386E+03  0.12500000000E+03 0.  0.
</event>
<event>
 5    0  0.5713700E-005  0.5331194E+03  0.7546771E-02  0.1005478E+00
         21   -1    0    0  502  501  0.00000000000E+00  0.00000000000E+00  0.98577009167E+03  0.98577009167E+03  0.00000000000E+00 0. -1.
         21   -1    0    0  501  502 -0.00000000000E+00 -0.00000000000E+00 -0.28831901062E+03  0.28831901062E+03  0.00000000000E+00 0. -1.
         25    1    1    2    0    0 -0.37236344479E+03  0.27756668121E+03  0.47404065812E+03  0.67530537024E+03  0.12500000000E+03 0.  0.
         25    1    1    2    0    0  0.20977945227E+03 -0.74581574987E+02  0.44255167491E+02  0.25913963374E+03  0.12500000000E+03 0.  0.
         25    1    1    2    0    0  0.16258399251E+03 -0.20298510622E+03  0.17915525544E+03  0.33964409831E+03  0.12500000000E+03 0.  0.
</event>
<event>
 5    0  0.5713700E-005  0.4063254E+03  0.7546771E-02  0.1041611E+00
         21   -1    0    0  502  501  0.00000000000E+00  0.00000000000E+00  0.70407966394E+03  0.70407966394E+03  0.00000000000E+00 0.  1.
         21   -1    0    0  501  502 -0.00000000000E+00 -0.00000000000E+00 -0.23449095666E+03  0.23449095666E+03  0.00000000000E+00 0.  1.
         25    1    1    2    0    0  0.21742153059E+03 -0.66164966138E+00  0.29930390721E+02  0.25257352996E+03  0.12500000000E+03 0.  0.
         25    1    1    2    0    0  0.80662383860E+02 -0.67721192342E+02  0.26739829656E+03  0.31339979110E+03  0.12500000000E+03 0.  0.
         25    1    1    2    0    0 -0.29808391445E+03  0.68382842003E+02  0.17226002000E+03  0.37259729954E+03  0.12500000000E+03 0.  0.
</event>
<event>
 5    0  0.5713700E-005  0.3644707E+03  0.7546771E-02  0.1056828E+00
         21   -1    0    0  502  501  0.00000000000E+00  0.00000000000E+00  0.17609717403E+03  0.17609717403E+03  0.00000000000E+00 0. -1.
         21   -1    0    0  501  502 -0.00000000000E+00 -0.00000000000E+00 -0.75435006531E+03  0.75435006531E+03  0.00000000000E+00 0. -1.
         25    1    1    2    0    0 -0.18124556177E+03 -0.11598904719E+01 -0.45350557943E+03  0.50412658091E+03  0.12500000000E+03 0.  0.
         25    1    1    2    0    0 -0.10731976594E+02 -0.40133427498E+02  0.43927984400E+02  0.13885436665E+03  0.12500000000E+03 0.  0.
         25    1    1    2    0    0  0.19197753837E+03  0.41293317970E+02 -0.16867529625E+03  0.28746629178E+03  0.12500000000E+03 0.  0.
</event>
<event>
 5    0  0.5713700E-005  0.2186156E+03  0.7546771E-02  0.1134919E+00
         21   -1    0    0  502  501  0.00000000000E+00  0.00000000000E+00  0.40300728403E+02  0.40300728403E+02  0.00000000000E+00 0. -1.
         21   -1    0    0  501  502 -0.00000000000E+00 -0.00000000000E+00 -0.11859041080E+04  0.11859041080E+04  0.00000000000E+00 0. -1.
         25    1    1    2    0    0 -0.21030583185E+02  0.36331295201E+02 -0.27298747448E+03  0.30316564723E+03  0.12500000000E+03 0.  0.
         25    1    1    2    0    0  0.76712746197E+02  0.19535247757E+02 -0.35158613032E+03  0.38145023053E+03  0.12500000000E+03 0.  0.
         25    1    1    2    0    0 -0.55682163012E+02 -0.55866542959E+02 -0.52102977479E+03  0.54158895864E+03  0.12500000000E+03 0.  0.
</event>
<event>
 5    0  0.5713700E-005  0.3440591E+03  0.7546771E-02  0.1065080E+00
         21   -1    0    0  502  501  0.00000000000E+00  0.00000000000E+00  0.19482255769E+03  0.19482255769E+03  0.00000000000E+00 0. -1.
         21   -1    0    0  501  502 -0.00000000000E+00 -0.00000000000E+00 -0.60761281315E+03  0.60761281315E+03  0.00000000000E+00 0. -1.
         25    1    1    2    0    0 -0.79983725519E+02 -0.32261312350E+02  0.80610675459E+02  0.17193391062E+03  0.12500000000E+03 0.  0.
         25    1    1    2    0    0 -0.71060538635E+02  0.32496572641E-03 -0.64058680974E+02  0.15741065644E+03  0.12500000000E+03 0.  0.
         25    1    1    2    0    0  0.15104426415E+03  0.32260987385E+02 -0.42934224994E+03  0.47309080379E+03  0.12500000000E+03 0.  0.
</event>
<event>
 5    0  0.5713700E-005  0.3446743E+03  0.7546771E-02  0.1064822E+00
         21   -1    0    0  502  501  0.00000000000E+00  0.00000000000E+00  0.19538422213E+03  0.19538422213E+03  0.00000000000E+00 0. -1.
         21   -1    0    0  501  502 -0.00000000000E+00 -0.00000000000E+00 -0.60803464823E+03  0.60803464823E+03  0.00000000000E+00 0. -1.
         25    1    1    2    0    0 -0.22704706208E+03  0.47128606817E+02 -0.21793249867E+03  0.34189332834E+03  0.12500000000E+03 0.  0.
         25    1    1    2    0    0 -0.53609549647E+01  0.44181352818E+02 -0.25811212895E+02  0.13517377884E+03  0.12500000000E+03 0.  0.
         25    1    1    2    0    0  0.23240801705E+03 -0.91309959635E+02 -0.16890671454E+03  0.32635176318E+03  0.12500000000E+03 0.  0.
</event>
<event>
 5    0  0.5713700E-005  0.3285770E+03  0.7546771E-02  0.1071768E+00
         21   -1    0    0  502  501  0.00000000000E+00  0.00000000000E+00  0.10783814524E+03  0.10783814524E+03  0.00000000000E+00 0. -1.
         21   -1    0    0  501  502 -0.00000000000E+00 -0.00000000000E+00 -0.10011561680E+04  0.10011561680E+04  0.00000000000E+00 0. -1.
         25    1    1    2    0    0  0.16516572204E+03 -0.48838971113E+02 -0.45424732088E+03  0.50162793918E+03  0.12500000000E+03 0.  0.
         25    1    1    2    0    0 -0.16064950007E+03  0.14409390624E+03 -0.33953837652E+03  0.42128686760E+03  0.12500000000E+03 0.  0.
         25    1    1    2    0    0 -0.45162219715E+01 -0.95254935125E+02 -0.99532325333E+02  0.18607950643E+03  0.12500000000E+03 0.  0.
</event>
<event>
 5    0  0.5713700E-005  0.2967530E+03  0.7546771E-02  0.1086875E+00
         21   -1    0    0  502  501  0.00000000000E+00  0.00000000000E+00  0.25384891656E+03  0.25384891656E+03  0.00000000000E+00 0.  1.
         21   -1    0    0  501  502 -0.00000000000E+00 -0.00000000000E+00 -0.34690851531E+03  0.34690851531E+03  0.00000000000E+00 0.  1.
         25    1    1    2    0    0 -0.91432485612E+01 -0.89802390788E+02  0.14912303706E+03  0.21450116216E+03  0.12500000000E+03 0.  0.
         25    1    1    2    0    0  0.71741172567E+01  0.10727872603E+03 -0.18459805383E+03  0.24751087753E+03  0.12500000000E+03 0.  0.
         25    1    1    2    0    0  0.19691313045E+01 -0.17476335244E+02 -0.57584581979E+02  0.13874539219E+03  0.12500000000E+03 0.  0.
</event>
<event>
 5    0  0.5713700E-005  0.2625613E+03  0.7546771E-02  0.1105614E+00
         21   -1    0    0  502  501  0.00000000000E+00  0.00000000000E+00  0.20291761662E+03  0.20291761662E+03  0.00000000000E+00 0.  1.
         21   -1    0    0  501  502 -0.00000000000E+00 -0.00000000000E+00 -0.33973612531E+03  0.33973612531E+03  0.00000000000E+00 0.  1.
         25    1    1    2    0    0 -0.16169137777E+03  0.14737240834E+02 -0.12098880943E+03  0.23795919801E+03  0.12500000000E+03 0.  0.
         25    1    1    2    0    0  0.96762693311E+02 -0.33565352249E+02 -0.17745597782E+02  0.16257170089E+03  0.12500000000E+03 0.  0.
         25    1    1    2    0    0  0.64928684461E+02  0.18828111415E+02  0.19158985185E+01  0.14212284304E+03  0.12500000000E+03 0.  0.
</event>
<event>
 5    0  0.5713700E-005  0.2277289E+03  0.7546771E-02  0.1128249E+00
         21   -1    0    0  502  501  0.00000000000E+00  0.00000000000E+00  0.84884038523E+02  0.84884038523E+02  0.00000000000E+00 0. -1.
         21   -1    0    0  501  502 -0.00000000000E+00 -0.00000000000E+00 -0.61095645117E+03  0.61095645117E+03  0.00000000000E+00 0. -1.
         25    1    1    2    0    0  0.71234725805E+01 -0.33903813043E+02 -0.17283259151E+03  0.21609330644E+03  0.12500000000E+03 0.  0.
         25    1    1    2    0    0  0.90146078815E+02  0.42479030236E+02 -0.22371944761E+03  0.27496577019E+03  0.12500000000E+03 0.  0.
         25    1    1    2    0    0 -0.97269551396E+02 -0.85752171924E+01 -0.12952037353E+03  0.20478141306E+03  0.12500000000E+03 0.  0.
</event>
<event>
 5    0  0.5713700E-005  0.4891139E+03  0.7546771E-02  0.1016660E+00
         21   -1    0    0  502  501  0.00000000000E+00  0.00000000000E+00  0.12802014769E+04  0.12802014769E+04  0.00000000000E+00 0. -1.
         21   -1    0    0  501  502 -0.00000000000E+00 -0.00000000000E+00 -0.18687088788E+03  0.18687088788E+03  0.00000000000E+00 0. -1.
         25    1    1    2    0    0 -0.25626193879E+03 -0.32859960325E+02  0.84771213820E+03  0.89498090903E+03  0.12500000000E+03 0.  0.
         25    1    1    2    0    0  0.29966056321E+03  0.66045857889E+02  0.27727690520E+03  0.43204859755E+03  0.12500000000E+03 0.  0.
         25    1    1    2    0    0 -0.43398624421E+02 -0.33185897565E+02 -0.31658454381E+02  0.14004285820E+03  0.12500000000E+03 0.  0.
</event>
<event>
 5    0  0.5713700E-005  0.2979233E+03  0.7546771E-02  0.1086283E+00
         21   -1    0    0  502  501  0.00000000000E+00  0.00000000000E+00  0.48995604917E+03  0.48995604917E+03  0.00000000000E+00 0. -1.
         21   -1    0    0  501  502 -0.00000000000E+00 -0.00000000000E+00 -0.18115567495E+03  0.18115567495E+03  0.00000000000E+00 0. -1.
         25    1    1    2    0    0  0.61207589848E+02 -0.74042823933E+02  0.52412682615E+02  0.16613487933E+03  0.12500000000E+03 0.  0.
         25    1    1    2    0    0  0.10400282355E+03 -0.71285947617E+02  0.70738630984E+02  0.19112097621E+03  0.12500000000E+03 0.  0.
         25    1    1    2    0    0 -0.16521041340E+03  0.14532877155E+03  0.18564906062E+03  0.31385586858E+03  0.12500000000E+03 0.  0.
</event>
<event>
 5    0  0.5713700E-005  0.8258336E+03  0.7546771E-02  0.9523359E-01
         21   -1    0    0  502  501  0.00000000000E+00  0.00000000000E+00  0.37959672873E+03  0.37959672873E+03  0.00000000000E+00 0.  1.
         21   -1    0    0  501  502 -0.00000000000E+00 -0.00000000000E+00 -0.17966463700E+04  0.17966463700E+04  0.00000000000E+00 0.  1.
         25    1    1    2    0    0 -0.85469717367E+02  0.13399277530E+03 -0.47956084060E+03  0.52044474852E+03  0.12500000000E+03 0.  0.
         25    1    1    2    0    0  0.44217545020E+03  0.42775735897E+03 -0.69512897259E+03  0.93665616714E+03  0.12500000000E+03 0.  0.
         25    1    1    2    0    0 -0.35670573284E+03 -0.56175013427E+03 -0.24235982807E+03  0.71914218306E+03  0.12500000000E+03 0.  0.
</event>
<event>
 5    0  0.5713700E-005  0.3806940E+03  0.7546771E-02  0.1050678E+00
         21   -1    0    0  502  501  0.00000000000E+00  0.00000000000E+00  0.43578104911E+03  0.43578104911E+03  0.00000000000E+00 0. -1.
         21   -1    0    0  501  502 -0.00000000000E+00 -0.00000000000E+00 -0.33257056013E+03  0.33257056013E+03  0.00000000000E+00 0. -1.
         25    1    1    2    0    0 -0.65438997222E+02 -0.10506209195E+03  0.82248997776E+02  0.19419115108E+03  0.12500000000E+03 0.  0.
         25    1    1    2    0    0  0.44243999831E+02  0.30415984955E+03 -0.28385907482E+02  0.33301877626E+03  0.12500000000E+03 0.  0.
         25    1    1    2    0    0  0.21194997391E+02 -0.19909775760E+03  0.49347398682E+02  0.24114168190E+03  0.12500000000E+03 0.  0.
</event>
<event>
 5    0  0.5713700E-005  0.2956519E+03  0.7546771E-02  0.1087435E+00
         21   -1    0    0  502  501  0.00000000000E+00  0.00000000000E+00  0.11591605050E+03  0.11591605050E+03  0.00000000000E+00 0. -1.
         21   -1    0    0  501  502 -0.00000000000E+00 -0.00000000000E+00 -0.75408067164E+03  0.75408067164E+03  0.00000000000E+00 0. -1.
         25    1    1    2    0    0 -0.92704061155E+02  0.15607765246E+03 -0.42961453384E+03  0.48285393676E+03  0.12500000000E+03 0.  0.
         25    1    1    2    0    0  0.51948705531E+02 -0.35809676033E+02 -0.13458710858E+03  0.19421557790E+03  0.12500000000E+03 0.  0.
         25    1    1    2    0    0  0.40755355624E+02 -0.12026797643E+03 -0.73962978715E+02  0.19292720748E+03  0.12500000000E+03 0.  0.
</event>
<event>
 5    0  0.5713700E-005  0.2019350E+03  0.7546771E-02  0.1148117E+00
         21   -1    0    0  502  501  0.00000000000E+00  0.00000000000E+00  0.78610524892E+02  0.78610524892E+02  0.00000000000E+00 0. -1.
         21   -1    0    0  501  502 -0.00000000000E+00 -0.00000000000E+00 -0.51873158662E+03  0.51873158662E+03  0.00000000000E+00 0. -1.
         25    1    1    2    0    0 -0.42164362386E+02  0.13917546115E+02 -0.11442529973E+03  0.17518470471E+03  0.12500000000E+03 0.  0.
         25    1    1    2    0    0 -0.94570645277E+01 -0.35241037244E+02 -0.18078540566E+03  0.22279975241E+03  0.12500000000E+03 0.  0.
         25    1    1    2    0    0  0.51621426914E+02  0.21323491129E+02 -0.14491035634E+03  0.19935765439E+03  0.12500000000E+03 0.  0.
</event>
<event>
 5    0  0.5713700E-005  0.2875175E+03  0.7546771E-02  0.1091652E+00
         21   -1    0    0  502  501  0.00000000000E+00  0.00000000000E+00  0.30100399885E+03  0.30100399885E+03  0.00000000000E+00 0. -1.
         21   -1    0    0  501  502 -0.00000000000E+00 -0.00000000000E+00 -0.27463528284E+03  0.27463528284E+03  0.00000000000E+00 0. -1.
         25    1    1    2    0    0  0.14588183046E+03 -0.76607486715E+02  0.10528760452E+02  0.20708952237E+03  0.12500000000E+03 0.  0.
         25    1    1    2    0    0 -0.85473607865E+02  0.89837549656E+02  0.10310268794E+03  0.20403844547E+03  0.12500000000E+03 0.  0.
         25    1    1    2    0    0 -0.60408222594E+02 -0.13230062941E+02 -0.87262732378E+02  0.16451131385E+03  0.12500000000E+03 0.  0.
</event>
<event>
 5    0  0.5713700E-005  0.2234557E+03  0.7546771E-02  0.1131333E+00
         21   -1    0    0  502  501  0.00000000000E+00  0.00000000000E+00  0.20413747047E+02  0.20413747047E+02  0.00000000000E+00 0. -1.
         21   -1    0    0  501  502 -0.00000000000E+00 -0.00000000000E+00 -0.24460202101E+04  0.24460202101E+04  0.00000000000E+00 0. -1.
         25    1    1    2    0    0  0.41283451741E+02  0.38175878883E+02 -0.10116659550E+04  0.10209087744E+04  0.12500000000E+03 0.  0.
         25    1    1    2    0    0 -0.66703541643E+02 -0.16364751223E+02 -0.42824937458E+03  0.45137533647E+03  0.12500000000E+03 0.  0.
         25    1    1    2    0    0  0.25420089901E+02 -0.21811127660E+02 -0.98569113352E+03  0.99414984633E+03  0.12500000000E+03 0.  0.
</event>
<event>
 5    0  0.5713700E-005  0.2677436E+03  0.7546771E-02  0.1102578E+00
         21   -1    0    0  502  501  0.00000000000E+00  0.00000000000E+00  0.97379159465E+02  0.97379159465E+02  0.00000000000E+00 0.  1.
         21   -1    0    0  501  502 -0.00000000000E+00 -0.00000000000E+00 -0.73616010965E+03  0.73616010965E+03  0.00000000000E+00 0.  1.
         25    1    1    2    0    0 -0.12900405413E+03 -0.61726304827E+02 -0.26566410603E+03  0.32658015850E+03  0.12500000000E+03 0.  0.
         25    1    1    2    0    0  0.47256915385E+02  0.81308649040E+02 -0.76161733550E+02  0.17398253394E+03  0.12500000000E+03 0.  0.
         25    1    1    2    0    0  0.81747138750E+02 -0.19582344213E+02 -0.29695511060E+03  0.33297657667E+03  0.12500000000E+03 0.  0.
</event>
<event>
 5    0  0.5713700E-005  0.4034155E+03  0.7546771E-02  0.1042603E+00
         21   -1    0    0  502  501  0.00000000000E+00  0.00000000000E+00  0.67311569973E+03  0.67311569973E+03  0.00000000000E+00 0. -1.
         21   -1    0    0  501  502 -0.00000000000E+00 -0.00000000000E+00 -0.24177727856E+03  0.24177727856E+03  0.00000000000E+00 0. -1.
         25    1    1    2    0    0 -0.78770459521E+02  0.88739332214E+02  0.32486029483E+03  0.36774810065E+03  0.12500000000E+03 0.  0.
         25    1    1    2    0    0  0.19432262256E+03 -0.20592025756E+03  0.13659512895E+03  0.33830114301E+03  0.12500000000E+03 0.  0.
         25    1    1    2    0    0 -0.11555216304E+03  0.11718092535E+03 -0.30117002608E+02  0.20884373463E+03  0.12500000000E+03 0.  0.
</event>
<event>
 5    0  0.5713700E-005  0.4352564E+03  0.7546771E-02  0.1032212E+00
         21   -1    0    0  502  501  0.00000000000E+00  0.00000000000E+00  0.12836054618E+04  0.12836054618E+04  0.00000000000E+00 0. -1.
         21   -1    0    0  501  502 -0.00000000000E+00 -0.00000000000E+00 -0.14759059659E+03  0.14759059659E+03  0.00000000000E+00 0. -1.
         25    1    1    2    0    0 -0.54597103951E+02 -0.68616991258E+01  0.33881616955E+02  0.14071563752E+03  0.12500000000E+03 0.  0.
         25    1    1    2    0    0  0.27866378825E+03 -0.87938062509E+02  0.88781736361E+03  0.94299060486E+03  0.12500000000E+03 0.  0.
         25    1    1    2    0    0 -0.22406668430E+03  0.94799761635E+02  0.21431588464E+03  0.34748981601E+03  0.12500000000E+03 0.  0.
</event>
<event>
 5    0  0.5713700E-005  0.2678153E+03  0.7546771E-02  0.1102537E+00
         21   -1    0    0  502  501  0.00000000000E+00  0.00000000000E+00  0.28995666245E+03  0.28995666245E+03  0.00000000000E+00 0.  1.
         21   -1    0    0  501  502 -0.00000000000E+00 -0.00000000000E+00 -0.24736464607E+03  0.24736464607E+03  0.00000000000E+00 0.  1.
         25    1    1    2    0    0  0.11314346181E+03  0.72545571748E+02 -0.45163030554E+02  0.18902116881E+03  0.12500000000E+03 0.  0.
         25    1    1    2    0    0 -0.10868196731E+03 -0.10158018488E+03  0.27859427385E+01  0.19432721234E+03  0.12500000000E+03 0.  0.
         25    1    1    2    0    0 -0.44614944965E+01  0.29034613135E+02  0.84969104195E+02  0.15397292736E+03  0.12500000000E+03 0.  0.
</event>
<event>
 5    0  0.5713700E-005  0.2765740E+03  0.7546771E-02  0.1097575E+00
         21   -1    0    0  502  501  0.00000000000E+00  0.00000000000E+00  0.40474465941E+03  0.40474465941E+03  0.00000000000E+00 0.  1.
         21   -1    0    0  501  502 -0.00000000000E+00 -0.00000000000E+00 -0.18899120617E+03  0.18899120617E+03  0.00000000000E+00 0.  1.
         25    1    1    2    0    0 -0.16175101865E+01  0.53125540374E+02  0.15835556997E+03  0.20862987782E+03  0.12500000000E+03 0.  0.
         25    1    1    2    0    0  0.10532426282E+03 -0.78300090728E+02  0.11063251820E+03  0.21234090192E+03  0.12500000000E+03 0.  0.
         25    1    1    2    0    0 -0.10370675263E+03  0.25174550354E+02 -0.53234634931E+02  0.17276508583E+03  0.12500000000E+03 0.  0.
</event>
<event>
 5    0  0.5713700E-005  0.2724889E+03  0.7546771E-02  0.1099864E+00
         21   -1    0    0  502  501  0.00000000000E+00  0.00000000000E+00  0.91571025158E+02  0.91571025158E+02  0.00000000000E+00 0. -1.
         21   -1    0    0  501  502 -0.00000000000E+00 -0.00000000000E+00 -0.81084848516E+03  0.81084848516E+03  0.00000000000E+00 0. -1.
         25    1    1    2    0    0  0.16532884109E+03 -0.29391782346E+01 -0.22788224523E+03  0.30805451166E+03  0.12500000000E+03 0.  0.
         25    1    1    2    0    0 -0.29176547510E+02 -0.55702986186E+02 -0.22259488158E+03  0.26292123326E+03  0.12500000000E+03 0.  0.
         25    1    1    2    0    0 -0.13615229358E+03  0.58642164421E+02 -0.26880033320E+03  0.33144376540E+03  0.12500000000E+03 0.  0.
</event>
<event>
 5    0  0.5713700E-005  0.2678885E+03  0.7546771E-02  0.1102494E+00
         21   -1    0    0  502  501  0.00000000000E+00  0.00000000000E+00  0.88275200751E+03  0.88275200751E+03  0.00000000000E+00 0. -1.
         21   -1    0    0  501  502 -0.00000000000E+00 -0.00000000000E+00 -0.81296076645E+02  0.81296076645E+02  0.00000000000E+00 0. -1.
         25    1    1    2    0    0  0.30972851273E+02 -0.89405266005E+02  0.37117601608E+03  0.40292586665E+03  0.12500000000E+03 0.  0.
         25    1    1    2    0    0  0.10115681494E+03  0.38450684552E+02  0.15068345707E+03  0.22369993426E+03  0.12500000000E+03 0.  0.
         25    1    1    2    0    0 -0.13212966621E+03  0.50954581453E+02  0.27959645772E+03  0.33742228325E+03  0.12500000000E+03 0.  0.
</event>
<event>
 5    0  0.5713700E-005  0.5422246E+03  0.7546771E-02  0.1003310E+00
         21   -1    0    0  502  501  0.00000000000E+00  0.00000000000E+00  0.29496533402E+03  0.29496533402E+03  0.00000000000E+00 0.  1.
         21   -1    0    0  501  502 -0.00000000000E+00 -0.00000000000E+00 -0.99675263117E+03  0.99675263117E+03  0.00000000000E+00 0.  1.
         25    1    1    2    0    0 -0.32878727563E+03  0.15224182468E+03 -0.37721261644E+03  0.53776668156E+03  0.12500000000E+03 0.  0.
         25    1    1    2    0    0 -0.90853284655E+02  0.87164441486E+02 -0.12225726605E+03  0.21546182561E+03  0.12500000000E+03 0.  0.
         25    1    1    2    0    0  0.41964056029E+03 -0.23940626616E+03 -0.20231741466E+03  0.53848945801E+03  0.12500000000E+03 0.  0.
</event>
<event>
 5    0  0.5713700E-005  0.2966391E+03  0.7546771E-02  0.1086933E+00
         21   -1    0    0  502  501  0.00000000000E+00  0.00000000000E+00  0.50905184093E+03  0.50905184093E+03  0.00000000000E+00 0.  1.
         21   -1    0    0  501  502 -0.00000000000E+00 -0.00000000000E+00 -0.17286011448E+03  0.17286011448E+03  0.00000000000E+00 0.  1.
         25    1    1    2    0    0  0.86716274821E+02 -0.10873812482E+03  0.11240058869E+03  0.21818016511E+03  0.12500000000E+03 0.  0.
         25    1    1    2    0    0 -0.10961442761E+03  0.39865267731E+02  0.26325375602E+03  0.31389823569E+03  0.12500000000E+03 0.  0.
         25    1    1    2    0    0  0.22898152789E+02  0.68872857091E+02 -0.39462618273E+02  0.14983355461E+03  0.12500000000E+03 0.  0.
</event>
<event>
 5    0  0.5713700E-005  0.2529421E+03  0.7546771E-02  0.1111459E+00
         21   -1    0    0  502  501  0.00000000000E+00  0.00000000000E+00  0.15194062543E+04  0.15194062543E+04  0.00000000000E+00 0.  1.
         21   -1    0    0  501  502 -0.00000000000E+00 -0.00000000000E+00 -0.42108365439E+02  0.42108365439E+02  0.00000000000E+00 0.  1.
         25    1    1    2    0    0  0.57954843307E+02 -0.27678682598E+02  0.15251970372E+03  0.20739366759E+03  0.12500000000E+03 0.  0.
         25    1    1    2    0    0  0.86743942853E+01  0.53540237114E+02  0.62453375004E+03  0.63922547434E+03  0.12500000000E+03 0.  0.
         25    1    1    2    0    0 -0.66629237593E+02 -0.25861554516E+02  0.70024443514E+03  0.71489547785E+03  0.12500000000E+03 0.  0.
</event>
<event>
 5    0  0.5713700E-005  0.2994126E+03  0.7546771E-02  0.1085535E+00
         21   -1    0    0  502  501  0.00000000000E+00  0.00000000000E+00  0.12476045968E+04  0.12476045968E+04  0.00000000000E+00 0. -1.
         21   -1    0    0  501  502 -0.00000000000E+00 -0.00000000000E+00 -0.71856007133E+02  0.71856007133E+02  0.00000000000E+00 0. -1.
         25    1    1    2    0    0 -0.63697991436E+02  0.16620366473E+02  0.32168335086E+03  0.35133865275E+03  0.12500000000E+03 0.  0.
         25    1    1    2    0    0  0.67806205301E+02 -0.19103623043E+03  0.50529360541E+03  0.55860464596E+03  0.12500000000E+03 0.  0.
         25    1    1    2    0    0 -0.41082138646E+01  0.17441586396E+03  0.34877163342E+03  0.40951730525E+03  0.12500000000E+03 0.  0.
</event>
<event>
 5    0  0.5713700E-005  0.3268811E+03  0.7546771E-02  0.1072525E+00
         21   -1    0    0  502  501  0.00000000000E+00  0.00000000000E+00  0.33223852431E+03  0.33223852431E+03  0.00000000000E+00 0.  1.
         21   -1    0    0  501  502 -0.00000000000E+00 -0.00000000000E+00 -0.32161011704E+03  0.32161011704E+03  0.00000000000E+00 0.  1.
         25    1    1    2    0    0  0.73322455426E+02 -0.42735167987E+02 -0.93346482130E+01  0.15137573356E+03  0.12500000000E+03 0.  0.
         25    1    1    2    0    0 -0.16887364478E+03 -0.11637129513E+03 -0.85708833685E+02  0.25501292203E+03  0.12500000000E+03 0.  0.
         25    1    1    2    0    0  0.95551189356E+02  0.15910646312E+03  0.10567188916E+03  0.24745998576E+03  0.12500000000E+03 0.  0.
</event>
<event>
 5    0  0.5713700E-005  0.2753931E+03  0.7546771E-02  0.1098232E+00
         21   -1    0    0  502  501  0.00000000000E+00  0.00000000000E+00  0.34944490691E+03  0.34944490691E+03  0.00000000000E+00 0.  1.
         21   -1    0    0  501  502 -0.00000000000E+00 -0.00000000000E+00 -0.21703374292E+03  0.21703374292E+03  0.00000000000E+00 0.  1.
         25    1    1    2    0    0 -0.15377192603E+02 -0.87153870500E+02 -0.11364799786E+03  0.19071738938E+03  0.12500000000E+03 0.  0.
         25    1    1    2    0    0  0.51043176753E+02  0.41469931074E+02  0.15947585627E+03  0.21303218022E+03  0.12500000000E+03 0.  0.
         25    1    1    2    0    0 -0.35665984150E+02  0.45683939427E+02  0.86583305581E+02  0.16272908023E+03  0.12500000000E+03 0.  0.
</event>
<event>
 5    0  0.5713700E-005  0.3479279E+03  0.7546771E-02  0.1063469E+00
         21   -1    0    0  502  501  0.00000000000E+00  0.00000000000E+00  0.20702138505E+03  0.20702138505E+03  0.00000000000E+00 0.  1.
         21   -1    0    0  501  502 -0.00000000000E+00 -0.00000000000E+00 -0.58474062909E+03  0.58474062909E+03  0.00000000000E+00 0.  1.
         25    1    1    2    0    0 -0.28042659072E+03  0.42265352468E+02 -0.13246158839E+03  0.33704080643E+03  0.12500000000E+03 0.  0.
         25    1    1    2    0    0  0.13476608948E+03 -0.82626084372E+01 -0.86476961490E+02  0.20330625775E+03  0.12500000000E+03 0.  0.
         25    1    1    2    0    0  0.14566050124E+03 -0.34002744031E+02 -0.15878069416E+03  0.25141494996E+03  0.12500000000E+03 0.  0.
</event>
<event>
 5    0  0.5713700E-005  0.3264006E+03  0.7546771E-02  0.1072741E+00
         21   -1    0    0  502  501  0.00000000000E+00  0.00000000000E+00  0.13907568999E+03  0.13907568999E+03  0.00000000000E+00 0. -1.
         21   -1    0    0  501  502 -0.00000000000E+00 -0.00000000000E+00 -0.76603857159E+03  0.76603857159E+03  0.00000000000E+00 0. -1.
         25    1    1    2    0    0 -0.14577192207E+03  0.73469784126E+02 -0.34855538910E+03  0.40467656433E+03  0.12500000000E+03 0.  0.
         25    1    1    2    0    0  0.34586402926E+02 -0.10256528165E+03  0.10110539593E+02  0.16565952819E+03  0.12500000000E+03 0.  0.
         25    1    1    2    0    0  0.11118551915E+03  0.29095497527E+02 -0.28851803209E+03  0.33477816906E+03  0.12500000000E+03 0.  0.
</event>
<event>
 5    0  0.5713700E-005  0.3295609E+03  0.7546771E-02  0.1071331E+00
         21   -1    0    0  502  501  0.00000000000E+00  0.00000000000E+00  0.39887674912E+03  0.39887674912E+03  0.00000000000E+00 0.  1.
         21   -1    0    0  501  502 -0.00000000000E+00 -0.00000000000E+00 -0.27229051521E+03  0.27229051521E+03  0.00000000000E+00 0.  1.
         25    1    1    2    0    0 -0.14376072587E+03  0.43191872158E+02  0.12017896996E+03  0.22934835719E+03  0.12500000000E+03 0.  0.
         25    1    1    2    0    0  0.48824613440E+02  0.13534417857E+03  0.56662291906E+02  0.19884040051E+03  0.12500000000E+03 0.  0.
         25    1    1    2    0    0  0.94936112428E+02 -0.17853605073E+03 -0.50255027964E+02  0.24297850664E+03  0.12500000000E+03 0.  0.
</event>
<event>
 5    0  0.5713700E-005  0.2380246E+03  0.7546771E-02  0.1121116E+00
         21   -1    0    0  502  501  0.00000000000E+00  0.00000000000E+00  0.28712377687E+03  0.28712377687E+03  0.00000000000E+00 0. -1.
         21   -1    0    0  501  502 -0.00000000000E+00 -0.00000000000E+00 -0.19732154982E+03  0.19732154982E+03  0.00000000000E+00 0. -1.
         25    1    1    2    0    0  0.98938540610E+02 -0.23199691266E+02  0.53086260133E+02  0.16961783959E+03  0.12500000000E+03 0.  0.
         25    1    1    2    0    0 -0.58089866012E+02  0.57272458826E+02  0.83644916753E+02  0.17110242304E+03  0.12500000000E+03 0.  0.
         25    1    1    2    0    0 -0.40848674598E+02 -0.34072767560E+02 -0.46928949829E+02  0.14372506406E+03  0.12500000000E+03 0.  0.
</event>
<event>
 5    0  0.5713700E-005  0.4931191E+03  0.7546771E-02  0.1015591E+00
         21   -1    0    0  502  501  0.00000000000E+00  0.00000000000E+00  0.77288502956E+03  0.77288502956E+03  0.00000000000E+00 0. -1.
         21   -1    0    0  501  502 -0.00000000000E+00 -0.00000000000E+00 -0.31462178864E+03  0.31462178864E+03  0.00000000000E+00 0. -1.
         25    1    1    2    0    0 -0.20963838811E+03 -0.37603520984E+03  0.13254638287E+03  0.46748719386E+03  0.12500000000E+03 0.  0.
         25    1    1    2    0    0  0.15442049796E+03  0.32170400297E+03  0.20725213826E+03  0.43118163752E+03  0.12500000000E+03 0.  0.
         25    1    1    2    0    0  0.55217890149E+02  0.54331206872E+02  0.11846471979E+03  0.18883798682E+03  0.12500000000E+03 0.  0.
</event>
<event>
 5    0  0.5713700E-005  0.4178066E+03  0.7546771E-02  0.1037783E+00
         21   -1    0    0  502  501  0.00000000000E+00  0.00000000000E+00  0.24491625133E+04  0.24491625133E+04  0.00000000000E+00 0. -1.
         21   -1    0    0  501  502 -0.00000000000E+00 -0.00000000000E+00 -0.71274293257E+02  0.71274293257E+02  0.00000000000E+00 0. -1.
         25    1    1    2    0    0 -0.14630924815E+03  0.21900426977E+03  0.53628195321E+03  0.61040363662E+03  0.12500000000E+03 0.  0.
         25    1    1    2    0    0  0.23328440674E+02  0.55708758173E+02  0.25540318069E+03  0.29069479973E+03  0.12500000000E+03 0.  0.
         25    1    1    2    0    0  0.12298080747E+03 -0.27471302794E+03  0.15862030861E+04  0.16193383702E+04  0.12500000000E+03 0.  0.
</event>
<event>
 5    0  0.5713700E-005  0.3896478E+03  0.7546771E-02  0.1047424E+00
         21   -1    0    0  502  501  0.00000000000E+00  0.00000000000E+00  0.10820224095E+04  0.10820224095E+04  0.00000000000E+00 0. -1.
         21   -1    0    0  501  502 -0.00000000000E+00 -0.00000000000E+00 -0.14031630522E+03  0.14031630522E+03  0.00000000000E+00 0. -1.
         25    1    1    2    0    0 -0.21335338682E+02 -0.24089256098E+03  0.27432323224E+03  0.38647465423E+03  0.12500000000E+03 0.  0.
         25    1    1    2    0    0  0.18192055979E+03  0.13452076281E+03  0.45384563553E+03  0.52229473154E+03  0.12500000000E+03 0.  0.
         25    1    1    2    0    0 -0.16058522111E+03  0.10637179817E+03  0.21353723650E+03  0.31356932894E+03  0.12500000000E+03 0.  0.
</event>
<event>
 5    0  0.5713700E-005  0.2182461E+03  0.7546771E-02  0.1135197E+00
         21   -1    0    0  502  501  0.00000000000E+00  0.00000000000E+00  0.67867108727E+02  0.67867108727E+02  0.00000000000E+00 0. -1.
         21   -1    0    0  501  502 -0.00000000000E+00 -0.00000000000E+00 -0.70183264552E+03  0.70183264552E+03  0.00000000000E+00 0. -1.
         25    1    1    2    0    0 -0.14383458195E+02  0.36891183654E+02 -0.10411577201E+03  0.16743039533E+03  0.12500000000E+03 0.  0.
         25    1    1    2    0    0 -0.43841834153E+02 -0.61818242310E+02 -0.27444400670E+03  0.31094712463E+03  0.12500000000E+03 0.  0.
         25    1    1    2    0    0  0.58225292348E+02  0.24927058655E+02 -0.25540575809E+03  0.29132223428E+03  0.12500000000E+03 0.  0.
</event>
<event>
 5    0  0.5713700E-005  0.3944170E+03  0.7546771E-02  0.1045730E+00
         21   -1    0    0  502  501  0.00000000000E+00  0.00000000000E+00  0.59121047039E+03  0.59121047039E+03  0.00000000000E+00 0.  1.
         21   -1    0    0  501  502 -0.00000000000E+00 -0.00000000000E+00 -0.26312920828E+03  0.26312920828E+03  0.00000000000E+00 0.  1.
         25    1    1    2    0    0  0.13312087294E+03 -0.57695850045E+02 -0.31005233722E+02  0.19400077949E+03  0.12500000000E+03 0.  0.
         25    1    1    2    0    0  0.38873207796E+01  0.24781300036E+03  0.24877282622E+03  0.37274564179E+03  0.12500000000E+03 0.  0.
         25    1    1    2    0    0 -0.13700819372E+03 -0.19011715032E+03  0.11031366962E+03  0.28759325739E+03  0.12500000000E+03 0.  0.
</event>
<event>
 5    0  0.5713700E-005  0.3188693E+03  0.7546771E-02  0.1076171E+00
         21   -1    0    0  502  501  0.00000000000E+00  0.00000000000E+00  0.92375821292E+03  0.92375821292E+03  0.00000000000E+00 0.  1.
         21   -1    0    0  501  502 -0.00000000000E+00 -0.00000000000E+00 -0.11006949430E+03  0.11006949430E+03  0.00000000000E+00 0.  1.
         25    1    1    2    0    0  0.11467874640E+03  0.63441188104E+02  0.52766666064E+03  0.55788269733E+03  0.12500000000E+03 0.  0.
         25    1    1    2    0    0 -0.86799331623E+01 -0.14961852599E+03  0.14160279382E+03  0.24111697530E+03  0.12500000000E+03 0.  0.
         25    1    1    2    0    0 -0.10599881323E+03  0.86177337886E+02  0.14441926416E+03  0.23482803460E+03  0.12500000000E+03 0.  0.
</event>
<event>
 5    0  0.6637525E-005  0.5989541E+03  0.7546771E-02  0.9907578E-01
         21   -1    0    0  502  501  0.00000000000E+00  0.00000000000E+00  0.68599742867E+03  0.68599742867E+03  0.00000000000E+00 0.  1.
         21   -1    0    0  501  502 -0.00000000000E+00 -0.00000000000E+00 -0.52295524993E+03  0.52295524993E+03  0.00000000000E+00 0.  1.
         25    1    1    2    0    0 -0.10333041789E+03 -0.20306810213E+03 -0.20826755812E+03  0.33303784339E+03  0.12500000000E+03 0.  0.
         25    1    1    2    0    0 -0.22937581493E+03  0.20172807445E+03 -0.39834831467E+02  0.33244442287E+03  0.12500000000E+03 0.  0.
         25    1    1    2    0    0  0.33270623282E+03  0.13400276741E+01  0.41114456832E+03  0.54347041234E+03  0.12500000000E+03 0.  0.
</event>
<event>
 5    0  0.5713700E-005  0.4521576E+03  0.7546771E-02  0.1027081E+00
         21   -1    0    0  502  501  0.00000000000E+00  0.00000000000E+00  0.21854131964E+03  0.21854131964E+03  0.00000000000E+00 0. -1.
         21   -1    0    0  501  502 -0.00000000000E+00 -0.00000000000E+00 -0.93550501248E+03  0.93550501248E+03  0.00000000000E+00 0. -1.
         25    1    1    2    0    0  0.30601977949E+03 -0.26373070736E+03 -0.40546658832E+03  0.58585846899E+03  0.12500000000E+03 0.  0.
         25    1    1    2    0    0 -0.15712345006E+03  0.13202057436E+03 -0.16244083120E+03  0.29005039951E+03  0.12500000000E+03 0.  0.
         25    1    1    2    0    0 -0.14889632942E+03  0.13171013300E+03 -0.14905627332E+03  0.27813746361E+03  0.12500000000E+03 0.  0.
</event>
<event>
 5    0  0.5713700E-005  0.4503615E+03  0.7546771E-02  0.1027614E+00
         21   -1    0    0  502  501  0.00000000000E+00  0.00000000000E+00  0.36237828241E+03  0.36237828241E+03  0.00000000000E+00 0. -1.
         21   -1    0    0  501  502 -0.00000000000E+00 -0.00000000000E+00 -0.55970652721E+03  0.55970652721E+03  0.00000000000E+00 0. -1.
         25    1    1    2    0    0 -0.17207259073E+03  0.18210911908E+03 -0.12762221346E+03  0.30770950115E+03  0.12500000000E+03 0.  0.
         25    1    1    2    0    0  0.22259913439E+03 -0.28532609411E+03  0.76347053554E+02  0.39040392825E+03  0.12500000000E+03 0.  0.
         25    1    1    2    0    0 -0.50526543658E+02  0.10321697503E+03 -0.14605308489E+03  0.22397138021E+03  0.12500000000E+03 0.  0.
</event>
<event>
 5    0  0.5713700E-005  0.3832868E+03  0.7546771E-02  0.1049726E+00
         21   -1    0    0  502  501  0.00000000000E+00  0.00000000000E+00  0.29574205849E+03  0.29574205849E+03  0.00000000000E+00 0. -1.
         21   -1    0    0  501  502 -0.00000000000E+00 -0.00000000000E+00 -0.49674637393E+03  0.49674637393E+03  0.00000000000E+00 0. -1.
         25    1    1    2    0    0  0.95695495144E+02 -0.10791346970E+03  0.20533509489E+02  0.19196241753E+03  0.12500000000E+03 0.  0.
         25    1    1    2    0    0 -0.14437510003E+03  0.17404087090E+03 -0.32756116226E+03  0.41719984333E+03  0.12500000000E+03 0.  0.
         25    1    1    2    0    0  0.48679604886E+02 -0.66127401201E+02  0.10602333733E+03  0.18332617156E+03  0.12500000000E+03 0.  0.
</event>
<event>
 5    0  0.5713700E-005  0.4083993E+03  0.7546771E-02  0.1040909E+00
         21   -1    0    0  502  501  0.00000000000E+00  0.00000000000E+00  0.11223980611E+04  0.11223980611E+04  0.00000000000E+00 0.  1.
         21   -1    0    0  501  502 -0.00000000000E+00 -0.00000000000E+00 -0.14860146454E+03  0.14860146454E+03  0.00000000000E+00 0.  1.
         25    1    1    2    0    0  0.24149723977E+03  0.29774296924E+02  0.41073663109E+03  0.49349468659E+03  0.12500000000E+03 0.  0.
         25    1    1    2    0    0 -0.89660965227E+01 -0.67287511111E+02 -0.12887156910E+02  0.14282534387E+03  0.12500000000E+03 0.  0.
         25    1    1    2    0    0 -0.23253114325E+03  0.37513214188E+02  0.57594712239E+03  0.63467949519E+03  0.12500000000E+03 0.  0.
</event>
<event>
 5    0  0.5713700E-005  0.2839999E+03  0.7546771E-02  0.1093524E+00
         21   -1    0    0  502  501  0.00000000000E+00  0.00000000000E+00  0.43292309075E+03  0.43292309075E+03  0.00000000000E+00 0. -1.
         21   -1    0    0  501  502 -0.00000000000E+00 -0.00000000000E+00 -0.18630544939E+03  0.18630544939E+03  0.00000000000E+00 0. -1.
         25    1    1    2    0    0  0.59881927838E+02  0.10710304652E+03 -0.40410814208E+01  0.17520912703E+03  0.12500000000E+03 0.  0.
         25    1    1    2    0    0  0.64958707714E+02 -0.11098893099E+03  0.73559368701E+02  0.19384054590E+03  0.12500000000E+03 0.  0.
         25    1    1    2    0    0 -0.12484063555E+03  0.38858844641E+01  0.17709935408E+03  0.25017886721E+03  0.12500000000E+03 0.  0.
</event>
<event>
 5    0  0.5713700E-005  0.3446473E+03  0.7546771E-02  0.1064834E+00
         21   -1    0    0  502  501  0.00000000000E+00  0.00000000000E+00  0.27194492471E+04  0.27194492471E+04  0.00000000000E+00 0.  1.
         21   -1    0    0  501  502 -0.00000000000E+00 -0.00000000000E+00 -0.43678600984E+02  0.43678600984E+02  0.00000000000E+00 0.  1.
         25    1    1    2    0    0 -0.56485065717E+02  0.20624006258E+03  0.10094055483E+04  0.10393508008E+04  0.12500000000E+03 0.  0.
         25    1    1    2    0    0  0.40207959848E+02  0.55493023722E+02  0.71392476782E+03  0.72801767137E+03  0.12500000000E+03 0.  0.
         25    1    1    2    0    0  0.16277105870E+02 -0.26173308630E+03  0.95244033001E+03  0.99575937599E+03  0.12500000000E+03 0.  0.
</event>
<event>
 5    0  0.5713700E-005  0.5458958E+03  0.7546771E-02  0.1002448E+00
         21   -1    0    0  502  501  0.00000000000E+00  0.00000000000E+00  0.11455890770E+03  0.11455890770E+03  0.00000000000E+00 0. -1.
         21   -1    0    0  501  502 -0.00000000000E+00 -0.00000000000E+00 -0.26013008859E+04  0.26013008859E+04  0.00000000000E+00 0. -1.
         25    1    1    2    0    0 -0.32436009307E+03  0.22598393911E+03 -0.12221116254E+04  0.12905270380E+04  0.12500000000E+03 0.  0.
         25    1    1    2    0    0  0.11222600575E+02 -0.44204061068E+02 -0.85195456195E+03  0.86228273867E+03  0.12500000000E+03 0.  0.
         25    1    1    2    0    0  0.31313749249E+03 -0.18177987804E+03 -0.41267579080E+03  0.56305001694E+03  0.12500000000E+03 0.  0.
</event>
<event>
 5    0  0.5713700E-005  0.3365768E+03  0.7546771E-02  0.1068263E+00
         21   -1    0    0  502  501  0.00000000000E+00  0.00000000000E+00  0.60632360297E+03  0.60632360297E+03  0.00000000000E+00 0. -1.
         21   -1    0    0  501  502 -0.00000000000E+00 -0.00000000000E+00 -0.18683738943E+03  0.18683738943E+03  0.00000000000E+00 0. -1.
         25    1    1    2    0    0 -0.16260677767E+02  0.12764517410E+02  0.34062583866E+02  0.13119680700E+03  0.12500000000E+03 0.  0.
         25    1    1    2    0    0  0.15779389146E+03 -0.18969722334E+03  0.23285126974E+03  0.36156418870E+03  0.12500000000E+03 0.  0.
         25    1    1    2    0    0 -0.14153321369E+03  0.17693270593E+03  0.15257235993E+03  0.30039999671E+03  0.12500000000E+03 0.  0.
</event>
<event>
 5    0  0.5713700E-005  0.2606735E+03  0.7546771E-02  0.1106739E+00
         21   -1    0    0  502  501  0.00000000000E+00  0.00000000000E+00  0.49717436043E+03  0.49717436043E+03  0.00000000000E+00 0. -1.
         21   -1    0    0  501  502 -0.00000000000E+00 -0.00000000000E+00 -0.13667371094E+03  0.13667371094E+03  0.00000000000E+00 0. -1.
         25    1    1    2    0    0  0.70481265250E+02 -0.12879369871E+03  0.18096440777E+03  0.26444005457E+03  0.12500000000E+03 0.  0.
         25    1    1    2    0    0 -0.21534358508E+02  0.25511291347E+02  0.14894506974E+03  0.19729213969E+03  0.12500000000E+03 0.  0.
         25    1    1    2    0    0 -0.48946906742E+02  0.10328240737E+03  0.30591171986E+02  0.17211587711E+03  0.12500000000E+03 0.  0.
</event>
<event>
 5    0  0.5713700E-005  0.3542465E+03  0.7546771E-02  0.1060885E+00
         21   -1    0    0  502  501  0.00000000000E+00  0.00000000000E+00  0.76143684988E+02  0.76143684988E+02  0.00000000000E+00 0. -1.
         21   -1    0    0  501  502 -0.00000000000E+00 -0.00000000000E+00 -0.16480762036E+04  0.16480762036E+04  0.00000000000E+00 0. -1.
         25    1    1    2    0    0  0.10869017823E+03 -0.20416633186E+03 -0.51857724786E+03  0.58141620884E+03  0.12500000000E+03 0.  0.
         25    1    1    2    0    0  0.29842726956E+02 -0.10607856460E+02 -0.54700043983E+03  0.56199430259E+03  0.12500000000E+03 0.  0.
         25    1    1    2    0    0 -0.13853290518E+03  0.21477418832E+03 -0.50635483087E+03  0.58080937710E+03  0.12500000000E+03 0.  0.
</event>
<event>
 5    0  0.5713700E-005  0.2189636E+03  0.7546771E-02  0.1134658E+00
         21   -1    0    0  502  501  0.00000000000E+00  0.00000000000E+00  0.36666589998E+02  0.36666589998E+02  0.00000000000E+00 0.  1.
         21   -1    0    0  501  502 -0.00000000000E+00 -0.00000000000E+00 -0.13075948745E+04  0.13075948745E+04  0.00000000000E+00 0.  1.
         25    1    1    2    0    0  0.56708420576E+02  0.58426729221E+02 -0.69737711163E+03  0.71315451585E+03  0.12500000000E+03 0.  0.
         25    1    1    2    0    0 -0.24753861440E+02 -0.27273000356E+02 -0.29855003394E+03  0.32575096772E+03  0.12500000000E+03 0.  0.
         25    1    1    2    0    0 -0.31954559136E+02 -0.31153728864E+02 -0.27500113889E+03  0.30535598089E+03  0.12500000000E+03 0.  0.
</event>
<event>
 5    0  0.5713700E-005  0.3670266E+03  0.7546771E-02  0.1055836E+00
         21   -1    0    0  502  501  0.00000000000E+00  0.00000000000E+00  0.11197826479E+03  0.11197826479E+03  0.00000000000E+00 0. -1.
         21   -1    0    0  501  502 -0.00000000000E+00 -0.00000000000E+00 -0.12029883004E+04  0.12029883004E+04  0.00000000000E+00 0. -1.
         25    1    1    2    0    0 -0.21088223803E+03 -0.71516875762E+02 -0.25018284903E+03  0.35749467099E+03  0.12500000000E+03 0.  0.
         25    1    1    2    0    0  0.82920456125E+02 -0.91223789029E+02 -0.55996021768E+03  0.58683730890E+03  0.12500000000E+03 0.  0.
         25    1    1    2    0    0  0.12796178190E+03  0.16274066479E+03 -0.28086696890E+03  0.37063458530E+03  0.12500000000E+03 0.  0.
</event>
<event>
 5    0  0.5713700E-005  0.2154823E+03  0.7546771E-02  0.1137297E+00
         21   -1    0    0  502  501  0.00000000000E+00  0.00000000000E+00  0.55083029623E+03  0.55083029623E+03  0.00000000000E+00 0. -1.
         21   -1    0    0  501  502 -0.00000000000E+00 -0.00000000000E+00 -0.84295717078E+02  0.84295717078E+02  0.00000000000E+00 0. -1.
         25    1    1    2    0    0 -0.12640021332E+02  0.35053333461E+02  0.74199624201E+02  0.15006362170E+03  0.12500000000E+03 0.  0.
         25    1    1    2    0    0 -0.49384751227E+02 -0.52936143830E+02  0.20518147763E+03  0.25092932818E+03  0.12500000000E+03 0.  0.
         25    1    1    2    0    0  0.62024772559E+02  0.17882810369E+02  0.18715347732E+03  0.23413306343E+03  0.12500000000E+03 0.  0.
</event>
<event>
 5    0  0.5713700E-005  0.3505032E+03  0.7546771E-02  0.1062409E+00
         21   -1    0    0  502  501  0.00000000000E+00  0.00000000000E+00  0.35049926377E+03  0.35049926377E+03  0.00000000000E+00 0.  1.
         21   -1    0    0  501  502 -0.00000000000E+00 -0.00000000000E+00 -0.35050723011E+03  0.35050723011E+03  0.00000000000E+00 0.  1.
         25    1    1    2    0    0  0.16846957475E+03 -0.42321702931E+02  0.35724025278E+02  0.21696619584E+03  0.12500000000E+03 0.  0.
         25    1    1    2    0    0  0.56764746600E+02 -0.21221890354E+00  0.11802569471E+03  0.18104514936E+03  0.12500000000E+03 0.  0.
         25    1    1    2    0    0 -0.22523432135E+03  0.42533921835E+02 -0.15375768633E+03  0.30299514868E+03  0.12500000000E+03 0.  0.
</event>
<event>
 5    0  0.5713700E-005  0.3108094E+03  0.7546771E-02  0.1079959E+00
         21   -1    0    0  502  501  0.00000000000E+00  0.00000000000E+00  0.11433554832E+03  0.11433554832E+03  0.00000000000E+00 0.  1.
         21   -1    0    0  501  502 -0.00000000000E+00 -0.00000000000E+00 -0.84490354109E+03  0.84490354109E+03  0.00000000000E+00 0.  1.
         25    1    1    2    0    0 -0.90402414461E+01 -0.12445523021E+03 -0.31744789775E+03  0.36327537500E+03  0.12500000000E+03 0.  0.
         25    1    1    2    0    0  0.41000879867E+02  0.18193477267E+01 -0.39582791971E+03  0.41712003572E+03  0.12500000000E+03 0.  0.
         25    1    1    2    0    0 -0.31960638421E+02  0.12263588248E+03 -0.17292175311E+02  0.17884367869E+03  0.12500000000E+03 0.  0.
</event>
<event>
 5    0  0.5713700E-005  0.3323299E+03  0.7546771E-02  0.1070111E+00
         21   -1    0    0  502  501  0.00000000000E+00  0.00000000000E+00  0.24943003657E+03  0.24943003657E+03  0.00000000000E+00 0. -1.
         21   -1    0    0  501  502 -0.00000000000E+00 -0.00000000000E+00 -0.44278219598E+03  0.44278219598E+03  0.00000000000E+00 0. -1.
         25    1    1    2    0    0 -0.11413883896E+03 -0.14247086934E+03 -0.21125701486E+03  0.30590872739E+03  0.12500000000E+03 0.  0.
         25    1    1    2    0    0 -0.53190036074E+02  0.33747834916E+02 -0.36452296968E+02  0.14464392920E+03  0.12500000000E+03 0.  0.
         25    1    1    2    0    0  0.16732887504E+03  0.10872303442E+03  0.54357152406E+02  0.24165957596E+03  0.12500000000E+03 0.  0.
</event>
<event>
 5    0  0.5713700E-005  0.3777174E+03  0.7546771E-02  0.1051781E+00
         21   -1    0    0  502  501  0.00000000000E+00  0.00000000000E+00  0.11006138513E+04  0.11006138513E+04  0.00000000000E+00 0.  1.
         21   -1    0    0  501  502 -0.00000000000E+00 -0.00000000000E+00 -0.12962803342E+03  0.12962803342E+03  0.00000000000E+00 0.  1.
         25    1    1    2    0    0  0.90920558393E+02  0.23470526047E+02  0.33535068500E+02  0.15989688662E+03  0.12500000000E+03 0.  0.
         25    1    1    2    0    0 -0.24048745433E+03  0.95221784045E+02  0.55623489137E+03  0.62603806452E+03  0.12500000000E+03 0.  0.
         25    1    1    2    0    0  0.14956689594E+03 -0.11869231009E+03  0.38121585802E+03  0.44430693359E+03  0.12500000000E+03 0.  0.
</event>
<event>
 5    0  0.5713700E-005  0.2430084E+03  0.7546771E-02  0.1117805E+00
         21   -1    0    0  502  501  0.00000000000E+00  0.00000000000E+00  0.33659673046E+04  0.33659673046E+04  0.00000000000E+00 0.  1.
         21   -1    0    0  501  502 -0.00000000000E+00 -0.00000000000E+00 -0.17544165547E+02  0.17544165547E+02  0.00000000000E+00 0. -1.
         25    1    1    2    0    0 -0.99665280416E+02 -0.82464923199E+02  0.10466364257E+04  0.10619823159E+04  0.12500000000E+03 0.  0.
         25    1    1    2    0    0  0.89582153290E+02  0.48950518928E+01  0.10909673131E+04  0.11017638595E+04  0.12500000000E+03 0.  0.
         25    1    1    2    0    0  0.10083127126E+02  0.77569871306E+02  0.12108194003E+04  0.12197652948E+04  0.12500000000E+03 0.  0.
</event>
<event>
 5    0  0.5713700E-005  0.3492155E+03  0.7546771E-02  0.1062937E+00
         21   -1    0    0  502  501  0.00000000000E+00  0.00000000000E+00  0.75432858362E+02  0.75432858362E+02  0.00000000000E+00 0. -1.
         21   -1    0    0  501  502 -0.00000000000E+00 -0.00000000000E+00 -0.16166889992E+04  0.16166889992E+04  0.00000000000E+00 0. -1.
         25    1    1    2    0    0 -0.65247865990E+02 -0.22526584992E+03 -0.63827278053E+03  0.69138927496E+03  0.12500000000E+03 0.  0.
         25    1    1    2    0    0  0.10891967381E+03  0.11429397500E+02 -0.24250027482E+03  0.29398215891E+03  0.12500000000E+03 0.  0.
         25    1    1    2    0    0 -0.43671807819E+02  0.21383645242E+03 -0.66048308552E+03  0.70675042373E+03  0.12500000000E+03 0.  0.
</event>
<event>
 5    0  0.5713700E-005  0.2183109E+03  0.7546771E-02  0.1135149E+00
         21   -1    0    0  502  501  0.00000000000E+00  0.00000000000E+00  0.11343138992E+04  0.11343138992E+04  0.00000000000E+00 0. -1.
         21   -1    0    0  501  502 -0.00000000000E+00 -0.00000000000E+00 -0.42016269213E+02  0.42016269213E+02  0.00000000000E+00 0. -1.
         25    1    1    2    0    0  0.36885994094E+02  0.10044496356E+02  0.29074517707E+03  0.31877770696E+03  0.12500000000E+03 0.  0.
         25    1    1    2    0    0 -0.55202276839E+02 -0.56221096778E+02  0.57858087035E+03  0.59715067330E+03  0.12500000000E+03 0.  0.
         25    1    1    2    0    0  0.18316282745E+02  0.46176600423E+02  0.22297158260E+03  0.26040178818E+03  0.12500000000E+03 0.  0.
</event>
<event>
 5    0  0.5713700E-005  0.3393053E+03  0.7546771E-02  0.1067092E+00
         21   -1    0    0  502  501  0.00000000000E+00  0.00000000000E+00  0.30669172973E+03  0.30669172973E+03  0.00000000000E+00 0. -1.
         21   -1    0    0  501  502 -0.00000000000E+00 -0.00000000000E+00 -0.37538705656E+03  0.37538705656E+03  0.00000000000E+00 0. -1.
         25    1    1    2    0    0 -0.20303025606E+03 -0.89951812888E+02 -0.42479753566E+02  0.25834500766E+03  0.12500000000E+03 0.  0.
         25    1    1    2    0    0  0.12512148386E+03 -0.67500663913E+01 -0.12966958575E+03  0.21940863836E+03  0.12500000000E+03 0.  0.
         25    1    1    2    0    0  0.77908772204E+02  0.96701879279E+02  0.10345401249E+03  0.20432514026E+03  0.12500000000E+03 0.  0.
</event>
<event>
 5    0  0.5713700E-005  0.3678470E+03  0.7546771E-02  0.1055519E+00
         21   -1    0    0  502  501  0.00000000000E+00  0.00000000000E+00  0.11535894432E+04  0.11535894432E+04  0.00000000000E+00 0. -1.
         21   -1    0    0  501  502 -0.00000000000E+00 -0.00000000000E+00 -0.11729601380E+03  0.11729601380E+03  0.00000000000E+00 0. -1.
         25    1    1    2    0    0  0.28413862226E+02  0.80178562079E+02  0.48046250228E+03  0.50369153803E+03  0.12500000000E+03 0.  0.
         25    1    1    2    0    0 -0.49119674267E+02  0.22482360756E+02 -0.45943807649E+02  0.14371510848E+03  0.12500000000E+03 0.  0.
         25    1    1    2    0    0  0.20705812040E+02 -0.10266092283E+03  0.60177473478E+03  0.62347881051E+03  0.12500000000E+03 0.  0.
</event>
<event>
 5    0  0.5713700E-005  0.2504475E+03  0.7546771E-02  0.1113022E+00
         21   -1    0    0  502  501  0.00000000000E+00  0.00000000000E+00  0.37650676994E+03  0.37650676994E+03  0.00000000000E+00 0.  1.
         21   -1    0    0  501  502 -0.00000000000E+00 -0.00000000000E+00 -0.16659454528E+03  0.16659454528E+03  0.00000000000E+00 0.  1.
         25    1    1    2    0    0  0.30169514021E+02 -0.55424091705E+01  0.92812183680E+02  0.15868213294E+03  0.12500000000E+03 0.  0.
         25    1    1    2    0    0 -0.98086117659E+02 -0.98532926938E+02  0.36017446282E+02  0.19039926629E+03  0.12500000000E+03 0.  0.
         25    1    1    2    0    0  0.67916603638E+02  0.10407533611E+03  0.81082594700E+02  0.19401991599E+03  0.12500000000E+03 0.  0.
</event>
<event>
 5    0  0.5713700E-005  0.2729527E+03  0.7546771E-02  0.1099602E+00
         21   -1    0    0  502  501  0.00000000000E+00  0.00000000000E+00  0.10902373438E+04  0.10902373438E+04  0.00000000000E+00 0.  1.
         21   -1    0    0  501  502 -0.00000000000E+00 -0.00000000000E+00 -0.68336633770E+02  0.68336633770E+02  0.00000000000E+00 0.  1.
         25    1    1    2    0    0  0.65662533710E+02  0.36128257939E+02  0.10266792950E+03  0.17827653548E+03  0.12500000000E+03 0.  0.
         25    1    1    2    0    0  0.34270547013E+02 -0.11486920879E+02  0.17173541730E+03  0.21546339201E+03  0.12500000000E+03 0.  0.
         25    1    1    2    0    0 -0.99933080723E+02 -0.24641337060E+02  0.74749736326E+03  0.76483405010E+03  0.12500000000E+03 0.  0.
</event>
<event>
 5    0  0.5713700E-005  0.2713500E+03  0.7546771E-02  0.1100509E+00
         21   -1    0    0  502  501  0.00000000000E+00  0.00000000000E+00  0.75316385445E+03  0.75316385445E+03  0.00000000000E+00 0. -1.
         21   -1    0    0  501  502 -0.00000000000E+00 -0.00000000000E+00 -0.97762008979E+02  0.97762008979E+02  0.00000000000E+00 0. -1.
         25    1    1    2    0    0 -0.11811152954E+03 -0.42051389447E+02  0.22060801979E+03  0.28286313150E+03  0.12500000000E+03 0.  0.
         25    1    1    2    0    0 -0.65299449820E+02  0.10908004617E+02  0.16887440726E+03  0.22028746705E+03  0.12500000000E+03 0.  0.
         25    1    1    2    0    0  0.18341097936E+03  0.31143384830E+02  0.26591941842E+03  0.34777526488E+03  0.12500000000E+03 0.  0.
</event>
<event>
 5    0  0.5713700E-005  0.3867782E+03  0.7546771E-02  0.1048457E+00
         21   -1    0    0  502  501  0.00000000000E+00  0.00000000000E+00  0.15660565750E+04  0.15660565750E+04  0.00000000000E+00 0.  1.
         21   -1    0    0  501  502 -0.00000000000E+00 -0.00000000000E+00 -0.95524909472E+02  0.95524909472E+02  0.00000000000E+00 0.  1.
         25    1    1    2    0    0  0.69208438769E+02 -0.15188574948E+03  0.55883164915E+03  0.59647036891E+03  0.12500000000E+03 0.  0.
         25    1    1    2    0    0  0.98885984179E+02  0.63594184308E+02  0.57192304699E+02  0.18088288438E+03  0.12500000000E+03 0.  0.
         25    1    1    2    0    0 -0.16809442295E+03  0.88291565175E+02  0.85450771169E+03  0.88422823120E+03  0.12500000000E+03 0.  0.
</event>
<event>
 5    0  0.6552077E-005  0.3016314E+03  0.7546771E-02  0.1084428E+00
         21   -1    0    0  502  501  0.00000000000E+00  0.00000000000E+00  0.54336994120E+03  0.54336994120E+03  0.00000000000E+00 0.  1.
         21   -1    0    0  501  502 -0.00000000000E+00 -0.00000000000E+00 -0.16743929987E+03  0.16743929987E+03  0.00000000000E+00 0. -1.
         25    1    1    2    0    0 -0.17267052200E+03 -0.78240814659E+02  0.14220244492E+03  0.26792399965E+03  0.12500000000E+03 0.  0.
         25    1    1    2    0    0  0.15957120002E+03 -0.24522060678E+02  0.17908180129E+03  0.27158716997E+03  0.12500000000E+03 0.  0.
         25    1    1    2    0    0  0.13099321985E+02  0.10276287534E+03  0.54646395116E+02  0.17129807145E+03  0.12500000000E+03 0.  0.
</event>
<event>
 5    0  0.5713700E-005  0.2110438E+03  0.7546771E-02  0.1140742E+00
         21   -1    0    0  502  501  0.00000000000E+00  0.00000000000E+00  0.28351085702E+02  0.28351085702E+02  0.00000000000E+00 0.  1.
         21   -1    0    0  501  502 -0.00000000000E+00 -0.00000000000E+00 -0.15709975380E+04  0.15709975380E+04  0.00000000000E+00 0.  1.
         25    1    1    2    0    0  0.33398277118E+02  0.31486152153E+02 -0.39309906050E+03  0.41504059327E+03  0.12500000000E+03 0.  0.
         25    1    1    2    0    0  0.13202373608E+02  0.15762739450E+02 -0.34750313904E+03  0.36987321918E+03  0.12500000000E+03 0.  0.
         25    1    1    2    0    0 -0.46600650726E+02 -0.47248891602E+02 -0.80204425280E+03  0.81443481130E+03  0.12500000000E+03 0.  0.
</event>
<event>
 5    0  0.5713700E-005  0.2654309E+03  0.7546771E-02  0.1103923E+00
         21   -1    0    0  502  501  0.00000000000E+00  0.00000000000E+00  0.11694944248E+03  0.11694944248E+03  0.00000000000E+00 0.  1.
         21   -1    0    0  501  502 -0.00000000000E+00 -0.00000000000E+00 -0.60242754937E+03  0.60242754937E+03  0.00000000000E+00 0.  1.
         25    1    1    2    0    0 -0.18400175096E+02  0.29677091798E+02 -0.21582671727E+03  0.25184413455E+03  0.12500000000E+03 0.  0.
         25    1    1    2    0    0  0.11538546197E+03  0.69855100052E+02 -0.77792207361E+02  0.19967515460E+03  0.12500000000E+03 0.  0.
         25    1    1    2    0    0 -0.96985286871E+02 -0.99532191850E+02 -0.19185918226E+03  0.26785770271E+03  0.12500000000E+03 0.  0.
</event>
<event>
 5    0  0.5713700E-005  0.4277507E+03  0.7546771E-02  0.1034573E+00
         21   -1    0    0  502  501  0.00000000000E+00  0.00000000000E+00  0.18440137143E+03  0.18440137143E+03  0.00000000000E+00 0. -1.
         21   -1    0    0  501  502 -0.00000000000E+00 -0.00000000000E+00 -0.99224138321E+03  0.99224138321E+03  0.00000000000E+00 0. -1.
         25    1    1    2    0    0 -0.17722035758E+03  0.14900423801E+03 -0.28670281343E+02  0.26468151261E+03  0.12500000000E+03 0.  0.
         25    1    1    2    0    0  0.54291715151E+02  0.28943417951E+02 -0.61930501300E+02  0.15246540187E+03  0.12500000000E+03 0.  0.
         25    1    1    2    0    0  0.12292864243E+03 -0.17794765596E+03 -0.71723922914E+03  0.75949584015E+03  0.12500000000E+03 0.  0.
</event>
<event>
 5    0  0.5713700E-005  0.2903395E+03  0.7546771E-02  0.1090172E+00
         21   -1    0    0  502  501  0.00000000000E+00  0.00000000000E+00  0.44864774859E+03  0.44864774859E+03  0.00000000000E+00 0.  1.
         21   -1    0    0  501  502 -0.00000000000E+00 -0.00000000000E+00 -0.18789137229E+03  0.18789137229E+03  0.00000000000E+00 0.  1.
         25    1    1    2    0    0 -0.84544626478E+02  0.10736978703E+03  0.17802526457E+01  0.18521402305E+03  0.12500000000E+03 0.  0.
         25    1    1    2    0    0  0.49899666164E+02 -0.13265722544E+03  0.25719545088E+03  0.31915891981E+03  0.12500000000E+03 0.  0.
         25    1    1    2    0    0  0.34644960314E+02  0.25287438413E+02  0.17806727742E+01  0.13216617802E+03  0.12500000000E+03 0.  0.
</event>
<event>
 5    0  0.5713700E-005  0.2984125E+03  0.7546771E-02  0.1086037E+00
         21   -1    0    0  502  501  0.00000000000E+00  0.00000000000E+00  0.17058565231E+03  0.17058565231E+03  0.00000000000E+00 0. -1.
         21   -1    0    0  501  502 -0.00000000000E+00 -0.00000000000E+00 -0.52202535291E+03  0.52202535291E+03  0.00000000000E+00 0. -1.
         25    1    1    2    0    0 -0.16039274890E+02 -0.46667535735E+01 -0.27879547589E+03  0.30599175529E+03  0.12500000000E+03 0.  0.
         25    1    1    2    0    0 -0.15746181891E+02  0.47443993686E+02 -0.17190025724E+03  0.21834278834E+03  0.12500000000E+03 0.  0.
         25    1    1    2    0    0  0.31785456781E+02 -0.42777240113E+02  0.99256032521E+02  0.16827646159E+03  0.12500000000E+03 0.  0.
</event>
<event>
 5    0  0.5713700E-005  0.3430761E+03  0.7546771E-02  0.1065493E+00
         21   -1    0    0  502  501  0.00000000000E+00  0.00000000000E+00  0.38266917134E+03  0.38266917134E+03  0.00000000000E+00 0. -1.
         21   -1    0    0  501  502 -0.00000000000E+00 -0.00000000000E+00 -0.30757960774E+03  0.30757960774E+03  0.00000000000E+00 0. -1.
         25    1    1    2    0    0 -0.77347975733E+02  0.89440612345E+02 -0.16913956915E+03  0.24127893886E+03  0.12500000000E+03 0.  0.
         25    1    1    2    0    0  0.97210102059E+02 -0.15269156803E+03  0.20838406705E+03  0.30300732382E+03  0.12500000000E+03 0.  0.
         25    1    1    2    0    0 -0.19862126326E+02  0.63250955684E+02  0.35845065705E+02  0.14596251640E+03  0.12500000000E+03 0.  0.
</event>
<event>
 5    0  0.5713700E-005  0.2900951E+03  0.7546771E-02  0.1090299E+00
         21   -1    0    0  502  501  0.00000000000E+00  0.00000000000E+00  0.47119836046E+03  0.47119836046E+03  0.00000000000E+00 0.  1.
         21   -1    0    0  501  502 -0.00000000000E+00 -0.00000000000E+00 -0.17859818089E+03  0.17859818089E+03  0.00000000000E+00 0.  1.
         25    1    1    2    0    0 -0.40560852697E+02 -0.15908911893E+03  0.51740652683E+02  0.21273604695E+03  0.12500000000E+03 0.  0.
         25    1    1    2    0    0  0.74790474112E+02  0.39030044201E+02  0.16810854838E+02  0.15173847307E+03  0.12500000000E+03 0.  0.
         25    1    1    2    0    0 -0.34229621415E+02  0.12005907473E+03  0.22404867205E+03  0.28532202133E+03  0.12500000000E+03 0.  0.
</event>
<event>
 5    0  0.5713700E-005  0.2677526E+03  0.7546771E-02  0.1102573E+00
         21   -1    0    0  502  501  0.00000000000E+00  0.00000000000E+00  0.48899139528E+03  0.48899139528E+03  0.00000000000E+00 0. -1.
         21   -1    0    0  501  502 -0.00000000000E+00 -0.00000000000E+00 -0.14661091630E+03  0.14661091630E+03  0.00000000000E+00 0. -1.
         25    1    1    2    0    0 -0.13079569401E+03  0.91509005978E+02  0.20975269877E+03  0.29172351017E+03  0.12500000000E+03 0.  0.
         25    1    1    2    0    0  0.12445252352E+03 -0.51367295968E+02  0.96720446770E+02  0.20762195098E+03  0.12500000000E+03 0.  0.
         25    1    1    2    0    0  0.63431704915E+01 -0.40141710009E+02  0.35907333431E+02  0.13625685043E+03  0.12500000000E+03 0.  0.
</event>
<event>
 5    0  0.5713700E-005  0.2588535E+03  0.7546771E-02  0.1107834E+00
         21   -1    0    0  502  501  0.00000000000E+00  0.00000000000E+00  0.10814614987E+03  0.10814614987E+03  0.00000000000E+00 0. -1.
         21   -1    0    0  501  502 -0.00000000000E+00 -0.00000000000E+00 -0.61957961040E+03  0.61957961040E+03  0.00000000000E+00 0. -1.
         25    1    1    2    0    0 -0.38984944271E+02  0.10164448014E+03 -0.29967139945E+03  0.34246076252E+03  0.12500000000E+03 0.  0.
         25    1    1    2    0    0  0.99407574109E+02 -0.23387845846E+02 -0.12218407568E+03  0.20244210400E+03  0.12500000000E+03 0.  0.
         25    1    1    2    0    0 -0.60422629838E+02 -0.78256634297E+02 -0.89577985402E+02  0.18282289374E+03  0.12500000000E+03 0.  0.
</event>
<event>
 5    0  0.5713700E-005  0.2241089E+03  0.7546771E-02  0.1130856E+00
         21   -1    0    0  502  501  0.00000000000E+00  0.00000000000E+00  0.75523367228E+03  0.75523367228E+03  0.00000000000E+00 0. -1.
         21   -1    0    0  501  502 -0.00000000000E+00 -0.00000000000E+00 -0.66502332506E+02  0.66502332506E+02  0.00000000000E+00 0. -1.
         25    1    1    2    0    0 -0.19118069554E+02 -0.26363372227E+02  0.18784142725E+03  0.22796914214E+03  0.12500000000E+03 0.  0.
         25    1    1    2    0    0 -0.25700025225E+02 -0.76127212250E+01  0.79264408922E+02  0.15042038207E+03  0.12500000000E+03 0.  0.
         25    1    1    2    0    0  0.44818094779E+02  0.33976093452E+02  0.42162550360E+03  0.44334648057E+03  0.12500000000E+03 0.  0.
</event>
<event>
 5    0  0.5713700E-005  0.4064684E+03  0.7546771E-02  0.1041563E+00
         21   -1    0    0  502  501  0.00000000000E+00  0.00000000000E+00  0.50351699081E+03  0.50351699081E+03  0.00000000000E+00 0.  1.
         21   -1    0    0  501  502 -0.00000000000E+00 -0.00000000000E+00 -0.32812510022E+03  0.32812510022E+03  0.00000000000E+00 0.  1.
         25    1    1    2    0    0 -0.21675170597E+01  0.70720052869E+02 -0.62590745771E+02  0.15668000978E+03  0.12500000000E+03 0.  0.
         25    1    1    2    0    0  0.38773290170E+01 -0.99270700776E+02 -0.17831939353E+03  0.23935854241E+03  0.12500000000E+03 0.  0.
         25    1    1    2    0    0 -0.17098119574E+01  0.28550647907E+02  0.41630202990E+03  0.43560353884E+03  0.12500000000E+03 0.  0.
</event>
<event>
 5    0  0.5713700E-005  0.2781937E+03  0.7546771E-02  0.1096680E+00
         21   -1    0    0  502  501  0.00000000000E+00  0.00000000000E+00  0.32199020766E+03  0.32199020766E+03  0.00000000000E+00 0.  1.
         21   -1    0    0  501  502 -0.00000000000E+00 -0.00000000000E+00 -0.24035428305E+03  0.24035428305E+03  0.00000000000E+00 0.  1.
         25    1    1    2    0    0 -0.23299904391E+02  0.15215088125E+02  0.11928916555E+03  0.17501225520E+03  0.12500000000E+03 0.  0.
         25    1    1    2    0    0 -0.61778989216E+02  0.75116336122E+02 -0.11422610191E+03  0.19527342322E+03  0.12500000000E+03 0.  0.
         25    1    1    2    0    0  0.85078893607E+02 -0.90331424247E+02  0.76572860966E+02  0.19205881230E+03  0.12500000000E+03 0.  0.
</event>
<event>
 5    0  0.5713700E-005  0.4032066E+03  0.7546771E-02  0.1042675E+00
         21   -1    0    0  502  501  0.00000000000E+00  0.00000000000E+00  0.17469576778E+03  0.17469576778E+03  0.00000000000E+00 0. -1.
         21   -1    0    0  501  502 -0.00000000000E+00 -0.00000000000E+00 -0.93062115485E+03  0.93062115485E+03  0.00000000000E+00 0. -1.
         25    1    1    2    0    0  0.22139324598E+03  0.11549533772E+03 -0.32263516332E+03  0.42669964965E+03  0.12500000000E+03 0.  0.
         25    1    1    2    0    0  0.26620117317E+02 -0.12898342836E+02  0.27062747743E+02  0.13127219892E+03  0.12500000000E+03 0.  0.
         25    1    1    2    0    0 -0.24801336330E+03 -0.10259699489E+03 -0.46035297149E+03  0.54734507406E+03  0.12500000000E+03 0.  0.
</event>
<event>
 5    0  0.5713700E-005  0.2867322E+03  0.7546771E-02  0.1092068E+00
         21   -1    0    0  502  501  0.00000000000E+00  0.00000000000E+00  0.45841583203E+03  0.45841583203E+03  0.00000000000E+00 0.  1.
         21   -1    0    0  501  502 -0.00000000000E+00 -0.00000000000E+00 -0.17934671042E+03  0.17934671042E+03  0.00000000000E+00 0.  1.
         25    1    1    2    0    0  0.15175207293E+03  0.28628301976E+02  0.44573861665E+02  0.20361753475E+03  0.12500000000E+03 0.  0.
         25    1    1    2    0    0 -0.12823393177E+02 -0.68286375716E+02  0.19030939361E+03  0.23805489664E+03  0.12500000000E+03 0.  0.
         25    1    1    2    0    0 -0.13892867975E+03  0.39658073740E+02  0.44185866341E+02  0.19609011106E+03  0.12500000000E+03 0.  0.
</event>
<event>
 5    0  0.5713700E-005  0.3580064E+03  0.7546771E-02  0.1059376E+00
         21   -1    0    0  502  501  0.00000000000E+00  0.00000000000E+00  0.23224283616E+03  0.23224283616E+03  0.00000000000E+00 0. -1.
         21   -1    0    0  501  502 -0.00000000000E+00 -0.00000000000E+00 -0.55187308159E+03  0.55187308159E+03  0.00000000000E+00 0. -1.
         25    1    1    2    0    0 -0.11845116711E+03  0.11332176534E+03 -0.48710415431E+02  0.21182588619E+03  0.12500000000E+03 0.  0.
         25    1    1    2    0    0  0.18071737900E+03  0.18122512733E+02  0.22636413709E+02  0.22164070873E+03  0.12500000000E+03 0.  0.
         25    1    1    2    0    0 -0.62266211891E+02 -0.13144427807E+03 -0.29355624371E+03  0.35064932283E+03  0.12500000000E+03 0.  0.
</event>
<event>
 5    0  0.5713700E-005  0.2421003E+03  0.7546771E-02  0.1118402E+00
         21   -1    0    0  502  501  0.00000000000E+00  0.00000000000E+00  0.45913058046E+03  0.45913058046E+03  0.00000000000E+00 0. -1.
         21   -1    0    0  501  502 -0.00000000000E+00 -0.00000000000E+00 -0.12765988470E+03  0.12765988470E+03  0.00000000000E+00 0. -1.
         25    1    1    2    0    0 -0.17257917879E+02 -0.43697985383E+02  0.12455815102E+03  0.18261183599E+03  0.12500000000E+03 0.  0.
         25    1    1    2    0    0  0.11160028074E+03 -0.74497970326E+01  0.46096588841E+02  0.17395406762E+03  0.12500000000E+03 0.  0.
         25    1    1    2    0    0 -0.94342362862E+02  0.51147782416E+02  0.16081595589E+03  0.23022456156E+03  0.12500000000E+03 0.  0.
</event>
<event>
 5    0  0.5713700E-005  0.3448972E+03  0.7546771E-02  0.1064729E+00
         21   -1    0    0  502  501  0.00000000000E+00  0.00000000000E+00  0.12888578251E+04  0.12888578251E+04  0.00000000000E+00 0. -1.
         21   -1    0    0  501  502 -0.00000000000E+00 -0.00000000000E+00 -0.92294158436E+02  0.92294158436E+02  0.00000000000E+00 0. -1.
         25    1    1    2    0    0  0.13794095037E+03 -0.40339950688E+02  0.83669457168E+03  0.85810128987E+03  0.12500000000E+03 0.  0.
         25    1    1    2    0    0 -0.40168734017E+02  0.11449070854E+03  0.77277567541E+02  0.19057405904E+03  0.12500000000E+03 0.  0.
         25    1    1    2    0    0 -0.97772216356E+02 -0.74150757852E+02  0.28259152742E+03  0.33247663459E+03  0.12500000000E+03 0.  0.
</event>
<event>
 5    0  0.5713700E-005  0.3050017E+03  0.7546771E-02  0.1082767E+00
         21   -1    0    0  502  501  0.00000000000E+00  0.00000000000E+00  0.11422915607E+04  0.11422915607E+04  0.00000000000E+00 0.  1.
         21   -1    0    0  501  502 -0.00000000000E+00 -0.00000000000E+00 -0.81438077899E+02  0.81438077899E+02  0.00000000000E+00 0.  1.
         25    1    1    2    0    0 -0.15678299636E+03  0.13482678688E+03  0.64053615463E+03  0.68459530804E+03  0.12500000000E+03 0.  0.
         25    1    1    2    0    0  0.12446105126E+03 -0.51922070359E+02  0.21737103728E+03  0.28471322856E+03  0.12500000000E+03 0.  0.
         25    1    1    2    0    0  0.32321945103E+02 -0.82904716524E+02  0.20294629094E+03  0.25442110204E+03  0.12500000000E+03 0.  0.
</event>
<event>
 5    0  0.5713700E-005  0.4568179E+03  0.7546771E-02  0.1025708E+00
         21   -1    0    0  502  501  0.00000000000E+00  0.00000000000E+00  0.58147572218E+03  0.58147572218E+03  0.00000000000E+00 0. -1.
         21   -1    0    0  501  502 -0.00000000000E+00 -0.00000000000E+00 -0.35888439256E+03  0.35888439256E+03  0.00000000000E+00 0. -1.
         25    1    1    2    0    0 -0.20625627260E+02 -0.26663067568E+03  0.22418542368E+03  0.37067699943E+03  0.12500000000E+03 0.  0.
         25    1    1    2    0    0  0.11261930118E+03  0.31240537338E+03  0.11187625531E+03  0.37205042778E+03  0.12500000000E+03 0.  0.
         25    1    1    2    0    0 -0.91993673922E+02 -0.45774697691E+02 -0.11347034937E+03  0.19763268752E+03  0.12500000000E+03 0.  0.
</event>
<event>
 5    0  0.5713700E-005  0.2855333E+03  0.7546771E-02  0.1092705E+00
         21   -1    0    0  502  501  0.00000000000E+00  0.00000000000E+00  0.10403312456E+03  0.10403312456E+03  0.00000000000E+00 0.  1.
         21   -1    0    0  501  502 -0.00000000000E+00 -0.00000000000E+00 -0.78368555486E+03  0.78368555486E+03  0.00000000000E+00 0.  1.
         25    1    1    2    0    0  0.11062919528E+03  0.27604290417E+01 -0.33972137261E+03  0.37852615474E+03  0.12500000000E+03 0.  0.
         25    1    1    2    0    0 -0.19047283398E+03 -0.24416338984E+02 -0.21064894887E+03  0.31124594416E+03  0.12500000000E+03 0.  0.
         25    1    1    2    0    0  0.79843638702E+02  0.21655909942E+02 -0.12928210882E+03  0.19794658052E+03  0.12500000000E+03 0.  0.
</event>
<event>
 5    0  0.5875249E-005  0.3810051E+03  0.7546771E-02  0.1050563E+00
         21   -1    0    0  502  501  0.00000000000E+00  0.00000000000E+00  0.32401181779E+03  0.32401181779E+03  0.00000000000E+00 0. -1.
         21   -1    0    0  501  502 -0.00000000000E+00 -0.00000000000E+00 -0.44802345609E+03  0.44802345609E+03  0.00000000000E+00 0. -1.
         25    1    1    2    0    0  0.20397768994E+03 -0.10190243987E+03  0.58458628790E+02  0.26652094950E+03  0.12500000000E+03 0.  0.
         25    1    1    2    0    0 -0.17094395927E+03 -0.45420448269E+02 -0.21687847022E+03  0.30650632159E+03  0.12500000000E+03 0.  0.
         25    1    1    2    0    0 -0.33033730669E+02  0.14732288814E+03  0.34408203135E+02  0.19900800279E+03  0.12500000000E+03 0.  0.
</event>
<event>
 5    0  0.6572846E-005  0.2770733E+03  0.7546771E-02  0.1097298E+00
         21   -1    0    0  502  501  0.00000000000E+00  0.00000000000E+00  0.12657381923E+03  0.12657381923E+03  0.00000000000E+00 0.  1.
         21   -1    0    0  501  502 -0.00000000000E+00 -0.00000000000E+00 -0.60652062865E+03  0.60652062865E+03  0.00000000000E+00 0.  1.
         25    1    1    2    0    0  0.13053757252E+03  0.29558853535E+02 -0.32142417212E+03  0.36993551071E+03  0.12500000000E+03 0.  0.
         25    1    1    2    0    0 -0.92561849529E+01 -0.62971187149E+02 -0.28193610392E+02  0.14307664742E+03  0.12500000000E+03 0.  0.
         25    1    1    2    0    0 -0.12128138756E+03  0.33412333614E+02 -0.13032902690E+03  0.22008228975E+03  0.12500000000E+03 0.  0.
</event>
<event>
 5    0  0.6162911E-005  0.2911547E+03  0.7546771E-02  0.1089748E+00
         21   -1    0    0  502  501  0.00000000000E+00  0.00000000000E+00  0.51574706012E+03  0.51574706012E+03  0.00000000000E+00 0. -1.
         21   -1    0    0  501  502 -0.00000000000E+00 -0.00000000000E+00 -0.16436551375E+03  0.16436551375E+03  0.00000000000E+00 0. -1.
         25    1    1    2    0    0 -0.60038572305E+02 -0.14725330502E+03  0.22043745566E+03  0.29917526279E+03  0.12500000000E+03 0.  0.
         25    1    1    2    0    0 -0.68419574561E+02  0.86445857111E+02  0.42408814750E+02  0.17198148727E+03  0.12500000000E+03 0.  0.
         25    1    1    2    0    0  0.12845814687E+03  0.60807447913E+02  0.88535275957E+02  0.20895582382E+03  0.12500000000E+03 0.  0.
</event>
<event>
 5    0  0.5713700E-005  0.4232263E+03  0.7546771E-02  0.1036021E+00
         21   -1    0    0  502  501  0.00000000000E+00  0.00000000000E+00  0.10049419986E+04  0.10049419986E+04  0.00000000000E+00 0. -1.
         21   -1    0    0  501  502 -0.00000000000E+00 -0.00000000000E+00 -0.17823967743E+03  0.17823967743E+03  0.00000000000E+00 0. -1.
         25    1    1    2    0    0  0.15118427538E+03  0.38867607729E+02  0.66592554495E+02  0.21077700151E+03  0.12500000000E+03 0.  0.
         25    1    1    2    0    0  0.53689465410E+02  0.20750946418E+03  0.21746164707E+03  0.32993530331E+03  0.12500000000E+03 0.  0.
         25    1    1    2    0    0 -0.20487374079E+03 -0.24637707191E+03  0.54264811959E+03  0.64246937120E+03  0.12500000000E+03 0.  0.
</event>
<event>
 5    0  0.5713700E-005  0.2311224E+03  0.7546771E-02  0.1125852E+00
         21   -1    0    0  502  501  0.00000000000E+00  0.00000000000E+00  0.56372587538E+03  0.56372587538E+03  0.00000000000E+00 0.  1.
         21   -1    0    0  501  502 -0.00000000000E+00 -0.00000000000E+00 -0.94758012772E+02  0.94758012772E+02  0.00000000000E+00 0.  1.
         25    1    1    2    0    0 -0.98416836194E+01  0.21205147469E+02  0.98741273045E+02  0.16100110564E+03  0.12500000000E+03 0.  0.
         25    1    1    2    0    0  0.64590985874E+02 -0.86988997121E+02  0.11777163242E+03  0.20306215423E+03  0.12500000000E+03 0.  0.
         25    1    1    2    0    0 -0.54749302254E+02  0.65783849652E+02  0.25245495714E+03  0.29442062828E+03  0.12500000000E+03 0.  0.
</event>
<event>
 5    0  0.6714089E-005  0.2724022E+03  0.7546771E-02  0.1099913E+00
         21   -1    0    0  502  501  0.00000000000E+00  0.00000000000E+00  0.50268824519E+03  0.50268824519E+03  0.00000000000E+00 0.  1.
         21   -1    0    0  501  502 -0.00000000000E+00 -0.00000000000E+00 -0.14761223604E+03  0.14761223604E+03  0.00000000000E+00 0.  1.
         25    1    1    2    0    0  0.15690232207E+03  0.41625397697E+02  0.19674011894E+03  0.28404697993E+03  0.12500000000E+03 0.  0.
         25    1    1    2    0    0 -0.36111384474E+02 -0.12684732212E+02  0.20953205081E+01  0.13074526717E+03  0.12500000000E+03 0.  0.
         25    1    1    2    0    0 -0.12079093760E+03 -0.28940665485E+02  0.15624056971E+03  0.23550823414E+03  0.12500000000E+03 0.  0.
</event>
<event>
 5    0  0.5713700E-005  0.2969110E+03  0.7546771E-02  0.1086795E+00
         21   -1    0    0  502  501  0.00000000000E+00  0.00000000000E+00  0.15875354969E+03  0.15875354969E+03  0.00000000000E+00 0.  1.
         21   -1    0    0  501  502 -0.00000000000E+00 -0.00000000000E+00 -0.55530192565E+03  0.55530192565E+03  0.00000000000E+00 0.  1.
         25    1    1    2    0    0  0.10142946040E+03 -0.66286045388E+02 -0.82928201758E-01  0.17408843192E+03  0.12500000000E+03 0.  0.
         25    1    1    2    0    0  0.19708731817E+02  0.12764623887E+03 -0.22564250768E+03  0.28848143385E+03  0.12500000000E+03 0.  0.
         25    1    1    2    0    0 -0.12113819222E+03 -0.61360193486E+02 -0.17082294008E+03  0.25148560956E+03  0.12500000000E+03 0.  0.
</event>
<event>
 5    0  0.5713700E-005  0.4315485E+03  0.7546771E-02  0.1033372E+00
         21   -1    0    0  502  501  0.00000000000E+00  0.00000000000E+00  0.23857704916E+03  0.23857704916E+03  0.00000000000E+00 0. -1.
         21   -1    0    0  501  502 -0.00000000000E+00 -0.00000000000E+00 -0.78060343881E+03  0.78060343881E+03  0.00000000000E+00 0. -1.
         25    1    1    2    0    0 -0.60584952091E+02 -0.11095498234E+03 -0.51734766642E+03  0.54704218528E+03  0.12500000000E+03 0.  0.
         25    1    1    2    0    0  0.18413810718E+03  0.16063886947E+03  0.42067373189E+02  0.27768030681E+03  0.12500000000E+03 0.  0.
         25    1    1    2    0    0 -0.12355315509E+03 -0.49683887133E+02 -0.66746096422E+02  0.19445799588E+03  0.12500000000E+03 0.  0.
</event>
<event>
 5    0  0.5713700E-005  0.4442360E+03  0.7546771E-02  0.1029455E+00
         21   -1    0    0  502  501  0.00000000000E+00  0.00000000000E+00  0.23703936871E+03  0.23703936871E+03  0.00000000000E+00 0.  1.
         21   -1    0    0  501  502 -0.00000000000E+00 -0.00000000000E+00 -0.83254371869E+03  0.83254371869E+03  0.00000000000E+00 0.  1.
         25    1    1    2    0    0  0.24875679698E+03  0.39993862473E+02  0.38839703386E+02  0.28392424278E+03  0.12500000000E+03 0.  0.
         25    1    1    2    0    0 -0.24280008041E+03 -0.48540593376E+02 -0.59116749510E+03  0.65300235491E+03  0.12500000000E+03 0.  0.
         25    1    1    2    0    0 -0.59567165727E+01  0.85467309031E+01 -0.43176558259E+02  0.13265648972E+03  0.12500000000E+03 0.  0.
</event>
<event>
 5    0  0.6427096E-005  0.2893924E+03  0.7546771E-02  0.1090667E+00
         21   -1    0    0  502  501  0.00000000000E+00  0.00000000000E+00  0.16416860548E+03  0.16416860548E+03  0.00000000000E+00 0.  1.
         21   -1    0    0  501  502 -0.00000000000E+00 -0.00000000000E+00 -0.51013400830E+03  0.51013400830E+03  0.00000000000E+00 0.  1.
         25    1    1    2    0    0  0.95608873881E+02  0.42958428109E+02 -0.55585199119E+02  0.17234035416E+03  0.12500000000E+03 0.  0.
         25    1    1    2    0    0  0.49622881076E+02  0.34325122182E+02  0.79973018963E+01  0.13903093604E+03  0.12500000000E+03 0.  0.
         25    1    1    2    0    0 -0.14523175496E+03 -0.77283550292E+02 -0.29837750559E+03  0.36293132358E+03  0.12500000000E+03 0.  0.
</event>
<event>
 5    0  0.5713700E-005  0.2578894E+03  0.7546771E-02  0.1108418E+00
         21   -1    0    0  502  501  0.00000000000E+00  0.00000000000E+00  0.12599585553E+04  0.12599585553E+04  0.00000000000E+00 0. -1.
         21   -1    0    0  501  502 -0.00000000000E+00 -0.00000000000E+00 -0.52785011253E+02  0.52785011253E+02  0.00000000000E+00 0. -1.
         25    1    1    2    0    0 -0.76914039493E+02  0.43392317514E+02  0.21021699617E+03  0.26002855260E+03  0.12500000000E+03 0.  0.
         25    1    1    2    0    0  0.14362519131E+03 -0.31197476037E+02  0.64076860121E+03  0.66918672909E+03  0.12500000000E+03 0.  0.
         25    1    1    2    0    0 -0.66711151815E+02 -0.12194841477E+02  0.35618794662E+03  0.38352828481E+03  0.12500000000E+03 0.  0.
</event>
<event>
 5    0  0.5713700E-005  0.3807730E+03  0.7546771E-02  0.1050648E+00
         21   -1    0    0  502  501  0.00000000000E+00  0.00000000000E+00  0.24158284920E+03  0.24158284920E+03  0.00000000000E+00 0. -1.
         21   -1    0    0  501  502 -0.00000000000E+00 -0.00000000000E+00 -0.60015896460E+03  0.60015896460E+03  0.00000000000E+00 0. -1.
         25    1    1    2    0    0  0.81868734313E+02 -0.18386896225E+03 -0.39448935567E+03  0.46017076904E+03  0.12500000000E+03 0.  0.
         25    1    1    2    0    0 -0.13732511579E+03  0.12658333900E+03 -0.13892585188E+02  0.22516556811E+03  0.12500000000E+03 0.  0.
         25    1    1    2    0    0  0.55456381476E+02  0.57285623253E+02  0.49805825450E+02  0.15640547665E+03  0.12500000000E+03 0.  0.
</event>
<event>
 5    0  0.5713700E-005  0.3285587E+03  0.7546771E-02  0.1071776E+00
         21   -1    0    0  502  501  0.00000000000E+00  0.00000000000E+00  0.14990252469E+03  0.14990252469E+03  0.00000000000E+00 0.  1.
         21   -1    0    0  501  502 -0.00000000000E+00 -0.00000000000E+00 -0.72014029795E+03  0.72014029795E+03  0.00000000000E+00 0.  1.
         25    1    1    2    0    0 -0.13608574884E+03 -0.22082896134E+02 -0.30407689470E+02  0.18856461205E+03  0.12500000000E+03 0.  0.
         25    1    1    2    0    0  0.13634577643E+03 -0.12345825580E+03 -0.32021890314E+03  0.38986825673E+03  0.12500000000E+03 0.  0.
         25    1    1    2    0    0 -0.26002758977E+00  0.14554115193E+03 -0.21961118065E+03  0.29160995385E+03  0.12500000000E+03 0.  0.
</event>
<event>
 5    0  0.5713700E-005  0.2615501E+03  0.7546771E-02  0.1106215E+00
         21   -1    0    0  502  501  0.00000000000E+00  0.00000000000E+00  0.15669267383E+04  0.15669267383E+04  0.00000000000E+00 0. -1.
         21   -1    0    0  501  502 -0.00000000000E+00 -0.00000000000E+00 -0.43657720152E+02  0.43657720152E+02  0.00000000000E+00 0. -1.
         25    1    1    2    0    0  0.35335692917E+02  0.25967596480E+02  0.18451176689E+03  0.22713986744E+03  0.12500000000E+03 0.  0.
         25    1    1    2    0    0  0.52535167071E+02 -0.10706981442E+03  0.57802744616E+03  0.60329480145E+03  0.12500000000E+03 0.  0.
         25    1    1    2    0    0 -0.87870859988E+02  0.81102217938E+02  0.76072980510E+03  0.78014978956E+03  0.12500000000E+03 0.  0.
</event>
<event>
 5    0  0.5713700E-005  0.6643404E+03  0.7546771E-02  0.9780236E-01
         21   -1    0    0  502  501  0.00000000000E+00  0.00000000000E+00  0.86495643585E+03  0.86495643585E+03  0.00000000000E+00 0.  1.
         21   -1    0    0  501  502 -0.00000000000E+00 -0.00000000000E+00 -0.51025484969E+03  0.51025484969E+03  0.00000000000E+00 0.  1.
         25    1    1    2    0    0  0.23378698265E+03 -0.11299232948E+03 -0.15512159607E+03  0.32727867231E+03  0.12500000000E+03 0.  0.
         25    1    1    2    0    0  0.65452941766E+02  0.10857837710E+03  0.66497990222E+03  0.68840149762E+03  0.12500000000E+03 0.  0.
         25    1    1    2    0    0 -0.29923992442E+03  0.44139523783E+01 -0.15515671999E+03  0.35953111562E+03  0.12500000000E+03 0.  0.
</event>
<event>
 5    0  0.6001813E-005  0.2614190E+03  0.7546771E-02  0.1106294E+00
         21   -1    0    0  502  501  0.00000000000E+00  0.00000000000E+00  0.10181026075E+03  0.10181026075E+03  0.00000000000E+00 0.  1.
         21   -1    0    0  501  502 -0.00000000000E+00 -0.00000000000E+00 -0.67124767354E+03  0.67124767354E+03  0.00000000000E+00 0.  1.
         25    1    1    2    0    0  0.47166854368E+02  0.18784235175E+02 -0.29319670399E+03  0.32274892234E+03  0.12500000000E+03 0.  0.
         25    1    1    2    0    0 -0.44346079103E+01 -0.74537933715E+02 -0.27003488581E+03  0.30678886692E+03  0.12500000000E+03 0.  0.
         25    1    1    2    0    0 -0.42732246457E+02  0.55753698539E+02 -0.62058229865E+01  0.14352014502E+03  0.12500000000E+03 0.  0.
</event>
<event>
 5    0  0.5713700E-005  0.2807415E+03  0.7546771E-02  0.1095285E+00
         21   -1    0    0  502  501  0.00000000000E+00  0.00000000000E+00  0.18037747499E+04  0.18037747499E+04  0.00000000000E+00 0.  1.
         21   -1    0    0  501  502 -0.00000000000E+00 -0.00000000000E+00 -0.43694916114E+02  0.43694916114E+02  0.00000000000E+00 0.  1.
         25    1    1    2    0    0 -0.15028551430E+03  0.71731088719E+02  0.41408386605E+03  0.46348843893E+03  0.12500000000E+03 0.  0.
         25    1    1    2    0    0  0.14013187137E+02 -0.67703510066E+01  0.53975170559E+03  0.55425545622E+03  0.12500000000E+03 0.  0.
         25    1    1    2    0    0  0.13627232716E+03 -0.64960737712E+02  0.80624426219E+03  0.82972577091E+03  0.12500000000E+03 0.  0.
</event>
<event>
 5    0  0.5713700E-005  0.3998196E+03  0.7546771E-02  0.1043842E+00
         21   -1    0    0  502  501  0.00000000000E+00  0.00000000000E+00  0.84927755565E+03  0.84927755565E+03  0.00000000000E+00 0.  1.
         21   -1    0    0  501  502 -0.00000000000E+00 -0.00000000000E+00 -0.18822551861E+03  0.18822551861E+03  0.00000000000E+00 0.  1.
         25    1    1    2    0    0 -0.28442948663E+03  0.16579629785E+03  0.27129640045E+03  0.44453940449E+03  0.12500000000E+03 0.  0.
         25    1    1    2    0    0  0.13775216904E+03 -0.53901850780E+02  0.75822948617E+02  0.20797881894E+03  0.12500000000E+03 0.  0.
         25    1    1    2    0    0  0.14667731760E+03 -0.11189444707E+03  0.31393268798E+03  0.38498485083E+03  0.12500000000E+03 0.  0.
</event>
<event>
 5    0  0.5713700E-005  0.3002659E+03  0.7546771E-02  0.1085108E+00
         21   -1    0    0  502  501  0.00000000000E+00  0.00000000000E+00  0.86949625809E+03  0.86949625809E+03  0.00000000000E+00 0. -1.
         21   -1    0    0  501  502 -0.00000000000E+00 -0.00000000000E+00 -0.10369177714E+03  0.10369177714E+03  0.00000000000E+00 0. -1.
         25    1    1    2    0    0 -0.60900486234E+02 -0.88349211588E+02  0.94070770916E+02  0.18970704350E+03  0.12500000000E+03 0.  0.
         25    1    1    2    0    0  0.44480485231E+02  0.18308962420E+03  0.50852935243E+03  0.55653160408E+03  0.12500000000E+03 0.  0.
         25    1    1    2    0    0  0.16420001003E+02 -0.94740412608E+02  0.16320435761E+03  0.22694938766E+03  0.12500000000E+03 0.  0.
</event>
<event>
 5    0  0.5713700E-005  0.2821653E+03  0.7546771E-02  0.1094512E+00
         21   -1    0    0  502  501  0.00000000000E+00  0.00000000000E+00  0.21112035088E+03  0.21112035088E+03  0.00000000000E+00 0. -1.
         21   -1    0    0  501  502 -0.00000000000E+00 -0.00000000000E+00 -0.37711789042E+03  0.37711789042E+03  0.00000000000E+00 0. -1.
         25    1    1    2    0    0  0.21073112040E+02  0.11634882516E+03 -0.37793450333E+02  0.17616602980E+03  0.12500000000E+03 0.  0.
         25    1    1    2    0    0 -0.86461528901E+02 -0.17737111053E+03 -0.47100846170E+02  0.23828469640E+03  0.12500000000E+03 0.  0.
         25    1    1    2    0    0  0.65388416861E+02  0.61022285366E+02 -0.81103243042E+02  0.17378751509E+03  0.12500000000E+03 0.  0.
</event>
<event>
 5    0  0.5713700E-005  0.2454192E+03  0.7546771E-02  0.1116234E+00
         21   -1    0    0  502  501  0.00000000000E+00  0.00000000000E+00  0.23933626484E+03  0.23933626484E+03  0.00000000000E+00 0. -1.
         21   -1    0    0  501  502 -0.00000000000E+00 -0.00000000000E+00 -0.25165667870E+03  0.25165667870E+03  0.00000000000E+00 0. -1.
         25    1    1    2    0    0  0.40683313938E+02  0.40102310724E+02  0.12325201392E+03  0.18460602995E+03  0.12500000000E+03 0.  0.
         25    1    1    2    0    0 -0.64562251887E+02 -0.20634714658E+02 -0.96502660561E+02  0.17184830320E+03  0.12500000000E+03 0.  0.
         25    1    1    2    0    0  0.23878937949E+02 -0.19467596066E+02 -0.39069767220E+02  0.13453861039E+03  0.12500000000E+03 0.  0.
</event>
<event>
 5    0  0.5713700E-005  0.3187787E+03  0.7546771E-02  0.1076213E+00
         21   -1    0    0  502  501  0.00000000000E+00  0.00000000000E+00  0.16566682129E+04  0.16566682129E+04  0.00000000000E+00 0.  1.
         21   -1    0    0  501  502 -0.00000000000E+00 -0.00000000000E+00 -0.61339914224E+02  0.61339914224E+02  0.00000000000E+00 0.  1.
         25    1    1    2    0    0 -0.87289375934E+02  0.13826491530E+03  0.97054238332E+03  0.99212607051E+03  0.12500000000E+03 0.  0.
         25    1    1    2    0    0  0.10685077487E+03 -0.13925879978E+03  0.24862858865E+03  0.32901561741E+03  0.12500000000E+03 0.  0.
         25    1    1    2    0    0 -0.19561398937E+02  0.99388448131E+00  0.37615732671E+03  0.39686643921E+03  0.12500000000E+03 0.  0.
</event>
<event>
 5    0  0.5713700E-005  0.3622691E+03  0.7546771E-02  0.1057689E+00
         21   -1    0    0  502  501  0.00000000000E+00  0.00000000000E+00  0.26997960616E+04  0.26997960616E+04  0.00000000000E+00 0.  1.
         21   -1    0    0  501  502 -0.00000000000E+00 -0.00000000000E+00 -0.48610673990E+02  0.48610673990E+02  0.00000000000E+00 0.  1.
         25    1    1    2    0    0 -0.53719280249E+02  0.38815344869E+02  0.17507153292E+03  0.22509427738E+03  0.12500000000E+03 0.  0.
         25    1    1    2    0    0 -0.78022821913E+02 -0.17870909390E+03  0.84507706458E+03  0.87624468390E+03  0.12500000000E+03 0.  0.
         25    1    1    2    0    0  0.13174210216E+03  0.13989374903E+03  0.16310367901E+04  0.16470677743E+04  0.12500000000E+03 0.  0.
</event>
<event>
 5    0  0.5713700E-005  0.3842132E+03  0.7546771E-02  0.1049387E+00
         21   -1    0    0  502  501  0.00000000000E+00  0.00000000000E+00  0.61329394612E+03  0.61329394612E+03  0.00000000000E+00 0.  1.
         21   -1    0    0  501  502 -0.00000000000E+00 -0.00000000000E+00 -0.24069988101E+03  0.24069988101E+03  0.00000000000E+00 0.  1.
         25    1    1    2    0    0 -0.71536887452E+02 -0.70985516721E+02  0.31194640512E+03  0.35084473705E+03  0.12500000000E+03 0.  0.
         25    1    1    2    0    0 -0.33225703838E+01 -0.61978055735E+02  0.21248981458E+03  0.25422281598E+03  0.12500000000E+03 0.  0.
         25    1    1    2    0    0  0.74859457836E+02  0.13296357246E+03 -0.15184215459E+03  0.24892627410E+03  0.12500000000E+03 0.  0.
</event>
<event>
 5    0  0.5713700E-005  0.4956000E+03  0.7546771E-02  0.1014934E+00
         21   -1    0    0  502  501  0.00000000000E+00  0.00000000000E+00  0.82120550858E+03  0.82120550858E+03  0.00000000000E+00 0.  1.
         21   -1    0    0  501  502 -0.00000000000E+00 -0.00000000000E+00 -0.29909611551E+03  0.29909611551E+03  0.00000000000E+00 0.  1.
         25    1    1    2    0    0  0.27823130940E+03 -0.15363206684E+03  0.45909420679E+03  0.57219573941E+03  0.12500000000E+03 0.  0.
         25    1    1    2    0    0 -0.70153572351E+02 -0.57045911913E+02 -0.10383700739E+03  0.18596473828E+03  0.12500000000E+03 0.  0.
         25    1    1    2    0    0 -0.20807773705E+03  0.21067797875E+03  0.16685219367E+03  0.36214114640E+03  0.12500000000E+03 0.  0.
</event>
<event>
 5    0  0.5713700E-005  0.2662858E+03  0.7546771E-02  0.1103424E+00
         21   -1    0    0  502  501  0.00000000000E+00  0.00000000000E+00  0.28049566607E+04  0.28049566607E+04  0.00000000000E+00 0.  1.
         21   -1    0    0  501  502 -0.00000000000E+00 -0.00000000000E+00 -0.25279583092E+02  0.25279583092E+02  0.00000000000E+00 0.  1.
         25    1    1    2    0    0  0.13095128301E+03  0.23330830924E+02  0.10005113644E+04  0.10170253470E+04  0.12500000000E+03 0.  0.
         25    1    1    2    0    0  0.41320728878E+02  0.18023005590E+02  0.68387983474E+03  0.69666983553E+03  0.12500000000E+03 0.  0.
         25    1    1    2    0    0 -0.17227201189E+03 -0.41353836514E+02  0.10952858785E+04  0.11165410613E+04  0.12500000000E+03 0.  0.
</event>
<event>
 5    0  0.5713700E-005  0.3009276E+03  0.7546771E-02  0.1084778E+00
         21   -1    0    0  502  501  0.00000000000E+00  0.00000000000E+00  0.14783010169E+03  0.14783010169E+03  0.00000000000E+00 0.  1.
         21   -1    0    0  501  502 -0.00000000000E+00 -0.00000000000E+00 -0.61257784755E+03  0.61257784755E+03  0.00000000000E+00 0.  1.
         25    1    1    2    0    0  0.77157023326E+02 -0.72889109734E+02 -0.39347104674E+03  0.42627513789E+03  0.12500000000E+03 0.  0.
         25    1    1    2    0    0 -0.88994268465E+02 -0.18688696600E+02 -0.87927293996E+02  0.17783547517E+03  0.12500000000E+03 0.  0.
         25    1    1    2    0    0  0.11837245139E+02  0.91577806335E+02  0.16650594867E+02  0.15629733617E+03  0.12500000000E+03 0.  0.
</event>
<event>
 5    0  0.5713700E-005  0.4080238E+03  0.7546771E-02  0.1041036E+00
         21   -1    0    0  502  501  0.00000000000E+00  0.00000000000E+00  0.29928738838E+03  0.29928738838E+03  0.00000000000E+00 0. -1.
         21   -1    0    0  501  502 -0.00000000000E+00 -0.00000000000E+00 -0.55626606618E+03  0.55626606618E+03  0.00000000000E+00 0. -1.
         25    1    1    2    0    0 -0.69694288839E+02  0.85539528296E+01 -0.74274164998E+02  0.16146862108E+03  0.12500000000E+03 0.  0.
         25    1    1    2    0    0 -0.24219339986E+02  0.24210613334E+03  0.94066432464E+02  0.28926709102E+03  0.12500000000E+03 0.  0.
         25    1    1    2    0    0  0.93913628824E+02 -0.25066008616E+03 -0.27677094526E+03  0.40481774247E+03  0.12500000000E+03 0.  0.
</event>
<event>
 5    0  0.5713700E-005  0.3946601E+03  0.7546771E-02  0.1045645E+00
         21   -1    0    0  502  501  0.00000000000E+00  0.00000000000E+00  0.27396140870E+03  0.27396140870E+03  0.00000000000E+00 0. -1.
         21   -1    0    0  501  502 -0.00000000000E+00 -0.00000000000E+00 -0.56853487535E+03  0.56853487535E+03  0.00000000000E+00 0. -1.
         25    1    1    2    0    0  0.31849069713E+02  0.26764938544E+02  0.15662647255E+02  0.13266892513E+03  0.12500000000E+03 0.  0.
         25    1    1    2    0    0  0.31479592535E+02  0.19659534163E+03  0.71643677210E+02  0.24576108232E+03  0.12500000000E+03 0.  0.
         25    1    1    2    0    0 -0.63328662249E+02 -0.22336028018E+03 -0.38187979111E+03  0.46406627660E+03  0.12500000000E+03 0.  0.
</event>
<event>
 5    0  0.5713700E-005  0.3195461E+03  0.7546771E-02  0.1075858E+00
         21   -1    0    0  502  501  0.00000000000E+00  0.00000000000E+00  0.10808867290E+03  0.10808867290E+03  0.00000000000E+00 0. -1.
         21   -1    0    0  501  502 -0.00000000000E+00 -0.00000000000E+00 -0.94468475859E+03  0.94468475859E+03  0.00000000000E+00 0. -1.
         25    1    1    2    0    0  0.20596889952E+02  0.17155838403E+02 -0.33168366556E+02  0.13207458199E+03  0.12500000000E+03 0.  0.
         25    1    1    2    0    0  0.64723505449E+02  0.16233953553E+03 -0.38186250512E+03  0.43816347380E+03  0.12500000000E+03 0.  0.
         25    1    1    2    0    0 -0.85320395401E+02 -0.17949537393E+03 -0.42156521402E+03  0.48253537570E+03  0.12500000000E+03 0.  0.
</event>
<event>
 5    0  0.5713700E-005  0.3122572E+03  0.7546771E-02  0.1079269E+00
         21   -1    0    0  502  501  0.00000000000E+00  0.00000000000E+00  0.24873875641E+03  0.24873875641E+03  0.00000000000E+00 0. -1.
         21   -1    0    0  501  502 -0.00000000000E+00 -0.00000000000E+00 -0.39199583677E+03  0.39199583677E+03  0.00000000000E+00 0. -1.
         25    1    1    2    0    0  0.10434978393E+03 -0.13101582552E+02  0.55213512125E+02  0.17243567146E+03  0.12500000000E+03 0.  0.
         25    1    1    2    0    0 -0.16321325250E+03  0.12659943068E+03 -0.14516571607E+03  0.28171628771E+03  0.12500000000E+03 0.  0.
         25    1    1    2    0    0  0.58863468576E+02 -0.11349784813E+03 -0.53304876412E+02  0.18658263400E+03  0.12500000000E+03 0.  0.
</event>
<event>
 5    0  0.5713700E-005  0.1969949E+03  0.7546771E-02  0.1152299E+00
         21   -1    0    0  502  501  0.00000000000E+00  0.00000000000E+00  0.59020227521E+03  0.59020227521E+03  0.00000000000E+00 0.  1.
         21   -1    0    0  501  502 -0.00000000000E+00 -0.00000000000E+00 -0.65752008853E+02  0.65752008853E+02  0.00000000000E+00 0.  1.
         25    1    1    2    0    0  0.25901370115E+01 -0.44324192973E+01  0.12134298088E+03  0.17428561088E+03  0.12500000000E+03 0.  0.
         25    1    1    2    0    0 -0.42413650197E+02  0.65446159422E+01  0.21331594997E+03  0.25093912456E+03  0.12500000000E+03 0.  0.
         25    1    1    2    0    0  0.39823513185E+02 -0.21121966450E+01  0.18979133551E+03  0.23072954863E+03  0.12500000000E+03 0.  0.
</event>
<event>
 5    0  0.5713700E-005  0.2449479E+03  0.7546771E-02  0.1116540E+00
         21   -1    0    0  502  501  0.00000000000E+00  0.00000000000E+00  0.83470195641E+02  0.83470195641E+02  0.00000000000E+00 0.  1.
         21   -1    0    0  501  502 -0.00000000000E+00 -0.00000000000E+00 -0.71881335644E+03  0.71881335644E+03  0.00000000000E+00 0.  1.
         25    1    1    2    0    0 -0.24016891644E+02  0.57871417745E+02 -0.89144981158E+02  0.16582442444E+03  0.12500000000E+03 0.  0.
         25    1    1    2    0    0 -0.58325313127E+02 -0.98412216733E+02 -0.24819309112E+03  0.30051891294E+03  0.12500000000E+03 0.  0.
         25    1    1    2    0    0  0.82342204771E+02  0.40540798988E+02 -0.29800508852E+03  0.33594021470E+03  0.12500000000E+03 0.  0.
</event>
<event>
 5    0  0.5713700E-005  0.3748561E+03  0.7546771E-02  0.1052852E+00
         21   -1    0    0  502  501  0.00000000000E+00  0.00000000000E+00  0.72296986233E+03  0.72296986233E+03  0.00000000000E+00 0. -1.
         21   -1    0    0  501  502 -0.00000000000E+00 -0.00000000000E+00 -0.19436094767E+03  0.19436094767E+03  0.00000000000E+00 0. -1.
         25    1    1    2    0    0  0.53164547659E+02 -0.15606700010E+03  0.10893736738E+03  0.23382841499E+03  0.12500000000E+03 0.  0.
         25    1    1    2    0    0 -0.46549838853E+02 -0.12127156480E+03  0.31274669827E+03  0.36098362457E+03  0.12500000000E+03 0.  0.
         25    1    1    2    0    0 -0.66147088060E+01  0.27733856490E+03  0.10692484900E+03  0.32251877044E+03  0.12500000000E+03 0.  0.
</event>
<event>
 5    0  0.5713700E-005  0.2618957E+03  0.7546771E-02  0.1106010E+00
         21   -1    0    0  502  501  0.00000000000E+00  0.00000000000E+00  0.53360499810E+03  0.53360499810E+03  0.00000000000E+00 0. -1.
         21   -1    0    0  501  502 -0.00000000000E+00 -0.00000000000E+00 -0.12853958887E+03  0.12853958887E+03  0.00000000000E+00 0. -1.
         25    1    1    2    0    0  0.11155473645E+03  0.11828565760E+02  0.18183171798E+03  0.24753211479E+03  0.12500000000E+03 0.  0.
         25    1    1    2    0    0 -0.33849337290E+02  0.58677310918E+02  0.20628612464E+03  0.25053496696E+03  0.12500000000E+03 0.  0.
         25    1    1    2    0    0 -0.77705399156E+02 -0.70505876678E+02  0.16947566607E+02  0.16407750522E+03  0.12500000000E+03 0.  0.
</event>
<event>
 5    0  0.5713700E-005  0.3803317E+03  0.7546771E-02  0.1050811E+00
         21   -1    0    0  502  501  0.00000000000E+00  0.00000000000E+00  0.13641712832E+04  0.13641712832E+04  0.00000000000E+00 0. -1.
         21   -1    0    0  501  502 -0.00000000000E+00 -0.00000000000E+00 -0.10603668713E+03  0.10603668713E+03  0.00000000000E+00 0. -1.
         25    1    1    2    0    0 -0.48092429155E+02 -0.13113762092E+03  0.65438714039E+02  0.19853761019E+03  0.12500000000E+03 0.  0.
         25    1    1    2    0    0  0.41522045395E+02  0.22026739730E+03  0.49867562406E+03  0.56084238838E+03  0.12500000000E+03 0.  0.
         25    1    1    2    0    0  0.65703837599E+01 -0.89129776373E+02  0.69402025796E+03  0.71082797176E+03  0.12500000000E+03 0.  0.
</event>
<event>
 5    0  0.5713700E-005  0.3324439E+03  0.7546771E-02  0.1070061E+00
         21   -1    0    0  502  501  0.00000000000E+00  0.00000000000E+00  0.12561001689E+04  0.12561001689E+04  0.00000000000E+00 0. -1.
         21   -1    0    0  501  502 -0.00000000000E+00 -0.00000000000E+00 -0.87985779521E+02  0.87985779521E+02  0.00000000000E+00 0. -1.
         25    1    1    2    0    0  0.15731551856E+03  0.10072203163E+03  0.26810902857E+03  0.34985790149E+03  0.12500000000E+03 0.  0.
         25    1    1    2    0    0  0.60405070419E+02 -0.33319474984E+02  0.47536745727E+03  0.49634481903E+03  0.12500000000E+03 0.  0.
         25    1    1    2    0    0 -0.21772058898E+03 -0.67402556646E+02  0.42463790357E+03  0.49788322793E+03  0.12500000000E+03 0.  0.
</event>
<event>
 5    0  0.6031673E-005  0.3109682E+03  0.7546771E-02  0.1079883E+00
         21   -1    0    0  502  501  0.00000000000E+00  0.00000000000E+00  0.10782743324E+03  0.10782743324E+03  0.00000000000E+00 0.  1.
         21   -1    0    0  501  502 -0.00000000000E+00 -0.00000000000E+00 -0.89681457685E+03  0.89681457685E+03  0.00000000000E+00 0.  1.
         25    1    1    2    0    0  0.54672480618E+02  0.19289431967E+03 -0.43895643048E+03  0.49850280497E+03  0.12500000000E+03 0.  0.
         25    1    1    2    0    0  0.47609683691E+02 -0.10272114517E+03 -0.10332477010E+03  0.19778605553E+03  0.12500000000E+03 0.  0.
         25    1    1    2    0    0 -0.10228216431E+03 -0.90173174500E+02 -0.24670594302E+03  0.30835314958E+03  0.12500000000E+03 0.  0.
</event>
<event>
 5    0  0.5713700E-005  0.4300285E+03  0.7546771E-02  0.1033851E+00
         21   -1    0    0  502  501  0.00000000000E+00  0.00000000000E+00  0.66359147965E+03  0.66359147965E+03  0.00000000000E+00 0.  1.
         21   -1    0    0  501  502 -0.00000000000E+00 -0.00000000000E+00 -0.27867218514E+03  0.27867218514E+03  0.00000000000E+00 0.  1.
         25    1    1    2    0    0 -0.21428092056E+03  0.11557019383E+03  0.98687525051E+02  0.29092440636E+03  0.12500000000E+03 0.  0.
         25    1    1    2    0    0  0.12085216844E+02 -0.26731759526E+03  0.93653021184E+02  0.30983969659E+03  0.12500000000E+03 0.  0.
         25    1    1    2    0    0  0.20219570372E+03  0.15174740144E+03  0.19257874827E+03  0.34149956183E+03  0.12500000000E+03 0.  0.
</event>
<event>
 5    0  0.5713700E-005  0.2208479E+03  0.7546771E-02  0.1133252E+00
         21   -1    0    0  502  501  0.00000000000E+00  0.00000000000E+00  0.65967366298E+02  0.65967366298E+02  0.00000000000E+00 0.  1.
         21   -1    0    0  501  502 -0.00000000000E+00 -0.00000000000E+00 -0.73936241897E+03  0.73936241897E+03  0.00000000000E+00 0.  1.
         25    1    1    2    0    0 -0.25719405797E+00 -0.29937941981E+02 -0.74943311356E+02  0.14878792436E+03  0.12500000000E+03 0.  0.
         25    1    1    2    0    0  0.47021928862E+01 -0.25598952536E+02 -0.35496880579E+03  0.37723370750E+03  0.12500000000E+03 0.  0.
         25    1    1    2    0    0 -0.44449988282E+01  0.55536894518E+02 -0.24348293552E+03  0.27930815340E+03  0.12500000000E+03 0.  0.
</event>
<event>
 5    0  0.5713700E-005  0.3667545E+03  0.7546771E-02  0.1055941E+00
         21   -1    0    0  502  501  0.00000000000E+00  0.00000000000E+00  0.15890619484E+04  0.15890619484E+04  0.00000000000E+00 0.  1.
         21   -1    0    0  501  502 -0.00000000000E+00 -0.00000000000E+00 -0.84646707022E+02  0.84646707022E+02  0.00000000000E+00 0.  1.
         25    1    1    2    0    0 -0.14810355757E+03  0.24059679984E+03  0.57712759756E+03  0.65461648904E+03  0.12500000000E+03 0.  0.
         25    1    1    2    0    0  0.20593604241E+02 -0.18948067229E+03  0.61328843861E+03  0.65427420141E+03  0.12500000000E+03 0.  0.
         25    1    1    2    0    0  0.12750995333E+03 -0.51116127550E+02  0.31399920524E+03  0.36481796500E+03  0.12500000000E+03 0.  0.
</event>
<event>
 5    0  0.5713700E-005  0.2569026E+03  0.7546771E-02  0.1109019E+00
         21   -1    0    0  502  501  0.00000000000E+00  0.00000000000E+00  0.16068290195E+03  0.16068290195E+03  0.00000000000E+00 0. -1.
         21   -1    0    0  501  502 -0.00000000000E+00 -0.00000000000E+00 -0.41074045065E+03  0.41074045065E+03  0.00000000000E+00 0. -1.
         25    1    1    2    0    0  0.37739610533E+02  0.60907616093E+02 -0.11223270290E+03  0.18263404803E+03  0.12500000000E+03 0.  0.
         25    1    1    2    0    0 -0.87448520716E+02  0.61961915684E+02 -0.12390739054E+03  0.20606931892E+03  0.12500000000E+03 0.  0.
         25    1    1    2    0    0  0.49708910183E+02 -0.12286953178E+03 -0.13917455261E+02  0.18271998564E+03  0.12500000000E+03 0.  0.
</event>
<event>
 5    0  0.5713700E-005  0.2179571E+03  0.7546771E-02  0.1135415E+00
         21   -1    0    0  502  501  0.00000000000E+00  0.00000000000E+00  0.37903859649E+02  0.37903859649E+02  0.00000000000E+00 0.  1.
         21   -1    0    0  501  502 -0.00000000000E+00 -0.00000000000E+00 -0.12533100828E+04  0.12533100828E+04  0.00000000000E+00 0.  1.
         25    1    1    2    0    0 -0.10439232793E+02 -0.99915284445E+02 -0.40381089508E+03  0.43448852762E+03  0.12500000000E+03 0.  0.
         25    1    1    2    0    0  0.22892408001E+02  0.55513421617E+02 -0.47125061634E+03  0.49123105126E+03  0.12500000000E+03 0.  0.
         25    1    1    2    0    0 -0.12453175208E+02  0.44401862828E+02 -0.34034471173E+03  0.36549436356E+03  0.12500000000E+03 0.  0.
</event>
<event>
 5    0  0.5713700E-005  0.3463788E+03  0.7546771E-02  0.1064111E+00
         21   -1    0    0  502  501  0.00000000000E+00  0.00000000000E+00  0.51272620859E+03  0.51272620859E+03  0.00000000000E+00 0.  1.
         21   -1    0    0  501  502 -0.00000000000E+00 -0.00000000000E+00 -0.23400071054E+03  0.23400071054E+03  0.00000000000E+00 0.  1.
         25    1    1    2    0    0  0.36026739514E+02 -0.23752520339E+02 -0.37425108184E+02  0.13743269955E+03  0.12500000000E+03 0.  0.
         25    1    1    2    0    0  0.74431219676E+01  0.22695497058E+03  0.24475745433E+03  0.35650409561E+03  0.12500000000E+03 0.  0.
         25    1    1    2    0    0 -0.43469861482E+02 -0.20320245024E+03  0.71393151914E+02  0.25279012398E+03  0.12500000000E+03 0.  0.
</event>
<event>
 5    0  0.5794492E-005  0.2661991E+03  0.7546771E-02  0.1103475E+00
         21   -1    0    0  502  501  0.00000000000E+00  0.00000000000E+00  0.48977545229E+03  0.48977545229E+03  0.00000000000E+00 0. -1.
         21   -1    0    0  501  502 -0.00000000000E+00 -0.00000000000E+00 -0.14468258363E+03  0.14468258363E+03  0.00000000000E+00 0. -1.
         25    1    1    2    0    0 -0.25194173551E+02 -0.12029578490E+03  0.62044438816E+02  0.18595788403E+03  0.12500000000E+03 0.  0.
         25    1    1    2    0    0 -0.15680525945E+02 -0.42758340366E+02  0.14924362160E+03  0.19993202133E+03  0.12500000000E+03 0.  0.
         25    1    1    2    0    0  0.40874699496E+02  0.16305412526E+03  0.13380480824E+03  0.24856813057E+03  0.12500000000E+03 0.  0.
</event>
<event>
 5    0  0.5713700E-005  0.2622402E+03  0.7546771E-02  0.1105805E+00
         21   -1    0    0  502  501  0.00000000000E+00  0.00000000000E+00  0.26614470586E+03  0.26614470586E+03  0.00000000000E+00 0. -1.
         21   -1    0    0  501  502 -0.00000000000E+00 -0.00000000000E+00 -0.25839292622E+03  0.25839292622E+03  0.00000000000E+00 0. -1.
         25    1    1    2    0    0 -0.50731919201E+02 -0.14745737732E+03  0.22826213003E+02  0.20115526777E+03  0.12500000000E+03 0.  0.
         25    1    1    2    0    0  0.50145107087E+02  0.48639216949E+02  0.49415317898E+02  0.15148326255E+03  0.12500000000E+03 0.  0.
         25    1    1    2    0    0  0.58681211373E+00  0.98818160369E+02 -0.64489751264E+02  0.17189910176E+03  0.12500000000E+03 0.  0.
</event>
<event>
 5    0  0.5713700E-005  0.2978051E+03  0.7546771E-02  0.1086343E+00
         21   -1    0    0  502  501  0.00000000000E+00  0.00000000000E+00  0.18423189658E+04  0.18423189658E+04  0.00000000000E+00 0.  1.
         21   -1    0    0  501  502 -0.00000000000E+00 -0.00000000000E+00 -0.48139250505E+02  0.48139250505E+02  0.00000000000E+00 0.  1.
         25    1    1    2    0    0  0.16234560458E+03  0.48966935708E+02  0.48711386423E+03  0.53071534069E+03  0.12500000000E+03 0.  0.
         25    1    1    2    0    0 -0.18887316147E+03 -0.85105085856E+02  0.83239084638E+03  0.86684223933E+03  0.12500000000E+03 0.  0.
         25    1    1    2    0    0  0.26527556883E+02  0.36138150148E+02  0.47467500473E+03  0.49290063632E+03  0.12500000000E+03 0.  0.
</event>
<event>
 5    0  0.5713700E-005  0.2672074E+03  0.7546771E-02  0.1102889E+00
         21   -1    0    0  502  501  0.00000000000E+00  0.00000000000E+00  0.80453350154E+02  0.80453350154E+02  0.00000000000E+00 0.  1.
         21   -1    0    0  501  502 -0.00000000000E+00 -0.00000000000E+00 -0.88746807183E+03  0.88746807183E+03  0.00000000000E+00 0.  1.
         25    1    1    2    0    0 -0.35780653219E+02  0.70357978862E+01 -0.30371342133E+03  0.33044908820E+03  0.12500000000E+03 0.  0.
         25    1    1    2    0    0 -0.10346743744E+02 -0.86489644246E+01 -0.95843521799E+01  0.12609012451E+03  0.12500000000E+03 0.  0.
         25    1    1    2    0    0  0.46127396963E+02  0.16131665384E+01 -0.49371694816E+03  0.51138220927E+03  0.12500000000E+03 0.  0.
</event>
<event>
 5    0  0.5713700E-005  0.2683446E+03  0.7546771E-02  0.1102231E+00
         21   -1    0    0  502  501  0.00000000000E+00  0.00000000000E+00  0.80734175485E+02  0.80734175485E+02  0.00000000000E+00 0. -1.
         21   -1    0    0  501  502 -0.00000000000E+00 -0.00000000000E+00 -0.89192474579E+03  0.89192474579E+03  0.00000000000E+00 0. -1.
         25    1    1    2    0    0 -0.34096703117E+02  0.32136125278E+02 -0.49551906374E+03  0.51318559824E+03  0.12500000000E+03 0.  0.
         25    1    1    2    0    0  0.46343328920E+02 -0.11919567906E+03 -0.19639150662E+03  0.26561238284E+03  0.12500000000E+03 0.  0.
         25    1    1    2    0    0 -0.12246625804E+02  0.87059553783E+02 -0.11927999994E+03  0.19386094020E+03  0.12500000000E+03 0.  0.
</event>
<event>
 5    0  0.6074766E-005  0.3223117E+03  0.7546771E-02  0.1074590E+00
         21   -1    0    0  502  501  0.00000000000E+00  0.00000000000E+00  0.63074276828E+03  0.63074276828E+03  0.00000000000E+00 0.  1.
         21   -1    0    0  501  502 -0.00000000000E+00 -0.00000000000E+00 -0.16470236230E+03  0.16470236230E+03  0.00000000000E+00 0.  1.
         25    1    1    2    0    0  0.75990509766E+01 -0.59102965356E+02 -0.28508215746E+02  0.14138113189E+03  0.12500000000E+03 0.  0.
         25    1    1    2    0    0 -0.10941309645E+03  0.11417854052E+03  0.10151474754E+03  0.22569494624E+03  0.12500000000E+03 0.  0.
         25    1    1    2    0    0  0.10181404547E+03 -0.55075575166E+02  0.39303387419E+03  0.42836905245E+03  0.12500000000E+03 0.  0.
</event>
<event>
 5    0  0.5713700E-005  0.2438001E+03  0.7546771E-02  0.1117287E+00
         21   -1    0    0  502  501  0.00000000000E+00  0.00000000000E+00  0.63096163688E+02  0.63096163688E+02  0.00000000000E+00 0. -1.
         21   -1    0    0  501  502 -0.00000000000E+00 -0.00000000000E+00 -0.94203002218E+03  0.94203002218E+03  0.00000000000E+00 0. -1.
         25    1    1    2    0    0  0.79763438310E+02 -0.54610836654E+02 -0.53486708940E+03  0.55772067641E+03  0.12500000000E+03 0.  0.
         25    1    1    2    0    0 -0.71206454957E+02 -0.11296749425E+02 -0.18008768844E+03  0.23076947654E+03  0.12500000000E+03 0.  0.
         25    1    1    2    0    0 -0.85569833533E+01  0.65907586079E+02 -0.16397908065E+03  0.21663603292E+03  0.12500000000E+03 0.  0.
</event>
<event>
 5    0  0.5713700E-005  0.2533175E+03  0.7546771E-02  0.1111226E+00
         21   -1    0    0  502  501  0.00000000000E+00  0.00000000000E+00  0.19202868884E+03  0.19202868884E+03  0.00000000000E+00 0.  1.
         21   -1    0    0  501  502 -0.00000000000E+00 -0.00000000000E+00 -0.33416744080E+03  0.33416744080E+03  0.00000000000E+00 0.  1.
         25    1    1    2    0    0 -0.46550017630E+02 -0.18416820902E+02 -0.10972562139E+02  0.13509804052E+03  0.12500000000E+03 0.  0.
         25    1    1    2    0    0 -0.52529519519E+02  0.55602242107E+02 -0.16829823669E+03  0.22315971012E+03  0.12500000000E+03 0.  0.
         25    1    1    2    0    0  0.99079537149E+02 -0.37185421205E+02  0.37132046872E+02  0.16793837899E+03  0.12500000000E+03 0.  0.
</event>
<event>
 5    0  0.5713700E-005  0.3049458E+03  0.7546771E-02  0.1082794E+00
         21   -1    0    0  502  501  0.00000000000E+00  0.00000000000E+00  0.17995844125E+03  0.17995844125E+03  0.00000000000E+00 0. -1.
         21   -1    0    0  501  502 -0.00000000000E+00 -0.00000000000E+00 -0.51674107862E+03  0.51674107862E+03  0.00000000000E+00 0. -1.
         25    1    1    2    0    0  0.45592982273E+02 -0.13345824205E+03 -0.11541935377E+02  0.18880688196E+03  0.12500000000E+03 0.  0.
         25    1    1    2    0    0 -0.14493666741E+03  0.29462859763E+02 -0.11990913409E+03  0.22776720155E+03  0.12500000000E+03 0.  0.
         25    1    1    2    0    0  0.99343685134E+02  0.10399538229E+03 -0.20533156790E+03  0.28012543635E+03  0.12500000000E+03 0.  0.
</event>
<event>
 5    0  0.6527428E-005  0.5002106E+03  0.7546771E-02  0.1013724E+00
         21   -1    0    0  502  501  0.00000000000E+00  0.00000000000E+00  0.69177171478E+03  0.69177171478E+03  0.00000000000E+00 0.  1.
         21   -1    0    0  501  502 -0.00000000000E+00 -0.00000000000E+00 -0.36169532587E+03  0.36169532587E+03  0.00000000000E+00 0.  1.
         25    1    1    2    0    0 -0.15526224931E+03 -0.11376396567E+03 -0.16627014091E+03  0.28340671429E+03  0.12500000000E+03 0.  0.
         25    1    1    2    0    0 -0.68820570421E+02 -0.84798523161E+02  0.39769985520E+03  0.43094922586E+03  0.12500000000E+03 0.  0.
         25    1    1    2    0    0  0.22408281974E+03  0.19856248883E+03  0.98646674621E+02  0.33911110050E+03  0.12500000000E+03 0.  0.
</event>
<event>
 5    0  0.5713700E-005  0.4311268E+03  0.7546771E-02  0.1033505E+00
         21   -1    0    0  502  501  0.00000000000E+00  0.00000000000E+00  0.39115845925E+03  0.39115845925E+03  0.00000000000E+00 0. -1.
         21   -1    0    0  501  502 -0.00000000000E+00 -0.00000000000E+00 -0.47517900509E+03  0.47517900509E+03  0.00000000000E+00 0. -1.
         25    1    1    2    0    0 -0.12252808424E+03 -0.83702977647E+02  0.11370670994E+03  0.22488560599E+03  0.12500000000E+03 0.  0.
         25    1    1    2    0    0  0.17670150028E+03 -0.11598225544E+03 -0.29240675963E+03  0.38184030282E+03  0.12500000000E+03 0.  0.
         25    1    1    2    0    0 -0.54173416038E+02  0.19968523309E+03  0.94679503846E+02  0.25961155554E+03  0.12500000000E+03 0.  0.
</event>
<event>
 5    0  0.5713700E-005  0.3442511E+03  0.7546771E-02  0.1065000E+00
         21   -1    0    0  502  501  0.00000000000E+00  0.00000000000E+00  0.21798332730E+04  0.21798332730E+04  0.00000000000E+00 0. -1.
         21   -1    0    0  501  502 -0.00000000000E+00 -0.00000000000E+00 -0.54366015480E+02  0.54366015480E+02  0.00000000000E+00 0. -1.
         25    1    1    2    0    0  0.10631274931E+02  0.97161322136E+02  0.13027711574E+04  0.13123989618E+04  0.12500000000E+03 0.  0.
         25    1    1    2    0    0 -0.11231643250E+02 -0.94163001220E+02  0.94956785625E+02  0.18339741477E+03  0.12500000000E+03 0.  0.
         25    1    1    2    0    0  0.60036831979E+00 -0.29983209152E+01  0.72773931455E+03  0.73840291191E+03  0.12500000000E+03 0.  0.
</event>
<event>
 5    0  0.5713700E-005  0.2646191E+03  0.7546771E-02  0.1104399E+00
         21   -1    0    0  502  501  0.00000000000E+00  0.00000000000E+00  0.19823665307E+03  0.19823665307E+03  0.00000000000E+00 0. -1.
         21   -1    0    0  501  502 -0.00000000000E+00 -0.00000000000E+00 -0.35323072522E+03  0.35323072522E+03  0.00000000000E+00 0. -1.
         25    1    1    2    0    0 -0.69144578434E+01  0.11828509152E+03 -0.93837279059E+02  0.19613670626E+03  0.12500000000E+03 0.  0.
         25    1    1    2    0    0 -0.27216750330E+02 -0.13343245265E+03  0.41348024039E+02  0.18941919124E+03  0.12500000000E+03 0.  0.
         25    1    1    2    0    0  0.34131208174E+02  0.15147361132E+02 -0.10250481713E+03  0.16591148078E+03  0.12500000000E+03 0.  0.
</event>
<event>
 5    0  0.5713700E-005  0.2662779E+03  0.7546771E-02  0.1103429E+00
         21   -1    0    0  502  501  0.00000000000E+00  0.00000000000E+00  0.51959532134E+03  0.51959532134E+03  0.00000000000E+00 0. -1.
         21   -1    0    0  501  502 -0.00000000000E+00 -0.00000000000E+00 -0.13645984441E+03  0.13645984441E+03  0.00000000000E+00 0. -1.
         25    1    1    2    0    0 -0.94888896223E+02  0.16823649768E+02 -0.18668651579E+02  0.15893538426E+03  0.12500000000E+03 0.  0.
         25    1    1    2    0    0  0.10506027083E+03  0.12997719647E+02  0.22534203979E+03  0.27858685561E+03  0.12500000000E+03 0.  0.
         25    1    1    2    0    0 -0.10171374608E+02 -0.29821369415E+02  0.17646208872E+03  0.21853292587E+03  0.12500000000E+03 0.  0.
</event>
<event>
 5    0  0.5713700E-005  0.3490967E+03  0.7546771E-02  0.1062986E+00
         21   -1    0    0  502  501  0.00000000000E+00  0.00000000000E+00  0.13915485984E+04  0.13915485984E+04  0.00000000000E+00 0.  1.
         21   -1    0    0  501  502 -0.00000000000E+00 -0.00000000000E+00 -0.87577598337E+02  0.87577598337E+02  0.00000000000E+00 0.  1.
         25    1    1    2    0    0  0.17182761714E+03  0.17207890066E+03  0.46242837452E+03  0.53721585943E+03  0.12500000000E+03 0.  0.
         25    1    1    2    0    0 -0.30526405495E+02 -0.49217430501E+02  0.10935393514E+03  0.17589059107E+03  0.12500000000E+03 0.  0.
         25    1    1    2    0    0 -0.14130121164E+03 -0.12286147016E+03  0.73218869040E+03  0.76601974623E+03  0.12500000000E+03 0.  0.
</event>
<event>
 5    0  0.5713700E-005  0.3140475E+03  0.7546771E-02  0.1078422E+00
         21   -1    0    0  502  501  0.00000000000E+00  0.00000000000E+00  0.33657554476E+03  0.33657554476E+03  0.00000000000E+00 0. -1.
         21   -1    0    0  501  502 -0.00000000000E+00 -0.00000000000E+00 -0.29302728363E+03  0.29302728363E+03  0.00000000000E+00 0. -1.
         25    1    1    2    0    0  0.18077484244E+03 -0.29310997111E+02  0.34250363308E+02  0.22435856480E+03  0.12500000000E+03 0.  0.
         25    1    1    2    0    0 -0.74391626352E+02 -0.11185889088E+03  0.36347066891E+02  0.18706318401E+03  0.12500000000E+03 0.  0.
         25    1    1    2    0    0 -0.10638321609E+03  0.14116988799E+03 -0.27049169074E+02  0.21818107958E+03  0.12500000000E+03 0.  0.
</event>
<event>
 5    0  0.5729310E-005  0.3477500E+03  0.7546771E-02  0.1063542E+00
         21   -1    0    0  502  501  0.00000000000E+00  0.00000000000E+00  0.92854297652E+03  0.92854297652E+03  0.00000000000E+00 0.  1.
         21   -1    0    0  501  502 -0.00000000000E+00 -0.00000000000E+00 -0.13023640152E+03  0.13023640152E+03  0.00000000000E+00 0.  1.
         25    1    1    2    0    0 -0.11631788900E+03 -0.71274346219E+02 -0.28051171561E+01  0.18504797327E+03  0.12500000000E+03 0.  0.
         25    1    1    2    0    0  0.12551279762E+03  0.95776212801E+02  0.33902703955E+03  0.39432331766E+03  0.12500000000E+03 0.  0.
         25    1    1    2    0    0 -0.91949086237E+01 -0.24501866582E+02  0.46208465260E+03  0.47940808710E+03  0.12500000000E+03 0.  0.
</event>
<event>
 5    0  0.5713700E-005  0.2776649E+03  0.7546771E-02  0.1096971E+00
         21   -1    0    0  502  501  0.00000000000E+00  0.00000000000E+00  0.10761798620E+04  0.10761798620E+04  0.00000000000E+00 0.  1.
         21   -1    0    0  501  502 -0.00000000000E+00 -0.00000000000E+00 -0.71640269143E+02  0.71640269143E+02  0.00000000000E+00 0.  1.
         25    1    1    2    0    0  0.16185003177E+03  0.58605205193E+02  0.29806823900E+03  0.36619622877E+03  0.12500000000E+03 0.  0.
         25    1    1    2    0    0 -0.11787858285E+03  0.30609001276E+02  0.38066704751E+03  0.41876565322E+03  0.12500000000E+03 0.  0.
         25    1    1    2    0    0 -0.43971448916E+02 -0.89214206469E+02  0.32580430637E+03  0.36285824919E+03  0.12500000000E+03 0.  0.
</event>
<event>
 5    0  0.5713700E-005  0.2753759E+03  0.7546771E-02  0.1098242E+00
         21   -1    0    0  502  501  0.00000000000E+00  0.00000000000E+00  0.81121994194E+02  0.81121994194E+02  0.00000000000E+00 0.  1.
         21   -1    0    0  501  502 -0.00000000000E+00 -0.00000000000E+00 -0.93478851921E+03  0.93478851921E+03  0.00000000000E+00 0.  1.
         25    1    1    2    0    0  0.27790179432E+00  0.48250601993E+02 -0.98497725945E+02  0.16629792494E+03  0.12500000000E+03 0.  0.
         25    1    1    2    0    0  0.57758028951E+02  0.97026826772E+02 -0.21243636252E+03  0.27111695473E+03  0.12500000000E+03 0.  0.
         25    1    1    2    0    0 -0.58035930745E+02 -0.14527742877E+03 -0.54273243655E+03  0.57849563374E+03  0.12500000000E+03 0.  0.
</event>
<event>
 5    0  0.5713700E-005  0.2773589E+03  0.7546771E-02  0.1097140E+00
         21   -1    0    0  502  501  0.00000000000E+00  0.00000000000E+00  0.67160233979E+03  0.67160233979E+03  0.00000000000E+00 0.  1.
         21   -1    0    0  501  502 -0.00000000000E+00 -0.00000000000E+00 -0.11454393530E+03  0.11454393530E+03  0.00000000000E+00 0.  1.
         25    1    1    2    0    0 -0.11399884875E+02  0.37991384401E+02  0.22285717455E+02  0.13302238859E+03  0.12500000000E+03 0.  0.
         25    1    1    2    0    0  0.14112127957E+03 -0.47317086432E+02  0.26679930693E+03  0.33009239979E+03  0.12500000000E+03 0.  0.
         25    1    1    2    0    0 -0.12972139470E+03  0.93257020306E+01  0.26797338011E+03  0.32303148671E+03  0.12500000000E+03 0.  0.
</event>
<event>
 5    0  0.5713700E-005  0.5948947E+03  0.7546771E-02  0.9916055E-01
         21   -1    0    0  502  501  0.00000000000E+00  0.00000000000E+00  0.89471677158E+03  0.89471677158E+03  0.00000000000E+00 0. -1.
         21   -1    0    0  501  502 -0.00000000000E+00 -0.00000000000E+00 -0.39554379427E+03  0.39554379427E+03  0.00000000000E+00 0. -1.
         25    1    1    2    0    0  0.11277181861E+02  0.32474133328E+03  0.38008000730E+03  0.51543178047E+03  0.12500000000E+03 0.  0.
         25    1    1    2    0    0 -0.36138432648E+02  0.17729681636E+03 -0.57979015325E+02  0.22743507562E+03  0.12500000000E+03 0.  0.
         25    1    1    2    0    0  0.24861250786E+02 -0.50203814964E+03  0.17707198533E+03  0.54739370975E+03  0.12500000000E+03 0.  0.
</event>
<event>
 5    0  0.5713700E-005  0.3584972E+03  0.7546771E-02  0.1059180E+00
         21   -1    0    0  502  501  0.00000000000E+00  0.00000000000E+00  0.11607338949E+04  0.11607338949E+04  0.00000000000E+00 0. -1.
         21   -1    0    0  501  502 -0.00000000000E+00 -0.00000000000E+00 -0.11072328097E+03  0.11072328097E+03  0.00000000000E+00 0. -1.
         25    1    1    2    0    0  0.11210235491E+03  0.18722753575E+03  0.21628828073E+03  0.33170274117E+03  0.12500000000E+03 0.  0.
         25    1    1    2    0    0 -0.19167105825E+03 -0.82550180069E+02  0.38104429786E+03  0.45207530758E+03  0.12500000000E+03 0.  0.
         25    1    1    2    0    0  0.79568703341E+02 -0.10467735568E+03  0.45267803529E+03  0.48767912707E+03  0.12500000000E+03 0.  0.
</event>
<event>
 5    0  0.5713700E-005  0.2427068E+03  0.7546771E-02  0.1118003E+00
         21   -1    0    0  502  501  0.00000000000E+00  0.00000000000E+00  0.31230415377E+03  0.31230415377E+03  0.00000000000E+00 0.  1.
         21   -1    0    0  501  502 -0.00000000000E+00 -0.00000000000E+00 -0.18861924699E+03  0.18861924699E+03  0.00000000000E+00 0.  1.
         25    1    1    2    0    0 -0.20917000598E+02 -0.87734370705E+01 -0.23852814828E+02  0.12926117316E+03  0.12500000000E+03 0.  0.
         25    1    1    2    0    0 -0.22470055537E+02  0.21493393292E+02 -0.46082750733E+02  0.13680456596E+03  0.12500000000E+03 0.  0.
         25    1    1    2    0    0  0.43387056135E+02 -0.12719956222E+02  0.19362047234E+03  0.23485766165E+03  0.12500000000E+03 0.  0.
</event>
<event>
 5    0  0.5713700E-005  0.3099787E+03  0.7546771E-02  0.1080356E+00
         21   -1    0    0  502  501  0.00000000000E+00  0.00000000000E+00  0.46021334828E+03  0.46021334828E+03  0.00000000000E+00 0. -1.
         21   -1    0    0  501  502 -0.00000000000E+00 -0.00000000000E+00 -0.20878744887E+03  0.20878744887E+03  0.00000000000E+00 0. -1.
         25    1    1    2    0    0 -0.18904764605E+03 -0.50876001355E+02  0.10045164209E+03  0.25306701166E+03  0.12500000000E+03 0.  0.
         25    1    1    2    0    0  0.20625540701E+03 -0.12917631466E+02  0.12580141869E+03  0.27232178589E+03  0.12500000000E+03 0.  0.
         25    1    1    2    0    0 -0.17207760964E+02  0.63793632821E+02  0.25172838626E+02  0.14361199960E+03  0.12500000000E+03 0.  0.
</event>
<event>
 5    0  0.5713700E-005  0.5673861E+03  0.7546771E-02  0.9975479E-01
         21   -1    0    0  502  501  0.00000000000E+00  0.00000000000E+00  0.51457130485E+03  0.51457130485E+03  0.00000000000E+00 0.  1.
         21   -1    0    0  501  502 -0.00000000000E+00 -0.00000000000E+00 -0.62562176699E+03  0.62562176699E+03  0.00000000000E+00 0.  1.
         25    1    1    2    0    0 -0.30879436938E+03 -0.38783545845E+03 -0.16687518249E+03  0.53781282239E+03  0.12500000000E+03 0.  0.
         25    1    1    2    0    0  0.25846233055E+03  0.29313720353E+03 -0.39286939660E+02  0.41219007755E+03  0.12500000000E+03 0.  0.
         25    1    1    2    0    0  0.50332038835E+02  0.94698254923E+02  0.95111660002E+02  0.19019017190E+03  0.12500000000E+03 0.  0.
</event>
<event>
 5    0  0.5713700E-005  0.3436890E+03  0.7546771E-02  0.1065236E+00
         21   -1    0    0  502  501  0.00000000000E+00  0.00000000000E+00  0.15726044669E+03  0.15726044669E+03  0.00000000000E+00 0. -1.
         21   -1    0    0  501  502 -0.00000000000E+00 -0.00000000000E+00 -0.75112420722E+03  0.75112420722E+03  0.00000000000E+00 0. -1.
         25    1    1    2    0    0 -0.14202293980E+03  0.11193967078E+03 -0.42424867462E+03  0.47782103683E+03  0.12500000000E+03 0.  0.
         25    1    1    2    0    0  0.18341113719E+03 -0.12777245775E+03 -0.14914997893E+03  0.29637166265E+03  0.12500000000E+03 0.  0.
         25    1    1    2    0    0 -0.41388197392E+02  0.15832786972E+02 -0.20465106975E+02  0.13419195442E+03  0.12500000000E+03 0.  0.
</event>
<event>
 5    0  0.5713700E-005  0.3236762E+03  0.7546771E-02  0.1073970E+00
         21   -1    0    0  502  501  0.00000000000E+00  0.00000000000E+00  0.19757029467E+04  0.19757029467E+04  0.00000000000E+00 0. -1.
         21   -1    0    0  501  502 -0.00000000000E+00 -0.00000000000E+00 -0.53027340091E+02  0.53027340091E+02  0.00000000000E+00 0. -1.
         25    1    1    2    0    0 -0.79081768908E+02  0.82474437870E+01  0.84975906143E+03  0.86257603084E+03  0.12500000000E+03 0.  0.
         25    1    1    2    0    0  0.15304347007E+02 -0.75385600838E+02  0.92536078727E+02  0.17350832175E+03  0.12500000000E+03 0.  0.
         25    1    1    2    0    0  0.63777421901E+02  0.67138157051E+02  0.98038046650E+03  0.99264593424E+03  0.12500000000E+03 0.  0.
</event>
<event>
 5    0  0.5713700E-005  0.3891958E+03  0.7546771E-02  0.1047586E+00
         21   -1    0    0  502  501  0.00000000000E+00  0.00000000000E+00  0.56928871787E+03  0.56928871787E+03  0.00000000000E+00 0.  1.
         21   -1    0    0  501  502 -0.00000000000E+00 -0.00000000000E+00 -0.26607479529E+03  0.26607479529E+03  0.00000000000E+00 0.  1.
         25    1    1    2    0    0  0.10637524694E+03  0.25898955319E+03  0.14809908469E+03  0.34051375994E+03  0.12500000000E+03 0.  0.
         25    1    1    2    0    0  0.67158776275E+02 -0.20281268391E+03  0.10001068056E+03  0.26696520786E+03  0.12500000000E+03 0.  0.
         25    1    1    2    0    0 -0.17353402321E+03 -0.56176869281E+02  0.55104157329E+02  0.22788454535E+03  0.12500000000E+03 0.  0.
</event>
<event>
 5    0  0.5713700E-005  0.2704824E+03  0.7546771E-02  0.1101004E+00
         21   -1    0    0  502  501  0.00000000000E+00  0.00000000000E+00  0.10559425846E+04  0.10559425846E+04  0.00000000000E+00 0. -1.
         21   -1    0    0  501  502 -0.00000000000E+00 -0.00000000000E+00 -0.69284769365E+02  0.69284769365E+02  0.00000000000E+00 0. -1.
         25    1    1    2    0    0 -0.53720150964E+02  0.10936600921E+03  0.29200905183E+03  0.34020738520E+03  0.12500000000E+03 0.  0.
         25    1    1    2    0    0 -0.82975189450E+02 -0.93724012109E+02  0.28966215719E+03  0.33940865902E+03  0.12500000000E+03 0.  0.
         25    1    1    2    0    0  0.13669534041E+03 -0.15641997099E+02  0.40498660621E+03  0.44561130974E+03  0.12500000000E+03 0.  0.
</event>
<event>
 5    0  0.5713700E-005  0.2246499E+03  0.7546771E-02  0.1130463E+00
         21   -1    0    0  502  501  0.00000000000E+00  0.00000000000E+00  0.96353510028E+02  0.96353510028E+02  0.00000000000E+00 0. -1.
         21   -1    0    0  501  502 -0.00000000000E+00 -0.00000000000E+00 -0.52377531668E+03  0.52377531668E+03  0.00000000000E+00 0. -1.
         25    1    1    2    0    0  0.46004546231E+02 -0.17160918117E+02 -0.19967415174E+03  0.24063599535E+03  0.12500000000E+03 0.  0.
         25    1    1    2    0    0  0.29219690416E+02  0.28234705145E+02 -0.18524001983E+03  0.22713399972E+03  0.12500000000E+03 0.  0.
         25    1    1    2    0    0 -0.75224236647E+02 -0.11073787027E+02 -0.42507635085E+02  0.15235883164E+03  0.12500000000E+03 0.  0.
</event>
<event>
 5    0  0.5713700E-005  0.2979633E+03  0.7546771E-02  0.1086263E+00
         21   -1    0    0  502  501  0.00000000000E+00  0.00000000000E+00  0.88244543669E+02  0.88244543669E+02  0.00000000000E+00 0.  1.
         21   -1    0    0  501  502 -0.00000000000E+00 -0.00000000000E+00 -0.10060918293E+04  0.10060918293E+04  0.00000000000E+00 0.  1.
         25    1    1    2    0    0 -0.13805903933E+03  0.96493407919E+02 -0.62951747905E+03  0.66354241202E+03  0.12500000000E+03 0.  0.
         25    1    1    2    0    0  0.10273153059E+03 -0.99579864751E+02 -0.16456190256E+03  0.25134744203E+03  0.12500000000E+03 0.  0.
         25    1    1    2    0    0  0.35327508734E+02  0.30864568325E+01 -0.12376790403E+03  0.17944651893E+03  0.12500000000E+03 0.  0.
</event>
<event>
 5    0  0.6528937E-005  0.3571210E+03  0.7546771E-02  0.1059730E+00
         21   -1    0    0  502  501  0.00000000000E+00  0.00000000000E+00  0.51089581198E+03  0.51089581198E+03  0.00000000000E+00 0. -1.
         21   -1    0    0  501  502 -0.00000000000E+00 -0.00000000000E+00 -0.24963096092E+03  0.24963096092E+03  0.00000000000E+00 0. -1.
         25    1    1    2    0    0 -0.69023789852E+02 -0.67727783441E+02 -0.92621666725E+02  0.18318053762E+03  0.12500000000E+03 0.  0.
         25    1    1    2    0    0 -0.14259111830E+03  0.81807335192E+02  0.19710619469E+03  0.28548295763E+03  0.12500000000E+03 0.  0.
         25    1    1    2    0    0  0.21161490815E+03 -0.14079551752E+02  0.15678032310E+03  0.29186327766E+03  0.12500000000E+03 0.  0.
</event>
<event>
 5    0  0.5713700E-005  0.2609352E+03  0.7546771E-02  0.1106583E+00
         21   -1    0    0  502  501  0.00000000000E+00  0.00000000000E+00  0.68327742838E+02  0.68327742838E+02  0.00000000000E+00 0.  1.
         21   -1    0    0  501  502 -0.00000000000E+00 -0.00000000000E+00 -0.99647963557E+03  0.99647963557E+03  0.00000000000E+00 0.  1.
         25    1    1    2    0    0  0.55294115332E+02  0.83146175204E+02 -0.97519788080E+02  0.18736551099E+03  0.12500000000E+03 0.  0.
         25    1    1    2    0    0 -0.70681027514E+02 -0.38941251787E+02 -0.46381716501E+03  0.48709710664E+03  0.12500000000E+03 0.  0.
         25    1    1    2    0    0  0.15386912182E+02 -0.44204923417E+02 -0.36681493965E+03  0.39034476078E+03  0.12500000000E+03 0.  0.
</event>
<event>
 5    0  0.5713700E-005  0.2833347E+03  0.7546771E-02  0.1093881E+00
         21   -1    0    0  502  501  0.00000000000E+00  0.00000000000E+00  0.13785676020E+03  0.13785676020E+03  0.00000000000E+00 0. -1.
         21   -1    0    0  501  502 -0.00000000000E+00 -0.00000000000E+00 -0.58233300239E+03  0.58233300239E+03  0.00000000000E+00 0. -1.
         25    1    1    2    0    0  0.24507689403E+01  0.25215497605E+01 -0.70799881908E+02  0.14370103604E+03  0.12500000000E+03 0.  0.
         25    1    1    2    0    0 -0.11862860635E+03  0.13412901941E+03 -0.21410244007E+03  0.30582379721E+03  0.12500000000E+03 0.  0.
         25    1    1    2    0    0  0.11617783741E+03 -0.13665056917E+03 -0.15957392021E+03  0.27066492934E+03  0.12500000000E+03 0.  0.
</event>
<event>
 5    0  0.5713700E-005  0.2586420E+03  0.7546771E-02  0.1107962E+00
         21   -1    0    0  502  501  0.00000000000E+00  0.00000000000E+00  0.41024854989E+03  0.41024854989E+03  0.00000000000E+00 0.  1.
         21   -1    0    0  501  502 -0.00000000000E+00 -0.00000000000E+00 -0.16306129842E+03  0.16306129842E+03  0.00000000000E+00 0.  1.
         25    1    1    2    0    0  0.20344766094E+02 -0.66038364977E+02  0.84050438818E+02  0.16572402186E+03  0.12500000000E+03 0.  0.
         25    1    1    2    0    0 -0.26719113216E+01 -0.20925650862E+02  0.21172366729E+03  0.24677303998E+03  0.12500000000E+03 0.  0.
         25    1    1    2    0    0 -0.17672854772E+02  0.86964015839E+02 -0.48586854641E+02  0.16081278646E+03  0.12500000000E+03 0.  0.
</event>
<event>
 5    0  0.5713700E-005  0.3825607E+03  0.7546771E-02  0.1049991E+00
         21   -1    0    0  502  501  0.00000000000E+00  0.00000000000E+00  0.22134835255E+03  0.22134835255E+03  0.00000000000E+00 0.  1.
         21   -1    0    0  501  502 -0.00000000000E+00 -0.00000000000E+00 -0.66118707438E+03  0.66118707438E+03  0.00000000000E+00 0.  1.
         25    1    1    2    0    0  0.14755782449E+03 -0.49490253288E+02  0.68210322154E+02  0.21095081130E+03  0.12500000000E+03 0.  0.
         25    1    1    2    0    0  0.46606155848E+01 -0.77280941708E+02 -0.46859869972E+02  0.15432081098E+03  0.12500000000E+03 0.  0.
         25    1    1    2    0    0 -0.15221844008E+03  0.12677119500E+03 -0.46118917400E+03  0.51726380465E+03  0.12500000000E+03 0.  0.
</event>
<event>
 5    0  0.5713700E-005  0.3264415E+03  0.7546771E-02  0.1072722E+00
         21   -1    0    0  502  501  0.00000000000E+00  0.00000000000E+00  0.48626970675E+02  0.48626970675E+02  0.00000000000E+00 0. -1.
         21   -1    0    0  501  502 -0.00000000000E+00 -0.00000000000E+00 -0.21914595328E+04  0.21914595328E+04  0.00000000000E+00 0. -1.
         25    1    1    2    0    0  0.86707136087E+01  0.16050089356E+03 -0.68478894165E+03  0.71442047333E+03  0.12500000000E+03 0.  0.
         25    1    1    2    0    0  0.13086799485E+03  0.24352352180E+02 -0.50716351907E+03  0.53903553149E+03  0.12500000000E+03 0.  0.
         25    1    1    2    0    0 -0.13953870846E+03 -0.18485324574E+03 -0.95088010136E+03  0.98663049861E+03  0.12500000000E+03 0.  0.
</event>
<event>
 5    0  0.5713700E-005  0.6181562E+03  0.7546771E-02  0.9868438E-01
         21   -1    0    0  502  501  0.00000000000E+00  0.00000000000E+00  0.62395717126E+03  0.62395717126E+03  0.00000000000E+00 0.  1.
         21   -1    0    0  501  502 -0.00000000000E+00 -0.00000000000E+00 -0.61240922543E+03  0.61240922543E+03  0.00000000000E+00 0. -1.
         25    1    1    2    0    0  0.21921620732E+03  0.58269666114E+01 -0.15783566536E+02  0.25291069582E+03  0.12500000000E+03 0.  0.
         25    1    1    2    0    0 -0.56463248205E+03 -0.10557094859E+03  0.98970607383E+02  0.59613358075E+03  0.12500000000E+03 0.  0.
         25    1    1    2    0    0  0.34541627474E+03  0.99743981977E+02 -0.71639095016E+02  0.38732212011E+03  0.12500000000E+03 0.  0.
</event>
<event>
 5    0  0.5713700E-005  0.3294436E+03  0.7546771E-02  0.1071383E+00
         21   -1    0    0  502  501  0.00000000000E+00  0.00000000000E+00  0.62229015602E+03  0.62229015602E+03  0.00000000000E+00 0.  1.
         21   -1    0    0  501  502 -0.00000000000E+00 -0.00000000000E+00 -0.17440913941E+03  0.17440913941E+03  0.00000000000E+00 0.  1.
         25    1    1    2    0    0 -0.25296070376E+02 -0.22967617373E+02  0.13545502721E+03  0.18745790733E+03  0.12500000000E+03 0.  0.
         25    1    1    2    0    0  0.22674583649E+03  0.25843949989E+02  0.68496219740E+02  0.26906935210E+03  0.12500000000E+03 0.  0.
         25    1    1    2    0    0 -0.20144976612E+03 -0.28763326164E+01  0.24392976966E+03  0.34017203601E+03  0.12500000000E+03 0.  0.
</event>
<event>
 5    0  0.5713700E-005  0.3531963E+03  0.7546771E-02  0.1061311E+00
         21   -1    0    0  502  501  0.00000000000E+00  0.00000000000E+00  0.45567731166E+03  0.45567731166E+03  0.00000000000E+00 0.  1.
         21   -1    0    0  501  502 -0.00000000000E+00 -0.00000000000E+00 -0.27376313812E+03  0.27376313812E+03  0.00000000000E+00 0.  1.
         25    1    1    2    0    0  0.11055968759E+03 -0.10679782346E+03  0.23722064320E+03  0.30907580490E+03  0.12500000000E+03 0.  0.
         25    1    1    2    0    0 -0.19113287653E+03  0.13457908109E+03 -0.43343107054E+02  0.26860180656E+03  0.12500000000E+03 0.  0.
         25    1    1    2    0    0  0.80573188942E+02 -0.27781257628E+02 -0.11963362598E+02  0.15176283832E+03  0.12500000000E+03 0.  0.
</event>
<event>
 5    0  0.6146741E-005  0.4756702E+03  0.7546771E-02  0.1020332E+00
         21   -1    0    0  502  501  0.00000000000E+00  0.00000000000E+00  0.86765032707E+03  0.86765032707E+03  0.00000000000E+00 0. -1.
         21   -1    0    0  501  502 -0.00000000000E+00 -0.00000000000E+00 -0.26077574066E+03  0.26077574066E+03  0.00000000000E+00 0. -1.
         25    1    1    2    0    0  0.76452662708E+02  0.21612236567E+03  0.14453321064E+03  0.29844385662E+03  0.12500000000E+03 0.  0.
         25    1    1    2    0    0  0.20275596231E+03 -0.18614681783E+03  0.36068284593E+02  0.30444464061E+03  0.12500000000E+03 0.  0.
         25    1    1    2    0    0 -0.27920862502E+03 -0.29975547842E+02  0.42627309117E+03  0.52553757050E+03  0.12500000000E+03 0.  0.
</event>
<event>
 5    0  0.5713700E-005  0.3266212E+03  0.7546771E-02  0.1072642E+00
         21   -1    0    0  502  501  0.00000000000E+00  0.00000000000E+00  0.26633104417E+03  0.26633104417E+03  0.00000000000E+00 0. -1.
         21   -1    0    0  501  502 -0.00000000000E+00 -0.00000000000E+00 -0.40055947741E+03  0.40055947741E+03  0.00000000000E+00 0. -1.
         25    1    1    2    0    0 -0.40972660271E+02  0.14448828789E+03 -0.72008891699E+02  0.20824481917E+03  0.12500000000E+03 0.  0.
         25    1    1    2    0    0  0.74840465699E+02 -0.23373579169E+03 -0.10642557308E+03  0.29527092344E+03  0.12500000000E+03 0.  0.
         25    1    1    2    0    0 -0.33867805428E+02  0.89247503796E+02  0.44206031536E+02  0.16337477897E+03  0.12500000000E+03 0.  0.
</event>
<event>
 5    0  0.6505682E-005  0.3427456E+03  0.7546771E-02  0.1065633E+00
         21   -1    0    0  502  501  0.00000000000E+00  0.00000000000E+00  0.45690861553E+03  0.45690861553E+03  0.00000000000E+00 0. -1.
         21   -1    0    0  501  502 -0.00000000000E+00 -0.00000000000E+00 -0.25710732583E+03  0.25710732583E+03  0.00000000000E+00 0. -1.
         25    1    1    2    0    0  0.13997566248E+03  0.97216243514E+02  0.47996350635E+02  0.21673217058E+03  0.12500000000E+03 0.  0.
         25    1    1    2    0    0 -0.15884078581E+03 -0.14170939152E+03 -0.53045831330E+02  0.25248922176E+03  0.12500000000E+03 0.  0.
         25    1    1    2    0    0  0.18865123334E+02  0.44493148003E+02  0.20485077040E+03  0.24479454902E+03  0.12500000000E+03 0.  0.
</event>
<event>
 5    0  0.5713700E-005  0.2870156E+03  0.7546771E-02  0.1091918E+00
         21   -1    0    0  502  501  0.00000000000E+00  0.00000000000E+00  0.15293694246E+03  0.15293694246E+03  0.00000000000E+00 0. -1.
         21   -1    0    0  501  502 -0.00000000000E+00 -0.00000000000E+00 -0.53863984323E+03  0.53863984323E+03  0.00000000000E+00 0. -1.
         25    1    1    2    0    0  0.13067014873E+03 -0.43179429806E+01 -0.20123142051E+02  0.18199800342E+03  0.12500000000E+03 0.  0.
         25    1    1    2    0    0 -0.12206192900E+03 -0.48383635966E+01 -0.33865356983E+03  0.38109547968E+03  0.12500000000E+03 0.  0.
         25    1    1    2    0    0 -0.86082197357E+01  0.91563065772E+01 -0.26926188884E+02  0.12848330259E+03  0.12500000000E+03 0.  0.
</event>
<event>
 5    0  0.5713700E-005  0.3812615E+03  0.7546771E-02  0.1050468E+00
         21   -1    0    0  502  501  0.00000000000E+00  0.00000000000E+00  0.17284455999E+04  0.17284455999E+04  0.00000000000E+00 0. -1.
         21   -1    0    0  501  502 -0.00000000000E+00 -0.00000000000E+00 -0.84098870180E+02  0.84098870180E+02  0.00000000000E+00 0. -1.
         25    1    1    2    0    0  0.57221881240E+02 -0.16484150404E+03  0.81928962738E+03  0.84694011517E+03  0.12500000000E+03 0.  0.
         25    1    1    2    0    0 -0.12969615321E+03  0.64921263732E+02  0.75088665685E+03  0.77491395269E+03  0.12500000000E+03 0.  0.
         25    1    1    2    0    0  0.72474271970E+02  0.99920240304E+02  0.74170445511E+02  0.19069040224E+03  0.12500000000E+03 0.  0.
</event>
<event>
 5    0  0.5713700E-005  0.2487868E+03  0.7546771E-02  0.1114074E+00
         21   -1    0    0  502  501  0.00000000000E+00  0.00000000000E+00  0.17142516161E+03  0.17142516161E+03  0.00000000000E+00 0.  1.
         21   -1    0    0  501  502 -0.00000000000E+00 -0.00000000000E+00 -0.36106052409E+03  0.36106052409E+03  0.00000000000E+00 0.  1.
         25    1    1    2    0    0 -0.45510628814E+02  0.71861283811E+02 -0.22589517887E+02  0.15287428745E+03  0.12500000000E+03 0.  0.
         25    1    1    2    0    0  0.25703906735E+02 -0.80263736403E+02  0.21591990011E+02  0.15229633034E+03  0.12500000000E+03 0.  0.
         25    1    1    2    0    0  0.19806722080E+02  0.84024525922E+01 -0.18863783461E+03  0.22731506790E+03  0.12500000000E+03 0.  0.
</event>
<event>
 5    0  0.5713700E-005  0.2408627E+03  0.7546771E-02  0.1119219E+00
         21   -1    0    0  502  501  0.00000000000E+00  0.00000000000E+00  0.32851065854E+03  0.32851065854E+03  0.00000000000E+00 0. -1.
         21   -1    0    0  501  502 -0.00000000000E+00 -0.00000000000E+00 -0.17659957786E+03  0.17659957786E+03  0.00000000000E+00 0. -1.
         25    1    1    2    0    0  0.26746766810E+02  0.27886966096E+02  0.47742066934E+02  0.13927446775E+03  0.12500000000E+03 0.  0.
         25    1    1    2    0    0  0.67608116630E+02 -0.48752965753E+02 -0.36143289983E+02  0.15452846506E+03  0.12500000000E+03 0.  0.
         25    1    1    2    0    0 -0.94354883441E+02  0.20865999657E+02  0.14031230373E+03  0.21130730359E+03  0.12500000000E+03 0.  0.
</event>
<event>
 5    0  0.5713700E-005  0.3407020E+03  0.7546771E-02  0.1066497E+00
         21   -1    0    0  502  501  0.00000000000E+00  0.00000000000E+00  0.18622130579E+03  0.18622130579E+03  0.00000000000E+00 0. -1.
         21   -1    0    0  501  502 -0.00000000000E+00 -0.00000000000E+00 -0.62333286342E+03  0.62333286342E+03  0.00000000000E+00 0. -1.
         25    1    1    2    0    0 -0.11589905744E+03 -0.92377638253E+02 -0.12802835696E+02  0.19430679907E+03  0.12500000000E+03 0.  0.
         25    1    1    2    0    0  0.11016303872E+03  0.19630336543E+03 -0.35474138963E+03  0.43833475780E+03  0.12500000000E+03 0.  0.
         25    1    1    2    0    0  0.57360187165E+01 -0.10392572718E+03 -0.69567332307E+02  0.17691261234E+03  0.12500000000E+03 0.  0.
</event>
<event>
 5    0  0.5713700E-005  0.2673858E+03  0.7546771E-02  0.1102785E+00
         21   -1    0    0  502  501  0.00000000000E+00  0.00000000000E+00  0.52457871648E+03  0.52457871648E+03  0.00000000000E+00 0.  1.
         21   -1    0    0  501  502 -0.00000000000E+00 -0.00000000000E+00 -0.13629058659E+03  0.13629058659E+03  0.00000000000E+00 0.  1.
         25    1    1    2    0    0 -0.45636700408E+02 -0.61129245380E+02  0.21296442226E+03  0.25845374483E+03  0.12500000000E+03 0.  0.
         25    1    1    2    0    0 -0.50690230906E+01  0.12507201765E+03  0.18091577885E+03  0.25303008444E+03  0.12500000000E+03 0.  0.
         25    1    1    2    0    0  0.50705723499E+02 -0.63942772275E+02 -0.55920712332E+01  0.14938547380E+03  0.12500000000E+03 0.  0.
</event>
<event>
 5    0  0.5713700E-005  0.3870705E+03  0.7546771E-02  0.1048351E+00
         21   -1    0    0  502  501  0.00000000000E+00  0.00000000000E+00  0.25798123445E+03  0.25798123445E+03  0.00000000000E+00 0.  1.
         21   -1    0    0  501  502 -0.00000000000E+00 -0.00000000000E+00 -0.58075362957E+03  0.58075362957E+03  0.00000000000E+00 0.  1.
         25    1    1    2    0    0 -0.25767545925E+03 -0.15973068518E+03 -0.31007073692E+02  0.32938878655E+03  0.12500000000E+03 0.  0.
         25    1    1    2    0    0  0.94036361313E+02  0.77549058637E+02 -0.50647695814E+02  0.18178801621E+03  0.12500000000E+03 0.  0.
         25    1    1    2    0    0  0.16363909794E+03  0.82181626539E+02 -0.24111762562E+03  0.32755806126E+03  0.12500000000E+03 0.  0.
</event>
<event>
 5    0  0.5713700E-005  0.2468229E+03  0.7546771E-02  0.1115329E+00
         21   -1    0    0  502  501  0.00000000000E+00  0.00000000000E+00  0.34220278533E+03  0.34220278533E+03  0.00000000000E+00 0. -1.
         21   -1    0    0  501  502 -0.00000000000E+00 -0.00000000000E+00 -0.17802755254E+03  0.17802755254E+03  0.00000000000E+00 0. -1.
         25    1    1    2    0    0 -0.86027721145E+01 -0.75370799368E+01 -0.26234775075E+01  0.12554958342E+03  0.12500000000E+03 0.  0.
         25    1    1    2    0    0  0.10327213321E+03  0.55367902604E+02  0.15378409410E+03  0.23022876826E+03  0.12500000000E+03 0.  0.
         25    1    1    2    0    0 -0.94669361097E+02 -0.47830822667E+02  0.13014616207E+02  0.16445198619E+03  0.12500000000E+03 0.  0.
</event>
<event>
 5    0  0.5713700E-005  0.4612968E+03  0.7546771E-02  0.1024406E+00
         21   -1    0    0  502  501  0.00000000000E+00  0.00000000000E+00  0.50542398177E+03  0.50542398177E+03  0.00000000000E+00 0.  1.
         21   -1    0    0  501  502 -0.00000000000E+00 -0.00000000000E+00 -0.42102232085E+03  0.42102232085E+03  0.00000000000E+00 0.  1.
         25    1    1    2    0    0  0.21492968324E+03 -0.69844367384E+02  0.18719895942E+03  0.31896936342E+03  0.12500000000E+03 0.  0.
         25    1    1    2    0    0 -0.34396582116E+03  0.11362538483E+03 -0.15799900581E+03  0.41450199040E+03  0.12500000000E+03 0.  0.
         25    1    1    2    0    0  0.12903613792E+03 -0.43781017442E+02  0.55201707310E+02  0.19297494881E+03  0.12500000000E+03 0.  0.
</event>
<event>
 5    0  0.5713700E-005  0.2346593E+03  0.7546771E-02  0.1123403E+00
         21   -1    0    0  502  501  0.00000000000E+00  0.00000000000E+00  0.57110731865E+03  0.57110731865E+03  0.00000000000E+00 0. -1.
         21   -1    0    0  501  502 -0.00000000000E+00 -0.00000000000E+00 -0.96417925276E+02  0.96417925276E+02  0.00000000000E+00 0. -1.
         25    1    1    2    0    0  0.91636757329E+02 -0.72309689922E+02  0.92511217612E+02  0.19444616719E+03  0.12500000000E+03 0.  0.
         25    1    1    2    0    0 -0.27974404108E+02  0.45130642151E+02  0.17905237485E+03  0.22473116180E+03  0.12500000000E+03 0.  0.
         25    1    1    2    0    0 -0.63662353221E+02  0.27179047771E+02  0.20312580091E+03  0.24834791493E+03  0.12500000000E+03 0.  0.
</event>
<event>
 5    0  0.5713700E-005  0.2355883E+03  0.7546771E-02  0.1122767E+00
         21   -1    0    0  502  501  0.00000000000E+00  0.00000000000E+00  0.33267833372E+03  0.33267833372E+03  0.00000000000E+00 0.  1.
         21   -1    0    0  501  502 -0.00000000000E+00 -0.00000000000E+00 -0.16683335487E+03  0.16683335487E+03  0.00000000000E+00 0.  1.
         25    1    1    2    0    0  0.96132877372E+01  0.25590276473E+02  0.12495287580E+02  0.12856286308E+03  0.12500000000E+03 0.  0.
         25    1    1    2    0    0  0.75838330472E+02  0.37551158178E+02  0.70178052274E+01  0.15111515953E+03  0.12500000000E+03 0.  0.
         25    1    1    2    0    0 -0.85451618209E+02 -0.63141434651E+02  0.14633188605E+03  0.21983366598E+03  0.12500000000E+03 0.  0.
</event>
<event>
 5    0  0.5713700E-005  0.2765005E+03  0.7546771E-02  0.1097616E+00
         21   -1    0    0  502  501  0.00000000000E+00  0.00000000000E+00  0.24110050739E+03  0.24110050739E+03  0.00000000000E+00 0. -1.
         21   -1    0    0  501  502 -0.00000000000E+00 -0.00000000000E+00 -0.31709806651E+03  0.31709806651E+03  0.00000000000E+00 0. -1.
         25    1    1    2    0    0  0.14205086685E+02 -0.98627804859E+02  0.59322319938E+02  0.17050913765E+03  0.12500000000E+03 0.  0.
         25    1    1    2    0    0  0.10343680032E+03  0.32930937203E+02 -0.11753709320E+03  0.20303592432E+03  0.12500000000E+03 0.  0.
         25    1    1    2    0    0 -0.11764188700E+03  0.65696867656E+02 -0.17782785862E+02  0.18465351194E+03  0.12500000000E+03 0.  0.
</event>
<event>
 5    0  0.5713700E-005  0.2588922E+03  0.7546771E-02  0.1107811E+00
         21   -1    0    0  502  501  0.00000000000E+00  0.00000000000E+00  0.75975446688E+02  0.75975446688E+02  0.00000000000E+00 0. -1.
         21   -1    0    0  501  502 -0.00000000000E+00 -0.00000000000E+00 -0.88219532865E+03  0.88219532865E+03  0.00000000000E+00 0. -1.
         25    1    1    2    0    0 -0.60760378476E+02  0.12441501786E+02 -0.34840831337E+03  0.37531315909E+03  0.12500000000E+03 0.  0.
         25    1    1    2    0    0  0.66788207096E+02 -0.12442818458E+03 -0.19755668915E+03  0.27312393368E+03  0.12500000000E+03 0.  0.
         25    1    1    2    0    0 -0.60278286198E+01  0.11198668279E+03 -0.26025487944E+03  0.30973368256E+03  0.12500000000E+03 0.  0.
</event>
<event>
 5    0  0.6012264E-005  0.2668745E+03  0.7546771E-02  0.1103082E+00
         21   -1    0    0  502  501  0.00000000000E+00  0.00000000000E+00  0.29061120486E+03  0.29061120486E+03  0.00000000000E+00 0. -1.
         21   -1    0    0  501  502 -0.00000000000E+00 -0.00000000000E+00 -0.24507653188E+03  0.24507653188E+03  0.00000000000E+00 0. -1.
         25    1    1    2    0    0 -0.10108035959E+02 -0.80377636740E+02  0.71370234199E+02  0.16517096358E+03  0.12500000000E+03 0.  0.
         25    1    1    2    0    0 -0.75266132026E+02  0.12632524924E+03 -0.71578224643E+02  0.20584339064E+03  0.12500000000E+03 0.  0.
         25    1    1    2    0    0  0.85374167985E+02 -0.45947612502E+02  0.45742663425E+02  0.16467338252E+03  0.12500000000E+03 0.  0.
</event>
<event>
 5    0  0.5713700E-005  0.2971442E+03  0.7546771E-02  0.1086677E+00
         21   -1    0    0  502  501  0.00000000000E+00  0.00000000000E+00  0.20355414499E+03  0.20355414499E+03  0.00000000000E+00 0. -1.
         21   -1    0    0  501  502 -0.00000000000E+00 -0.00000000000E+00 -0.43376499092E+03  0.43376499092E+03  0.00000000000E+00 0. -1.
         25    1    1    2    0    0  0.10858510548E+03 -0.32508675249E+02 -0.71613727504E+02  0.18330593298E+03  0.12500000000E+03 0.  0.
         25    1    1    2    0    0 -0.89101970581E+02 -0.58268778721E+01 -0.24991223087E+03  0.29335002438E+03  0.12500000000E+03 0.  0.
         25    1    1    2    0    0 -0.19483134901E+02  0.38335553121E+02  0.91315112443E+02  0.16066317854E+03  0.12500000000E+03 0.  0.
</event>
<event>
 5    0  0.5713700E-005  0.5540440E+03  0.7546771E-02  0.1000562E+00
         21   -1    0    0  502  501  0.00000000000E+00  0.00000000000E+00  0.17833051768E+03  0.17833051768E+03  0.00000000000E+00 0.  1.
         21   -1    0    0  501  502 -0.00000000000E+00 -0.00000000000E+00 -0.17213250715E+04  0.17213250715E+04  0.00000000000E+00 0.  1.
         25    1    1    2    0    0 -0.26039129905E+02 -0.94481486357E+01  0.84323527032E+02  0.15330610232E+03  0.12500000000E+03 0.  0.
         25    1    1    2    0    0  0.54223232991E+02  0.29041468213E+03 -0.92810995211E+03  0.98198468919E+03  0.12500000000E+03 0.  0.
         25    1    1    2    0    0 -0.28184103087E+02 -0.28096653349E+03 -0.69920812873E+03  0.76436479766E+03  0.12500000000E+03 0.  0.
</event>
<event>
 5    0  0.5713700E-005  0.6174786E+03  0.7546771E-02  0.9869793E-01
         21   -1    0    0  502  501  0.00000000000E+00  0.00000000000E+00  0.21818439168E+03  0.21818439168E+03  0.00000000000E+00 0. -1.
         21   -1    0    0  501  502 -0.00000000000E+00 -0.00000000000E+00 -0.17475120432E+04  0.17475120432E+04  0.00000000000E+00 0. -1.
         25    1    1    2    0    0  0.12229300882E+02 -0.38432062532E+02 -0.57937779179E+03  0.59407929172E+03  0.12500000000E+03 0.  0.
         25    1    1    2    0    0 -0.27475127579E+03  0.53029470361E+02  0.67089778958E+02  0.31372986264E+03  0.12500000000E+03 0.  0.
         25    1    1    2    0    0  0.26252197490E+03 -0.14597407828E+02 -0.10170396387E+04  0.10578872805E+04  0.12500000000E+03 0.  0.
</event>
<event>
 5    0  0.5713700E-005  0.4516559E+03  0.7546771E-02  0.1027229E+00
         21   -1    0    0  502  501  0.00000000000E+00  0.00000000000E+00  0.26363168694E+03  0.26363168694E+03  0.00000000000E+00 0.  1.
         21   -1    0    0  501  502 -0.00000000000E+00 -0.00000000000E+00 -0.77378052968E+03  0.77378052968E+03  0.00000000000E+00 0.  1.
         25    1    1    2    0    0  0.27236484134E+03 -0.16968544303E+03 -0.42523027245E+03  0.54719424429E+03  0.12500000000E+03 0.  0.
         25    1    1    2    0    0 -0.10492637187E+03  0.11885220746E+03  0.82084675798E+02  0.21794101205E+03  0.12500000000E+03 0.  0.
         25    1    1    2    0    0 -0.16743846947E+03  0.50833235561E+02 -0.16700324609E+03  0.27227696028E+03  0.12500000000E+03 0.  0.
</event>
<event>
 5    0  0.5713700E-005  0.5336401E+03  0.7546771E-02  0.1005353E+00
         21   -1    0    0  502  501  0.00000000000E+00  0.00000000000E+00  0.68368893731E+03  0.68368893731E+03  0.00000000000E+00 0.  1.
         21   -1    0    0  501  502 -0.00000000000E+00 -0.00000000000E+00 -0.41652243457E+03  0.41652243457E+03  0.00000000000E+00 0.  1.
         25    1    1    2    0    0  0.19119522104E+03 -0.11307189403E+03  0.45139331068E+03  0.51838382179E+03  0.12500000000E+03 0.  0.
         25    1    1    2    0    0 -0.13201756793E+03  0.27540233720E+03 -0.61194133134E+02  0.33562599349E+03  0.12500000000E+03 0.  0.
         25    1    1    2    0    0 -0.59177653106E+02 -0.16233044317E+03 -0.12303267480E+03  0.24620155661E+03  0.12500000000E+03 0.  0.
</event>
<event>
 5    0  0.5713700E-005  0.4046036E+03  0.7546771E-02  0.1042197E+00
         21   -1    0    0  502  501  0.00000000000E+00  0.00000000000E+00  0.34701573638E+03  0.34701573638E+03  0.00000000000E+00 0. -1.
         21   -1    0    0  501  502 -0.00000000000E+00 -0.00000000000E+00 -0.47174830306E+03  0.47174830306E+03  0.00000000000E+00 0. -1.
         25    1    1    2    0    0 -0.19717624718E+03  0.48165766166E+02  0.61457204676E+02  0.24617148797E+03  0.12500000000E+03 0.  0.
         25    1    1    2    0    0 -0.43616354078E+02 -0.18163222399E+03 -0.14492351288E+03  0.26743312383E+03  0.12500000000E+03 0.  0.
         25    1    1    2    0    0  0.24079260126E+03  0.13346645782E+03 -0.41266258480E+02  0.30515942764E+03  0.12500000000E+03 0.  0.
</event>
<event>
 5    0  0.5713700E-005  0.3914739E+03  0.7546771E-02  0.1046773E+00
         21   -1    0    0  502  501  0.00000000000E+00  0.00000000000E+00  0.82650095130E+03  0.82650095130E+03  0.00000000000E+00 0. -1.
         21   -1    0    0  501  502 -0.00000000000E+00 -0.00000000000E+00 -0.18542245571E+03  0.18542245571E+03  0.00000000000E+00 0. -1.
         25    1    1    2    0    0  0.24832058434E+03 -0.60237483783E+02  0.46025503724E+03  0.54106502970E+03  0.12500000000E+03 0.  0.
         25    1    1    2    0    0  0.23417772329E+02  0.38532613164E+02  0.35152439882E+02  0.13745489576E+03  0.12500000000E+03 0.  0.
         25    1    1    2    0    0 -0.27173835667E+03  0.21704870619E+02  0.14567101848E+03  0.33340348156E+03  0.12500000000E+03 0.  0.
</event>
<event>
 5    0  0.5713700E-005  0.2648517E+03  0.7546771E-02  0.1104263E+00
         21   -1    0    0  502  501  0.00000000000E+00  0.00000000000E+00  0.43754522165E+03  0.43754522165E+03  0.00000000000E+00 0.  1.
         21   -1    0    0  501  502 -0.00000000000E+00 -0.00000000000E+00 -0.16031805393E+03  0.16031805393E+03  0.00000000000E+00 0.  1.
         25    1    1    2    0    0  0.71073999144E+02 -0.13766749072E+03  0.65726889990E+02  0.20963987079E+03  0.12500000000E+03 0.  0.
         25    1    1    2    0    0 -0.16629802505E+02  0.14043656996E+03  0.11278159346E+03  0.21987193622E+03  0.12500000000E+03 0.  0.
         25    1    1    2    0    0 -0.54444196638E+02 -0.27690792347E+01  0.98718684272E+02  0.16835146858E+03  0.12500000000E+03 0.  0.
</event>
<event>
 5    0  0.5962920E-005  0.2705367E+03  0.7546771E-02  0.1100973E+00
         21   -1    0    0  502  501  0.00000000000E+00  0.00000000000E+00  0.56335316098E+03  0.56335316098E+03  0.00000000000E+00 0. -1.
         21   -1    0    0  501  502 -0.00000000000E+00 -0.00000000000E+00 -0.12991869223E+03  0.12991869223E+03  0.00000000000E+00 0. -1.
         25    1    1    2    0    0  0.46753247170E+02  0.46419323165E+02  0.17210435003E+03  0.22267807926E+03  0.12500000000E+03 0.  0.
         25    1    1    2    0    0 -0.92014637777E+02  0.44258618129E+01 -0.18766117137E+02  0.15640795686E+03  0.12500000000E+03 0.  0.
         25    1    1    2    0    0  0.45261390606E+02 -0.50845184978E+02  0.28009623586E+03  0.31418581708E+03  0.12500000000E+03 0.  0.
</event>
<event>
 5    0  0.5713700E-005  0.3777070E+03  0.7546771E-02  0.1051785E+00
         21   -1    0    0  502  501  0.00000000000E+00  0.00000000000E+00  0.50265330097E+03  0.50265330097E+03  0.00000000000E+00 0.  1.
         21   -1    0    0  501  502 -0.00000000000E+00 -0.00000000000E+00 -0.28381906550E+03  0.28381906550E+03  0.00000000000E+00 0.  1.
         25    1    1    2    0    0  0.59288518944E+02  0.13212313943E+03  0.29181480988E+03  0.34893056002E+03  0.12500000000E+03 0.  0.
         25    1    1    2    0    0  0.55035793847E+02 -0.32808106866E+02 -0.16834238941E+03  0.21924750980E+03  0.12500000000E+03 0.  0.
         25    1    1    2    0    0 -0.11432431279E+03 -0.99315032565E+02  0.95361815001E+02  0.21829429665E+03  0.12500000000E+03 0.  0.
</event>
<event>
 5    0  0.5713700E-005  0.3294913E+03  0.7546771E-02  0.1071362E+00
         21   -1    0    0  502  501  0.00000000000E+00  0.00000000000E+00  0.43860898399E+03  0.43860898399E+03  0.00000000000E+00 0.  1.
         21   -1    0    0  501  502 -0.00000000000E+00 -0.00000000000E+00 -0.24752011408E+03  0.24752011408E+03  0.00000000000E+00 0.  1.
         25    1    1    2    0    0 -0.78433525290E+02 -0.21674621768E+03  0.62854966463E+02  0.26964140553E+03  0.12500000000E+03 0.  0.
         25    1    1    2    0    0 -0.38426739440E+02  0.88785936714E+02 -0.15725815668E+02  0.15884539068E+03  0.12500000000E+03 0.  0.
         25    1    1    2    0    0  0.11686026473E+03  0.12796028097E+03  0.14395971911E+03  0.25764230185E+03  0.12500000000E+03 0.  0.
</event>
<event>
 5    0  0.5713700E-005  0.2475587E+03  0.7546771E-02  0.1114857E+00
         21   -1    0    0  502  501  0.00000000000E+00  0.00000000000E+00  0.98822511268E+03  0.98822511268E+03  0.00000000000E+00 0.  1.
         21   -1    0    0  501  502 -0.00000000000E+00 -0.00000000000E+00 -0.62015525640E+02  0.62015525640E+02  0.00000000000E+00 0.  1.
         25    1    1    2    0    0 -0.91892936742E+02 -0.78677576668E+02  0.16517956650E+03  0.23988280906E+03  0.12500000000E+03 0.  0.
         25    1    1    2    0    0  0.46494109913E+02  0.36066305772E+02  0.40519043932E+03  0.42809668626E+03  0.12500000000E+03 0.  0.
         25    1    1    2    0    0  0.45398826830E+02  0.42611270896E+02  0.35583958123E+03  0.38226114300E+03  0.12500000000E+03 0.  0.
</event>
<event>
 5    0  0.5713700E-005  0.2144537E+03  0.7546771E-02  0.1138087E+00
         21   -1    0    0  502  501  0.00000000000E+00  0.00000000000E+00  0.26976842393E+03  0.26976842393E+03  0.00000000000E+00 0.  1.
         21   -1    0    0  501  502 -0.00000000000E+00 -0.00000000000E+00 -0.17048093698E+03  0.17048093698E+03  0.00000000000E+00 0.  1.
         25    1    1    2    0    0 -0.45170407068E+02  0.82245177676E+01 -0.23144396205E+02  0.13516164931E+03  0.12500000000E+03 0.  0.
         25    1    1    2    0    0  0.29825989849E+02  0.35634676975E+02  0.10673105931E+03  0.17080965691E+03  0.12500000000E+03 0.  0.
         25    1    1    2    0    0  0.15344417219E+02 -0.43859194742E+02  0.15700823850E+02  0.13427805470E+03  0.12500000000E+03 0.  0.
</event>
<event>
 5    0  0.5713700E-005  0.3037687E+03  0.7546771E-02  0.1083372E+00
         21   -1    0    0  502  501  0.00000000000E+00  0.00000000000E+00  0.14621830319E+03  0.14621830319E+03  0.00000000000E+00 0.  1.
         21   -1    0    0  501  502 -0.00000000000E+00 -0.00000000000E+00 -0.63107974828E+03  0.63107974828E+03  0.00000000000E+00 0.  1.
         25    1    1    2    0    0  0.64410128252E+02  0.13672109479E+02 -0.12800498205E+03  0.19064591951E+03  0.12500000000E+03 0.  0.
         25    1    1    2    0    0  0.88342279282E+02 -0.64561288720E+02 -0.34447845656E+03  0.38244336227E+03  0.12500000000E+03 0.  0.
         25    1    1    2    0    0 -0.15275240753E+03  0.50889179241E+02 -0.12378006483E+02  0.20420876968E+03  0.12500000000E+03 0.  0.
</event>
<event>
 5    0  0.5713700E-005  0.2504203E+03  0.7546771E-02  0.1113039E+00
         21   -1    0    0  502  501  0.00000000000E+00  0.00000000000E+00  0.42369357973E+03  0.42369357973E+03  0.00000000000E+00 0.  1.
         21   -1    0    0  501  502 -0.00000000000E+00 -0.00000000000E+00 -0.14800871753E+03  0.14800871753E+03  0.00000000000E+00 0.  1.
         25    1    1    2    0    0  0.98844427671E+02 -0.17562920269E+02  0.12962014047E+03  0.20616754804E+03  0.12500000000E+03 0.  0.
         25    1    1    2    0    0 -0.48050999334E+02  0.56418443246E+02 -0.21522845980E+02  0.14690191345E+03  0.12500000000E+03 0.  0.
         25    1    1    2    0    0 -0.50793428337E+02 -0.38855522977E+02  0.16758756771E+03  0.21863283577E+03  0.12500000000E+03 0.  0.
</event>
<event>
 5    0  0.8137537E-005  0.6953332E+03  0.7546771E-02  0.9725246E-01
         21   -1    0    0  502  501  0.00000000000E+00  0.00000000000E+00  0.74111454434E+03  0.74111454434E+03  0.00000000000E+00 0.  1.
         21   -1    0    0  501  502 -0.00000000000E+00 -0.00000000000E+00 -0.65237997162E+03  0.65237997162E+03  0.00000000000E+00 0.  1.
         25    1    1    2    0    0  0.31102833943E+02 -0.32773374832E+03 -0.12899667605E+03  0.37502258399E+03  0.12500000000E+03 0.  0.
         25    1    1    2    0    0  0.43515446994E+03  0.12764777355E+03  0.13521365605E+03  0.48944979271E+03  0.12500000000E+03 0.  0.
         25    1    1    2    0    0 -0.46625730388E+03  0.20008597476E+03  0.82517592715E+02  0.52902213926E+03  0.12500000000E+03 0.  0.
</event>
<event>
 5    0  0.5713700E-005  0.2988077E+03  0.7546771E-02  0.1085838E+00
         21   -1    0    0  502  501  0.00000000000E+00  0.00000000000E+00  0.14332675407E+03  0.14332675407E+03  0.00000000000E+00 0. -1.
         21   -1    0    0  501  502 -0.00000000000E+00 -0.00000000000E+00 -0.62295426823E+03  0.62295426823E+03  0.00000000000E+00 0. -1.
         25    1    1    2    0    0 -0.10122655527E+03 -0.11288913899E+03 -0.38665996990E+03  0.43372999149E+03  0.12500000000E+03 0.  0.
         25    1    1    2    0    0  0.43556414282E+02  0.99159724858E+02 -0.10130957254E+03  0.19395474149E+03  0.12500000000E+03 0.  0.
         25    1    1    2    0    0  0.57670140988E+02  0.13729414136E+02  0.83420282874E+01  0.13859628931E+03  0.12500000000E+03 0.  0.
</event>
<event>
 5    0  0.5713700E-005  0.2378948E+03  0.7546771E-02  0.1121203E+00
         21   -1    0    0  502  501  0.00000000000E+00  0.00000000000E+00  0.61813292938E+03  0.61813292938E+03  0.00000000000E+00 0. -1.
         21   -1    0    0  501  502 -0.00000000000E+00 -0.00000000000E+00 -0.91556221755E+02  0.91556221755E+02  0.00000000000E+00 0. -1.
         25    1    1    2    0    0 -0.11198266539E+03  0.12654563449E+02  0.18834503878E+03  0.25258485496E+03  0.12500000000E+03 0.  0.
         25    1    1    2    0    0  0.11967195446E+03  0.23706854462E+02  0.22150008946E+03  0.28208275606E+03  0.12500000000E+03 0.  0.
         25    1    1    2    0    0 -0.76892890754E+01 -0.36361417911E+02  0.11673157939E+03  0.17502154012E+03  0.12500000000E+03 0.  0.
</event>
<event>
 5    0  0.5713700E-005  0.6880096E+03  0.7546771E-02  0.9737960E-01
         21   -1    0    0  502  501  0.00000000000E+00  0.00000000000E+00  0.47878916550E+03  0.47878916550E+03  0.00000000000E+00 0. -1.
         21   -1    0    0  501  502 -0.00000000000E+00 -0.00000000000E+00 -0.98865479690E+03  0.98865479690E+03  0.00000000000E+00 0. -1.
         25    1    1    2    0    0  0.29192236395E+03 -0.23491982517E+03 -0.32546009984E+03  0.51181565765E+03  0.12500000000E+03 0.  0.
         25    1    1    2    0    0  0.26694662265E+03 -0.47693677191E+02 -0.44918746576E+02  0.30195675184E+03  0.12500000000E+03 0.  0.
         25    1    1    2    0    0 -0.55886898659E+03  0.28261350236E+03 -0.13948678499E+03  0.65367155291E+03  0.12500000000E+03 0.  0.
</event>
<event>
 5    0  0.5713700E-005  0.3980987E+03  0.7546771E-02  0.1044440E+00
         21   -1    0    0  502  501  0.00000000000E+00  0.00000000000E+00  0.19849906928E+04  0.19849906928E+04  0.00000000000E+00 0. -1.
         21   -1    0    0  501  502 -0.00000000000E+00 -0.00000000000E+00 -0.79840451370E+02  0.79840451370E+02  0.00000000000E+00 0. -1.
         25    1    1    2    0    0 -0.13405517007E+03 -0.21958220826E+03  0.11108603104E+04  0.11470931802E+04  0.12500000000E+03 0.  0.
         25    1    1    2    0    0  0.18634387202E+03  0.17030112901E+03  0.34228586111E+03  0.44329575217E+03  0.12500000000E+03 0.  0.
         25    1    1    2    0    0 -0.52288701943E+02  0.49281079249E+02  0.45200406994E+03  0.47444221183E+03  0.12500000000E+03 0.  0.
</event>
<event>
 5    0  0.6847732E-005  0.3497076E+03  0.7546771E-02  0.1062735E+00
         21   -1    0    0  502  501  0.00000000000E+00  0.00000000000E+00  0.21163989971E+03  0.21163989971E+03  0.00000000000E+00 0. -1.
         21   -1    0    0  501  502 -0.00000000000E+00 -0.00000000000E+00 -0.57784675048E+03  0.57784675048E+03  0.00000000000E+00 0. -1.
         25    1    1    2    0    0 -0.18785358599E+03  0.36789010779E+02 -0.64661770717E+01  0.22871207343E+03  0.12500000000E+03 0.  0.
         25    1    1    2    0    0  0.18623806404E+03 -0.11180975676E+03 -0.11465368707E+03  0.27560207939E+03  0.12500000000E+03 0.  0.
         25    1    1    2    0    0  0.16155219547E+01  0.75020745985E+02 -0.24508698663E+03  0.28517249737E+03  0.12500000000E+03 0.  0.
</event>
<event>
 5    0  0.5713700E-005  0.2622939E+03  0.7546771E-02  0.1105773E+00
         21   -1    0    0  502  501  0.00000000000E+00  0.00000000000E+00  0.78752915356E+02  0.78752915356E+02  0.00000000000E+00 0.  1.
         21   -1    0    0  501  502 -0.00000000000E+00 -0.00000000000E+00 -0.87359407658E+03  0.87359407658E+03  0.00000000000E+00 0.  1.
         25    1    1    2    0    0 -0.81101762609E+02 -0.61850971017E+02 -0.32463520883E+03  0.36251352710E+03  0.12500000000E+03 0.  0.
         25    1    1    2    0    0  0.14370601754E+03  0.10683984348E+02 -0.34951995417E+03  0.39818935867E+03  0.12500000000E+03 0.  0.
         25    1    1    2    0    0 -0.62604254935E+02  0.51166986668E+02 -0.12068599822E+03  0.19164410617E+03  0.12500000000E+03 0.  0.
</event>
<event>
 5    0  0.6057351E-005  0.2881588E+03  0.7546771E-02  0.1091314E+00
         21   -1    0    0  502  501  0.00000000000E+00  0.00000000000E+00  0.19248235976E+03  0.19248235976E+03  0.00000000000E+00 0.  1.
         21   -1    0    0  501  502 -0.00000000000E+00 -0.00000000000E+00 -0.43139279644E+03  0.43139279644E+03  0.00000000000E+00 0.  1.
         25    1    1    2    0    0 -0.10906002009E+03  0.63541120374E+02 -0.94635535121E+02  0.20127703910E+03  0.12500000000E+03 0.  0.
         25    1    1    2    0    0  0.15953800673E+03  0.49847474128E+02 -0.25786611491E+02  0.21030239086E+03  0.12500000000E+03 0.  0.
         25    1    1    2    0    0 -0.50477986640E+02 -0.11338859450E+03 -0.11848829007E+03  0.21229572625E+03  0.12500000000E+03 0.  0.
</event>
