<event>
 4    0  0.2210826E-002  0.1784305E+03  0.7546771E-02  0.1169331E+00
         21   -1    0    0  502  501  0.00000000000E+00  0.00000000000E+00  0.62002880893E+02  0.62002880893E+02  0.00000000000E+00 0.  1.
         21   -1    0    0  501  502 -0.00000000000E+00 -0.00000000000E+00 -0.51348305556E+03  0.51348305556E+03  0.00000000000E+00 0.  1.
         25    1    1    2    0    0  0.64300055277E+02 -0.10325270689E+03 -0.16503968701E+03  0.24012229567E+03  0.12500000000E+03 0.  0.
         25    1    1    2    0    0 -0.64300055277E+02  0.10325270689E+03 -0.28644048766E+03  0.33536364078E+03  0.12500000000E+03 0.  0.
</event>
<event>
 4    0  0.2210826E-002  0.3873606E+03  0.7546771E-02  0.1048246E+00
         21   -1    0    0  502  501  0.00000000000E+00  0.00000000000E+00  0.10816486672E+04  0.10816486672E+04  0.00000000000E+00 0. -1.
         21   -1    0    0  501  502 -0.00000000000E+00 -0.00000000000E+00 -0.13872178157E+03  0.13872178157E+03  0.00000000000E+00 0. -1.
         25    1    1    2    0    0 -0.36523460762E+03  0.31552661388E+02  0.48028211745E+03  0.61699902868E+03  0.12500000000E+03 0.  0.
         25    1    1    2    0    0  0.36523460762E+03 -0.31552661388E+02  0.46264476815E+03  0.60337142006E+03  0.12500000000E+03 0.  0.
</event>
<event>
 4    0  0.2210826E-002  0.2460218E+03  0.7546771E-02  0.1115845E+00
         21   -1    0    0  502  501  0.00000000000E+00  0.00000000000E+00  0.89601402657E+03  0.89601402657E+03  0.00000000000E+00 0. -1.
         21   -1    0    0  501  502 -0.00000000000E+00 -0.00000000000E+00 -0.67551076468E+02  0.67551076468E+02  0.00000000000E+00 0. -1.
         25    1    1    2    0    0  0.21132451766E+03 -0.15383912747E+02  0.40905198999E+03  0.47732928577E+03  0.12500000000E+03 0.  0.
         25    1    1    2    0    0 -0.21132451766E+03  0.15383912747E+02  0.41941096011E+03  0.48623581727E+03  0.12500000000E+03 0.  0.
</event>
<event>
 4    0  0.2210826E-002  0.2005800E+03  0.7546771E-02  0.1149251E+00
         21   -1    0    0  502  501  0.00000000000E+00  0.00000000000E+00  0.93910014769E+03  0.93910014769E+03  0.00000000000E+00 0.  1.
         21   -1    0    0  501  502 -0.00000000000E+00 -0.00000000000E+00 -0.42841382403E+02  0.42841382403E+02  0.00000000000E+00 0.  1.
         25    1    1    2    0    0 -0.14577461260E+03  0.57722739938E+02  0.43584268695E+03  0.47975618824E+03  0.12500000000E+03 0.  0.
         25    1    1    2    0    0  0.14577461260E+03 -0.57722739938E+02  0.46041607834E+03  0.50218534186E+03  0.12500000000E+03 0.  0.
</event>
<event>
 4    0  0.2210826E-002  0.1711628E+03  0.7546771E-02  0.1176641E+00
         21   -1    0    0  502  501  0.00000000000E+00  0.00000000000E+00  0.73692466443E+03  0.73692466443E+03  0.00000000000E+00 0. -1.
         21   -1    0    0  501  502 -0.00000000000E+00 -0.00000000000E+00 -0.39755348643E+02  0.39755348643E+02  0.00000000000E+00 0. -1.
         25    1    1    2    0    0 -0.91337142669E+02  0.67328058990E+02  0.28456669716E+03  0.33087572635E+03  0.12500000000E+03 0.  0.
         25    1    1    2    0    0  0.91337142669E+02 -0.67328058990E+02  0.41260261863E+03  0.44580428673E+03  0.12500000000E+03 0.  0.
</event>
<event>
 4    0  0.2210826E-002  0.1786669E+03  0.7546771E-02  0.1169100E+00
         21   -1    0    0  502  501  0.00000000000E+00  0.00000000000E+00  0.34193754288E+03  0.34193754288E+03  0.00000000000E+00 0. -1.
         21   -1    0    0  501  502 -0.00000000000E+00 -0.00000000000E+00 -0.93355808520E+02  0.93355808520E+02  0.00000000000E+00 0. -1.
         25    1    1    2    0    0  0.77347843039E+02 -0.96664442546E+01  0.11367705927E+01  0.14731741654E+03  0.12500000000E+03 0.  0.
         25    1    1    2    0    0 -0.77347843039E+02  0.96664442546E+01  0.24744496377E+03  0.28797593486E+03  0.12500000000E+03 0.  0.
</event>
<event>
 4    0  0.2210826E-002  0.2066347E+03  0.7546771E-02  0.1144259E+00
         21   -1    0    0  502  501  0.00000000000E+00  0.00000000000E+00  0.19603854402E+03  0.19603854402E+03  0.00000000000E+00 0.  1.
         21   -1    0    0  501  502 -0.00000000000E+00 -0.00000000000E+00 -0.21780363183E+03  0.21780363183E+03  0.00000000000E+00 0.  1.
         25    1    1    2    0    0 -0.63022880767E+01  0.12651020611E+03 -0.11604406141E+03  0.21245181871E+03  0.12500000000E+03 0.  0.
         25    1    1    2    0    0  0.63022880767E+01 -0.12651020611E+03  0.94278973603E+02  0.20139035714E+03  0.12500000000E+03 0.  0.
</event>
<event>
 4    0  0.2210826E-002  0.2142178E+03  0.7546771E-02  0.1138269E+00
         21   -1    0    0  502  501  0.00000000000E+00  0.00000000000E+00  0.10923567029E+04  0.10923567029E+04  0.00000000000E+00 0. -1.
         21   -1    0    0  501  502 -0.00000000000E+00 -0.00000000000E+00 -0.42009431645E+02  0.42009431645E+02  0.00000000000E+00 0. -1.
         25    1    1    2    0    0 -0.70647720893E+02 -0.12807429910E+03  0.27580990583E+03  0.33628890959E+03  0.12500000000E+03 0.  0.
         25    1    1    2    0    0  0.70647720893E+02  0.12807429910E+03  0.77453736538E+03  0.79807722491E+03  0.12500000000E+03 0.  0.
</event>
<event>
 4    0  0.2210826E-002  0.4024594E+03  0.7546771E-02  0.1042931E+00
         21   -1    0    0  502  501  0.00000000000E+00  0.00000000000E+00  0.23586277445E+03  0.23586277445E+03  0.00000000000E+00 0.  1.
         21   -1    0    0  501  502 -0.00000000000E+00 -0.00000000000E+00 -0.68672797746E+03  0.68672797746E+03  0.00000000000E+00 0.  1.
         25    1    1    2    0    0 -0.26106504580E+03  0.33405838238E+02  0.92782864918E+02  0.30578516672E+03  0.12500000000E+03 0.  0.
         25    1    1    2    0    0  0.26106504580E+03 -0.33405838238E+02 -0.54364806793E+03  0.61680558519E+03  0.12500000000E+03 0.  0.
</event>
<event>
 4    0  0.2210826E-002  0.2121100E+03  0.7546771E-02  0.1139906E+00
         21   -1    0    0  502  501  0.00000000000E+00  0.00000000000E+00  0.18690282498E+03  0.18690282498E+03  0.00000000000E+00 0.  1.
         21   -1    0    0  501  502 -0.00000000000E+00 -0.00000000000E+00 -0.24071674632E+03  0.24071674632E+03  0.00000000000E+00 0.  1.
         25    1    1    2    0    0  0.10875518886E+03  0.39278481720E+02  0.10057849695E+03  0.19776633757E+03  0.12500000000E+03 0.  0.
         25    1    1    2    0    0 -0.10875518886E+03 -0.39278481720E+02 -0.15439241829E+03  0.22985323372E+03  0.12500000000E+03 0.  0.
</event>
<event>
 4    0  0.2210826E-002  0.1780086E+03  0.7546771E-02  0.1169744E+00
         21   -1    0    0  502  501  0.00000000000E+00  0.00000000000E+00  0.19363784084E+03  0.19363784084E+03  0.00000000000E+00 0.  1.
         21   -1    0    0  501  502 -0.00000000000E+00 -0.00000000000E+00 -0.16364093153E+03  0.16364093153E+03  0.00000000000E+00 0.  1.
         25    1    1    2    0    0 -0.74537040363E+02  0.10143558380E+03  0.21095819231E+00  0.17739783694E+03  0.12500000000E+03 0.  0.
         25    1    1    2    0    0  0.74537040363E+02 -0.10143558380E+03  0.29785951123E+02  0.17988093543E+03  0.12500000000E+03 0.  0.
</event>
<event>
 4    0  0.2210826E-002  0.1980882E+03  0.7546771E-02  0.1151362E+00
         21   -1    0    0  502  501  0.00000000000E+00  0.00000000000E+00  0.25755828649E+03  0.25755828649E+03  0.00000000000E+00 0. -1.
         21   -1    0    0  501  502 -0.00000000000E+00 -0.00000000000E+00 -0.15234977958E+03  0.15234977958E+03  0.00000000000E+00 0. -1.
         25    1    1    2    0    0 -0.56709421450E+02  0.12537072970E+03 -0.18178686379E+02  0.18678662421E+03  0.12500000000E+03 0.  0.
         25    1    1    2    0    0  0.56709421450E+02 -0.12537072970E+03  0.12338719329E+03  0.22312144185E+03  0.12500000000E+03 0.  0.
</event>
<event>
 4    0  0.2210826E-002  0.2713748E+03  0.7546771E-02  0.1100495E+00
         21   -1    0    0  502  501  0.00000000000E+00  0.00000000000E+00  0.58056048679E+02  0.58056048679E+02  0.00000000000E+00 0. -1.
         21   -1    0    0  501  502 -0.00000000000E+00 -0.00000000000E+00 -0.12685030935E+04  0.12685030935E+04  0.00000000000E+00 0. -1.
         25    1    1    2    0    0  0.45163837895E+02  0.22154616683E+03 -0.80820245677E+03  0.84849200787E+03  0.12500000000E+03 0.  0.
         25    1    1    2    0    0 -0.45163837895E+02 -0.22154616683E+03 -0.40224458804E+03  0.47806713430E+03  0.12500000000E+03 0.  0.
</event>
<event>
 4    0  0.2210826E-002  0.2665859E+03  0.7546771E-02  0.1103250E+00
         21   -1    0    0  502  501  0.00000000000E+00  0.00000000000E+00  0.73217694585E+02  0.73217694585E+02  0.00000000000E+00 0.  1.
         21   -1    0    0  501  502 -0.00000000000E+00 -0.00000000000E+00 -0.97064010355E+03  0.97064010355E+03  0.00000000000E+00 0.  1.
         25    1    1    2    0    0  0.19496632419E+03 -0.15659057705E+02 -0.19204950585E+03  0.30127244540E+03  0.12500000000E+03 0.  0.
         25    1    1    2    0    0 -0.19496632419E+03  0.15659057705E+02 -0.70537290312E+03  0.74258535274E+03  0.12500000000E+03 0.  0.
</event>
<event>
 4    0  0.2210826E-002  0.2415276E+03  0.7546771E-02  0.1118779E+00
         21   -1    0    0  502  501  0.00000000000E+00  0.00000000000E+00  0.29610904767E+03  0.29610904767E+03  0.00000000000E+00 0.  1.
         21   -1    0    0  501  502 -0.00000000000E+00 -0.00000000000E+00 -0.19700710883E+03  0.19700710883E+03  0.00000000000E+00 0.  1.
         25    1    1    2    0    0 -0.68900051640E+02  0.13972188341E+03  0.18817758873E+03  0.27441797813E+03  0.12500000000E+03 0.  0.
         25    1    1    2    0    0  0.68900051640E+02 -0.13972188341E+03 -0.89075649896E+02  0.21869817837E+03  0.12500000000E+03 0.  0.
</event>
<event>
 4    0  0.2210826E-002  0.3908734E+03  0.7546771E-02  0.1046987E+00
         21   -1    0    0  502  501  0.00000000000E+00  0.00000000000E+00  0.34546057187E+03  0.34546057187E+03  0.00000000000E+00 0. -1.
         21   -1    0    0  501  502 -0.00000000000E+00 -0.00000000000E+00 -0.44225599645E+03  0.44225599645E+03  0.00000000000E+00 0. -1.
         25    1    1    2    0    0  0.31484082597E+03  0.19366721100E+03 -0.25303811462E+02  0.39102048181E+03  0.12500000000E+03 0.  0.
         25    1    1    2    0    0 -0.31484082597E+03 -0.19366721100E+03 -0.71491613118E+02  0.39669608652E+03  0.12500000000E+03 0.  0.
</event>
<event>
 4    0  0.2210826E-002  0.2309625E+03  0.7546771E-02  0.1125964E+00
         21   -1    0    0  502  501  0.00000000000E+00  0.00000000000E+00  0.70588124441E+02  0.70588124441E+02  0.00000000000E+00 0. -1.
         21   -1    0    0  501  502 -0.00000000000E+00 -0.00000000000E+00 -0.75570354928E+03  0.75570354928E+03  0.00000000000E+00 0. -1.
         25    1    1    2    0    0 -0.88002139833E+02  0.12340259194E+03 -0.55977816212E+03  0.59325303800E+03  0.12500000000E+03 0.  0.
         25    1    1    2    0    0  0.88002139833E+02 -0.12340259194E+03 -0.12533726272E+03  0.23303863572E+03  0.12500000000E+03 0.  0.
</event>
<event>
 4    0  0.2210826E-002  0.1851638E+03  0.7546771E-02  0.1162897E+00
         21   -1    0    0  502  501  0.00000000000E+00  0.00000000000E+00  0.10342504783E+03  0.10342504783E+03  0.00000000000E+00 0.  1.
         21   -1    0    0  501  502 -0.00000000000E+00 -0.00000000000E+00 -0.33150236130E+03  0.33150236130E+03  0.00000000000E+00 0.  1.
         25    1    1    2    0    0  0.11940538670E+03  0.41959740031E+02 -0.17440965498E+03  0.24912244762E+03  0.12500000000E+03 0.  0.
         25    1    1    2    0    0 -0.11940538670E+03 -0.41959740031E+02 -0.53667658490E+02  0.18580496152E+03  0.12500000000E+03 0.  0.
</event>
<event>
 4    0  0.2210826E-002  0.1844359E+03  0.7546771E-02  0.1163578E+00
         21   -1    0    0  502  501  0.00000000000E+00  0.00000000000E+00  0.13082764734E+03  0.13082764734E+03  0.00000000000E+00 0.  1.
         21   -1    0    0  501  502 -0.00000000000E+00 -0.00000000000E+00 -0.26001073376E+03  0.26001073376E+03  0.00000000000E+00 0.  1.
         25    1    1    2    0    0 -0.60766362336E+02  0.79093015966E+02  0.32768074013E+02  0.16323909654E+03  0.12500000000E+03 0.  0.
         25    1    1    2    0    0  0.60766362336E+02 -0.79093015966E+02 -0.16195116043E+03  0.22759928455E+03  0.12500000000E+03 0.  0.
</event>
<event>
 4    0  0.2210826E-002  0.1655641E+03  0.7546771E-02  0.1182554E+00
         21   -1    0    0  502  501  0.00000000000E+00  0.00000000000E+00  0.15407825561E+04  0.15407825561E+04  0.00000000000E+00 0. -1.
         21   -1    0    0  501  502 -0.00000000000E+00 -0.00000000000E+00 -0.17790621551E+02  0.17790621551E+02  0.00000000000E+00 0. -1.
         25    1    1    2    0    0  0.33331182519E+02  0.60003631137E+02  0.11574060078E+04  0.11661582527E+04  0.12500000000E+03 0.  0.
         25    1    1    2    0    0 -0.33331182519E+02 -0.60003631137E+02  0.36558592676E+03  0.39241492495E+03  0.12500000000E+03 0.  0.
</event>
<event>
 4    0  0.2210826E-002  0.3676018E+03  0.7546771E-02  0.1055614E+00
         21   -1    0    0  502  501  0.00000000000E+00  0.00000000000E+00  0.10120035781E+04  0.10120035781E+04  0.00000000000E+00 0.  1.
         21   -1    0    0  501  502 -0.00000000000E+00 -0.00000000000E+00 -0.13352824617E+03  0.13352824617E+03  0.00000000000E+00 0. -1.
         25    1    1    2    0    0  0.22560047189E+03 -0.24575812978E+03  0.58044650742E+03  0.68105490178E+03  0.12500000000E+03 0.  0.
         25    1    1    2    0    0 -0.22560047189E+03  0.24575812978E+03  0.29802882449E+03  0.46447692246E+03  0.12500000000E+03 0.  0.
</event>
<event>
 4    0  0.2210826E-002  0.2233271E+03  0.7546771E-02  0.1131427E+00
         21   -1    0    0  502  501  0.00000000000E+00  0.00000000000E+00  0.19262538414E+03  0.19262538414E+03  0.00000000000E+00 0. -1.
         21   -1    0    0  501  502 -0.00000000000E+00 -0.00000000000E+00 -0.25892222048E+03  0.25892222048E+03  0.00000000000E+00 0. -1.
         25    1    1    2    0    0  0.18192789839E+03 -0.32505481941E+02 -0.43034387144E+02  0.22722527379E+03  0.12500000000E+03 0.  0.
         25    1    1    2    0    0 -0.18192789839E+03  0.32505481941E+02 -0.23262449190E+02  0.22432233084E+03  0.12500000000E+03 0.  0.
</event>
<event>
 4    0  0.2210826E-002  0.1939267E+03  0.7546771E-02  0.1154967E+00
         21   -1    0    0  502  501  0.00000000000E+00  0.00000000000E+00  0.46148409972E+03  0.46148409972E+03  0.00000000000E+00 0.  1.
         21   -1    0    0  501  502 -0.00000000000E+00 -0.00000000000E+00 -0.81492668710E+02  0.81492668710E+02  0.00000000000E+00 0.  1.
         25    1    1    2    0    0  0.75458547515E+02 -0.92027503262E+02  0.31379085073E+03  0.35812393351E+03  0.12500000000E+03 0.  0.
         25    1    1    2    0    0 -0.75458547515E+02  0.92027503262E+02  0.66200580283E+02  0.18485283492E+03  0.12500000000E+03 0.  0.
</event>
<event>
 4    0  0.2210826E-002  0.1796465E+03  0.7546771E-02  0.1168146E+00
         21   -1    0    0  502  501  0.00000000000E+00  0.00000000000E+00  0.72053933349E+02  0.72053933349E+02  0.00000000000E+00 0.  1.
         21   -1    0    0  501  502 -0.00000000000E+00 -0.00000000000E+00 -0.44789879998E+03  0.44789879998E+03  0.00000000000E+00 0.  1.
         25    1    1    2    0    0  0.57502071041E+02 -0.21363572709E+02 -0.35219193734E+03  0.37871764039E+03  0.12500000000E+03 0.  0.
         25    1    1    2    0    0 -0.57502071041E+02  0.21363572709E+02 -0.23652929284E+02  0.14123509294E+03  0.12500000000E+03 0.  0.
</event>
<event>
 4    0  0.2210826E-002  0.1561450E+03  0.7546771E-02  0.1193119E+00
         21   -1    0    0  502  501  0.00000000000E+00  0.00000000000E+00  0.46981596833E+02  0.46981596833E+02  0.00000000000E+00 0. -1.
         21   -1    0    0  501  502 -0.00000000000E+00 -0.00000000000E+00 -0.51895344119E+03  0.51895344119E+03  0.00000000000E+00 0. -1.
         25    1    1    2    0    0 -0.25136366471E+02 -0.86575193071E+02 -0.28144170939E+03  0.32087620161E+03  0.12500000000E+03 0.  0.
         25    1    1    2    0    0  0.25136366471E+02  0.86575193071E+02 -0.19053013497E+03  0.24505883642E+03  0.12500000000E+03 0.  0.
</event>
<event>
 4    0  0.2210826E-002  0.2148913E+03  0.7546771E-02  0.1137750E+00
         21   -1    0    0  502  501  0.00000000000E+00  0.00000000000E+00  0.95544250686E+03  0.95544250686E+03  0.00000000000E+00 0.  1.
         21   -1    0    0  501  502 -0.00000000000E+00 -0.00000000000E+00 -0.48331796671E+02  0.48331796671E+02  0.00000000000E+00 0.  1.
         25    1    1    2    0    0 -0.11984174111E+03  0.31006876639E+02  0.74178204607E+03  0.76235757567E+03  0.12500000000E+03 0.  0.
         25    1    1    2    0    0  0.11984174111E+03 -0.31006876639E+02  0.16532866411E+03  0.24141672786E+03  0.12500000000E+03 0.  0.
</event>
<event>
 4    0  0.2210826E-002  0.3022145E+03  0.7546771E-02  0.1084139E+00
         21   -1    0    0  502  501  0.00000000000E+00  0.00000000000E+00  0.73718554584E+03  0.73718554584E+03  0.00000000000E+00 0.  1.
         21   -1    0    0  501  502 -0.00000000000E+00 -0.00000000000E+00 -0.12389502246E+03  0.12389502246E+03  0.00000000000E+00 0.  1.
         25    1    1    2    0    0 -0.20113412848E+03 -0.64311644239E+02  0.55795086072E+03  0.60952857866E+03  0.12500000000E+03 0.  0.
         25    1    1    2    0    0  0.20113412848E+03  0.64311644239E+02  0.55339662661E+02  0.25155198963E+03  0.12500000000E+03 0.  0.
</event>
<event>
 4    0  0.2210826E-002  0.2611249E+03  0.7546771E-02  0.1106469E+00
         21   -1    0    0  502  501  0.00000000000E+00  0.00000000000E+00  0.13813580577E+03  0.13813580577E+03  0.00000000000E+00 0.  1.
         21   -1    0    0  501  502 -0.00000000000E+00 -0.00000000000E+00 -0.49361731430E+03  0.49361731430E+03  0.00000000000E+00 0.  1.
         25    1    1    2    0    0  0.15172429022E+03  0.58634049236E+02 -0.37318117936E+03  0.42584903969E+03  0.12500000000E+03 0.  0.
         25    1    1    2    0    0 -0.15172429022E+03 -0.58634049236E+02  0.17699670832E+02  0.20590408038E+03  0.12500000000E+03 0.  0.
</event>
<event>
 4    0  0.2210826E-002  0.1797546E+03  0.7546771E-02  0.1168041E+00
         21   -1    0    0  502  501  0.00000000000E+00  0.00000000000E+00  0.89582373098E+03  0.89582373098E+03  0.00000000000E+00 0.  1.
         21   -1    0    0  501  502 -0.00000000000E+00 -0.00000000000E+00 -0.36069272845E+02  0.36069272845E+02  0.00000000000E+00 0.  1.
         25    1    1    2    0    0  0.72265920236E+02  0.93742795131E+02  0.56398400268E+03  0.58967196825E+03  0.12500000000E+03 0.  0.
         25    1    1    2    0    0 -0.72265920236E+02 -0.93742795131E+02  0.29577045546E+03  0.34222103557E+03  0.12500000000E+03 0.  0.
</event>
<event>
 4    0  0.2210826E-002  0.1685200E+03  0.7546771E-02  0.1179400E+00
         21   -1    0    0  502  501  0.00000000000E+00  0.00000000000E+00  0.61469523021E+02  0.61469523021E+02  0.00000000000E+00 0.  1.
         21   -1    0    0  501  502 -0.00000000000E+00 -0.00000000000E+00 -0.46200139355E+03  0.46200139355E+03  0.00000000000E+00 0.  1.
         25    1    1    2    0    0 -0.90745813088E+02  0.26271391115E+01 -0.95704782507E+02  0.18173087203E+03  0.12500000000E+03 0.  0.
         25    1    1    2    0    0  0.90745813088E+02 -0.26271391115E+01 -0.30482708802E+03  0.34174004454E+03  0.12500000000E+03 0.  0.
</event>
<event>
 4    0  0.2210826E-002  0.1836117E+03  0.7546771E-02  0.1164353E+00
         21   -1    0    0  502  501  0.00000000000E+00  0.00000000000E+00  0.24942477482E+02  0.24942477482E+02  0.00000000000E+00 0. -1.
         21   -1    0    0  501  502 -0.00000000000E+00 -0.00000000000E+00 -0.13516398046E+04  0.13516398046E+04  0.00000000000E+00 0. -1.
         25    1    1    2    0    0 -0.39492941076E+02 -0.99659805049E+01 -0.18286289025E+03  0.22521733902E+03  0.12500000000E+03 0.  0.
         25    1    1    2    0    0  0.39492941076E+02  0.99659805049E+01 -0.11438344369E+04  0.11513649431E+04  0.12500000000E+03 0.  0.
</event>
<event>
 4    0  0.2210826E-002  0.3590673E+03  0.7546771E-02  0.1058954E+00
         21   -1    0    0  502  501  0.00000000000E+00  0.00000000000E+00  0.13952273332E+03  0.13952273332E+03  0.00000000000E+00 0. -1.
         21   -1    0    0  501  502 -0.00000000000E+00 -0.00000000000E+00 -0.92407413187E+03  0.92407413187E+03  0.00000000000E+00 0. -1.
         25    1    1    2    0    0 -0.18677462891E+03  0.25120907988E+02  0.20799319759E+02  0.22709785055E+03  0.12500000000E+03 0.  0.
         25    1    1    2    0    0  0.18677462891E+03 -0.25120907988E+02 -0.80535071831E+03  0.83649901464E+03  0.12500000000E+03 0.  0.
</event>
<event>
 4    0  0.2210826E-002  0.1865642E+03  0.7546771E-02  0.1161597E+00
         21   -1    0    0  502  501  0.00000000000E+00  0.00000000000E+00  0.99167784150E+02  0.99167784150E+02  0.00000000000E+00 0. -1.
         21   -1    0    0  501  502 -0.00000000000E+00 -0.00000000000E+00 -0.35098284508E+03  0.35098284508E+03  0.00000000000E+00 0. -1.
         25    1    1    2    0    0  0.75727238229E+02  0.87650215750E+02 -0.21750051455E+03  0.27631259247E+03  0.12500000000E+03 0.  0.
         25    1    1    2    0    0 -0.75727238229E+02 -0.87650215750E+02 -0.34314546387E+02  0.17383803676E+03  0.12500000000E+03 0.  0.
</event>
<event>
 4    0  0.2210826E-002  0.2139592E+03  0.7546771E-02  0.1138469E+00
         21   -1    0    0  502  501  0.00000000000E+00  0.00000000000E+00  0.76236641586E+03  0.76236641586E+03  0.00000000000E+00 0.  1.
         21   -1    0    0  501  502 -0.00000000000E+00 -0.00000000000E+00 -0.60047921473E+02  0.60047921473E+02  0.00000000000E+00 0.  1.
         25    1    1    2    0    0 -0.11427481592E+03 -0.12046909731E+03  0.25350156997E+03  0.32781028498E+03  0.12500000000E+03 0.  0.
         25    1    1    2    0    0  0.11427481592E+03  0.12046909731E+03  0.44881692442E+03  0.49460405236E+03  0.12500000000E+03 0.  0.
</event>
<event>
 4    0  0.2210826E-002  0.2840502E+03  0.7546771E-02  0.1093497E+00
         21   -1    0    0  502  501  0.00000000000E+00  0.00000000000E+00  0.49879967120E+03  0.49879967120E+03  0.00000000000E+00 0.  1.
         21   -1    0    0  501  502 -0.00000000000E+00 -0.00000000000E+00 -0.16175738624E+03  0.16175738624E+03  0.00000000000E+00 0.  1.
         25    1    1    2    0    0  0.12918867437E+03  0.47652587192E+02 -0.81128634268E+02  0.20289735816E+03  0.12500000000E+03 0.  0.
         25    1    1    2    0    0 -0.12918867437E+03 -0.47652587192E+02  0.41817091923E+03  0.45765969928E+03  0.12500000000E+03 0.  0.
</event>
<event>
 4    0  0.2210826E-002  0.1884732E+03  0.7546771E-02  0.1159846E+00
         21   -1    0    0  502  501  0.00000000000E+00  0.00000000000E+00  0.31202308935E+03  0.31202308935E+03  0.00000000000E+00 0.  1.
         21   -1    0    0  501  502 -0.00000000000E+00 -0.00000000000E+00 -0.11384459456E+03  0.11384459456E+03  0.00000000000E+00 0.  1.
         25    1    1    2    0    0 -0.10792660507E+03 -0.67459908297E+01 -0.32386902604E+01  0.16531530356E+03  0.12500000000E+03 0.  0.
         25    1    1    2    0    0  0.10792660507E+03  0.67459908297E+01  0.20141718505E+03  0.26055238036E+03  0.12500000000E+03 0.  0.
</event>
<event>
 4    0  0.2210826E-002  0.2432718E+03  0.7546771E-02  0.1117632E+00
         21   -1    0    0  502  501  0.00000000000E+00  0.00000000000E+00  0.42968710780E+03  0.42968710780E+03  0.00000000000E+00 0.  1.
         21   -1    0    0  501  502 -0.00000000000E+00 -0.00000000000E+00 -0.13773085208E+03  0.13773085208E+03  0.00000000000E+00 0.  1.
         25    1    1    2    0    0 -0.18856717947E+02  0.16988525294E+03  0.28563096690E+03  0.35556521797E+03  0.12500000000E+03 0.  0.
         25    1    1    2    0    0  0.18856717947E+02 -0.16988525294E+03  0.63252888125E+01  0.21185274191E+03  0.12500000000E+03 0.  0.
</event>
<event>
 4    0  0.2210826E-002  0.1966052E+03  0.7546771E-02  0.1152635E+00
         21   -1    0    0  502  501  0.00000000000E+00  0.00000000000E+00  0.10154265632E+03  0.10154265632E+03  0.00000000000E+00 0.  1.
         21   -1    0    0  501  502 -0.00000000000E+00 -0.00000000000E+00 -0.38066385211E+03  0.38066385211E+03  0.00000000000E+00 0.  1.
         25    1    1    2    0    0 -0.19320574811E+02 -0.11355127324E+03 -0.18399000092E+02  0.17096987884E+03  0.12500000000E+03 0.  0.
         25    1    1    2    0    0  0.19320574811E+02  0.11355127324E+03 -0.26072219570E+03  0.31123662959E+03  0.12500000000E+03 0.  0.
</event>
<event>
 4    0  0.2210826E-002  0.1825726E+03  0.7546771E-02  0.1165336E+00
         21   -1    0    0  502  501  0.00000000000E+00  0.00000000000E+00  0.26543458210E+03  0.26543458210E+03  0.00000000000E+00 0.  1.
         21   -1    0    0  501  502 -0.00000000000E+00 -0.00000000000E+00 -0.12557802923E+03  0.12557802923E+03  0.00000000000E+00 0.  1.
         25    1    1    2    0    0 -0.62003031799E+02  0.10802712000E+03  0.12008113574E+03  0.21344487291E+03  0.12500000000E+03 0.  0.
         25    1    1    2    0    0  0.62003031799E+02 -0.10802712000E+03  0.19775417133E+02  0.17756773843E+03  0.12500000000E+03 0.  0.
</event>
<event>
 4    0  0.2210826E-002  0.1863122E+03  0.7546771E-02  0.1161830E+00
         21   -1    0    0  502  501  0.00000000000E+00  0.00000000000E+00  0.27390099274E+03  0.27390099274E+03  0.00000000000E+00 0. -1.
         21   -1    0    0  501  502 -0.00000000000E+00 -0.00000000000E+00 -0.12673281757E+03  0.12673281757E+03  0.00000000000E+00 0. -1.
         25    1    1    2    0    0  0.12400937999E+03  0.51025333623E+02  0.37838459782E+02  0.18718616411E+03  0.12500000000E+03 0.  0.
         25    1    1    2    0    0 -0.12400937999E+03 -0.51025333623E+02  0.10932971539E+03  0.21344764619E+03  0.12500000000E+03 0.  0.
</event>
<event>
 4    0  0.2210826E-002  0.1760694E+03  0.7546771E-02  0.1171662E+00
         21   -1    0    0  502  501  0.00000000000E+00  0.00000000000E+00  0.36479589417E+03  0.36479589417E+03  0.00000000000E+00 0.  1.
         21   -1    0    0  501  502 -0.00000000000E+00 -0.00000000000E+00 -0.84980234724E+02  0.84980234724E+02  0.00000000000E+00 0.  1.
         25    1    1    2    0    0  0.12125344259E+03 -0.18263643457E+02  0.16344158850E+03  0.23952893533E+03  0.12500000000E+03 0.  0.
         25    1    1    2    0    0 -0.12125344259E+03  0.18263643457E+02  0.11637407095E+03  0.21024719356E+03  0.12500000000E+03 0.  0.
</event>
<event>
 4    0  0.2210826E-002  0.3444016E+03  0.7546771E-02  0.1064937E+00
         21   -1    0    0  502  501  0.00000000000E+00  0.00000000000E+00  0.10921342744E+03  0.10921342744E+03  0.00000000000E+00 0.  1.
         21   -1    0    0  501  502 -0.00000000000E+00 -0.00000000000E+00 -0.10860610121E+04  0.10860610121E+04  0.00000000000E+00 0.  1.
         25    1    1    2    0    0 -0.25470548922E+03 -0.19512111310E+03 -0.47740632614E+03  0.58863310751E+03  0.12500000000E+03 0.  0.
         25    1    1    2    0    0  0.25470548922E+03  0.19512111310E+03 -0.49944125851E+03  0.60664133203E+03  0.12500000000E+03 0.  0.
</event>
<event>
 4    0  0.2210826E-002  0.2340019E+03  0.7546771E-02  0.1123854E+00
         21   -1    0    0  502  501  0.00000000000E+00  0.00000000000E+00  0.16954272850E+03  0.16954272850E+03  0.00000000000E+00 0. -1.
         21   -1    0    0  501  502 -0.00000000000E+00 -0.00000000000E+00 -0.32296796565E+03  0.32296796565E+03  0.00000000000E+00 0. -1.
         25    1    1    2    0    0  0.14355793540E+03 -0.11099997874E+03  0.61640018223E+01  0.22043790739E+03  0.12500000000E+03 0.  0.
         25    1    1    2    0    0 -0.14355793540E+03  0.11099997874E+03 -0.15958923897E+03  0.27207278676E+03  0.12500000000E+03 0.  0.
</event>
<event>
 4    0  0.2210826E-002  0.1968221E+03  0.7546771E-02  0.1152448E+00
         21   -1    0    0  502  501  0.00000000000E+00  0.00000000000E+00  0.41046178036E+02  0.41046178036E+02  0.00000000000E+00 0. -1.
         21   -1    0    0  501  502 -0.00000000000E+00 -0.00000000000E+00 -0.94378955545E+03  0.94378955545E+03  0.00000000000E+00 0. -1.
         25    1    1    2    0    0  0.10261738406E+03 -0.90839443973E+02 -0.61603436105E+03  0.64335485238E+03  0.12500000000E+03 0.  0.
         25    1    1    2    0    0 -0.10261738406E+03  0.90839443973E+02 -0.28670901636E+03  0.34148088110E+03  0.12500000000E+03 0.  0.
</event>
<event>
 4    0  0.2210826E-002  0.2543990E+03  0.7546771E-02  0.1110556E+00
         21   -1    0    0  502  501  0.00000000000E+00  0.00000000000E+00  0.13127005306E+03  0.13127005306E+03  0.00000000000E+00 0.  1.
         21   -1    0    0  501  502 -0.00000000000E+00 -0.00000000000E+00 -0.49302074737E+03  0.49302074737E+03  0.00000000000E+00 0.  1.
         25    1    1    2    0    0 -0.18901239240E+03 -0.51745594094E+02 -0.30774037386E+03  0.38565843527E+03  0.12500000000E+03 0.  0.
         25    1    1    2    0    0  0.18901239240E+03  0.51745594094E+02 -0.54010320439E+02  0.23863236516E+03  0.12500000000E+03 0.  0.
</event>
<event>
 4    0  0.2210826E-002  0.2354981E+03  0.7546771E-02  0.1122829E+00
         21   -1    0    0  502  501  0.00000000000E+00  0.00000000000E+00  0.47597835465E+03  0.47597835465E+03  0.00000000000E+00 0.  1.
         21   -1    0    0  501  502 -0.00000000000E+00 -0.00000000000E+00 -0.11651651293E+03  0.11651651293E+03  0.00000000000E+00 0.  1.
         25    1    1    2    0    0 -0.71973762756E+02 -0.18020204702E+03  0.12097810010E+03  0.26060257286E+03  0.12500000000E+03 0.  0.
         25    1    1    2    0    0  0.71973762756E+02  0.18020204702E+03  0.23848374162E+03  0.33189229472E+03  0.12500000000E+03 0.  0.
</event>
<event>
 4    0  0.2210826E-002  0.2602882E+03  0.7546771E-02  0.1106970E+00
         21   -1    0    0  502  501  0.00000000000E+00  0.00000000000E+00  0.20216839146E+03  0.20216839146E+03  0.00000000000E+00 0. -1.
         21   -1    0    0  501  502 -0.00000000000E+00 -0.00000000000E+00 -0.33511629876E+03  0.33511629876E+03  0.00000000000E+00 0. -1.
         25    1    1    2    0    0 -0.13839245836E+03 -0.12865127739E+03 -0.19873252466E+03  0.30136894343E+03  0.12500000000E+03 0.  0.
         25    1    1    2    0    0  0.13839245836E+03  0.12865127739E+03  0.65784617358E+02  0.23591574679E+03  0.12500000000E+03 0.  0.
</event>
<event>
 4    0  0.2210826E-002  0.1967441E+03  0.7546771E-02  0.1152515E+00
         21   -1    0    0  502  501  0.00000000000E+00  0.00000000000E+00  0.94041482855E+02  0.94041482855E+02  0.00000000000E+00 0. -1.
         21   -1    0    0  501  502 -0.00000000000E+00 -0.00000000000E+00 -0.41160833756E+03  0.41160833756E+03  0.00000000000E+00 0.  1.
         25    1    1    2    0    0 -0.88938345496E+02  0.11412621945E+03 -0.99220069808E+02  0.21541691094E+03  0.12500000000E+03 0.  0.
         25    1    1    2    0    0  0.88938345496E+02 -0.11412621945E+03 -0.21834678489E+03  0.29023290947E+03  0.12500000000E+03 0.  0.
</event>
<event>
 4    0  0.2210826E-002  0.2745849E+03  0.7546771E-02  0.1098684E+00
         21   -1    0    0  502  501  0.00000000000E+00  0.00000000000E+00  0.13143897568E+04  0.13143897568E+04  0.00000000000E+00 0. -1.
         21   -1    0    0  501  502 -0.00000000000E+00 -0.00000000000E+00 -0.57362620696E+02  0.57362620696E+02  0.00000000000E+00 0. -1.
         25    1    1    2    0    0  0.25059862508E+01  0.18860346425E+03  0.23998260828E+03  0.32983965645E+03  0.12500000000E+03 0.  0.
         25    1    1    2    0    0 -0.25059862508E+01 -0.18860346425E+03  0.10170445278E+04  0.10419127210E+04  0.12500000000E+03 0.  0.
</event>
<event>
 4    0  0.2210826E-002  0.2754151E+03  0.7546771E-02  0.1098220E+00
         21   -1    0    0  502  501  0.00000000000E+00  0.00000000000E+00  0.78661025870E+02  0.78661025870E+02  0.00000000000E+00 0.  1.
         21   -1    0    0  501  502 -0.00000000000E+00 -0.00000000000E+00 -0.96430804241E+03  0.96430804241E+03  0.00000000000E+00 0.  1.
         25    1    1    2    0    0  0.20373285936E+03  0.50602825035E+02 -0.68352806017E+03  0.72588107354E+03  0.12500000000E+03 0.  0.
         25    1    1    2    0    0 -0.20373285936E+03 -0.50602825035E+02 -0.20211895637E+03  0.31708799474E+03  0.12500000000E+03 0.  0.
</event>
<event>
 4    0  0.2210826E-002  0.2365546E+03  0.7546771E-02  0.1122110E+00
         21   -1    0    0  502  501  0.00000000000E+00  0.00000000000E+00  0.13749914399E+04  0.13749914399E+04  0.00000000000E+00 0.  1.
         21   -1    0    0  501  502 -0.00000000000E+00 -0.00000000000E+00 -0.40697039111E+02  0.40697039111E+02  0.00000000000E+00 0.  1.
         25    1    1    2    0    0  0.13129333699E+02  0.96656433086E+02  0.14184384006E+03  0.21274285046E+03  0.12500000000E+03 0.  0.
         25    1    1    2    0    0 -0.13129333699E+02 -0.96656433086E+02  0.11924505607E+04  0.12029456285E+04  0.12500000000E+03 0.  0.
</event>
<event>
 4    0  0.2210826E-002  0.2396699E+03  0.7546771E-02  0.1120013E+00
         21   -1    0    0  502  501  0.00000000000E+00  0.00000000000E+00  0.46715841533E+03  0.46715841533E+03  0.00000000000E+00 0. -1.
         21   -1    0    0  501  502 -0.00000000000E+00 -0.00000000000E+00 -0.12295967562E+03  0.12295967562E+03  0.00000000000E+00 0. -1.
         25    1    1    2    0    0  0.28642713556E+02  0.19253305210E+03  0.94948531361E+02  0.25005920259E+03  0.12500000000E+03 0.  0.
         25    1    1    2    0    0 -0.28642713556E+02 -0.19253305210E+03  0.24925020835E+03  0.34005888837E+03  0.12500000000E+03 0.  0.
</event>
<event>
 4    0  0.2210826E-002  0.1871192E+03  0.7546771E-02  0.1161086E+00
         21   -1    0    0  502  501  0.00000000000E+00  0.00000000000E+00  0.89942790923E+02  0.89942790923E+02  0.00000000000E+00 0.  1.
         21   -1    0    0  501  502 -0.00000000000E+00 -0.00000000000E+00 -0.38928756003E+03  0.38928756003E+03  0.00000000000E+00 0.  1.
         25    1    1    2    0    0 -0.78842863957E+02 -0.11477068556E+03 -0.15008167859E+03  0.23987083547E+03  0.12500000000E+03 0.  0.
         25    1    1    2    0    0  0.78842863957E+02  0.11477068556E+03 -0.14926309052E+03  0.23935951549E+03  0.12500000000E+03 0.  0.
</event>
<event>
 4    0  0.2210826E-002  0.1754827E+03  0.7546771E-02  0.1172248E+00
         21   -1    0    0  502  501  0.00000000000E+00  0.00000000000E+00  0.10654590262E+04  0.10654590262E+04  0.00000000000E+00 0. -1.
         21   -1    0    0  501  502 -0.00000000000E+00 -0.00000000000E+00 -0.28902279689E+02  0.28902279689E+02  0.00000000000E+00 0. -1.
         25    1    1    2    0    0 -0.70696323600E+02 -0.57958995492E+02  0.77563358730E+03  0.79094227165E+03  0.12500000000E+03 0.  0.
         25    1    1    2    0    0  0.70696323600E+02  0.57958995492E+02  0.26092315923E+03  0.30341903426E+03  0.12500000000E+03 0.  0.
</event>
<event>
 4    0  0.2210826E-002  0.1945427E+03  0.7546771E-02  0.1154427E+00
         21   -1    0    0  502  501  0.00000000000E+00  0.00000000000E+00  0.19386920353E+02  0.19386920353E+02  0.00000000000E+00 0.  1.
         21   -1    0    0  501  502 -0.00000000000E+00 -0.00000000000E+00 -0.19521851828E+04  0.19521851828E+04  0.00000000000E+00 0.  1.
         25    1    1    2    0    0 -0.10550947940E+03 -0.90126545318E+02 -0.12424015748E+04  0.12563605046E+04  0.12500000000E+03 0.  0.
         25    1    1    2    0    0  0.10550947940E+03  0.90126545318E+02 -0.69039668768E+03  0.71521159861E+03  0.12500000000E+03 0.  0.
</event>
<event>
 4    0  0.2210826E-002  0.2311776E+03  0.7546771E-02  0.1125814E+00
         21   -1    0    0  502  501  0.00000000000E+00  0.00000000000E+00  0.23099527398E+03  0.23099527398E+03  0.00000000000E+00 0. -1.
         21   -1    0    0  501  502 -0.00000000000E+00 -0.00000000000E+00 -0.23136003096E+03  0.23136003096E+03  0.00000000000E+00 0. -1.
         25    1    1    2    0    0  0.11799497959E+03  0.10846034507E+03 -0.11032601030E+03  0.23126454594E+03  0.12500000000E+03 0.  0.
         25    1    1    2    0    0 -0.11799497959E+03 -0.10846034507E+03  0.10996125332E+03  0.23109075900E+03  0.12500000000E+03 0.  0.
</event>
<event>
 4    0  0.2210826E-002  0.3381136E+03  0.7546771E-02  0.1067602E+00
         21   -1    0    0  502  501  0.00000000000E+00  0.00000000000E+00  0.11124830926E+04  0.11124830926E+04  0.00000000000E+00 0. -1.
         21   -1    0    0  501  502 -0.00000000000E+00 -0.00000000000E+00 -0.10276182880E+03  0.10276182880E+03  0.00000000000E+00 0. -1.
         25    1    1    2    0    0 -0.23174443605E+03 -0.54110028698E+02  0.87342921751E+03  0.91385829144E+03  0.12500000000E+03 0.  0.
         25    1    1    2    0    0  0.23174443605E+03  0.54110028698E+02  0.13629204634E+03  0.30138663000E+03  0.12500000000E+03 0.  0.
</event>
<event>
 4    0  0.2210826E-002  0.1791071E+03  0.7546771E-02  0.1168670E+00
         21   -1    0    0  502  501  0.00000000000E+00  0.00000000000E+00  0.21027195035E+03  0.21027195035E+03  0.00000000000E+00 0.  1.
         21   -1    0    0  501  502 -0.00000000000E+00 -0.00000000000E+00 -0.15256118626E+03  0.15256118626E+03  0.00000000000E+00 0.  1.
         25    1    1    2    0    0  0.82089586828E+02  0.11039956254E+02 -0.70355340137E+02  0.16563651405E+03  0.12500000000E+03 0.  0.
         25    1    1    2    0    0 -0.82089586828E+02 -0.11039956254E+02  0.12806610422E+03  0.19719662256E+03  0.12500000000E+03 0.  0.
</event>
<event>
 4    0  0.2210826E-002  0.2942208E+03  0.7546771E-02  0.1088166E+00
         21   -1    0    0  502  501  0.00000000000E+00  0.00000000000E+00  0.25497396840E+03  0.25497396840E+03  0.00000000000E+00 0.  1.
         21   -1    0    0  501  502 -0.00000000000E+00 -0.00000000000E+00 -0.33950865401E+03  0.33950865401E+03  0.00000000000E+00 0. -1.
         25    1    1    2    0    0 -0.10880791341E+02 -0.26340498189E+03 -0.80608145811E+02  0.30269332546E+03  0.12500000000E+03 0.  0.
         25    1    1    2    0    0  0.10880791341E+02  0.26340498189E+03 -0.39265397937E+01  0.29178929696E+03  0.12500000000E+03 0.  0.
</event>
<event>
 4    0  0.2210826E-002  0.2448906E+03  0.7546771E-02  0.1116577E+00
         21   -1    0    0  502  501  0.00000000000E+00  0.00000000000E+00  0.12860844082E+03  0.12860844082E+03  0.00000000000E+00 0.  1.
         21   -1    0    0  501  502 -0.00000000000E+00 -0.00000000000E+00 -0.46630991073E+03  0.46630991073E+03  0.00000000000E+00 0.  1.
         25    1    1    2    0    0 -0.14873686742E+03 -0.69543610088E+02 -0.86837880412E+01  0.20654146704E+03  0.12500000000E+03 0.  0.
         25    1    1    2    0    0  0.14873686742E+03  0.69543610088E+02 -0.32901768187E+03  0.38837688450E+03  0.12500000000E+03 0.  0.
</event>
<event>
 4    0  0.2210826E-002  0.2733189E+03  0.7546771E-02  0.1099395E+00
         21   -1    0    0  502  501  0.00000000000E+00  0.00000000000E+00  0.56766455021E+02  0.56766455021E+02  0.00000000000E+00 0. -1.
         21   -1    0    0  501  502 -0.00000000000E+00 -0.00000000000E+00 -0.13159745968E+04  0.13159745968E+04  0.00000000000E+00 0. -1.
         25    1    1    2    0    0  0.22660026420E+03  0.29237823606E+02 -0.83783579693E+03  0.87738039224E+03  0.12500000000E+03 0.  0.
         25    1    1    2    0    0 -0.22660026420E+03 -0.29237823606E+02 -0.42137234487E+03  0.49536065961E+03  0.12500000000E+03 0.  0.
</event>
<event>
 4    0  0.2210826E-002  0.2831659E+03  0.7546771E-02  0.1093972E+00
         21   -1    0    0  502  501  0.00000000000E+00  0.00000000000E+00  0.18645737731E+03  0.18645737731E+03  0.00000000000E+00 0.  1.
         21   -1    0    0  501  502 -0.00000000000E+00 -0.00000000000E+00 -0.43003356607E+03  0.43003356607E+03  0.00000000000E+00 0.  1.
         25    1    1    2    0    0  0.18395748218E+03 -0.15041483860E+03 -0.21971662162E+03  0.34693713082E+03  0.12500000000E+03 0.  0.
         25    1    1    2    0    0 -0.18395748218E+03  0.15041483860E+03 -0.23859567139E+02  0.26955381256E+03  0.12500000000E+03 0.  0.
</event>
<event>
 4    0  0.2210826E-002  0.2003543E+03  0.7546771E-02  0.1149440E+00
         21   -1    0    0  502  501  0.00000000000E+00  0.00000000000E+00  0.14677403479E+03  0.14677403479E+03  0.00000000000E+00 0. -1.
         21   -1    0    0  501  502 -0.00000000000E+00 -0.00000000000E+00 -0.27349428264E+03  0.27349428264E+03  0.00000000000E+00 0. -1.
         25    1    1    2    0    0  0.77015310260E+02  0.96009069226E+02  0.38151503457E+02  0.17952614463E+03  0.12500000000E+03 0.  0.
         25    1    1    2    0    0 -0.77015310260E+02 -0.96009069226E+02 -0.16487175131E+03  0.24074217281E+03  0.12500000000E+03 0.  0.
</event>
<event>
 4    0  0.2210826E-002  0.1797199E+03  0.7546771E-02  0.1168074E+00
         21   -1    0    0  502  501  0.00000000000E+00  0.00000000000E+00  0.22469310377E+02  0.22469310377E+02  0.00000000000E+00 0.  1.
         21   -1    0    0  501  502 -0.00000000000E+00 -0.00000000000E+00 -0.14374822649E+04  0.14374822649E+04  0.00000000000E+00 0.  1.
         25    1    1    2    0    0 -0.20857132787E+02  0.33465595194E+02 -0.20807290240E+03  0.24591522678E+03  0.12500000000E+03 0.  0.
         25    1    1    2    0    0  0.20857132787E+02 -0.33465595194E+02 -0.12069400521E+04  0.12140363485E+04  0.12500000000E+03 0.  0.
</event>
<event>
 4    0  0.2210826E-002  0.4568107E+03  0.7546771E-02  0.1025710E+00
         21   -1    0    0  502  501  0.00000000000E+00  0.00000000000E+00  0.13256774915E+04  0.13256774915E+04  0.00000000000E+00 0.  1.
         21   -1    0    0  501  502 -0.00000000000E+00 -0.00000000000E+00 -0.15741082327E+03  0.15741082327E+03  0.00000000000E+00 0.  1.
         25    1    1    2    0    0 -0.98782793428E+02 -0.12731567761E+03  0.12476743530E+04  0.12642324205E+04  0.12500000000E+03 0.  0.
         25    1    1    2    0    0  0.98782793428E+02  0.12731567761E+03 -0.79407684752E+02  0.21885589423E+03  0.12500000000E+03 0.  0.
</event>
<event>
 4    0  0.2210826E-002  0.2230297E+03  0.7546771E-02  0.1131644E+00
         21   -1    0    0  502  501  0.00000000000E+00  0.00000000000E+00  0.11240499587E+04  0.11240499587E+04  0.00000000000E+00 0. -1.
         21   -1    0    0  501  502 -0.00000000000E+00 -0.00000000000E+00 -0.44252682400E+02  0.44252682400E+02  0.00000000000E+00 0. -1.
         25    1    1    2    0    0 -0.30583530260E+02 -0.59255046963E+02  0.99105464705E+03  0.10011297750E+04  0.12500000000E+03 0.  0.
         25    1    1    2    0    0  0.30583530260E+02  0.59255046963E+02  0.88742629208E+02  0.16717286608E+03  0.12500000000E+03 0.  0.
</event>
<event>
 4    0  0.2210826E-002  0.1915711E+03  0.7546771E-02  0.1157052E+00
         21   -1    0    0  502  501  0.00000000000E+00  0.00000000000E+00  0.50238951776E+02  0.50238951776E+02  0.00000000000E+00 0.  1.
         21   -1    0    0  501  502 -0.00000000000E+00 -0.00000000000E+00 -0.73049866812E+03  0.73049866812E+03  0.00000000000E+00 0.  1.
         25    1    1    2    0    0 -0.44356951514E+02 -0.13089563804E+03 -0.24961091270E+03  0.31149930168E+03  0.12500000000E+03 0.  0.
         25    1    1    2    0    0  0.44356951514E+02  0.13089563804E+03 -0.43064880364E+03  0.46923831822E+03  0.12500000000E+03 0.  0.
</event>
<event>
 4    0  0.2210826E-002  0.2529934E+03  0.7546771E-02  0.1111428E+00
         21   -1    0    0  502  501  0.00000000000E+00  0.00000000000E+00  0.97398758748E+02  0.97398758748E+02  0.00000000000E+00 0.  1.
         21   -1    0    0  501  502 -0.00000000000E+00 -0.00000000000E+00 -0.65715045053E+03  0.65715045053E+03  0.00000000000E+00 0.  1.
         25    1    1    2    0    0 -0.57888976265E+02 -0.21217004508E+03 -0.28532992174E+03  0.38132063391E+03  0.12500000000E+03 0.  0.
         25    1    1    2    0    0  0.57888976265E+02  0.21217004508E+03 -0.27442177004E+03  0.37322857537E+03  0.12500000000E+03 0.  0.
</event>
<event>
 4    0  0.2210826E-002  0.2139707E+03  0.7546771E-02  0.1138460E+00
         21   -1    0    0  502  501  0.00000000000E+00  0.00000000000E+00  0.38243895582E+03  0.38243895582E+03  0.00000000000E+00 0. -1.
         21   -1    0    0  501  502 -0.00000000000E+00 -0.00000000000E+00 -0.11971442018E+03  0.11971442018E+03  0.00000000000E+00 0. -1.
         25    1    1    2    0    0  0.83445206175E+02 -0.10740568647E+03  0.25806608865E+03  0.31736759449E+03  0.12500000000E+03 0.  0.
         25    1    1    2    0    0 -0.83445206175E+02  0.10740568647E+03  0.46584469781E+01  0.18478578151E+03  0.12500000000E+03 0.  0.
</event>
<event>
 4    0  0.2210826E-002  0.1903692E+03  0.7546771E-02  0.1158129E+00
         21   -1    0    0  502  501  0.00000000000E+00  0.00000000000E+00  0.70527987309E+02  0.70527987309E+02  0.00000000000E+00 0.  1.
         21   -1    0    0  501  502 -0.00000000000E+00 -0.00000000000E+00 -0.51384489469E+03  0.51384489469E+03  0.00000000000E+00 0.  1.
         25    1    1    2    0    0 -0.29834093838E+02 -0.13486753417E+03 -0.16150285635E+03  0.24655120672E+03  0.12500000000E+03 0.  0.
         25    1    1    2    0    0  0.29834093838E+02  0.13486753417E+03 -0.28181405103E+03  0.33782167528E+03  0.12500000000E+03 0.  0.
</event>
<event>
 4    0  0.2210826E-002  0.2080196E+03  0.7546771E-02  0.1143144E+00
         21   -1    0    0  502  501  0.00000000000E+00  0.00000000000E+00  0.29045789850E+03  0.29045789850E+03  0.00000000000E+00 0.  1.
         21   -1    0    0  501  502 -0.00000000000E+00 -0.00000000000E+00 -0.14897911640E+03  0.14897911640E+03  0.00000000000E+00 0.  1.
         25    1    1    2    0    0 -0.67814718701E+02  0.12667567530E+03 -0.17642022342E+02  0.19126370209E+03  0.12500000000E+03 0.  0.
         25    1    1    2    0    0  0.67814718701E+02 -0.12667567530E+03  0.15912080444E+03  0.24817331281E+03  0.12500000000E+03 0.  0.
</event>
<event>
 4    0  0.2210826E-002  0.1925238E+03  0.7546771E-02  0.1156205E+00
         21   -1    0    0  502  501  0.00000000000E+00  0.00000000000E+00  0.53384366799E+03  0.53384366799E+03  0.00000000000E+00 0.  1.
         21   -1    0    0  501  502 -0.00000000000E+00 -0.00000000000E+00 -0.69431208558E+02  0.69431208558E+02  0.00000000000E+00 0.  1.
         25    1    1    2    0    0 -0.90481945235E+02  0.11434718571E+03  0.25311812756E+03  0.31773581447E+03  0.12500000000E+03 0.  0.
         25    1    1    2    0    0  0.90481945235E+02 -0.11434718571E+03  0.21129433186E+03  0.28553906208E+03  0.12500000000E+03 0.  0.
</event>
<event>
 4    0  0.2210826E-002  0.1779790E+03  0.7546771E-02  0.1169773E+00
         21   -1    0    0  502  501  0.00000000000E+00  0.00000000000E+00  0.12650251133E+03  0.12650251133E+03  0.00000000000E+00 0. -1.
         21   -1    0    0  501  502 -0.00000000000E+00 -0.00000000000E+00 -0.25040221593E+03  0.25040221593E+03  0.00000000000E+00 0. -1.
         25    1    1    2    0    0  0.26178238246E+02 -0.76776591893E+01  0.69053285176E+02  0.14538776703E+03  0.12500000000E+03 0.  0.
         25    1    1    2    0    0 -0.26178238246E+02  0.76776591893E+01 -0.19295298978E+03  0.23151696023E+03  0.12500000000E+03 0.  0.
</event>
<event>
 4    0  0.2210826E-002  0.3944983E+03  0.7546771E-02  0.1045702E+00
         21   -1    0    0  502  501  0.00000000000E+00  0.00000000000E+00  0.13384678334E+04  0.13384678334E+04  0.00000000000E+00 0. -1.
         21   -1    0    0  501  502 -0.00000000000E+00 -0.00000000000E+00 -0.11627392137E+03  0.11627392137E+03  0.00000000000E+00 0. -1.
         25    1    1    2    0    0  0.22311464971E+03 -0.28642342408E+03  0.77791006313E+03  0.86751806385E+03  0.12500000000E+03 0.  0.
         25    1    1    2    0    0 -0.22311464971E+03  0.28642342408E+03  0.44428384888E+03  0.58722369090E+03  0.12500000000E+03 0.  0.
</event>
<event>
 4    0  0.2210826E-002  0.2163250E+03  0.7546771E-02  0.1136653E+00
         21   -1    0    0  502  501  0.00000000000E+00  0.00000000000E+00  0.77978224790E+03  0.77978224790E+03  0.00000000000E+00 0. -1.
         21   -1    0    0  501  502 -0.00000000000E+00 -0.00000000000E+00 -0.60012279039E+02  0.60012279039E+02  0.00000000000E+00 0. -1.
         25    1    1    2    0    0 -0.10608673612E+03 -0.12048337988E+02  0.63282114883E+03  0.65382502586E+03  0.12500000000E+03 0.  0.
         25    1    1    2    0    0  0.10608673612E+03  0.12048337988E+02  0.86948820028E+02  0.18596950108E+03  0.12500000000E+03 0.  0.
</event>
<event>
 4    0  0.2210826E-002  0.1860875E+03  0.7546771E-02  0.1162038E+00
         21   -1    0    0  502  501  0.00000000000E+00  0.00000000000E+00  0.19097358168E+03  0.19097358168E+03  0.00000000000E+00 0. -1.
         21   -1    0    0  501  502 -0.00000000000E+00 -0.00000000000E+00 -0.18132644286E+03  0.18132644286E+03  0.00000000000E+00 0. -1.
         25    1    1    2    0    0  0.11901725221E+03 -0.69551704148E+02  0.38160705081E+01  0.18612390568E+03  0.12500000000E+03 0.  0.
         25    1    1    2    0    0 -0.11901725221E+03  0.69551704148E+02  0.58310683109E+01  0.18617611885E+03  0.12500000000E+03 0.  0.
</event>
<event>
 4    0  0.2210826E-002  0.2459689E+03  0.7546771E-02  0.1115879E+00
         21   -1    0    0  502  501  0.00000000000E+00  0.00000000000E+00  0.13577277030E+03  0.13577277030E+03  0.00000000000E+00 0.  1.
         21   -1    0    0  501  502 -0.00000000000E+00 -0.00000000000E+00 -0.44560249117E+03  0.44560249117E+03  0.00000000000E+00 0.  1.
         25    1    1    2    0    0 -0.16124285025E+03 -0.56371257084E+02 -0.30298871477E+03  0.36959996842E+03  0.12500000000E+03 0.  0.
         25    1    1    2    0    0  0.16124285025E+03  0.56371257084E+02 -0.68410061039E+01  0.21177529305E+03  0.12500000000E+03 0.  0.
</event>
<event>
 4    0  0.2210826E-002  0.2284754E+03  0.7546771E-02  0.1127717E+00
         21   -1    0    0  502  501  0.00000000000E+00  0.00000000000E+00  0.50582496688E+02  0.50582496688E+02  0.00000000000E+00 0. -1.
         21   -1    0    0  501  502 -0.00000000000E+00 -0.00000000000E+00 -0.10319973270E+04  0.10319973270E+04  0.00000000000E+00 0. -1.
         25    1    1    2    0    0 -0.18401252024E+03 -0.22756478649E+02 -0.60176764290E+03  0.64197177583E+03  0.12500000000E+03 0.  0.
         25    1    1    2    0    0  0.18401252024E+03  0.22756478649E+02 -0.37964718739E+03  0.44060804784E+03  0.12500000000E+03 0.  0.
</event>
<event>
 4    0  0.2210826E-002  0.1954581E+03  0.7546771E-02  0.1153629E+00
         21   -1    0    0  502  501  0.00000000000E+00  0.00000000000E+00  0.23225714986E+03  0.23225714986E+03  0.00000000000E+00 0. -1.
         21   -1    0    0  501  502 -0.00000000000E+00 -0.00000000000E+00 -0.16448950532E+03  0.16448950532E+03  0.00000000000E+00 0. -1.
         25    1    1    2    0    0 -0.81837060064E+02 -0.86670680471E+02  0.12673468453E+03  0.21423303087E+03  0.12500000000E+03 0.  0.
         25    1    1    2    0    0  0.81837060064E+02  0.86670680471E+02 -0.58967039994E+02  0.18251362431E+03  0.12500000000E+03 0.  0.
</event>
<event>
 4    0  0.2210826E-002  0.1603882E+03  0.7546771E-02  0.1188259E+00
         21   -1    0    0  502  501  0.00000000000E+00  0.00000000000E+00  0.38542976814E+03  0.38542976814E+03  0.00000000000E+00 0. -1.
         21   -1    0    0  501  502 -0.00000000000E+00 -0.00000000000E+00 -0.66742068847E+02  0.66742068847E+02  0.00000000000E+00 0. -1.
         25    1    1    2    0    0 -0.54593401886E+02  0.82055808093E+02  0.18703070903E+03  0.24559943259E+03  0.12500000000E+03 0.  0.
         25    1    1    2    0    0  0.54593401886E+02 -0.82055808093E+02  0.13165699027E+03  0.20657240440E+03  0.12500000000E+03 0.  0.
</event>
<event>
 4    0  0.2210826E-002  0.1891647E+03  0.7546771E-02  0.1159217E+00
         21   -1    0    0  502  501  0.00000000000E+00  0.00000000000E+00  0.95654173574E+02  0.95654173574E+02  0.00000000000E+00 0.  1.
         21   -1    0    0  501  502 -0.00000000000E+00 -0.00000000000E+00 -0.37409015421E+03  0.37409015421E+03  0.00000000000E+00 0.  1.
         25    1    1    2    0    0  0.63047554920E+02  0.98097001552E+02 -0.23978424128E+03  0.29448174521E+03  0.12500000000E+03 0.  0.
         25    1    1    2    0    0 -0.63047554920E+02 -0.98097001552E+02 -0.38651739353E+02  0.17526258257E+03  0.12500000000E+03 0.  0.
</event>
<event>
 4    0  0.2210826E-002  0.1893640E+03  0.7546771E-02  0.1159036E+00
         21   -1    0    0  502  501  0.00000000000E+00  0.00000000000E+00  0.53426834184E+02  0.53426834184E+02  0.00000000000E+00 0. -1.
         21   -1    0    0  501  502 -0.00000000000E+00 -0.00000000000E+00 -0.67117408970E+03  0.67117408970E+03  0.00000000000E+00 0. -1.
         25    1    1    2    0    0  0.93047959977E+02 -0.10453940756E+03 -0.26019670579E+03  0.32080170869E+03  0.12500000000E+03 0.  0.
         25    1    1    2    0    0 -0.93047959977E+02  0.10453940756E+03 -0.35755054972E+03  0.40379921520E+03  0.12500000000E+03 0.  0.
</event>
<event>
 4    0  0.2210826E-002  0.2047512E+03  0.7546771E-02  0.1145791E+00
         21   -1    0    0  502  501  0.00000000000E+00  0.00000000000E+00  0.41226649549E+02  0.41226649549E+02  0.00000000000E+00 0. -1.
         21   -1    0    0  501  502 -0.00000000000E+00 -0.00000000000E+00 -0.10168919437E+04  0.10168919437E+04  0.00000000000E+00 0. -1.
         25    1    1    2    0    0  0.12892200946E+03  0.98292413132E+02 -0.49809204865E+03  0.53851924008E+03  0.12500000000E+03 0.  0.
         25    1    1    2    0    0 -0.12892200946E+03 -0.98292413132E+02 -0.47757324552E+03  0.51959935320E+03  0.12500000000E+03 0.  0.
</event>
<event>
 4    0  0.2210826E-002  0.1963593E+03  0.7546771E-02  0.1152847E+00
         21   -1    0    0  502  501  0.00000000000E+00  0.00000000000E+00  0.96268838703E+03  0.96268838703E+03  0.00000000000E+00 0.  1.
         21   -1    0    0  501  502 -0.00000000000E+00 -0.00000000000E+00 -0.40051373728E+02  0.40051373728E+02  0.00000000000E+00 0.  1.
         25    1    1    2    0    0 -0.10962784381E+03  0.10346761802E+03  0.49815908452E+03  0.53526748977E+03  0.12500000000E+03 0.  0.
         25    1    1    2    0    0  0.10962784381E+03 -0.10346761802E+03  0.42447792878E+03  0.46747227098E+03  0.12500000000E+03 0.  0.
</event>
<event>
 4    0  0.2210826E-002  0.2381801E+03  0.7546771E-02  0.1121011E+00
         21   -1    0    0  502  501  0.00000000000E+00  0.00000000000E+00  0.13008846988E+04  0.13008846988E+04  0.00000000000E+00 0.  1.
         21   -1    0    0  501  502 -0.00000000000E+00 -0.00000000000E+00 -0.43608615561E+02  0.43608615561E+02  0.00000000000E+00 0.  1.
         25    1    1    2    0    0  0.67913287450E+02 -0.11321175240E+03  0.10629224065E+04  0.10783590115E+04  0.12500000000E+03 0.  0.
         25    1    1    2    0    0 -0.67913287450E+02  0.11321175240E+03  0.19435367680E+03  0.26613430289E+03  0.12500000000E+03 0.  0.
</event>
<event>
 4    0  0.2210826E-002  0.3916232E+03  0.7546771E-02  0.1046719E+00
         21   -1    0    0  502  501  0.00000000000E+00  0.00000000000E+00  0.12387377825E+03  0.12387377825E+03  0.00000000000E+00 0.  1.
         21   -1    0    0  501  502 -0.00000000000E+00 -0.00000000000E+00 -0.12381051135E+04  0.12381051135E+04  0.00000000000E+00 0.  1.
         25    1    1    2    0    0 -0.42531508845E+02 -0.94107260663E+02 -0.11769965335E+04  0.11881123456E+04  0.12500000000E+03 0.  0.
         25    1    1    2    0    0  0.42531508845E+02  0.94107260663E+02  0.62765198310E+02  0.17386654616E+03  0.12500000000E+03 0.  0.
</event>
<event>
 4    0  0.2210826E-002  0.1553791E+03  0.7546771E-02  0.1194015E+00
         21   -1    0    0  502  501  0.00000000000E+00  0.00000000000E+00  0.18528529959E+03  0.18528529959E+03  0.00000000000E+00 0.  1.
         21   -1    0    0  501  502 -0.00000000000E+00 -0.00000000000E+00 -0.13029990470E+03  0.13029990470E+03  0.00000000000E+00 0.  1.
         25    1    1    2    0    0 -0.58472988249E+02  0.33062002765E+02 -0.36779163646E+02  0.14659431524E+03  0.12500000000E+03 0.  0.
         25    1    1    2    0    0  0.58472988249E+02 -0.33062002765E+02  0.91764558538E+02  0.16899088906E+03  0.12500000000E+03 0.  0.
</event>
<event>
 4    0  0.2210826E-002  0.2039520E+03  0.7546771E-02  0.1146447E+00
         21   -1    0    0  502  501  0.00000000000E+00  0.00000000000E+00  0.95063027535E+02  0.95063027535E+02  0.00000000000E+00 0. -1.
         21   -1    0    0  501  502 -0.00000000000E+00 -0.00000000000E+00 -0.43756658131E+03  0.43756658131E+03  0.00000000000E+00 0. -1.
         25    1    1    2    0    0 -0.10240291051E+03 -0.32687954834E+02 -0.32803443358E+03  0.36713273906E+03  0.12500000000E+03 0.  0.
         25    1    1    2    0    0  0.10240291051E+03  0.32687954834E+02 -0.14469120195E+02  0.16549686979E+03  0.12500000000E+03 0.  0.
</event>
<event>
 4    0  0.2210826E-002  0.1993452E+03  0.7546771E-02  0.1150293E+00
         21   -1    0    0  502  501  0.00000000000E+00  0.00000000000E+00  0.25105470943E+02  0.25105470943E+02  0.00000000000E+00 0. -1.
         21   -1    0    0  501  502 -0.00000000000E+00 -0.00000000000E+00 -0.15828621586E+04  0.15828621586E+04  0.00000000000E+00 0. -1.
         25    1    1    2    0    0 -0.36248300185E+02 -0.79054854970E+02 -0.12977251343E+04  0.13066289196E+04  0.12500000000E+03 0.  0.
         25    1    1    2    0    0  0.36248300185E+02  0.79054854970E+02 -0.26003155331E+03  0.30133870989E+03  0.12500000000E+03 0.  0.
</event>
<event>
 4    0  0.2210826E-002  0.2055019E+03  0.7546771E-02  0.1145178E+00
         21   -1    0    0  502  501  0.00000000000E+00  0.00000000000E+00  0.21580911601E+03  0.21580911601E+03  0.00000000000E+00 0.  1.
         21   -1    0    0  501  502 -0.00000000000E+00 -0.00000000000E+00 -0.19568690169E+03  0.19568690169E+03  0.00000000000E+00 0.  1.
         25    1    1    2    0    0  0.14948243933E+03 -0.39347046909E+02  0.62208302948E+02  0.20829801421E+03  0.12500000000E+03 0.  0.
         25    1    1    2    0    0 -0.14948243933E+03  0.39347046909E+02 -0.42086088628E+02  0.20319800349E+03  0.12500000000E+03 0.  0.
</event>
<event>
 4    0  0.2210826E-002  0.2218101E+03  0.7546771E-02  0.1132541E+00
         21   -1    0    0  502  501  0.00000000000E+00  0.00000000000E+00  0.84842092035E+02  0.84842092035E+02  0.00000000000E+00 0. -1.
         21   -1    0    0  501  502 -0.00000000000E+00 -0.00000000000E+00 -0.57989768401E+03  0.57989768401E+03  0.00000000000E+00 0. -1.
         25    1    1    2    0    0 -0.28516224128E+02 -0.59337349566E+02 -0.50375999918E+03  0.52319521488E+03  0.12500000000E+03 0.  0.
         25    1    1    2    0    0  0.28516224128E+02  0.59337349566E+02  0.87044072072E+01  0.14154456117E+03  0.12500000000E+03 0.  0.
</event>
<event>
 4    0  0.2210826E-002  0.1904392E+03  0.7546771E-02  0.1158066E+00
         21   -1    0    0  502  501  0.00000000000E+00  0.00000000000E+00  0.96490051030E+03  0.96490051030E+03  0.00000000000E+00 0. -1.
         21   -1    0    0  501  502 -0.00000000000E+00 -0.00000000000E+00 -0.37586348302E+02  0.37586348302E+02  0.00000000000E+00 0. -1.
         25    1    1    2    0    0  0.42503771321E+02  0.13302377858E+03  0.37478178706E+03  0.41903255739E+03  0.12500000000E+03 0.  0.
         25    1    1    2    0    0 -0.42503771321E+02 -0.13302377858E+03  0.55253237494E+03  0.58345430121E+03  0.12500000000E+03 0.  0.
</event>
<event>
 4    0  0.2210826E-002  0.1821102E+03  0.7546771E-02  0.1165776E+00
         21   -1    0    0  502  501  0.00000000000E+00  0.00000000000E+00  0.23679359541E+03  0.23679359541E+03  0.00000000000E+00 0. -1.
         21   -1    0    0  501  502 -0.00000000000E+00 -0.00000000000E+00 -0.14005491831E+03  0.14005491831E+03  0.00000000000E+00 0. -1.
         25    1    1    2    0    0 -0.72082142221E+01  0.70839340440E+02  0.16390535007E+03  0.21808286106E+03  0.12500000000E+03 0.  0.
         25    1    1    2    0    0  0.72082142221E+01 -0.70839340440E+02 -0.67166672967E+02  0.15876565266E+03  0.12500000000E+03 0.  0.
</event>
<event>
 4    0  0.2210826E-002  0.1646539E+03  0.7546771E-02  0.1183541E+00
         21   -1    0    0  502  501  0.00000000000E+00  0.00000000000E+00  0.11620446711E+03  0.11620446711E+03  0.00000000000E+00 0.  1.
         21   -1    0    0  501  502 -0.00000000000E+00 -0.00000000000E+00 -0.23330341150E+03  0.23330341150E+03  0.00000000000E+00 0.  1.
         25    1    1    2    0    0 -0.77296369275E+02  0.73625628909E+02 -0.68642635622E+02  0.17813554772E+03  0.12500000000E+03 0.  0.
         25    1    1    2    0    0  0.77296369275E+02 -0.73625628909E+02 -0.48456308765E+02  0.17137233089E+03  0.12500000000E+03 0.  0.
</event>
<event>
 4    0  0.2210826E-002  0.1963562E+03  0.7546771E-02  0.1152850E+00
         21   -1    0    0  502  501  0.00000000000E+00  0.00000000000E+00  0.38804827352E+02  0.38804827352E+02  0.00000000000E+00 0. -1.
         21   -1    0    0  501  502 -0.00000000000E+00 -0.00000000000E+00 -0.99358122392E+03  0.99358122392E+03  0.00000000000E+00 0. -1.
         25    1    1    2    0    0  0.13004822261E+03 -0.68721010815E+02 -0.38276271331E+03  0.42868101455E+03  0.12500000000E+03 0.  0.
         25    1    1    2    0    0 -0.13004822261E+03  0.68721010815E+02 -0.57201368326E+03  0.60370503673E+03  0.12500000000E+03 0.  0.
</event>
<event>
 4    0  0.2210826E-002  0.2373863E+03  0.7546771E-02  0.1121546E+00
         21   -1    0    0  502  501  0.00000000000E+00  0.00000000000E+00  0.12253099797E+03  0.12253099797E+03  0.00000000000E+00 0.  1.
         21   -1    0    0  501  502 -0.00000000000E+00 -0.00000000000E+00 -0.45990198228E+03  0.45990198228E+03  0.00000000000E+00 0.  1.
         25    1    1    2    0    0 -0.10170927187E+03  0.15478720419E+03 -0.26700566375E+03  0.34816788916E+03  0.12500000000E+03 0.  0.
         25    1    1    2    0    0  0.10170927187E+03 -0.15478720419E+03 -0.70365320563E+02  0.23426509109E+03  0.12500000000E+03 0.  0.
</event>
<event>
 4    0  0.2210826E-002  0.2506897E+03  0.7546771E-02  0.1112870E+00
         21   -1    0    0  502  501  0.00000000000E+00  0.00000000000E+00  0.49063549066E+03  0.49063549066E+03  0.00000000000E+00 0.  1.
         21   -1    0    0  501  502 -0.00000000000E+00 -0.00000000000E+00 -0.12808959980E+03  0.12808959980E+03  0.00000000000E+00 0.  1.
         25    1    1    2    0    0  0.20841213269E+03  0.66114487575E+01  0.10579436206E+03  0.26513539060E+03  0.12500000000E+03 0.  0.
         25    1    1    2    0    0 -0.20841213269E+03 -0.66114487575E+01  0.25675152881E+03  0.35358969986E+03  0.12500000000E+03 0.  0.
</event>
<event>
 4    0  0.2210826E-002  0.2310460E+03  0.7546771E-02  0.1125906E+00
         21   -1    0    0  502  501  0.00000000000E+00  0.00000000000E+00  0.10713936287E+04  0.10713936287E+04  0.00000000000E+00 0. -1.
         21   -1    0    0  501  502 -0.00000000000E+00 -0.00000000000E+00 -0.49825079437E+02  0.49825079437E+02  0.00000000000E+00 0. -1.
         25    1    1    2    0    0 -0.33936369552E+02 -0.18236150566E+03  0.37034899495E+03  0.43265549111E+03  0.12500000000E+03 0.  0.
         25    1    1    2    0    0  0.33936369552E+02  0.18236150566E+03  0.65121955431E+03  0.68856321702E+03  0.12500000000E+03 0.  0.
</event>
<event>
 4    0  0.2210826E-002  0.3679081E+03  0.7546771E-02  0.1055496E+00
         21   -1    0    0  502  501  0.00000000000E+00  0.00000000000E+00  0.85313450657E+03  0.85313450657E+03  0.00000000000E+00 0.  1.
         21   -1    0    0  501  502 -0.00000000000E+00 -0.00000000000E+00 -0.15865772823E+03  0.15865772823E+03  0.00000000000E+00 0.  1.
         25    1    1    2    0    0 -0.11268961898E+03 -0.31102888885E+03  0.48674754970E+03  0.60165280442E+03  0.12500000000E+03 0.  0.
         25    1    1    2    0    0  0.11268961898E+03  0.31102888885E+03  0.20772922863E+03  0.41013943038E+03  0.12500000000E+03 0.  0.
</event>
<event>
 4    0  0.2210826E-002  0.2241796E+03  0.7546771E-02  0.1130805E+00
         21   -1    0    0  502  501  0.00000000000E+00  0.00000000000E+00  0.15622760136E+03  0.15622760136E+03  0.00000000000E+00 0. -1.
         21   -1    0    0  501  502 -0.00000000000E+00 -0.00000000000E+00 -0.32168767530E+03  0.32168767530E+03  0.00000000000E+00 0. -1.
         25    1    1    2    0    0 -0.59909869230E+02 -0.15701605515E+03 -0.16792543023E+03  0.26845331833E+03  0.12500000000E+03 0.  0.
         25    1    1    2    0    0  0.59909869230E+02  0.15701605515E+03  0.24653562818E+01  0.20946195833E+03  0.12500000000E+03 0.  0.
</event>
<event>
 4    0  0.2210826E-002  0.2726384E+03  0.7546771E-02  0.1099779E+00
         21   -1    0    0  502  501  0.00000000000E+00  0.00000000000E+00  0.12418200630E+04  0.12418200630E+04  0.00000000000E+00 0.  1.
         21   -1    0    0  501  502 -0.00000000000E+00 -0.00000000000E+00 -0.59857063221E+02  0.59857063221E+02  0.00000000000E+00 0.  1.
         25    1    1    2    0    0 -0.15029391765E+03  0.18811469658E+03  0.65553717136E+03  0.70945710497E+03  0.12500000000E+03 0.  0.
         25    1    1    2    0    0  0.15029391765E+03 -0.18811469658E+03  0.52642582842E+03  0.59222002125E+03  0.12500000000E+03 0.  0.
</event>
<event>
 4    0  0.2210826E-002  0.2016909E+03  0.7546771E-02  0.1148320E+00
         21   -1    0    0  502  501  0.00000000000E+00  0.00000000000E+00  0.13101622921E+03  0.13101622921E+03  0.00000000000E+00 0. -1.
         21   -1    0    0  501  502 -0.00000000000E+00 -0.00000000000E+00 -0.31048999416E+03  0.31048999416E+03  0.00000000000E+00 0. -1.
         25    1    1    2    0    0 -0.10961773502E+03  0.11412304676E+03 -0.85625447858E+02  0.21908179969E+03  0.12500000000E+03 0.  0.
         25    1    1    2    0    0  0.10961773502E+03 -0.11412304676E+03 -0.93848317090E+02  0.22242442369E+03  0.12500000000E+03 0.  0.
</event>
<event>
 4    0  0.2210826E-002  0.1497916E+03  0.7546771E-02  0.1200729E+00
         21   -1    0    0  502  501  0.00000000000E+00  0.00000000000E+00  0.37032603632E+03  0.37032603632E+03  0.00000000000E+00 0. -1.
         21   -1    0    0  501  502 -0.00000000000E+00 -0.00000000000E+00 -0.60588597005E+02  0.60588597005E+02  0.00000000000E+00 0. -1.
         25    1    1    2    0    0  0.73591632988E+02 -0.14791917793E+02  0.20423692851E+03  0.25094272702E+03  0.12500000000E+03 0.  0.
         25    1    1    2    0    0 -0.73591632988E+02  0.14791917793E+02  0.10550051080E+03  0.17997190630E+03  0.12500000000E+03 0.  0.
</event>
<event>
 4    0  0.2210826E-002  0.2053088E+03  0.7546771E-02  0.1145336E+00
         21   -1    0    0  502  501  0.00000000000E+00  0.00000000000E+00  0.10538032484E+03  0.10538032484E+03  0.00000000000E+00 0.  1.
         21   -1    0    0  501  502 -0.00000000000E+00 -0.00000000000E+00 -0.39999607285E+03  0.39999607285E+03  0.00000000000E+00 0.  1.
         25    1    1    2    0    0 -0.20191193276E+02 -0.11943012425E+03 -0.28131776375E+03  0.33081100808E+03  0.12500000000E+03 0.  0.
         25    1    1    2    0    0  0.20191193276E+02  0.11943012425E+03 -0.13297984261E+02  0.17456538961E+03  0.12500000000E+03 0.  0.
</event>
<event>
 4    0  0.2210826E-002  0.3545053E+03  0.7546771E-02  0.1060781E+00
         21   -1    0    0  502  501  0.00000000000E+00  0.00000000000E+00  0.56921787187E+03  0.56921787187E+03  0.00000000000E+00 0.  1.
         21   -1    0    0  501  502 -0.00000000000E+00 -0.00000000000E+00 -0.22078363179E+03  0.22078363179E+03  0.00000000000E+00 0.  1.
         25    1    1    2    0    0 -0.27278798302E+03  0.15533692548E+03  0.29373699832E+03  0.44771561094E+03  0.12500000000E+03 0.  0.
         25    1    1    2    0    0  0.27278798302E+03 -0.15533692548E+03  0.54697241756E+02  0.34228589272E+03  0.12500000000E+03 0.  0.
</event>
<event>
 4    0  0.2210826E-002  0.3114945E+03  0.7546771E-02  0.1079632E+00
         21   -1    0    0  502  501  0.00000000000E+00  0.00000000000E+00  0.66188163765E+02  0.66188163765E+02  0.00000000000E+00 0. -1.
         21   -1    0    0  501  502 -0.00000000000E+00 -0.00000000000E+00 -0.14659541063E+04  0.14659541063E+04  0.00000000000E+00 0. -1.
         25    1    1    2    0    0 -0.15985736891E+03  0.15379864951E+03 -0.25860148401E+03  0.36291614805E+03  0.12500000000E+03 0.  0.
         25    1    1    2    0    0  0.15985736891E+03 -0.15379864951E+03 -0.11411644585E+04  0.11692261220E+04  0.12500000000E+03 0.  0.
</event>
<event>
 4    0  0.2210826E-002  0.1575920E+03  0.7546771E-02  0.1191442E+00
         21   -1    0    0  502  501  0.00000000000E+00  0.00000000000E+00  0.46435692064E+03  0.46435692064E+03  0.00000000000E+00 0.  1.
         21   -1    0    0  501  502 -0.00000000000E+00 -0.00000000000E+00 -0.53483079288E+02  0.53483079288E+02  0.00000000000E+00 0.  1.
         25    1    1    2    0    0 -0.14058541904E+02 -0.91680599521E+02  0.16494952216E+03  0.22679576669E+03  0.12500000000E+03 0.  0.
         25    1    1    2    0    0  0.14058541904E+02  0.91680599521E+02  0.24592431919E+03  0.29104423323E+03  0.12500000000E+03 0.  0.
</event>
<event>
 4    0  0.2210826E-002  0.2058526E+03  0.7546771E-02  0.1144893E+00
         21   -1    0    0  502  501  0.00000000000E+00  0.00000000000E+00  0.33134305137E+03  0.33134305137E+03  0.00000000000E+00 0.  1.
         21   -1    0    0  501  502 -0.00000000000E+00 -0.00000000000E+00 -0.12788953576E+03  0.12788953576E+03  0.00000000000E+00 0.  1.
         25    1    1    2    0    0  0.12789813117E+03 -0.92995757849E+02  0.55142392646E+02  0.20897805244E+03  0.12500000000E+03 0.  0.
         25    1    1    2    0    0 -0.12789813117E+03  0.92995757849E+02  0.14831112296E+03  0.25025453468E+03  0.12500000000E+03 0.  0.
</event>
<event>
 4    0  0.2210826E-002  0.3259256E+03  0.7546771E-02  0.1072954E+00
         21   -1    0    0  502  501  0.00000000000E+00  0.00000000000E+00  0.12526686982E+04  0.12526686982E+04  0.00000000000E+00 0.  1.
         21   -1    0    0  501  502 -0.00000000000E+00 -0.00000000000E+00 -0.84800974575E+02  0.84800974575E+02  0.00000000000E+00 0.  1.
         25    1    1    2    0    0  0.10380379513E+03 -0.21114435878E+03  0.19873377348E+03  0.33238122819E+03  0.12500000000E+03 0.  0.
         25    1    1    2    0    0 -0.10380379513E+03  0.21114435878E+03  0.96913395015E+03  0.10050884446E+04  0.12500000000E+03 0.  0.
</event>
<event>
 4    0  0.2210826E-002  0.2691191E+03  0.7546771E-02  0.1101785E+00
         21   -1    0    0  502  501  0.00000000000E+00  0.00000000000E+00  0.93710034290E+03  0.93710034290E+03  0.00000000000E+00 0.  1.
         21   -1    0    0  501  502 -0.00000000000E+00 -0.00000000000E+00 -0.77286376031E+02  0.77286376031E+02  0.00000000000E+00 0.  1.
         25    1    1    2    0    0 -0.11990537792E+03  0.18019916394E+03  0.24190452963E+03  0.34783881295E+03  0.12500000000E+03 0.  0.
         25    1    1    2    0    0  0.11990537792E+03 -0.18019916394E+03  0.61790943724E+03  0.66654790598E+03  0.12500000000E+03 0.  0.
</event>
<event>
 4    0  0.2210826E-002  0.2688419E+03  0.7546771E-02  0.1101944E+00
         21   -1    0    0  502  501  0.00000000000E+00  0.00000000000E+00  0.76004979263E+02  0.76004979263E+02  0.00000000000E+00 0.  1.
         21   -1    0    0  501  502 -0.00000000000E+00 -0.00000000000E+00 -0.95093742794E+03  0.95093742794E+03  0.00000000000E+00 0. -1.
         25    1    1    2    0    0 -0.89988759422E+02 -0.21185371874E+03 -0.32174538911E+03  0.41487958539E+03  0.12500000000E+03 0.  0.
         25    1    1    2    0    0  0.89988759422E+02  0.21185371874E+03 -0.55318705957E+03  0.61206282181E+03  0.12500000000E+03 0.  0.
</event>
<event>
 4    0  0.2210826E-002  0.1864100E+03  0.7546771E-02  0.1161740E+00
         21   -1    0    0  502  501  0.00000000000E+00  0.00000000000E+00  0.10838328795E+04  0.10838328795E+04  0.00000000000E+00 0.  1.
         21   -1    0    0  501  502 -0.00000000000E+00 -0.00000000000E+00 -0.32060941603E+02  0.32060941603E+02  0.00000000000E+00 0.  1.
         25    1    1    2    0    0  0.10097318491E+02  0.64735635448E+02  0.89039596796E+03  0.90151130780E+03  0.12500000000E+03 0.  0.
         25    1    1    2    0    0 -0.10097318491E+02 -0.64735635448E+02  0.16137596996E+03  0.21438251332E+03  0.12500000000E+03 0.  0.
</event>
<event>
 4    0  0.2210826E-002  0.1818060E+03  0.7546771E-02  0.1166067E+00
         21   -1    0    0  502  501  0.00000000000E+00  0.00000000000E+00  0.69063624263E+03  0.69063624263E+03  0.00000000000E+00 0.  1.
         21   -1    0    0  501  502 -0.00000000000E+00 -0.00000000000E+00 -0.47859361168E+02  0.47859361168E+02  0.00000000000E+00 0.  1.
         25    1    1    2    0    0  0.72638777986E+02 -0.93067989214E+02  0.44137851303E+03  0.47368558607E+03  0.12500000000E+03 0.  0.
         25    1    1    2    0    0 -0.72638777986E+02  0.93067989214E+02  0.20139836843E+03  0.26481001773E+03  0.12500000000E+03 0.  0.
</event>
<event>
 4    0  0.2210826E-002  0.2145232E+03  0.7546771E-02  0.1138033E+00
         21   -1    0    0  502  501  0.00000000000E+00  0.00000000000E+00  0.97916371975E+03  0.97916371975E+03  0.00000000000E+00 0. -1.
         21   -1    0    0  501  502 -0.00000000000E+00 -0.00000000000E+00 -0.46999511905E+02  0.46999511905E+02  0.00000000000E+00 0. -1.
         25    1    1    2    0    0 -0.19253138097E+02 -0.17196139030E+03  0.41513130674E+03  0.46679803440E+03  0.12500000000E+03 0.  0.
         25    1    1    2    0    0  0.19253138097E+02  0.17196139030E+03  0.51703290110E+03  0.55936519725E+03  0.12500000000E+03 0.  0.
</event>
<event>
 4    0  0.2210826E-002  0.2580404E+03  0.7546771E-02  0.1108326E+00
         21   -1    0    0  502  501  0.00000000000E+00  0.00000000000E+00  0.38949557199E+03  0.38949557199E+03  0.00000000000E+00 0.  1.
         21   -1    0    0  501  502 -0.00000000000E+00 -0.00000000000E+00 -0.17095143803E+03  0.17095143803E+03  0.00000000000E+00 0.  1.
         25    1    1    2    0    0  0.81169891627E+02 -0.13207916886E+03  0.28747129726E+03  0.34971160247E+03  0.12500000000E+03 0.  0.
         25    1    1    2    0    0 -0.81169891627E+02  0.13207916886E+03 -0.68927163303E+02  0.21073540755E+03  0.12500000000E+03 0.  0.
</event>
<event>
 4    0  0.2210826E-002  0.1984311E+03  0.7546771E-02  0.1151069E+00
         21   -1    0    0  502  501  0.00000000000E+00  0.00000000000E+00  0.51735982675E+03  0.51735982675E+03  0.00000000000E+00 0. -1.
         21   -1    0    0  501  502 -0.00000000000E+00 -0.00000000000E+00 -0.76107408323E+02  0.76107408323E+02  0.00000000000E+00 0. -1.
         25    1    1    2    0    0 -0.25825003687E+01  0.15291745778E+03  0.24897958664E+03  0.31781480891E+03  0.12500000000E+03 0.  0.
         25    1    1    2    0    0  0.25825003687E+01 -0.15291745778E+03  0.19227283179E+03  0.27565242616E+03  0.12500000000E+03 0.  0.
</event>
<event>
 4    0  0.2210826E-002  0.2489276E+03  0.7546771E-02  0.1113984E+00
         21   -1    0    0  502  501  0.00000000000E+00  0.00000000000E+00  0.28102515287E+03  0.28102515287E+03  0.00000000000E+00 0. -1.
         21   -1    0    0  501  502 -0.00000000000E+00 -0.00000000000E+00 -0.22049606099E+03  0.22049606099E+03  0.00000000000E+00 0. -1.
         25    1    1    2    0    0  0.18634449754E+02  0.21204441665E+03 -0.20632274731E+01  0.24685893595E+03  0.12500000000E+03 0.  0.
         25    1    1    2    0    0 -0.18634449754E+02 -0.21204441665E+03  0.62592319360E+02  0.25466227791E+03  0.12500000000E+03 0.  0.
</event>
<event>
 4    0  0.2210826E-002  0.2051052E+03  0.7546771E-02  0.1145502E+00
         21   -1    0    0  502  501  0.00000000000E+00  0.00000000000E+00  0.18213717968E+03  0.18213717968E+03  0.00000000000E+00 0.  1.
         21   -1    0    0  501  502 -0.00000000000E+00 -0.00000000000E+00 -0.23096956655E+03  0.23096956655E+03  0.00000000000E+00 0.  1.
         25    1    1    2    0    0  0.12986472936E+03  0.42978841193E+02  0.64131392041E+02  0.19608636915E+03  0.12500000000E+03 0.  0.
         25    1    1    2    0    0 -0.12986472936E+03 -0.42978841193E+02 -0.11296377891E+03  0.21702037708E+03  0.12500000000E+03 0.  0.
</event>
<event>
 4    0  0.2210826E-002  0.4451580E+03  0.7546771E-02  0.1029176E+00
         21   -1    0    0  502  501  0.00000000000E+00  0.00000000000E+00  0.50601205926E+03  0.50601205926E+03  0.00000000000E+00 0. -1.
         21   -1    0    0  501  502 -0.00000000000E+00 -0.00000000000E+00 -0.39162241737E+03  0.39162241737E+03  0.00000000000E+00 0. -1.
         25    1    1    2    0    0 -0.29297355284E+03 -0.10810138774E+03 -0.23678605163E+03  0.41135391932E+03  0.12500000000E+03 0.  0.
         25    1    1    2    0    0  0.29297355284E+03  0.10810138774E+03  0.35117569352E+03  0.48628055731E+03  0.12500000000E+03 0.  0.
</event>
<event>
 4    0  0.2210826E-002  0.1986995E+03  0.7546771E-02  0.1150841E+00
         21   -1    0    0  502  501  0.00000000000E+00  0.00000000000E+00  0.74972131169E+02  0.74972131169E+02  0.00000000000E+00 0.  1.
         21   -1    0    0  501  502 -0.00000000000E+00 -0.00000000000E+00 -0.52661576097E+03  0.52661576097E+03  0.00000000000E+00 0.  1.
         25    1    1    2    0    0  0.10386135274E+03  0.48024813850E+01 -0.39872988999E+03  0.43060512026E+03  0.12500000000E+03 0.  0.
         25    1    1    2    0    0 -0.10386135274E+03 -0.48024813850E+01 -0.52913739810E+02  0.17098277188E+03  0.12500000000E+03 0.  0.
</event>
<event>
 4    0  0.2210826E-002  0.1695851E+03  0.7546771E-02  0.1178281E+00
         21   -1    0    0  502  501  0.00000000000E+00  0.00000000000E+00  0.10882263991E+04  0.10882263991E+04  0.00000000000E+00 0.  1.
         21   -1    0    0  501  502 -0.00000000000E+00 -0.00000000000E+00 -0.26427496626E+02  0.26427496626E+02  0.00000000000E+00 0.  1.
         25    1    1    2    0    0 -0.19609246301E+02 -0.11088090667E+03  0.60100119290E+03  0.62410458408E+03  0.12500000000E+03 0.  0.
         25    1    1    2    0    0  0.19609246301E+02  0.11088090667E+03  0.46079770956E+03  0.49054931163E+03  0.12500000000E+03 0.  0.
</event>
<event>
 4    0  0.2210826E-002  0.1834937E+03  0.7546771E-02  0.1164464E+00
         21   -1    0    0  502  501  0.00000000000E+00  0.00000000000E+00  0.73601105295E+03  0.73601105295E+03  0.00000000000E+00 0.  1.
         21   -1    0    0  501  502 -0.00000000000E+00 -0.00000000000E+00 -0.45746519050E+02  0.45746519050E+02  0.00000000000E+00 0.  1.
         25    1    1    2    0    0  0.27641001751E+01  0.61084580481E+02  0.59992067999E+03  0.61584802386E+03  0.12500000000E+03 0.  0.
         25    1    1    2    0    0 -0.27641001751E+01 -0.61084580481E+02  0.90343853910E+02  0.16590954813E+03  0.12500000000E+03 0.  0.
</event>
<event>
 4    0  0.2210826E-002  0.1800916E+03  0.7546771E-02  0.1167714E+00
         21   -1    0    0  502  501  0.00000000000E+00  0.00000000000E+00  0.43066052764E+02  0.43066052764E+02  0.00000000000E+00 0. -1.
         21   -1    0    0  501  502 -0.00000000000E+00 -0.00000000000E+00 -0.75309856215E+03  0.75309856215E+03  0.00000000000E+00 0. -1.
         25    1    1    2    0    0  0.36017542930E+02 -0.12450774272E+03 -0.34855622890E+03  0.39232115174E+03  0.12500000000E+03 0.  0.
         25    1    1    2    0    0 -0.36017542930E+02  0.12450774272E+03 -0.36147628049E+03  0.40384346318E+03  0.12500000000E+03 0.  0.
</event>
<event>
 4    0  0.2210826E-002  0.1689480E+03  0.7546771E-02  0.1178949E+00
         21   -1    0    0  502  501  0.00000000000E+00  0.00000000000E+00  0.16090906949E+03  0.16090906949E+03  0.00000000000E+00 0.  1.
         21   -1    0    0  501  502 -0.00000000000E+00 -0.00000000000E+00 -0.17738854722E+03  0.17738854722E+03  0.00000000000E+00 0.  1.
         25    1    1    2    0    0 -0.69834782874E+02 -0.63124901334E+02  0.55528791287E+02  0.16604245460E+03  0.12500000000E+03 0.  0.
         25    1    1    2    0    0  0.69834782874E+02  0.63124901334E+02 -0.72008269010E+02  0.17225516211E+03  0.12500000000E+03 0.  0.
</event>
<event>
 4    0  0.2210826E-002  0.1789674E+03  0.7546771E-02  0.1168806E+00
         21   -1    0    0  502  501  0.00000000000E+00  0.00000000000E+00  0.14152556301E+03  0.14152556301E+03  0.00000000000E+00 0. -1.
         21   -1    0    0  501  502 -0.00000000000E+00 -0.00000000000E+00 -0.22631485990E+03  0.22631485990E+03  0.00000000000E+00 0. -1.
         25    1    1    2    0    0  0.32428949442E+02 -0.32893400114E+02  0.80371463494E+02  0.15562192865E+03  0.12500000000E+03 0.  0.
         25    1    1    2    0    0 -0.32428949442E+02  0.32893400114E+02 -0.16516076038E+03  0.21221849425E+03  0.12500000000E+03 0.  0.
</event>
<event>
 4    0  0.2210826E-002  0.2117099E+03  0.7546771E-02  0.1140219E+00
         21   -1    0    0  502  501  0.00000000000E+00  0.00000000000E+00  0.18451840176E+04  0.18451840176E+04  0.00000000000E+00 0. -1.
         21   -1    0    0  501  502 -0.00000000000E+00 -0.00000000000E+00 -0.24290848255E+02  0.24290848255E+02  0.00000000000E+00 0. -1.
         25    1    1    2    0    0 -0.11263702307E+03  0.39301342731E+01  0.14774757429E+04  0.14870313096E+04  0.12500000000E+03 0.  0.
         25    1    1    2    0    0  0.11263702307E+03 -0.39301342731E+01  0.34341742643E+03  0.38244355623E+03  0.12500000000E+03 0.  0.
</event>
<event>
 4    0  0.2210826E-002  0.2460977E+03  0.7546771E-02  0.1115796E+00
         21   -1    0    0  502  501  0.00000000000E+00  0.00000000000E+00  0.10927151616E+03  0.10927151616E+03  0.00000000000E+00 0.  1.
         21   -1    0    0  501  502 -0.00000000000E+00 -0.00000000000E+00 -0.55425319482E+03  0.55425319482E+03  0.00000000000E+00 0.  1.
         25    1    1    2    0    0 -0.81073441043E+02  0.91297798214E+02  0.11125742194E+02  0.17509132743E+03  0.12500000000E+03 0.  0.
         25    1    1    2    0    0  0.81073441043E+02 -0.91297798214E+02 -0.45610742086E+03  0.48843338355E+03  0.12500000000E+03 0.  0.
</event>
<event>
 4    0  0.2210826E-002  0.1679460E+03  0.7546771E-02  0.1180007E+00
         21   -1    0    0  502  501  0.00000000000E+00  0.00000000000E+00  0.88293023452E+02  0.88293023452E+02  0.00000000000E+00 0. -1.
         21   -1    0    0  501  502 -0.00000000000E+00 -0.00000000000E+00 -0.31945729361E+03  0.31945729361E+03  0.00000000000E+00 0. -1.
         25    1    1    2    0    0 -0.10980245925E+03 -0.16624694967E+02 -0.96469347996E+02  0.19303962195E+03  0.12500000000E+03 0.  0.
         25    1    1    2    0    0  0.10980245925E+03  0.16624694967E+02 -0.13469492216E+03  0.21471069511E+03  0.12500000000E+03 0.  0.
</event>
<event>
 4    0  0.2210826E-002  0.1956619E+03  0.7546771E-02  0.1153452E+00
         21   -1    0    0  502  501  0.00000000000E+00  0.00000000000E+00  0.97120673583E+03  0.97120673583E+03  0.00000000000E+00 0.  1.
         21   -1    0    0  501  502 -0.00000000000E+00 -0.00000000000E+00 -0.39418580315E+02  0.39418580315E+02  0.00000000000E+00 0.  1.
         25    1    1    2    0    0  0.11168729921E+03  0.72678838345E+02  0.28507057948E+03  0.33859489310E+03  0.12500000000E+03 0.  0.
         25    1    1    2    0    0 -0.11168729921E+03 -0.72678838345E+02  0.64671757604E+03  0.67203042305E+03  0.12500000000E+03 0.  0.
</event>
<event>
 4    0  0.2210826E-002  0.1904922E+03  0.7546771E-02  0.1158018E+00
         21   -1    0    0  502  501  0.00000000000E+00  0.00000000000E+00  0.55491199454E+03  0.55491199454E+03  0.00000000000E+00 0.  1.
         21   -1    0    0  501  502 -0.00000000000E+00 -0.00000000000E+00 -0.65392819503E+02  0.65392819503E+02  0.00000000000E+00 0.  1.
         25    1    1    2    0    0 -0.64203235858E+02 -0.12115527892E+03  0.17451035572E+03  0.25471458803E+03  0.12500000000E+03 0.  0.
         25    1    1    2    0    0  0.64203235858E+02  0.12115527892E+03  0.31500881932E+03  0.36559022601E+03  0.12500000000E+03 0.  0.
</event>
<event>
 4    0  0.2210826E-002  0.1746994E+03  0.7546771E-02  0.1173034E+00
         21   -1    0    0  502  501  0.00000000000E+00  0.00000000000E+00  0.81834531839E+03  0.81834531839E+03  0.00000000000E+00 0.  1.
         21   -1    0    0  501  502 -0.00000000000E+00 -0.00000000000E+00 -0.37294629899E+02  0.37294629899E+02  0.00000000000E+00 0.  1.
         25    1    1    2    0    0  0.72015828879E+02 -0.92931122632E+01  0.63074458678E+03  0.64709842783E+03  0.12500000000E+03 0.  0.
         25    1    1    2    0    0 -0.72015828879E+02  0.92931122632E+01  0.15030610171E+03  0.20854152046E+03  0.12500000000E+03 0.  0.
</event>
<event>
 4    0  0.2210826E-002  0.1918121E+03  0.7546771E-02  0.1156837E+00
         21   -1    0    0  502  501  0.00000000000E+00  0.00000000000E+00  0.97324011616E+02  0.97324011616E+02  0.00000000000E+00 0. -1.
         21   -1    0    0  501  502 -0.00000000000E+00 -0.00000000000E+00 -0.37803507321E+03  0.37803507321E+03  0.00000000000E+00 0. -1.
         25    1    1    2    0    0  0.18329762382E+02 -0.79128971769E+02 -0.28992340093E+03  0.32600299503E+03  0.12500000000E+03 0.  0.
         25    1    1    2    0    0 -0.18329762382E+02  0.79128971769E+02  0.92123393388E+01  0.14935608979E+03  0.12500000000E+03 0.  0.
</event>
<event>
 4    0  0.2210826E-002  0.2820208E+03  0.7546771E-02  0.1094590E+00
         21   -1    0    0  502  501  0.00000000000E+00  0.00000000000E+00  0.56607886363E+02  0.56607886363E+02  0.00000000000E+00 0.  1.
         21   -1    0    0  501  502 -0.00000000000E+00 -0.00000000000E+00 -0.14050295812E+04  0.14050295812E+04  0.00000000000E+00 0.  1.
         25    1    1    2    0    0 -0.19134384977E+03  0.12635018783E+03 -0.95008973348E+03  0.98532854443E+03  0.12500000000E+03 0.  0.
         25    1    1    2    0    0  0.19134384977E+03 -0.12635018783E+03 -0.39833196134E+03  0.47630892311E+03  0.12500000000E+03 0.  0.
</event>
<event>
 4    0  0.2210826E-002  0.2197285E+03  0.7546771E-02  0.1134086E+00
         21   -1    0    0  502  501  0.00000000000E+00  0.00000000000E+00  0.38159270745E+03  0.38159270745E+03  0.00000000000E+00 0. -1.
         21   -1    0    0  501  502 -0.00000000000E+00 -0.00000000000E+00 -0.12652390147E+03  0.12652390147E+03  0.00000000000E+00 0. -1.
         25    1    1    2    0    0  0.23191390470E+02  0.17394947232E+03  0.77677382854E+02  0.22903064275E+03  0.12500000000E+03 0.  0.
         25    1    1    2    0    0 -0.23191390470E+02 -0.17394947232E+03  0.17739142312E+03  0.27908596616E+03  0.12500000000E+03 0.  0.
</event>
<event>
 4    0  0.2210826E-002  0.3517546E+03  0.7546771E-02  0.1061897E+00
         21   -1    0    0  502  501  0.00000000000E+00  0.00000000000E+00  0.51821969680E+02  0.51821969680E+02  0.00000000000E+00 0. -1.
         21   -1    0    0  501  502 -0.00000000000E+00 -0.00000000000E+00 -0.23876224130E+04  0.23876224130E+04  0.00000000000E+00 0. -1.
         25    1    1    2    0    0 -0.62441103883E+02  0.29435484629E+03 -0.16274323825E+04  0.16597303475E+04  0.12500000000E+03 0.  0.
         25    1    1    2    0    0  0.62441103883E+02 -0.29435484629E+03 -0.70836806089E+03  0.77971403519E+03  0.12500000000E+03 0.  0.
</event>
<event>
 4    0  0.2210826E-002  0.2162915E+03  0.7546771E-02  0.1136678E+00
         21   -1    0    0  502  501  0.00000000000E+00  0.00000000000E+00  0.24688889130E+03  0.24688889130E+03  0.00000000000E+00 0. -1.
         21   -1    0    0  501  502 -0.00000000000E+00 -0.00000000000E+00 -0.18948613968E+03  0.18948613968E+03  0.00000000000E+00 0. -1.
         25    1    1    2    0    0  0.17419690785E+03  0.12427358284E+02  0.28245932582E+01  0.21478356609E+03  0.12500000000E+03 0.  0.
         25    1    1    2    0    0 -0.17419690785E+03 -0.12427358284E+02  0.54578158364E+02  0.22159146488E+03  0.12500000000E+03 0.  0.
</event>
<event>
 4    0  0.2210826E-002  0.2036022E+03  0.7546771E-02  0.1146735E+00
         21   -1    0    0  502  501  0.00000000000E+00  0.00000000000E+00  0.45574504503E+03  0.45574504503E+03  0.00000000000E+00 0.  1.
         21   -1    0    0  501  502 -0.00000000000E+00 -0.00000000000E+00 -0.90958478437E+02  0.90958478437E+02  0.00000000000E+00 0.  1.
         25    1    1    2    0    0 -0.15046763412E+02  0.11847880601E+02  0.39662629977E+03  0.41629820926E+03  0.12500000000E+03 0.  0.
         25    1    1    2    0    0  0.15046763412E+02 -0.11847880601E+02 -0.31839733179E+02  0.13040531420E+03  0.12500000000E+03 0.  0.
</event>
<event>
 4    0  0.2210826E-002  0.3254700E+03  0.7546771E-02  0.1073159E+00
         21   -1    0    0  502  501  0.00000000000E+00  0.00000000000E+00  0.13239437917E+03  0.13239437917E+03  0.00000000000E+00 0. -1.
         21   -1    0    0  501  502 -0.00000000000E+00 -0.00000000000E+00 -0.80011508165E+03  0.80011508165E+03  0.00000000000E+00 0. -1.
         25    1    1    2    0    0 -0.10378799567E+02 -0.16975216255E+03 -0.68878287127E+03  0.72039597439E+03  0.12500000000E+03 0.  0.
         25    1    1    2    0    0  0.10378799567E+02  0.16975216255E+03  0.21062168785E+02  0.21211348643E+03  0.12500000000E+03 0.  0.
</event>
<event>
 4    0  0.2210826E-002  0.1851371E+03  0.7546771E-02  0.1162922E+00
         21   -1    0    0  502  501  0.00000000000E+00  0.00000000000E+00  0.12375905099E+03  0.12375905099E+03  0.00000000000E+00 0. -1.
         21   -1    0    0  501  502 -0.00000000000E+00 -0.00000000000E+00 -0.27695551265E+03  0.27695551265E+03  0.00000000000E+00 0. -1.
         25    1    1    2    0    0 -0.66205553836E+02 -0.31252696962E+02  0.48165379982E+02  0.15265913093E+03  0.12500000000E+03 0.  0.
         25    1    1    2    0    0  0.66205553836E+02  0.31252696962E+02 -0.20136184165E+03  0.24805543271E+03  0.12500000000E+03 0.  0.
</event>
<event>
 4    0  0.2210826E-002  0.1554947E+03  0.7546771E-02  0.1193879E+00
         21   -1    0    0  502  501  0.00000000000E+00  0.00000000000E+00  0.86565413628E+03  0.86565413628E+03  0.00000000000E+00 0. -1.
         21   -1    0    0  501  502 -0.00000000000E+00 -0.00000000000E+00 -0.27931003165E+02  0.27931003165E+02  0.00000000000E+00 0. -1.
         25    1    1    2    0    0 -0.91167809639E+02  0.75444446542E+01  0.37976901783E+03  0.41014387117E+03  0.12500000000E+03 0.  0.
         25    1    1    2    0    0  0.91167809639E+02 -0.75444446542E+01  0.45795411529E+03  0.48344126827E+03  0.12500000000E+03 0.  0.
</event>
<event>
 4    0  0.2210826E-002  0.2146465E+03  0.7546771E-02  0.1137938E+00
         21   -1    0    0  502  501  0.00000000000E+00  0.00000000000E+00  0.14048749143E+03  0.14048749143E+03  0.00000000000E+00 0.  1.
         21   -1    0    0  501  502 -0.00000000000E+00 -0.00000000000E+00 -0.32795179007E+03  0.32795179007E+03  0.00000000000E+00 0.  1.
         25    1    1    2    0    0  0.15149778704E+03 -0.62958556033E+02 -0.28875149383E+02  0.20826457574E+03  0.12500000000E+03 0.  0.
         25    1    1    2    0    0 -0.15149778704E+03  0.62958556033E+02 -0.15858914926E+03  0.26017470576E+03  0.12500000000E+03 0.  0.
</event>
<event>
 4    0  0.2210826E-002  0.2522583E+03  0.7546771E-02  0.1111886E+00
         21   -1    0    0  502  501  0.00000000000E+00  0.00000000000E+00  0.89980465233E+03  0.89980465233E+03  0.00000000000E+00 0.  1.
         21   -1    0    0  501  502 -0.00000000000E+00 -0.00000000000E+00 -0.70720051422E+02  0.70720051422E+02  0.00000000000E+00 0.  1.
         25    1    1    2    0    0  0.60595992657E+02 -0.20938091305E+03  0.37165733010E+03  0.44862725295E+03  0.12500000000E+03 0.  0.
         25    1    1    2    0    0 -0.60595992657E+02  0.20938091305E+03  0.45742727081E+03  0.52189745080E+03  0.12500000000E+03 0.  0.
</event>
<event>
 4    0  0.2210826E-002  0.1928963E+03  0.7546771E-02  0.1155875E+00
         21   -1    0    0  502  501  0.00000000000E+00  0.00000000000E+00  0.40914402365E+02  0.40914402365E+02  0.00000000000E+00 0.  1.
         21   -1    0    0  501  502 -0.00000000000E+00 -0.00000000000E+00 -0.90943446114E+03  0.90943446114E+03  0.00000000000E+00 0.  1.
         25    1    1    2    0    0  0.98895435386E+02  0.38244758388E+02 -0.68476162596E+03  0.70410684777E+03  0.12500000000E+03 0.  0.
         25    1    1    2    0    0 -0.98895435386E+02 -0.38244758388E+02 -0.18375843281E+03  0.24624201574E+03  0.12500000000E+03 0.  0.
</event>
<event>
 4    0  0.2210826E-002  0.1604658E+03  0.7546771E-02  0.1188172E+00
         21   -1    0    0  502  501  0.00000000000E+00  0.00000000000E+00  0.32266337215E+02  0.32266337215E+02  0.00000000000E+00 0.  1.
         21   -1    0    0  501  502 -0.00000000000E+00 -0.00000000000E+00 -0.79802325612E+03  0.79802325612E+03  0.00000000000E+00 0.  1.
         25    1    1    2    0    0  0.62222645018E+02  0.17937843150E+02 -0.18363872086E+03  0.23139058661E+03  0.12500000000E+03 0.  0.
         25    1    1    2    0    0 -0.62222645018E+02 -0.17937843150E+02 -0.58211819804E+03  0.59889900673E+03  0.12500000000E+03 0.  0.
</event>
<event>
 4    0  0.2210826E-002  0.2305204E+03  0.7546771E-02  0.1126274E+00
         21   -1    0    0  502  501  0.00000000000E+00  0.00000000000E+00  0.68600877465E+02  0.68600877465E+02  0.00000000000E+00 0. -1.
         21   -1    0    0  501  502 -0.00000000000E+00 -0.00000000000E+00 -0.77462094043E+03  0.77462094043E+03  0.00000000000E+00 0. -1.
         25    1    1    2    0    0 -0.14560305307E+02 -0.19007477769E+03 -0.29033664602E+03  0.36913519424E+03  0.12500000000E+03 0.  0.
         25    1    1    2    0    0  0.14560305307E+02  0.19007477769E+03 -0.41568341694E+03  0.47408662365E+03  0.12500000000E+03 0.  0.
</event>
<event>
 4    0  0.2210826E-002  0.3165622E+03  0.7546771E-02  0.1077242E+00
         21   -1    0    0  502  501  0.00000000000E+00  0.00000000000E+00  0.33983403637E+03  0.33983403637E+03  0.00000000000E+00 0. -1.
         21   -1    0    0  501  502 -0.00000000000E+00 -0.00000000000E+00 -0.29488403656E+03  0.29488403656E+03  0.00000000000E+00 0. -1.
         25    1    1    2    0    0  0.10612012372E+03  0.91882363431E+02  0.27783715540E+03  0.33544348896E+03  0.12500000000E+03 0.  0.
         25    1    1    2    0    0 -0.10612012372E+03 -0.91882363431E+02 -0.23288715559E+03  0.29927458396E+03  0.12500000000E+03 0.  0.
</event>
<event>
 4    0  0.2210826E-002  0.1991743E+03  0.7546771E-02  0.1150438E+00
         21   -1    0    0  502  501  0.00000000000E+00  0.00000000000E+00  0.56596002143E+03  0.56596002143E+03  0.00000000000E+00 0. -1.
         21   -1    0    0  501  502 -0.00000000000E+00 -0.00000000000E+00 -0.70094020284E+02  0.70094020284E+02  0.00000000000E+00 0. -1.
         25    1    1    2    0    0  0.42270781772E+02 -0.13823910097E+03  0.15833761877E+03  0.24817870486E+03  0.12500000000E+03 0.  0.
         25    1    1    2    0    0 -0.42270781772E+02  0.13823910097E+03  0.33752838238E+03  0.38787533686E+03  0.12500000000E+03 0.  0.
</event>
<event>
 4    0  0.2210826E-002  0.1567197E+03  0.7546771E-02  0.1192451E+00
         21   -1    0    0  502  501  0.00000000000E+00  0.00000000000E+00  0.22032286555E+03  0.22032286555E+03  0.00000000000E+00 0. -1.
         21   -1    0    0  501  502 -0.00000000000E+00 -0.00000000000E+00 -0.11147757276E+03  0.11147757276E+03  0.00000000000E+00 0. -1.
         25    1    1    2    0    0 -0.81136581911E+02 -0.36148341594E+02  0.88662587685E+02  0.17713244192E+03  0.12500000000E+03 0.  0.
         25    1    1    2    0    0  0.81136581911E+02  0.36148341594E+02  0.20182705108E+02  0.15466799640E+03  0.12500000000E+03 0.  0.
</event>
<event>
 4    0  0.2210826E-002  0.2076442E+03  0.7546771E-02  0.1143445E+00
         21   -1    0    0  502  501  0.00000000000E+00  0.00000000000E+00  0.98137963591E+03  0.98137963591E+03  0.00000000000E+00 0.  1.
         21   -1    0    0  501  502 -0.00000000000E+00 -0.00000000000E+00 -0.43934195423E+02  0.43934195423E+02  0.00000000000E+00 0.  1.
         25    1    1    2    0    0 -0.84542067582E+02  0.14010136836E+03  0.53475744211E+03  0.57303252657E+03  0.12500000000E+03 0.  0.
         25    1    1    2    0    0  0.84542067582E+02 -0.14010136836E+03  0.40268799838E+03  0.45228130477E+03  0.12500000000E+03 0.  0.
</event>
<event>
 4    0  0.2210826E-002  0.1841739E+03  0.7546771E-02  0.1163824E+00
         21   -1    0    0  502  501  0.00000000000E+00  0.00000000000E+00  0.24136720407E+03  0.24136720407E+03  0.00000000000E+00 0.  1.
         21   -1    0    0  501  502 -0.00000000000E+00 -0.00000000000E+00 -0.14053284825E+03  0.14053284825E+03  0.00000000000E+00 0.  1.
         25    1    1    2    0    0 -0.45389742919E+02  0.89326544982E+02  0.14462022356E+03  0.21582277327E+03  0.12500000000E+03 0.  0.
         25    1    1    2    0    0  0.45389742919E+02 -0.89326544982E+02 -0.43785867738E+02  0.16607727904E+03  0.12500000000E+03 0.  0.
</event>
<event>
 4    0  0.2210826E-002  0.2956005E+03  0.7546771E-02  0.1087461E+00
         21   -1    0    0  502  501  0.00000000000E+00  0.00000000000E+00  0.17070055754E+04  0.17070055754E+04  0.00000000000E+00 0.  1.
         21   -1    0    0  501  502 -0.00000000000E+00 -0.00000000000E+00 -0.51188857097E+02  0.51188857097E+02  0.00000000000E+00 0. -1.
         25    1    1    2    0    0 -0.19947421626E+03 -0.17876122967E+03  0.83689155462E+03  0.88755733020E+03  0.12500000000E+03 0.  0.
         25    1    1    2    0    0  0.19947421626E+03  0.17876122967E+03  0.81892516365E+03  0.87063710227E+03  0.12500000000E+03 0.  0.
</event>
<event>
 4    0  0.2210826E-002  0.2972140E+03  0.7546771E-02  0.1086642E+00
         21   -1    0    0  502  501  0.00000000000E+00  0.00000000000E+00  0.20962262535E+03  0.20962262535E+03  0.00000000000E+00 0.  1.
         21   -1    0    0  501  502 -0.00000000000E+00 -0.00000000000E+00 -0.42140577751E+03  0.42140577751E+03  0.00000000000E+00 0.  1.
         25    1    1    2    0    0 -0.64764837794E+02 -0.20223557425E+03 -0.28230903641E+03  0.37472270247E+03  0.12500000000E+03 0.  0.
         25    1    1    2    0    0  0.64764837794E+02  0.20223557425E+03  0.70525884245E+02  0.25630570039E+03  0.12500000000E+03 0.  0.
</event>
<event>
 4    0  0.2210826E-002  0.2350820E+03  0.7546771E-02  0.1123113E+00
         21   -1    0    0  502  501  0.00000000000E+00  0.00000000000E+00  0.20397289867E+03  0.20397289867E+03  0.00000000000E+00 0.  1.
         21   -1    0    0  501  502 -0.00000000000E+00 -0.00000000000E+00 -0.27093571890E+03  0.27093571890E+03  0.00000000000E+00 0.  1.
         25    1    1    2    0    0  0.72806836666E+02 -0.52982874777E+02  0.14587887227E+03  0.21216424265E+03  0.12500000000E+03 0.  0.
         25    1    1    2    0    0 -0.72806836666E+02  0.52982874777E+02 -0.21284169250E+03  0.26274437491E+03  0.12500000000E+03 0.  0.
</event>
<event>
 4    0  0.2210826E-002  0.2104441E+03  0.7546771E-02  0.1141215E+00
         21   -1    0    0  502  501  0.00000000000E+00  0.00000000000E+00  0.65561930750E+02  0.65561930750E+02  0.00000000000E+00 0. -1.
         21   -1    0    0  501  502 -0.00000000000E+00 -0.00000000000E+00 -0.67549466576E+03  0.67549466576E+03  0.00000000000E+00 0. -1.
         25    1    1    2    0    0 -0.14168931344E+03  0.92525515220E+02 -0.29618015749E+03  0.36329673574E+03  0.12500000000E+03 0.  0.
         25    1    1    2    0    0  0.14168931344E+03 -0.92525515220E+02 -0.31375257753E+03  0.37775986077E+03  0.12500000000E+03 0.  0.
</event>
<event>
 4    0  0.2210826E-002  0.4104622E+03  0.7546771E-02  0.1040216E+00
         21   -1    0    0  502  501  0.00000000000E+00  0.00000000000E+00  0.83591824827E+03  0.83591824827E+03  0.00000000000E+00 0.  1.
         21   -1    0    0  501  502 -0.00000000000E+00 -0.00000000000E+00 -0.20154988027E+03  0.20154988027E+03  0.00000000000E+00 0. -1.
         25    1    1    2    0    0 -0.31782843292E+03  0.45414638832E+02  0.59914266998E+03  0.69113988539E+03  0.12500000000E+03 0.  0.
         25    1    1    2    0    0  0.31782843292E+03 -0.45414638832E+02  0.35225698022E+02  0.34632824314E+03  0.12500000000E+03 0.  0.
</event>
<event>
 4    0  0.2210826E-002  0.2172783E+03  0.7546771E-02  0.1135929E+00
         21   -1    0    0  502  501  0.00000000000E+00  0.00000000000E+00  0.31634593538E+03  0.31634593538E+03  0.00000000000E+00 0.  1.
         21   -1    0    0  501  502 -0.00000000000E+00 -0.00000000000E+00 -0.14923492275E+03  0.14923492275E+03  0.00000000000E+00 0.  1.
         25    1    1    2    0    0  0.49753225253E+02 -0.50402072568E+02  0.25819290479E+03  0.29547305872E+03  0.12500000000E+03 0.  0.
         25    1    1    2    0    0 -0.49753225253E+02  0.50402072568E+02 -0.91081892163E+02  0.17010779942E+03  0.12500000000E+03 0.  0.
</event>
<event>
 4    0  0.2210826E-002  0.1793708E+03  0.7546771E-02  0.1168413E+00
         21   -1    0    0  502  501  0.00000000000E+00  0.00000000000E+00  0.34153634741E+02  0.34153634741E+02  0.00000000000E+00 0. -1.
         21   -1    0    0  501  502 -0.00000000000E+00 -0.00000000000E+00 -0.94203360454E+03  0.94203360454E+03  0.00000000000E+00 0. -1.
         25    1    1    2    0    0  0.13041143234E+02  0.58515335204E+02 -0.14422224380E+03  0.20004792295E+03  0.12500000000E+03 0.  0.
         25    1    1    2    0    0 -0.13041143234E+02 -0.58515335204E+02 -0.76365772600E+03  0.77613931633E+03  0.12500000000E+03 0.  0.
</event>
<event>
 4    0  0.2210826E-002  0.4175164E+03  0.7546771E-02  0.1037878E+00
         21   -1    0    0  502  501  0.00000000000E+00  0.00000000000E+00  0.31085047110E+03  0.31085047110E+03  0.00000000000E+00 0.  1.
         21   -1    0    0  501  502 -0.00000000000E+00 -0.00000000000E+00 -0.56078386528E+03  0.56078386528E+03  0.00000000000E+00 0.  1.
         25    1    1    2    0    0 -0.25432021292E+03 -0.25818692754E+03  0.47678491817E+02  0.38631269567E+03  0.12500000000E+03 0.  0.
         25    1    1    2    0    0  0.25432021292E+03  0.25818692754E+03 -0.29761188600E+03  0.48532164071E+03  0.12500000000E+03 0.  0.
</event>
<event>
 4    0  0.2210826E-002  0.2334151E+03  0.7546771E-02  0.1124259E+00
         21   -1    0    0  502  501  0.00000000000E+00  0.00000000000E+00  0.10887518977E+03  0.10887518977E+03  0.00000000000E+00 0.  1.
         21   -1    0    0  501  502 -0.00000000000E+00 -0.00000000000E+00 -0.50041340277E+03  0.50041340277E+03  0.00000000000E+00 0.  1.
         25    1    1    2    0    0  0.16435639069E+03 -0.81845943018E+02 -0.10214417152E+03  0.24447947424E+03  0.12500000000E+03 0.  0.
         25    1    1    2    0    0 -0.16435639069E+03  0.81845943018E+02 -0.28939404148E+03  0.36480911830E+03  0.12500000000E+03 0.  0.
</event>
<event>
 4    0  0.2210826E-002  0.2540026E+03  0.7546771E-02  0.1110801E+00
         21   -1    0    0  502  501  0.00000000000E+00  0.00000000000E+00  0.16659022350E+04  0.16659022350E+04  0.00000000000E+00 0. -1.
         21   -1    0    0  501  502 -0.00000000000E+00 -0.00000000000E+00 -0.38728143807E+02  0.38728143807E+02  0.00000000000E+00 0. -1.
         25    1    1    2    0    0 -0.82787887133E+02 -0.14322342669E+03  0.13058973528E+04  0.13222555276E+04  0.12500000000E+03 0.  0.
         25    1    1    2    0    0  0.82787887133E+02  0.14322342669E+03  0.32127673841E+03  0.38237485123E+03  0.12500000000E+03 0.  0.
</event>
<event>
 4    0  0.2210826E-002  0.2578293E+03  0.7546771E-02  0.1108455E+00
         21   -1    0    0  502  501  0.00000000000E+00  0.00000000000E+00  0.14769371493E+03  0.14769371493E+03  0.00000000000E+00 0.  1.
         21   -1    0    0  501  502 -0.00000000000E+00 -0.00000000000E+00 -0.45009314434E+03  0.45009314434E+03  0.00000000000E+00 0.  1.
         25    1    1    2    0    0  0.45760101370E+02 -0.21939527221E+03 -0.18012704287E+03  0.31352675152E+03  0.12500000000E+03 0.  0.
         25    1    1    2    0    0 -0.45760101370E+02  0.21939527221E+03 -0.12227238655E+03  0.28426010775E+03  0.12500000000E+03 0.  0.
</event>
<event>
 4    0  0.2210826E-002  0.3351981E+03  0.7546771E-02  0.1068860E+00
         21   -1    0    0  502  501  0.00000000000E+00  0.00000000000E+00  0.11663424698E+04  0.11663424698E+04  0.00000000000E+00 0.  1.
         21   -1    0    0  501  502 -0.00000000000E+00 -0.00000000000E+00 -0.96333430612E+02  0.96333430612E+02  0.00000000000E+00 0.  1.
         25    1    1    2    0    0 -0.26909091028E+03  0.12519284255E+03  0.71017401919E+03  0.77977900931E+03  0.12500000000E+03 0.  0.
         25    1    1    2    0    0  0.26909091028E+03 -0.12519284255E+03  0.35983502000E+03  0.48289689110E+03  0.12500000000E+03 0.  0.
</event>
<event>
 4    0  0.2210826E-002  0.2705065E+03  0.7546771E-02  0.1100990E+00
         21   -1    0    0  502  501  0.00000000000E+00  0.00000000000E+00  0.15997203154E+03  0.15997203154E+03  0.00000000000E+00 0.  1.
         21   -1    0    0  501  502 -0.00000000000E+00 -0.00000000000E+00 -0.45741599941E+03  0.45741599941E+03  0.00000000000E+00 0.  1.
         25    1    1    2    0    0  0.12160601466E+03  0.20378355837E+03 -0.10865072728E+03  0.28938856578E+03  0.12500000000E+03 0.  0.
         25    1    1    2    0    0 -0.12160601466E+03 -0.20378355837E+03 -0.18879324059E+03  0.32799946517E+03  0.12500000000E+03 0.  0.
</event>
<event>
 4    0  0.2210826E-002  0.4122570E+03  0.7546771E-02  0.1039616E+00
         21   -1    0    0  502  501  0.00000000000E+00  0.00000000000E+00  0.25342390322E+03  0.25342390322E+03  0.00000000000E+00 0.  1.
         21   -1    0    0  501  502 -0.00000000000E+00 -0.00000000000E+00 -0.67063851440E+03  0.67063851440E+03  0.00000000000E+00 0.  1.
         25    1    1    2    0    0  0.66638019301E+02 -0.19634215862E+03 -0.58257045712E+03  0.63087574560E+03  0.12500000000E+03 0.  0.
         25    1    1    2    0    0 -0.66638019301E+02  0.19634215862E+03  0.16535584594E+03  0.29318667202E+03  0.12500000000E+03 0.  0.
</event>
<event>
 4    0  0.2210826E-002  0.2264283E+03  0.7546771E-02  0.1129179E+00
         21   -1    0    0  502  501  0.00000000000E+00  0.00000000000E+00  0.57700098109E+03  0.57700098109E+03  0.00000000000E+00 0.  1.
         21   -1    0    0  501  502 -0.00000000000E+00 -0.00000000000E+00 -0.88855601244E+02  0.88855601244E+02  0.00000000000E+00 0.  1.
         25    1    1    2    0    0  0.69064587451E+02 -0.84111746161E+01  0.50213484002E+03  0.52211594753E+03  0.12500000000E+03 0.  0.
         25    1    1    2    0    0 -0.69064587451E+02  0.84111746161E+01 -0.13989460178E+02  0.14374063481E+03  0.12500000000E+03 0.  0.
</event>
<event>
 4    0  0.2210826E-002  0.3087401E+03  0.7546771E-02  0.1080951E+00
         21   -1    0    0  502  501  0.00000000000E+00  0.00000000000E+00  0.99880117968E+03  0.99880117968E+03  0.00000000000E+00 0.  1.
         21   -1    0    0  501  502 -0.00000000000E+00 -0.00000000000E+00 -0.95434828336E+02  0.95434828336E+02  0.00000000000E+00 0.  1.
         25    1    1    2    0    0  0.13925743424E+03  0.22399191558E+03  0.63004483366E+03  0.69436770062E+03  0.12500000000E+03 0.  0.
         25    1    1    2    0    0 -0.13925743424E+03 -0.22399191558E+03  0.27332151768E+03  0.39986830740E+03  0.12500000000E+03 0.  0.
</event>
<event>
 4    0  0.2210826E-002  0.1912595E+03  0.7546771E-02  0.1157330E+00
         21   -1    0    0  502  501  0.00000000000E+00  0.00000000000E+00  0.68427712450E+03  0.68427712450E+03  0.00000000000E+00 0. -1.
         21   -1    0    0  501  502 -0.00000000000E+00 -0.00000000000E+00 -0.53458158854E+02  0.53458158854E+02  0.00000000000E+00 0. -1.
         25    1    1    2    0    0 -0.14061847374E+03 -0.56901577749E+01  0.38079131780E+03  0.42477401141E+03  0.12500000000E+03 0.  0.
         25    1    1    2    0    0  0.14061847374E+03  0.56901577749E+01  0.25002764785E+03  0.31296127195E+03  0.12500000000E+03 0.  0.
</event>
<event>
 4    0  0.2210826E-002  0.2685858E+03  0.7546771E-02  0.1102092E+00
         21   -1    0    0  502  501  0.00000000000E+00  0.00000000000E+00  0.81911888164E+03  0.81911888164E+03  0.00000000000E+00 0. -1.
         21   -1    0    0  501  502 -0.00000000000E+00 -0.00000000000E+00 -0.88068209858E+02  0.88068209858E+02  0.00000000000E+00 0. -1.
         25    1    1    2    0    0 -0.20043007245E+03  0.23834985994E+02  0.57762556860E+03  0.62451310475E+03  0.12500000000E+03 0.  0.
         25    1    1    2    0    0  0.20043007245E+03 -0.23834985994E+02  0.15342510318E+03  0.28267398675E+03  0.12500000000E+03 0.  0.
</event>
<event>
 4    0  0.2210826E-002  0.2073389E+03  0.7546771E-02  0.1143691E+00
         21   -1    0    0  502  501  0.00000000000E+00  0.00000000000E+00  0.50121623562E+03  0.50121623562E+03  0.00000000000E+00 0. -1.
         21   -1    0    0  501  502 -0.00000000000E+00 -0.00000000000E+00 -0.85770169484E+02  0.85770169484E+02  0.00000000000E+00 0. -1.
         25    1    1    2    0    0 -0.91377776496E+02 -0.12440285717E+03  0.12352095503E+03  0.23389825831E+03  0.12500000000E+03 0.  0.
         25    1    1    2    0    0  0.91377776496E+02  0.12440285717E+03  0.29192511111E+03  0.35308814680E+03  0.12500000000E+03 0.  0.
</event>
<event>
 4    0  0.2210826E-002  0.1541054E+03  0.7546771E-02  0.1195517E+00
         21   -1    0    0  502  501  0.00000000000E+00  0.00000000000E+00  0.64425525085E+02  0.64425525085E+02  0.00000000000E+00 0.  1.
         21   -1    0    0  501  502 -0.00000000000E+00 -0.00000000000E+00 -0.36861919392E+03  0.36861919392E+03  0.00000000000E+00 0.  1.
         25    1    1    2    0    0  0.33836339380E+02  0.69818551959E+02 -0.21654391243E+03  0.26179341869E+03  0.12500000000E+03 0.  0.
         25    1    1    2    0    0 -0.33836339380E+02 -0.69818551959E+02 -0.87649756403E+02  0.17125130031E+03  0.12500000000E+03 0.  0.
</event>
<event>
 4    0  0.2210826E-002  0.1820686E+03  0.7546771E-02  0.1165816E+00
         21   -1    0    0  502  501  0.00000000000E+00  0.00000000000E+00  0.68395953763E+03  0.68395953763E+03  0.00000000000E+00 0. -1.
         21   -1    0    0  501  502 -0.00000000000E+00 -0.00000000000E+00 -0.48466266249E+02  0.48466266249E+02  0.00000000000E+00 0. -1.
         25    1    1    2    0    0 -0.78190168731E+02  0.84424542880E+02  0.18611493923E+03  0.25200193755E+03  0.12500000000E+03 0.  0.
         25    1    1    2    0    0  0.78190168731E+02 -0.84424542880E+02  0.44937833215E+03  0.48042386632E+03  0.12500000000E+03 0.  0.
</event>
<event>
 4    0  0.2210826E-002  0.3215551E+03  0.7546771E-02  0.1074936E+00
         21   -1    0    0  502  501  0.00000000000E+00  0.00000000000E+00  0.54272972862E+03  0.54272972862E+03  0.00000000000E+00 0.  1.
         21   -1    0    0  501  502 -0.00000000000E+00 -0.00000000000E+00 -0.19051416839E+03  0.19051416839E+03  0.00000000000E+00 0.  1.
         25    1    1    2    0    0 -0.16001573822E+03  0.10306461882E+03  0.43496349985E+03  0.49096394810E+03  0.12500000000E+03 0.  0.
         25    1    1    2    0    0  0.16001573822E+03 -0.10306461882E+03 -0.82747939620E+02  0.24227994891E+03  0.12500000000E+03 0.  0.
</event>
<event>
 4    0  0.2210826E-002  0.1781520E+03  0.7546771E-02  0.1169604E+00
         21   -1    0    0  502  501  0.00000000000E+00  0.00000000000E+00  0.10040322120E+04  0.10040322120E+04  0.00000000000E+00 0. -1.
         21   -1    0    0  501  502 -0.00000000000E+00 -0.00000000000E+00 -0.31610668671E+02  0.31610668671E+02  0.00000000000E+00 0. -1.
         25    1    1    2    0    0 -0.59414061687E+02 -0.90880363909E+02  0.67733911316E+03  0.69728225668E+03  0.12500000000E+03 0.  0.
         25    1    1    2    0    0  0.59414061687E+02  0.90880363909E+02  0.29508243017E+03  0.33836062399E+03  0.12500000000E+03 0.  0.
</event>
<event>
 4    0  0.2210826E-002  0.2155672E+03  0.7546771E-02  0.1137232E+00
         21   -1    0    0  502  501  0.00000000000E+00  0.00000000000E+00  0.25502243098E+03  0.25502243098E+03  0.00000000000E+00 0.  1.
         21   -1    0    0  501  502 -0.00000000000E+00 -0.00000000000E+00 -0.18221615056E+03  0.18221615056E+03  0.00000000000E+00 0.  1.
         25    1    1    2    0    0  0.12673800806E+03  0.10948366874E+03  0.90019519545E+02  0.22754716062E+03  0.12500000000E+03 0.  0.
         25    1    1    2    0    0 -0.12673800806E+03 -0.10948366874E+03 -0.17213239126E+02  0.20969142092E+03  0.12500000000E+03 0.  0.
</event>
<event>
 4    0  0.2210826E-002  0.2480434E+03  0.7546771E-02  0.1114548E+00
         21   -1    0    0  502  501  0.00000000000E+00  0.00000000000E+00  0.37071385115E+03  0.37071385115E+03  0.00000000000E+00 0.  1.
         21   -1    0    0  501  502 -0.00000000000E+00 -0.00000000000E+00 -0.16596506973E+03  0.16596506973E+03  0.00000000000E+00 0.  1.
         25    1    1    2    0    0  0.19046135329E+03  0.14387613758E+02 -0.26128653007E+01  0.22828569292E+03  0.12500000000E+03 0.  0.
         25    1    1    2    0    0 -0.19046135329E+03 -0.14387613758E+02  0.20736164671E+03  0.30839322796E+03  0.12500000000E+03 0.  0.
</event>
<event>
 4    0  0.2210826E-002  0.1804315E+03  0.7546771E-02  0.1167386E+00
         21   -1    0    0  502  501  0.00000000000E+00  0.00000000000E+00  0.80750751417E+03  0.80750751417E+03  0.00000000000E+00 0.  1.
         21   -1    0    0  501  502 -0.00000000000E+00 -0.00000000000E+00 -0.40316058465E+02  0.40316058465E+02  0.00000000000E+00 0.  1.
         25    1    1    2    0    0  0.42722419793E+02  0.10871831789E+03  0.24892496614E+03  0.30204886453E+03  0.12500000000E+03 0.  0.
         25    1    1    2    0    0 -0.42722419793E+02 -0.10871831789E+03  0.51826648957E+03  0.54577470810E+03  0.12500000000E+03 0.  0.
</event>
<event>
 4    0  0.2210826E-002  0.1774534E+03  0.7546771E-02  0.1170291E+00
         21   -1    0    0  502  501  0.00000000000E+00  0.00000000000E+00  0.29967424748E+02  0.29967424748E+02  0.00000000000E+00 0. -1.
         21   -1    0    0  501  502 -0.00000000000E+00 -0.00000000000E+00 -0.10507974676E+04  0.10507974676E+04  0.00000000000E+00 0. -1.
         25    1    1    2    0    0 -0.10409043436E+03 -0.70165121966E+02 -0.54187530604E+03  0.57009807065E+03  0.12500000000E+03 0.  0.
         25    1    1    2    0    0  0.10409043436E+03  0.70165121966E+02 -0.47895473679E+03  0.51066682168E+03  0.12500000000E+03 0.  0.
</event>
<event>
 4    0  0.2210826E-002  0.1883353E+03  0.7546771E-02  0.1159971E+00
         21   -1    0    0  502  501  0.00000000000E+00  0.00000000000E+00  0.98080327734E+03  0.98080327734E+03  0.00000000000E+00 0.  1.
         21   -1    0    0  501  502 -0.00000000000E+00 -0.00000000000E+00 -0.36164441129E+02  0.36164441129E+02  0.00000000000E+00 0.  1.
         25    1    1    2    0    0  0.33766385043E+02  0.33796535114E+02  0.11451758557E+03  0.17612964529E+03  0.12500000000E+03 0.  0.
         25    1    1    2    0    0 -0.33766385043E+02 -0.33796535114E+02  0.83012125064E+03  0.84083807318E+03  0.12500000000E+03 0.  0.
</event>
<event>
 4    0  0.2210826E-002  0.1927677E+03  0.7546771E-02  0.1155988E+00
         21   -1    0    0  502  501  0.00000000000E+00  0.00000000000E+00  0.59995374788E+03  0.59995374788E+03  0.00000000000E+00 0. -1.
         21   -1    0    0  501  502 -0.00000000000E+00 -0.00000000000E+00 -0.61937083249E+02  0.61937083249E+02  0.00000000000E+00 0. -1.
         25    1    1    2    0    0  0.13437012797E+03  0.58983278355E+02  0.26928945123E+03  0.33117392252E+03  0.12500000000E+03 0.  0.
         25    1    1    2    0    0 -0.13437012797E+03 -0.58983278355E+02  0.26872721341E+03  0.33071690861E+03  0.12500000000E+03 0.  0.
</event>
<event>
 4    0  0.2210826E-002  0.2454841E+03  0.7546771E-02  0.1116192E+00
         21   -1    0    0  502  501  0.00000000000E+00  0.00000000000E+00  0.95869326470E+03  0.95869326470E+03  0.00000000000E+00 0.  1.
         21   -1    0    0  501  502 -0.00000000000E+00 -0.00000000000E+00 -0.62858948833E+02  0.62858948833E+02  0.00000000000E+00 0.  1.
         25    1    1    2    0    0 -0.15857479794E+02  0.16112004852E+02  0.88499259448E+03  0.89406260891E+03  0.12500000000E+03 0.  0.
         25    1    1    2    0    0  0.15857479794E+02 -0.16112004852E+02  0.10841721393E+02  0.12748960463E+03  0.12500000000E+03 0.  0.
</event>
<event>
 4    0  0.2210826E-002  0.2365535E+03  0.7546771E-02  0.1122110E+00
         21   -1    0    0  502  501  0.00000000000E+00  0.00000000000E+00  0.58491223460E+02  0.58491223460E+02  0.00000000000E+00 0. -1.
         21   -1    0    0  501  502 -0.00000000000E+00 -0.00000000000E+00 -0.95668266120E+03  0.95668266120E+03  0.00000000000E+00 0. -1.
         25    1    1    2    0    0  0.54314697005E+01  0.17575491316E+03 -0.65728142575E+03  0.69178259807E+03  0.12500000000E+03 0.  0.
         25    1    1    2    0    0 -0.54314697005E+01 -0.17575491316E+03 -0.24091001199E+03  0.32339128659E+03  0.12500000000E+03 0.  0.
</event>
<event>
 4    0  0.2210826E-002  0.2261000E+03  0.7546771E-02  0.1129415E+00
         21   -1    0    0  502  501  0.00000000000E+00  0.00000000000E+00  0.26017933063E+02  0.26017933063E+02  0.00000000000E+00 0. -1.
         21   -1    0    0  501  502 -0.00000000000E+00 -0.00000000000E+00 -0.19648452938E+04  0.19648452938E+04  0.00000000000E+00 0. -1.
         25    1    1    2    0    0 -0.62844877079E+02 -0.31115435114E+02 -0.19954013020E+03  0.24568050887E+03  0.12500000000E+03 0.  0.
         25    1    1    2    0    0  0.62844877079E+02  0.31115435114E+02 -0.17392872305E+04  0.17451827180E+04  0.12500000000E+03 0.  0.
</event>
<event>
 4    0  0.2210826E-002  0.2274495E+03  0.7546771E-02  0.1128448E+00
         21   -1    0    0  502  501  0.00000000000E+00  0.00000000000E+00  0.79490931447E+02  0.79490931447E+02  0.00000000000E+00 0. -1.
         21   -1    0    0  501  502 -0.00000000000E+00 -0.00000000000E+00 -0.65080729230E+03  0.65080729230E+03  0.00000000000E+00 0. -1.
         25    1    1    2    0    0 -0.10353354340E+03 -0.10890407043E+03 -0.47238980912E+03  0.51123030322E+03  0.12500000000E+03 0.  0.
         25    1    1    2    0    0  0.10353354340E+03  0.10890407043E+03 -0.98926551730E+02  0.21906792053E+03  0.12500000000E+03 0.  0.
</event>
<event>
 4    0  0.2210826E-002  0.2027609E+03  0.7546771E-02  0.1147430E+00
         21   -1    0    0  502  501  0.00000000000E+00  0.00000000000E+00  0.26926702663E+02  0.26926702663E+02  0.00000000000E+00 0. -1.
         21   -1    0    0  501  502 -0.00000000000E+00 -0.00000000000E+00 -0.15268101795E+04  0.15268101795E+04  0.00000000000E+00 0. -1.
         25    1    1    2    0    0  0.29995404490E+02 -0.13159883652E+03 -0.10766049856E+04  0.10922093540E+04  0.12500000000E+03 0.  0.
         25    1    1    2    0    0 -0.29995404490E+02  0.13159883652E+03 -0.42327849132E+03  0.46152752819E+03  0.12500000000E+03 0.  0.
</event>
<event>
 4    0  0.2210826E-002  0.2032417E+03  0.7546771E-02  0.1147032E+00
         21   -1    0    0  502  501  0.00000000000E+00  0.00000000000E+00  0.63000938631E+02  0.63000938631E+02  0.00000000000E+00 0. -1.
         21   -1    0    0  501  502 -0.00000000000E+00 -0.00000000000E+00 -0.65565960261E+03  0.65565960261E+03  0.00000000000E+00 0. -1.
         25    1    1    2    0    0 -0.47590487510E+01 -0.27603106513E+02 -0.57530076929E+03  0.58938998565E+03  0.12500000000E+03 0.  0.
         25    1    1    2    0    0  0.47590487510E+01  0.27603106513E+02 -0.17357894681E+02  0.12927055559E+03  0.12500000000E+03 0.  0.
</event>
<event>
 4    0  0.2210826E-002  0.1641356E+03  0.7546771E-02  0.1184105E+00
         21   -1    0    0  502  501  0.00000000000E+00  0.00000000000E+00  0.39860785347E+03  0.39860785347E+03  0.00000000000E+00 0. -1.
         21   -1    0    0  501  502 -0.00000000000E+00 -0.00000000000E+00 -0.67586422735E+02  0.67586422735E+02  0.00000000000E+00 0. -1.
         25    1    1    2    0    0 -0.90278414479E+02 -0.31178094777E+02  0.99002589685E+02  0.18587301708E+03  0.12500000000E+03 0.  0.
         25    1    1    2    0    0  0.90278414479E+02  0.31178094777E+02  0.23201884105E+03  0.28032125913E+03  0.12500000000E+03 0.  0.
</event>
<event>
 4    0  0.2210826E-002  0.1994803E+03  0.7546771E-02  0.1150178E+00
         21   -1    0    0  502  501  0.00000000000E+00  0.00000000000E+00  0.82136652569E+02  0.82136652569E+02  0.00000000000E+00 0.  1.
         21   -1    0    0  501  502 -0.00000000000E+00 -0.00000000000E+00 -0.48446557149E+03  0.48446557149E+03  0.00000000000E+00 0.  1.
         25    1    1    2    0    0 -0.14128906946E+03  0.45073804104E+02 -0.13495938026E+03  0.23629067541E+03  0.12500000000E+03 0.  0.
         25    1    1    2    0    0  0.14128906946E+03 -0.45073804104E+02 -0.26736953866E+03  0.33031154865E+03  0.12500000000E+03 0.  0.
</event>
<event>
 4    0  0.2210826E-002  0.2112639E+03  0.7546771E-02  0.1140569E+00
         21   -1    0    0  502  501  0.00000000000E+00  0.00000000000E+00  0.17269748667E+03  0.17269748667E+03  0.00000000000E+00 0. -1.
         21   -1    0    0  501  502 -0.00000000000E+00 -0.00000000000E+00 -0.25844280393E+03  0.25844280393E+03  0.00000000000E+00 0. -1.
         25    1    1    2    0    0  0.13387022680E+03 -0.67367213369E+02 -0.12544080471E+03  0.23199132429E+03  0.12500000000E+03 0.  0.
         25    1    1    2    0    0 -0.13387022680E+03  0.67367213369E+02  0.39695487455E+02  0.19914896631E+03  0.12500000000E+03 0.  0.
</event>
<event>
 4    0  0.2210826E-002  0.3323007E+03  0.7546771E-02  0.1070123E+00
         21   -1    0    0  502  501  0.00000000000E+00  0.00000000000E+00  0.35249596406E+03  0.35249596406E+03  0.00000000000E+00 0. -1.
         21   -1    0    0  501  502 -0.00000000000E+00 -0.00000000000E+00 -0.31326239155E+03  0.31326239155E+03  0.00000000000E+00 0.  1.
         25    1    1    2    0    0 -0.25325309714E+03 -0.10533288668E+03  0.15974090456E+03  0.34113678315E+03  0.12500000000E+03 0.  0.
         25    1    1    2    0    0  0.25325309714E+03  0.10533288668E+03 -0.12050733205E+03  0.32462157246E+03  0.12500000000E+03 0.  0.
</event>
<event>
 4    0  0.2210826E-002  0.2426675E+03  0.7546771E-02  0.1118028E+00
         21   -1    0    0  502  501  0.00000000000E+00  0.00000000000E+00  0.48485722576E+02  0.48485722576E+02  0.00000000000E+00 0. -1.
         21   -1    0    0  501  502 -0.00000000000E+00 -0.00000000000E+00 -0.12145329918E+04  0.12145329918E+04  0.00000000000E+00 0. -1.
         25    1    1    2    0    0 -0.20062816971E+03 -0.23027566726E+02 -0.71263547376E+03  0.75116992071E+03  0.12500000000E+03 0.  0.
         25    1    1    2    0    0  0.20062816971E+03  0.23027566726E+02 -0.45341179542E+03  0.51184879363E+03  0.12500000000E+03 0.  0.
</event>
<event>
 4    0  0.2210826E-002  0.2875513E+03  0.7546771E-02  0.1091635E+00
         21   -1    0    0  502  501  0.00000000000E+00  0.00000000000E+00  0.47271934728E+03  0.47271934728E+03  0.00000000000E+00 0. -1.
         21   -1    0    0  501  502 -0.00000000000E+00 -0.00000000000E+00 -0.17491508188E+03  0.17491508188E+03  0.00000000000E+00 0. -1.
         25    1    1    2    0    0 -0.16026770866E+03 -0.52185768879E+02 -0.72493289514E+02  0.22201209412E+03  0.12500000000E+03 0.  0.
         25    1    1    2    0    0  0.16026770866E+03  0.52185768879E+02  0.37029755491E+03  0.42562233504E+03  0.12500000000E+03 0.  0.
</event>
<event>
 4    0  0.2210826E-002  0.3043367E+03  0.7546771E-02  0.1083093E+00
         21   -1    0    0  502  501  0.00000000000E+00  0.00000000000E+00  0.89733900201E+03  0.89733900201E+03  0.00000000000E+00 0.  1.
         21   -1    0    0  501  502 -0.00000000000E+00 -0.00000000000E+00 -0.10321721658E+03  0.10321721658E+03  0.00000000000E+00 0.  1.
         25    1    1    2    0    0 -0.17095336225E+03  0.16232219348E+02  0.38768722944E+02  0.21590866330E+03  0.12500000000E+03 0.  0.
         25    1    1    2    0    0  0.17095336225E+03 -0.16232219348E+02  0.75535306249E+03  0.78464755529E+03  0.12500000000E+03 0.  0.
</event>
<event>
 4    0  0.2210826E-002  0.1856834E+03  0.7546771E-02  0.1162413E+00
         21   -1    0    0  502  501  0.00000000000E+00  0.00000000000E+00  0.16625266662E+02  0.16625266662E+02  0.00000000000E+00 0. -1.
         21   -1    0    0  501  502 -0.00000000000E+00 -0.00000000000E+00 -0.20738500613E+04  0.20738500613E+04  0.00000000000E+00 0. -1.
         25    1    1    2    0    0  0.20997772303E+02 -0.12361248058E+03 -0.13436611713E+04  0.13552753576E+04  0.12500000000E+03 0.  0.
         25    1    1    2    0    0 -0.20997772303E+02  0.12361248058E+03 -0.71356362337E+03  0.73519997034E+03  0.12500000000E+03 0.  0.
</event>
<event>
 4    0  0.2210826E-002  0.1815231E+03  0.7546771E-02  0.1166337E+00
         21   -1    0    0  502  501  0.00000000000E+00  0.00000000000E+00  0.27201053990E+03  0.27201053990E+03  0.00000000000E+00 0. -1.
         21   -1    0    0  501  502 -0.00000000000E+00 -0.00000000000E+00 -0.12113738612E+03  0.12113738612E+03  0.00000000000E+00 0. -1.
         25    1    1    2    0    0 -0.50275794234E+01 -0.10482522468E+03  0.16147232735E+03  0.22959075936E+03  0.12500000000E+03 0.  0.
         25    1    1    2    0    0  0.50275794234E+01  0.10482522468E+03 -0.10599173567E+02  0.16355716666E+03  0.12500000000E+03 0.  0.
</event>
<event>
 4    0  0.2210826E-002  0.2074768E+03  0.7546771E-02  0.1143580E+00
         21   -1    0    0  502  501  0.00000000000E+00  0.00000000000E+00  0.12681683289E+03  0.12681683289E+03  0.00000000000E+00 0.  1.
         21   -1    0    0  501  502 -0.00000000000E+00 -0.00000000000E+00 -0.33943940152E+03  0.33943940152E+03  0.00000000000E+00 0.  1.
         25    1    1    2    0    0 -0.76666679011E+02 -0.14677753453E+03 -0.10682070876E+03  0.23336042538E+03  0.12500000000E+03 0.  0.
         25    1    1    2    0    0  0.76666679011E+02  0.14677753453E+03 -0.10580185987E+03  0.23289580903E+03  0.12500000000E+03 0.  0.
</event>
<event>
 4    0  0.2210826E-002  0.2495153E+03  0.7546771E-02  0.1113611E+00
         21   -1    0    0  502  501  0.00000000000E+00  0.00000000000E+00  0.10706087201E+04  0.10706087201E+04  0.00000000000E+00 0.  1.
         21   -1    0    0  501  502 -0.00000000000E+00 -0.00000000000E+00 -0.58151874614E+02  0.58151874614E+02  0.00000000000E+00 0.  1.
         25    1    1    2    0    0  0.59359377127E+01  0.19089519914E+03  0.73418426633E+03  0.76884832662E+03  0.12500000000E+03 0.  0.
         25    1    1    2    0    0 -0.59359377127E+01 -0.19089519914E+03  0.27827257913E+03  0.35991226807E+03  0.12500000000E+03 0.  0.
</event>
<event>
 4    0  0.2210826E-002  0.1713197E+03  0.7546771E-02  0.1176479E+00
         21   -1    0    0  502  501  0.00000000000E+00  0.00000000000E+00  0.17583343576E+03  0.17583343576E+03  0.00000000000E+00 0. -1.
         21   -1    0    0  501  502 -0.00000000000E+00 -0.00000000000E+00 -0.16692191133E+03  0.16692191133E+03  0.00000000000E+00 0. -1.
         25    1    1    2    0    0 -0.61930216213E+02 -0.57210959805E+02 -0.76916736696E+02  0.16926201578E+03  0.12500000000E+03 0.  0.
         25    1    1    2    0    0  0.61930216213E+02  0.57210959805E+02  0.85828261123E+02  0.17349333131E+03  0.12500000000E+03 0.  0.
</event>
<event>
 4    0  0.2210826E-002  0.1835390E+03  0.7546771E-02  0.1164421E+00
         21   -1    0    0  502  501  0.00000000000E+00  0.00000000000E+00  0.80509213288E+03  0.80509213288E+03  0.00000000000E+00 0.  1.
         21   -1    0    0  501  502 -0.00000000000E+00 -0.00000000000E+00 -0.41841887564E+02  0.41841887564E+02  0.00000000000E+00 0.  1.
         25    1    1    2    0    0  0.23191973402E+02  0.17613652048E+02  0.68433411467E+03  0.69626596130E+03  0.12500000000E+03 0.  0.
         25    1    1    2    0    0 -0.23191973402E+02 -0.17613652048E+02  0.78916130645E+02  0.15066805914E+03  0.12500000000E+03 0.  0.
</event>
<event>
 4    0  0.2210826E-002  0.2976631E+03  0.7546771E-02  0.1086415E+00
         21   -1    0    0  502  501  0.00000000000E+00  0.00000000000E+00  0.17146382176E+03  0.17146382176E+03  0.00000000000E+00 0. -1.
         21   -1    0    0  501  502 -0.00000000000E+00 -0.00000000000E+00 -0.51674644130E+03  0.51674644130E+03  0.00000000000E+00 0. -1.
         25    1    1    2    0    0  0.16548587565E+03 -0.37451073912E+02  0.70371377361E+02  0.22218300729E+03  0.12500000000E+03 0.  0.
         25    1    1    2    0    0 -0.16548587565E+03  0.37451073912E+02 -0.41565399691E+03  0.46602725577E+03  0.12500000000E+03 0.  0.
</event>
<event>
 4    0  0.2210826E-002  0.2075346E+03  0.7546771E-02  0.1143533E+00
         21   -1    0    0  502  501  0.00000000000E+00  0.00000000000E+00  0.10298828138E+03  0.10298828138E+03  0.00000000000E+00 0.  1.
         21   -1    0    0  501  502 -0.00000000000E+00 -0.00000000000E+00 -0.41820897750E+03  0.41820897750E+03  0.00000000000E+00 0.  1.
         25    1    1    2    0    0 -0.91313387119E+02 -0.12807410240E+03 -0.92308402392E+02  0.22110393829E+03  0.12500000000E+03 0.  0.
         25    1    1    2    0    0  0.91313387119E+02  0.12807410240E+03 -0.22291229373E+03  0.30009332060E+03  0.12500000000E+03 0.  0.
</event>
<event>
 4    0  0.2210826E-002  0.3400458E+03  0.7546771E-02  0.1066776E+00
         21   -1    0    0  502  501  0.00000000000E+00  0.00000000000E+00  0.36721323607E+03  0.36721323607E+03  0.00000000000E+00 0. -1.
         21   -1    0    0  501  502 -0.00000000000E+00 -0.00000000000E+00 -0.31488837290E+03  0.31488837290E+03  0.00000000000E+00 0. -1.
         25    1    1    2    0    0  0.80950850219E+02  0.14250976224E+03  0.29741338312E+03  0.36185880249E+03  0.12500000000E+03 0.  0.
         25    1    1    2    0    0 -0.80950850219E+02 -0.14250976224E+03 -0.24508851995E+03  0.32024280647E+03  0.12500000000E+03 0.  0.
</event>
<event>
 4    0  0.2210826E-002  0.1855400E+03  0.7546771E-02  0.1162547E+00
         21   -1    0    0  502  501  0.00000000000E+00  0.00000000000E+00  0.16785927078E+03  0.16785927078E+03  0.00000000000E+00 0. -1.
         21   -1    0    0  501  502 -0.00000000000E+00 -0.00000000000E+00 -0.20508310051E+03  0.20508310051E+03  0.00000000000E+00 0. -1.
         25    1    1    2    0    0 -0.51340373618E+02  0.15728171791E+02 -0.14540723984E+03  0.19912678059E+03  0.12500000000E+03 0.  0.
         25    1    1    2    0    0  0.51340373618E+02 -0.15728171791E+02  0.10818341011E+03  0.17381559071E+03  0.12500000000E+03 0.  0.
</event>
<event>
 4    0  0.2210826E-002  0.3117867E+03  0.7546771E-02  0.1079493E+00
         21   -1    0    0  502  501  0.00000000000E+00  0.00000000000E+00  0.14488073701E+04  0.14488073701E+04  0.00000000000E+00 0. -1.
         21   -1    0    0  501  502 -0.00000000000E+00 -0.00000000000E+00 -0.67097226352E+02  0.67097226352E+02  0.00000000000E+00 0. -1.
         25    1    1    2    0    0 -0.17400511450E+03  0.12692189917E+03  0.11469439449E+04  0.11736662051E+04  0.12500000000E+03 0.  0.
         25    1    1    2    0    0  0.17400511450E+03 -0.12692189917E+03  0.23476619885E+03  0.34223839130E+03  0.12500000000E+03 0.  0.
</event>
<event>
 4    0  0.2210826E-002  0.1994838E+03  0.7546771E-02  0.1150175E+00
         21   -1    0    0  502  501  0.00000000000E+00  0.00000000000E+00  0.31779158154E+03  0.31779158154E+03  0.00000000000E+00 0. -1.
         21   -1    0    0  501  502 -0.00000000000E+00 -0.00000000000E+00 -0.12521972894E+03  0.12521972894E+03  0.00000000000E+00 0. -1.
         25    1    1    2    0    0  0.31843848464E+02  0.24392908335E+02 -0.70494163587E+02  0.14900829427E+03  0.12500000000E+03 0.  0.
         25    1    1    2    0    0 -0.31843848464E+02 -0.24392908335E+02  0.26306601619E+03  0.29400301620E+03  0.12500000000E+03 0.  0.
</event>
<event>
 4    0  0.2210826E-002  0.4290958E+03  0.7546771E-02  0.1034146E+00
         21   -1    0    0  502  501  0.00000000000E+00  0.00000000000E+00  0.17012996478E+03  0.17012996478E+03  0.00000000000E+00 0.  1.
         21   -1    0    0  501  502 -0.00000000000E+00 -0.00000000000E+00 -0.10822503578E+04  0.10822503578E+04  0.00000000000E+00 0.  1.
         25    1    1    2    0    0 -0.16286628149E+02 -0.31090888452E+03 -0.65657052952E+02  0.34185587216E+03  0.12500000000E+03 0.  0.
         25    1    1    2    0    0  0.16286628149E+02  0.31090888452E+03 -0.84646334002E+03  0.91052445037E+03  0.12500000000E+03 0.  0.
</event>
<event>
 4    0  0.2210826E-002  0.2138253E+03  0.7546771E-02  0.1138572E+00
         21   -1    0    0  502  501  0.00000000000E+00  0.00000000000E+00  0.55674379565E+02  0.55674379565E+02  0.00000000000E+00 0. -1.
         21   -1    0    0  501  502 -0.00000000000E+00 -0.00000000000E+00 -0.82122585411E+03  0.82122585411E+03  0.00000000000E+00 0. -1.
         25    1    1    2    0    0  0.14487848805E+03 -0.95063466143E+02 -0.36569352541E+03  0.42353700361E+03  0.12500000000E+03 0.  0.
         25    1    1    2    0    0 -0.14487848805E+03  0.95063466143E+02 -0.39985794913E+03  0.45336323007E+03  0.12500000000E+03 0.  0.
</event>
<event>
 4    0  0.2210826E-002  0.3527187E+03  0.7546771E-02  0.1061505E+00
         21   -1    0    0  502  501  0.00000000000E+00  0.00000000000E+00  0.64201889583E+03  0.64201889583E+03  0.00000000000E+00 0. -1.
         21   -1    0    0  501  502 -0.00000000000E+00 -0.00000000000E+00 -0.19378012142E+03  0.19378012142E+03  0.00000000000E+00 0. -1.
         25    1    1    2    0    0 -0.27697777855E+03  0.10539729056E+03  0.52588919656E+02  0.32590776784E+03  0.12500000000E+03 0.  0.
         25    1    1    2    0    0  0.27697777855E+03 -0.10539729056E+03  0.39564985475E+03  0.50989124942E+03  0.12500000000E+03 0.  0.
</event>
<event>
 4    0  0.2210826E-002  0.2822241E+03  0.7546771E-02  0.1094480E+00
         21   -1    0    0  502  501  0.00000000000E+00  0.00000000000E+00  0.15316096688E+03  0.15316096688E+03  0.00000000000E+00 0.  1.
         21   -1    0    0  501  502 -0.00000000000E+00 -0.00000000000E+00 -0.52004411756E+03  0.52004411756E+03  0.00000000000E+00 0.  1.
         25    1    1    2    0    0  0.19074329406E+03 -0.56064884735E+02 -0.37012212057E+03  0.43833966243E+03  0.12500000000E+03 0.  0.
         25    1    1    2    0    0 -0.19074329406E+03  0.56064884735E+02  0.32389698890E+01  0.23486542201E+03  0.12500000000E+03 0.  0.
</event>
<event>
 4    0  0.2210826E-002  0.1722508E+03  0.7546771E-02  0.1175521E+00
         21   -1    0    0  502  501  0.00000000000E+00  0.00000000000E+00  0.81989278098E+03  0.81989278098E+03  0.00000000000E+00 0.  1.
         21   -1    0    0  501  502 -0.00000000000E+00 -0.00000000000E+00 -0.36188064700E+02  0.36188064700E+02  0.00000000000E+00 0.  1.
         25    1    1    2    0    0  0.81429762563E+02 -0.79850908255E+02  0.47192743919E+03  0.50134567081E+03  0.12500000000E+03 0.  0.
         25    1    1    2    0    0 -0.81429762563E+02  0.79850908255E+02  0.31177727709E+03  0.35473517487E+03  0.12500000000E+03 0.  0.
</event>
<event>
 4    0  0.2210826E-002  0.2374639E+03  0.7546771E-02  0.1121494E+00
         21   -1    0    0  502  501  0.00000000000E+00  0.00000000000E+00  0.21526939525E+03  0.21526939525E+03  0.00000000000E+00 0. -1.
         21   -1    0    0  501  502 -0.00000000000E+00 -0.00000000000E+00 -0.26194667716E+03  0.26194667716E+03  0.00000000000E+00 0. -1.
         25    1    1    2    0    0 -0.12635915305E+03  0.15245438313E+03  0.16286478482E+02  0.23473223868E+03  0.12500000000E+03 0.  0.
         25    1    1    2    0    0  0.12635915305E+03 -0.15245438313E+03 -0.62963760389E+02  0.24248383373E+03  0.12500000000E+03 0.  0.
</event>
<event>
 4    0  0.2210826E-002  0.3277376E+03  0.7546771E-02  0.1072142E+00
         21   -1    0    0  502  501  0.00000000000E+00  0.00000000000E+00  0.38440447877E+03  0.38440447877E+03  0.00000000000E+00 0.  1.
         21   -1    0    0  501  502 -0.00000000000E+00 -0.00000000000E+00 -0.27942426543E+03  0.27942426543E+03  0.00000000000E+00 0.  1.
         25    1    1    2    0    0  0.13640703159E+03 -0.22639769233E+03  0.20244516490E+03  0.35562879263E+03  0.12500000000E+03 0.  0.
         25    1    1    2    0    0 -0.13640703159E+03  0.22639769233E+03 -0.97464951557E+02  0.30819995156E+03  0.12500000000E+03 0.  0.
</event>
<event>
 4    0  0.2210826E-002  0.2953314E+03  0.7546771E-02  0.1087598E+00
         21   -1    0    0  502  501  0.00000000000E+00  0.00000000000E+00  0.64552317007E+03  0.64552317007E+03  0.00000000000E+00 0. -1.
         21   -1    0    0  501  502 -0.00000000000E+00 -0.00000000000E+00 -0.13511615412E+03  0.13511615412E+03  0.00000000000E+00 0. -1.
         25    1    1    2    0    0  0.27099655867E+02  0.90468920547E+02 -0.75671190188E+02  0.17398317723E+03  0.12500000000E+03 0.  0.
         25    1    1    2    0    0 -0.27099655867E+02 -0.90468920547E+02  0.58607820614E+03  0.60665614696E+03  0.12500000000E+03 0.  0.
</event>
<event>
 4    0  0.2210826E-002  0.2128643E+03  0.7546771E-02  0.1139318E+00
         21   -1    0    0  502  501  0.00000000000E+00  0.00000000000E+00  0.15696703962E+03  0.15696703962E+03  0.00000000000E+00 0.  1.
         21   -1    0    0  501  502 -0.00000000000E+00 -0.00000000000E+00 -0.28866697207E+03  0.28866697207E+03  0.00000000000E+00 0. -1.
         25    1    1    2    0    0  0.16723890122E+03  0.35068306524E+02 -0.88963231075E+02  0.22964775785E+03  0.12500000000E+03 0.  0.
         25    1    1    2    0    0 -0.16723890122E+03 -0.35068306524E+02 -0.42736701372E+02  0.21598625384E+03  0.12500000000E+03 0.  0.
</event>
<event>
 4    0  0.2210826E-002  0.2542153E+03  0.7546771E-02  0.1110669E+00
         21   -1    0    0  502  501  0.00000000000E+00  0.00000000000E+00  0.14988499638E+03  0.14988499638E+03  0.00000000000E+00 0. -1.
         21   -1    0    0  501  502 -0.00000000000E+00 -0.00000000000E+00 -0.43116653796E+03  0.43116653796E+03  0.00000000000E+00 0. -1.
         25    1    1    2    0    0 -0.10846954881E+03  0.10451242628E+03 -0.32601919891E+03  0.38026570753E+03  0.12500000000E+03 0.  0.
         25    1    1    2    0    0  0.10846954881E+03 -0.10451242628E+03  0.44737657325E+02  0.20078582681E+03  0.12500000000E+03 0.  0.
</event>
<event>
 4    0  0.2210826E-002  0.2379231E+03  0.7546771E-02  0.1121184E+00
         21   -1    0    0  502  501  0.00000000000E+00  0.00000000000E+00  0.50781551106E+02  0.50781551106E+02  0.00000000000E+00 0. -1.
         21   -1    0    0  501  502 -0.00000000000E+00 -0.00000000000E+00 -0.11147239686E+04  0.11147239686E+04  0.00000000000E+00 0. -1.
         25    1    1    2    0    0  0.11585293372E+03  0.14599754307E+03 -0.33840844498E+03  0.40605721330E+03  0.12500000000E+03 0.  0.
         25    1    1    2    0    0 -0.11585293372E+03 -0.14599754307E+03 -0.72553397247E+03  0.75944830636E+03  0.12500000000E+03 0.  0.
</event>
<event>
 4    0  0.2210826E-002  0.2576605E+03  0.7546771E-02  0.1108557E+00
         21   -1    0    0  502  501  0.00000000000E+00  0.00000000000E+00  0.99511818766E+03  0.99511818766E+03  0.00000000000E+00 0. -1.
         21   -1    0    0  501  502 -0.00000000000E+00 -0.00000000000E+00 -0.66714613019E+02  0.66714613019E+02  0.00000000000E+00 0. -1.
         25    1    1    2    0    0 -0.18056505498E+03  0.65983039065E+02  0.22208832897E+03  0.31922676328E+03  0.12500000000E+03 0.  0.
         25    1    1    2    0    0  0.18056505498E+03 -0.65983039065E+02  0.70631524567E+03  0.74260603740E+03  0.12500000000E+03 0.  0.
</event>
<event>
 4    0  0.2210826E-002  0.2091563E+03  0.7546771E-02  0.1142236E+00
         21   -1    0    0  502  501  0.00000000000E+00  0.00000000000E+00  0.41779122431E+02  0.41779122431E+02  0.00000000000E+00 0. -1.
         21   -1    0    0  501  502 -0.00000000000E+00 -0.00000000000E+00 -0.10470870513E+04  0.10470870513E+04  0.00000000000E+00 0. -1.
         25    1    1    2    0    0 -0.64249539996E+02 -0.11722246155E+03 -0.76621636881E+03  0.78777003796E+03  0.12500000000E+03 0.  0.
         25    1    1    2    0    0  0.64249539996E+02  0.11722246155E+03 -0.23909156004E+03  0.30109613575E+03  0.12500000000E+03 0.  0.
</event>
<event>
 4    0  0.2210826E-002  0.1796989E+03  0.7546771E-02  0.1168095E+00
         21   -1    0    0  502  501  0.00000000000E+00  0.00000000000E+00  0.13654509702E+03  0.13654509702E+03  0.00000000000E+00 0. -1.
         21   -1    0    0  501  502 -0.00000000000E+00 -0.00000000000E+00 -0.23649095787E+03  0.23649095787E+03  0.00000000000E+00 0. -1.
         25    1    1    2    0    0 -0.94010601984E+02  0.76816251885E+02 -0.95547594742E+02  0.19872864087E+03  0.12500000000E+03 0.  0.
         25    1    1    2    0    0  0.94010601984E+02 -0.76816251885E+02 -0.43982661098E+01  0.17430741402E+03  0.12500000000E+03 0.  0.
</event>
<event>
 4    0  0.2210826E-002  0.2082304E+03  0.7546771E-02  0.1142975E+00
         21   -1    0    0  502  501  0.00000000000E+00  0.00000000000E+00  0.74119378639E+02  0.74119378639E+02  0.00000000000E+00 0.  1.
         21   -1    0    0  501  502 -0.00000000000E+00 -0.00000000000E+00 -0.58500059998E+03  0.58500059998E+03  0.00000000000E+00 0.  1.
         25    1    1    2    0    0  0.75804344220E+02  0.30162414983E+02 -0.48522128272E+03  0.50766205598E+03  0.12500000000E+03 0.  0.
         25    1    1    2    0    0 -0.75804344220E+02 -0.30162414983E+02 -0.25659938626E+02  0.15145792264E+03  0.12500000000E+03 0.  0.
</event>
<event>
 4    0  0.2210826E-002  0.2017464E+03  0.7546771E-02  0.1148274E+00
         21   -1    0    0  502  501  0.00000000000E+00  0.00000000000E+00  0.21374043746E+04  0.21374043746E+04  0.00000000000E+00 0. -1.
         21   -1    0    0  501  502 -0.00000000000E+00 -0.00000000000E+00 -0.19042533299E+02  0.19042533299E+02  0.00000000000E+00 0.  1.
         25    1    1    2    0    0 -0.15290229036E+02 -0.12529443585E+03  0.15702430741E+04  0.15802597250E+04  0.12500000000E+03 0.  0.
         25    1    1    2    0    0  0.15290229036E+02  0.12529443585E+03  0.54811876722E+03  0.57618718290E+03  0.12500000000E+03 0.  0.
</event>
<event>
 4    0  0.2210826E-002  0.2270315E+03  0.7546771E-02  0.1128747E+00
         21   -1    0    0  502  501  0.00000000000E+00  0.00000000000E+00  0.12118610954E+03  0.12118610954E+03  0.00000000000E+00 0. -1.
         21   -1    0    0  501  502 -0.00000000000E+00 -0.00000000000E+00 -0.42532358923E+03  0.42532358923E+03  0.00000000000E+00 0. -1.
         25    1    1    2    0    0  0.14525770501E+03 -0.46023639609E+02 -0.16428263518E+02  0.19776972496E+03  0.12500000000E+03 0.  0.
         25    1    1    2    0    0 -0.14525770501E+03  0.46023639609E+02 -0.28770921617E+03  0.34873997382E+03  0.12500000000E+03 0.  0.
</event>
<event>
 4    0  0.2210826E-002  0.2755028E+03  0.7546771E-02  0.1098171E+00
         21   -1    0    0  502  501  0.00000000000E+00  0.00000000000E+00  0.18793505344E+03  0.18793505344E+03  0.00000000000E+00 0. -1.
         21   -1    0    0  501  502 -0.00000000000E+00 -0.00000000000E+00 -0.40387245130E+03  0.40387245130E+03  0.00000000000E+00 0. -1.
         25    1    1    2    0    0  0.14435506487E+02 -0.57325376558E+01  0.15519664076E+03  0.19988057219E+03  0.12500000000E+03 0.  0.
         25    1    1    2    0    0 -0.14435506487E+02  0.57325376558E+01 -0.37113403862E+03  0.39192693255E+03  0.12500000000E+03 0.  0.
</event>
<event>
 4    0  0.2210826E-002  0.4083026E+03  0.7546771E-02  0.1040942E+00
         21   -1    0    0  502  501  0.00000000000E+00  0.00000000000E+00  0.34263904061E+03  0.34263904061E+03  0.00000000000E+00 0. -1.
         21   -1    0    0  501  502 -0.00000000000E+00 -0.00000000000E+00 -0.48654991956E+03  0.48654991956E+03  0.00000000000E+00 0. -1.
         25    1    1    2    0    0  0.13462332253E+03  0.34007690801E+03  0.61640459637E+02  0.39140808448E+03  0.12500000000E+03 0.  0.
         25    1    1    2    0    0 -0.13462332253E+03 -0.34007690801E+03 -0.20555133858E+03  0.43778087569E+03  0.12500000000E+03 0.  0.
</event>
<event>
 4    0  0.2210826E-002  0.2397498E+03  0.7546771E-02  0.1119960E+00
         21   -1    0    0  502  501  0.00000000000E+00  0.00000000000E+00  0.11336429055E+04  0.11336429055E+04  0.00000000000E+00 0.  1.
         21   -1    0    0  501  502 -0.00000000000E+00 -0.00000000000E+00 -0.50703780766E+02  0.50703780766E+02  0.00000000000E+00 0.  1.
         25    1    1    2    0    0  0.87100922971E+02 -0.12344115432E+03  0.88220541616E+03  0.90373430037E+03  0.12500000000E+03 0.  0.
         25    1    1    2    0    0 -0.87100922971E+02  0.12344115432E+03  0.20073370858E+03  0.28061238590E+03  0.12500000000E+03 0.  0.
</event>
<event>
 4    0  0.2210826E-002  0.2612905E+03  0.7546771E-02  0.1106370E+00
         21   -1    0    0  502  501  0.00000000000E+00  0.00000000000E+00  0.36666988718E+03  0.36666988718E+03  0.00000000000E+00 0. -1.
         21   -1    0    0  501  502 -0.00000000000E+00 -0.00000000000E+00 -0.18619667558E+03  0.18619667558E+03  0.00000000000E+00 0. -1.
         25    1    1    2    0    0  0.56588357707E+01  0.12885769710E+03  0.29100098519E+03  0.34196915344E+03  0.12500000000E+03 0.  0.
         25    1    1    2    0    0 -0.56588357707E+01 -0.12885769710E+03 -0.11052777359E+03  0.21089740932E+03  0.12500000000E+03 0.  0.
</event>
<event>
 4    0  0.2210826E-002  0.2033842E+03  0.7546771E-02  0.1146915E+00
         21   -1    0    0  502  501  0.00000000000E+00  0.00000000000E+00  0.13710603186E+04  0.13710603186E+04  0.00000000000E+00 0.  1.
         21   -1    0    0  501  502 -0.00000000000E+00 -0.00000000000E+00 -0.30170172553E+02  0.30170172553E+02  0.00000000000E+00 0.  1.
         25    1    1    2    0    0  0.15102753230E+03  0.52468179223E+02  0.71639149127E+03  0.74458310088E+03  0.12500000000E+03 0.  0.
         25    1    1    2    0    0 -0.15102753230E+03 -0.52468179223E+02  0.62449865478E+03  0.65664739029E+03  0.12500000000E+03 0.  0.
</event>
<event>
 4    0  0.2210826E-002  0.1867433E+03  0.7546771E-02  0.1161432E+00
         21   -1    0    0  502  501  0.00000000000E+00  0.00000000000E+00  0.64328197372E+03  0.64328197372E+03  0.00000000000E+00 0. -1.
         21   -1    0    0  501  502 -0.00000000000E+00 -0.00000000000E+00 -0.54211150166E+02  0.54211150166E+02  0.00000000000E+00 0. -1.
         25    1    1    2    0    0 -0.13206261610E+03 -0.28354269461E+01  0.21531472164E+03  0.28184038670E+03  0.12500000000E+03 0.  0.
         25    1    1    2    0    0  0.13206261610E+03  0.28354269461E+01  0.37375610191E+03  0.41565273719E+03  0.12500000000E+03 0.  0.
</event>
<event>
 4    0  0.2210826E-002  0.1703817E+03  0.7546771E-02  0.1177450E+00
         21   -1    0    0  502  501  0.00000000000E+00  0.00000000000E+00  0.19486819303E+03  0.19486819303E+03  0.00000000000E+00 0. -1.
         21   -1    0    0  501  502 -0.00000000000E+00 -0.00000000000E+00 -0.14897210908E+03  0.14897210908E+03  0.00000000000E+00 0. -1.
         25    1    1    2    0    0 -0.14542921099E+02 -0.10223630207E+03  0.75776948807E+02  0.17897179662E+03  0.12500000000E+03 0.  0.
         25    1    1    2    0    0  0.14542921099E+02  0.10223630207E+03 -0.29880864857E+02  0.16486850548E+03  0.12500000000E+03 0.  0.
</event>
<event>
 4    0  0.2210826E-002  0.2728947E+03  0.7546771E-02  0.1099634E+00
         21   -1    0    0  502  501  0.00000000000E+00  0.00000000000E+00  0.96589602220E+02  0.96589602220E+02  0.00000000000E+00 0. -1.
         21   -1    0    0  501  502 -0.00000000000E+00 -0.00000000000E+00 -0.77100940213E+03  0.77100940213E+03  0.00000000000E+00 0. -1.
         25    1    1    2    0    0 -0.96098321873E+02 -0.22128454783E+03 -0.29684622779E+03  0.40242318712E+03  0.12500000000E+03 0.  0.
         25    1    1    2    0    0  0.96098321873E+02  0.22128454783E+03 -0.37757357212E+03  0.46517581723E+03  0.12500000000E+03 0.  0.
</event>
<event>
 4    0  0.2210826E-002  0.2839989E+03  0.7546771E-02  0.1093525E+00
         21   -1    0    0  502  501  0.00000000000E+00  0.00000000000E+00  0.11656480107E+04  0.11656480107E+04  0.00000000000E+00 0.  1.
         21   -1    0    0  501  502 -0.00000000000E+00 -0.00000000000E+00 -0.69193582119E+02  0.69193582119E+02  0.00000000000E+00 0.  1.
         25    1    1    2    0    0  0.75734608889E+02 -0.15070316756E+03  0.13240719570E+03  0.24820121106E+03  0.12500000000E+03 0.  0.
         25    1    1    2    0    0 -0.75734608889E+02  0.15070316756E+03  0.96404723289E+03  0.98664038177E+03  0.12500000000E+03 0.  0.
</event>
<event>
 4    0  0.2210826E-002  0.2114325E+03  0.7546771E-02  0.1140437E+00
         21   -1    0    0  502  501  0.00000000000E+00  0.00000000000E+00  0.11145871320E+03  0.11145871320E+03  0.00000000000E+00 0. -1.
         21   -1    0    0  501  502 -0.00000000000E+00 -0.00000000000E+00 -0.40107864448E+03  0.40107864448E+03  0.00000000000E+00 0. -1.
         25    1    1    2    0    0 -0.13170781457E+03  0.73046458997E+02 -0.47875736367E+02  0.20149396945E+03  0.12500000000E+03 0.  0.
         25    1    1    2    0    0  0.13170781457E+03 -0.73046458997E+02 -0.24174419491E+03  0.31104338823E+03  0.12500000000E+03 0.  0.
</event>
<event>
 4    0  0.2210826E-002  0.2701061E+03  0.7546771E-02  0.1101219E+00
         21   -1    0    0  502  501  0.00000000000E+00  0.00000000000E+00  0.77047183629E+03  0.77047183629E+03  0.00000000000E+00 0.  1.
         21   -1    0    0  501  502 -0.00000000000E+00 -0.00000000000E+00 -0.94691703479E+02  0.94691703479E+02  0.00000000000E+00 0.  1.
         25    1    1    2    0    0  0.62084367578E+02  0.13464106486E+03  0.63900074027E+03  0.66777962766E+03  0.12500000000E+03 0.  0.
         25    1    1    2    0    0 -0.62084367578E+02 -0.13464106486E+03  0.36779392533E+02  0.19738391211E+03  0.12500000000E+03 0.  0.
</event>
<event>
 4    0  0.2210826E-002  0.2098498E+03  0.7546771E-02  0.1141685E+00
         21   -1    0    0  502  501  0.00000000000E+00  0.00000000000E+00  0.19334144597E+04  0.19334144597E+04  0.00000000000E+00 0.  1.
         21   -1    0    0  501  502 -0.00000000000E+00 -0.00000000000E+00 -0.22776770678E+02  0.22776770678E+02  0.00000000000E+00 0. -1.
         25    1    1    2    0    0  0.49270387743E+02 -0.15053421886E+03  0.12240334166E+04  0.12405526700E+04  0.12500000000E+03 0.  0.
         25    1    1    2    0    0 -0.49270387743E+02  0.15053421886E+03  0.68660427242E+03  0.71563856035E+03  0.12500000000E+03 0.  0.
</event>
<event>
 4    0  0.2210826E-002  0.2774724E+03  0.7546771E-02  0.1097078E+00
         21   -1    0    0  502  501  0.00000000000E+00  0.00000000000E+00  0.32205087590E+03  0.32205087590E+03  0.00000000000E+00 0. -1.
         21   -1    0    0  501  502 -0.00000000000E+00 -0.00000000000E+00 -0.23906454024E+03  0.23906454024E+03  0.00000000000E+00 0. -1.
         25    1    1    2    0    0 -0.94110341523E+02 -0.20808487408E+03  0.13852834672E+03  0.29490875546E+03  0.12500000000E+03 0.  0.
         25    1    1    2    0    0  0.94110341523E+02  0.20808487408E+03 -0.55542011059E+02  0.26620666069E+03  0.12500000000E+03 0.  0.
</event>
<event>
 4    0  0.2210826E-002  0.1735267E+03  0.7546771E-02  0.1174219E+00
         21   -1    0    0  502  501  0.00000000000E+00  0.00000000000E+00  0.18819319643E+03  0.18819319643E+03  0.00000000000E+00 0. -1.
         21   -1    0    0  501  502 -0.00000000000E+00 -0.00000000000E+00 -0.16000324880E+03  0.16000324880E+03  0.00000000000E+00 0. -1.
         25    1    1    2    0    0  0.97763392261E+02  0.61917151950E+02 -0.19106434432E+02  0.17141024009E+03  0.12500000000E+03 0.  0.
         25    1    1    2    0    0 -0.97763392261E+02 -0.61917151950E+02  0.47296382066E+02  0.17678620514E+03  0.12500000000E+03 0.  0.
</event>
<event>
 4    0  0.2210826E-002  0.1973487E+03  0.7546771E-02  0.1151995E+00
         21   -1    0    0  502  501  0.00000000000E+00  0.00000000000E+00  0.16622970667E+03  0.16622970667E+03  0.00000000000E+00 0. -1.
         21   -1    0    0  501  502 -0.00000000000E+00 -0.00000000000E+00 -0.23429339759E+03  0.23429339759E+03  0.00000000000E+00 0. -1.
         25    1    1    2    0    0  0.72291046559E+02  0.11373016419E+03  0.38868435024E+02  0.18787309787E+03  0.12500000000E+03 0.  0.
         25    1    1    2    0    0 -0.72291046559E+02 -0.11373016419E+03 -0.10693212595E+03  0.21265000640E+03  0.12500000000E+03 0.  0.
</event>
<event>
 4    0  0.2210826E-002  0.1812065E+03  0.7546771E-02  0.1166640E+00
         21   -1    0    0  502  501  0.00000000000E+00  0.00000000000E+00  0.56396719501E+02  0.56396719501E+02  0.00000000000E+00 0.  1.
         21   -1    0    0  501  502 -0.00000000000E+00 -0.00000000000E+00 -0.58222875490E+03  0.58222875490E+03  0.00000000000E+00 0.  1.
         25    1    1    2    0    0  0.11599070075E+03 -0.53033910633E+02 -0.20876460649E+03  0.27472549802E+03  0.12500000000E+03 0.  0.
         25    1    1    2    0    0 -0.11599070075E+03  0.53033910633E+02 -0.31706742891E+03  0.36389997639E+03  0.12500000000E+03 0.  0.
</event>
<event>
 4    0  0.2210826E-002  0.2123425E+03  0.7546771E-02  0.1139724E+00
         21   -1    0    0  502  501  0.00000000000E+00  0.00000000000E+00  0.22573132264E+03  0.22573132264E+03  0.00000000000E+00 0. -1.
         21   -1    0    0  501  502 -0.00000000000E+00 -0.00000000000E+00 -0.19974773197E+03  0.19974773197E+03  0.00000000000E+00 0. -1.
         25    1    1    2    0    0  0.25718038707E+02 -0.25505477843E+01 -0.15702053646E+03  0.20235704010E+03  0.12500000000E+03 0.  0.
         25    1    1    2    0    0 -0.25718038707E+02  0.25505477843E+01  0.18300412714E+03  0.22312201451E+03  0.12500000000E+03 0.  0.
</event>
<event>
 4    0  0.2210826E-002  0.1740445E+03  0.7546771E-02  0.1173695E+00
         21   -1    0    0  502  501  0.00000000000E+00  0.00000000000E+00  0.17338310522E+03  0.17338310522E+03  0.00000000000E+00 0. -1.
         21   -1    0    0  501  502 -0.00000000000E+00 -0.00000000000E+00 -0.17470844476E+03  0.17470844476E+03  0.00000000000E+00 0. -1.
         25    1    1    2    0    0 -0.96334123102E+02  0.58649444317E+02  0.43456490296E+02  0.17387779370E+03  0.12500000000E+03 0.  0.
         25    1    1    2    0    0  0.96334123102E+02 -0.58649444317E+02 -0.44781829835E+02  0.17421375628E+03  0.12500000000E+03 0.  0.
</event>
<event>
 4    0  0.2210826E-002  0.4327078E+03  0.7546771E-02  0.1033008E+00
         21   -1    0    0  502  501  0.00000000000E+00  0.00000000000E+00  0.19984907327E+04  0.19984907327E+04  0.00000000000E+00 0. -1.
         21   -1    0    0  501  502 -0.00000000000E+00 -0.00000000000E+00 -0.93688741356E+02  0.93688741356E+02  0.00000000000E+00 0. -1.
         25    1    1    2    0    0  0.29801567008E+03  0.68297500831E+02  0.27664181226E+03  0.43085215622E+03  0.12500000000E+03 0.  0.
         25    1    1    2    0    0 -0.29801567008E+03 -0.68297500831E+02  0.16281601791E+04  0.16613273178E+04  0.12500000000E+03 0.  0.
</event>
<event>
 4    0  0.2210826E-002  0.2117237E+03  0.7546771E-02  0.1140208E+00
         21   -1    0    0  502  501  0.00000000000E+00  0.00000000000E+00  0.13112370413E+03  0.13112370413E+03  0.00000000000E+00 0.  1.
         21   -1    0    0  501  502 -0.00000000000E+00 -0.00000000000E+00 -0.34186737211E+03  0.34186737211E+03  0.00000000000E+00 0.  1.
         25    1    1    2    0    0  0.68905338499E+02  0.21556547290E+02  0.67634569842E+02  0.15941162267E+03  0.12500000000E+03 0.  0.
         25    1    1    2    0    0 -0.68905338499E+02 -0.21556547290E+02 -0.27837823782E+03  0.31357945356E+03  0.12500000000E+03 0.  0.
</event>
<event>
 4    0  0.2210826E-002  0.1955338E+03  0.7546771E-02  0.1153563E+00
         21   -1    0    0  502  501  0.00000000000E+00  0.00000000000E+00  0.79380606449E+02  0.79380606449E+02  0.00000000000E+00 0.  1.
         21   -1    0    0  501  502 -0.00000000000E+00 -0.00000000000E+00 -0.48164751718E+03  0.48164751718E+03  0.00000000000E+00 0.  1.
         25    1    1    2    0    0 -0.90276625930E+02 -0.72608933636E+02 -0.33863541403E+03  0.37910535484E+03  0.12500000000E+03 0.  0.
         25    1    1    2    0    0  0.90276625930E+02  0.72608933636E+02 -0.63631496708E+02  0.18192276880E+03  0.12500000000E+03 0.  0.
</event>
<event>
 4    0  0.2210826E-002  0.2110587E+03  0.7546771E-02  0.1140730E+00
         21   -1    0    0  502  501  0.00000000000E+00  0.00000000000E+00  0.46159037108E+03  0.46159037108E+03  0.00000000000E+00 0. -1.
         21   -1    0    0  501  502 -0.00000000000E+00 -0.00000000000E+00 -0.96504973801E+02  0.96504973801E+02  0.00000000000E+00 0. -1.
         25    1    1    2    0    0 -0.24720368899E+01 -0.10094291067E+03  0.16220075341E+01  0.16069602698E+03  0.12500000000E+03 0.  0.
         25    1    1    2    0    0  0.24720368899E+01  0.10094291067E+03  0.36346338975E+03  0.39739931790E+03  0.12500000000E+03 0.  0.
</event>
<event>
 4    0  0.2210826E-002  0.2626955E+03  0.7546771E-02  0.1105534E+00
         21   -1    0    0  502  501  0.00000000000E+00  0.00000000000E+00  0.30283028608E+03  0.30283028608E+03  0.00000000000E+00 0. -1.
         21   -1    0    0  501  502 -0.00000000000E+00 -0.00000000000E+00 -0.22787981282E+03  0.22787981282E+03  0.00000000000E+00 0. -1.
         25    1    1    2    0    0  0.15058470892E+03 -0.17202162894E+03  0.71230823527E+02  0.27012224197E+03  0.12500000000E+03 0.  0.
         25    1    1    2    0    0 -0.15058470892E+03  0.17202162894E+03  0.37196497386E+01  0.26058785693E+03  0.12500000000E+03 0.  0.
</event>
<event>
 4    0  0.2210826E-002  0.5885476E+03  0.7546771E-02  0.9929455E-01
         21   -1    0    0  502  501  0.00000000000E+00  0.00000000000E+00  0.60361555979E+03  0.60361555979E+03  0.00000000000E+00 0. -1.
         21   -1    0    0  501  502 -0.00000000000E+00 -0.00000000000E+00 -0.57385583047E+03  0.57385583047E+03  0.00000000000E+00 0. -1.
         25    1    1    2    0    0  0.34175012316E+02 -0.15674788331E+03  0.56734746492E+03  0.60269891019E+03  0.12500000000E+03 0.  0.
         25    1    1    2    0    0 -0.34175012316E+02  0.15674788331E+03 -0.53758773559E+03  0.57477248007E+03  0.12500000000E+03 0.  0.
</event>
<event>
 4    0  0.2210826E-002  0.1926596E+03  0.7546771E-02  0.1156084E+00
         21   -1    0    0  502  501  0.00000000000E+00  0.00000000000E+00  0.45660339025E+03  0.45660339025E+03  0.00000000000E+00 0. -1.
         21   -1    0    0  501  502 -0.00000000000E+00 -0.00000000000E+00 -0.81290930644E+02  0.81290930644E+02  0.00000000000E+00 0. -1.
         25    1    1    2    0    0 -0.63521555152E+02  0.84788753855E+02  0.32911563791E+03  0.36764959386E+03  0.12500000000E+03 0.  0.
         25    1    1    2    0    0  0.63521555152E+02 -0.84788753855E+02  0.46196821702E+02  0.17024472704E+03  0.12500000000E+03 0.  0.
</event>
<event>
 4    0  0.2210826E-002  0.1936864E+03  0.7546771E-02  0.1155178E+00
         21   -1    0    0  502  501  0.00000000000E+00  0.00000000000E+00  0.31698959016E+02  0.31698959016E+02  0.00000000000E+00 0. -1.
         21   -1    0    0  501  502 -0.00000000000E+00 -0.00000000000E+00 -0.11834596616E+04  0.11834596616E+04  0.00000000000E+00 0. -1.
         25    1    1    2    0    0 -0.14533093763E+03 -0.26006310095E+01 -0.66245000350E+03  0.68963240343E+03  0.12500000000E+03 0.  0.
         25    1    1    2    0    0  0.14533093763E+03  0.26006310095E+01 -0.48931069903E+03  0.52552621714E+03  0.12500000000E+03 0.  0.
</event>
<event>
 4    0  0.2210826E-002  0.2277970E+03  0.7546771E-02  0.1128200E+00
         21   -1    0    0  502  501  0.00000000000E+00  0.00000000000E+00  0.15110654175E+04  0.15110654175E+04  0.00000000000E+00 0. -1.
         21   -1    0    0  501  502 -0.00000000000E+00 -0.00000000000E+00 -0.34340998646E+02  0.34340998646E+02  0.00000000000E+00 0. -1.
         25    1    1    2    0    0 -0.14452806512E+03  0.10525831264E+03  0.96076453611E+03  0.98522138011E+03  0.12500000000E+03 0.  0.
         25    1    1    2    0    0  0.14452806512E+03 -0.10525831264E+03  0.51595988271E+03  0.56018503599E+03  0.12500000000E+03 0.  0.
</event>
<event>
 4    0  0.2210826E-002  0.2333557E+03  0.7546771E-02  0.1124300E+00
         21   -1    0    0  502  501  0.00000000000E+00  0.00000000000E+00  0.52252745051E+03  0.52252745051E+03  0.00000000000E+00 0.  1.
         21   -1    0    0  501  502 -0.00000000000E+00 -0.00000000000E+00 -0.10421437317E+03  0.10421437317E+03  0.00000000000E+00 0.  1.
         25    1    1    2    0    0  0.68105426133E+02  0.24270541224E+02 -0.37008213931E+02  0.14907050727E+03  0.12500000000E+03 0.  0.
         25    1    1    2    0    0 -0.68105426133E+02 -0.24270541224E+02  0.45532129127E+03  0.47767131641E+03  0.12500000000E+03 0.  0.
</event>
<event>
 4    0  0.2210826E-002  0.2056306E+03  0.7546771E-02  0.1145074E+00
         21   -1    0    0  502  501  0.00000000000E+00  0.00000000000E+00  0.38535248395E+03  0.38535248395E+03  0.00000000000E+00 0.  1.
         21   -1    0    0  501  502 -0.00000000000E+00 -0.00000000000E+00 -0.10972801293E+03  0.10972801293E+03  0.00000000000E+00 0. -1.
         25    1    1    2    0    0  0.13961040519E+03 -0.79128748297E+02  0.17405748235E+03  0.26771894069E+03  0.12500000000E+03 0.  0.
         25    1    1    2    0    0 -0.13961040519E+03  0.79128748297E+02  0.10156698866E+03  0.22736155618E+03  0.12500000000E+03 0.  0.
</event>
<event>
 4    0  0.2210826E-002  0.1854343E+03  0.7546771E-02  0.1162645E+00
         21   -1    0    0  502  501  0.00000000000E+00  0.00000000000E+00  0.58885484880E+03  0.58885484880E+03  0.00000000000E+00 0. -1.
         21   -1    0    0  501  502 -0.00000000000E+00 -0.00000000000E+00 -0.58394475414E+02  0.58394475414E+02  0.00000000000E+00 0. -1.
         25    1    1    2    0    0 -0.10661678766E+03 -0.54877609815E+02  0.38076068180E+03  0.41830896270E+03  0.12500000000E+03 0.  0.
         25    1    1    2    0    0  0.10661678766E+03  0.54877609815E+02  0.14969969159E+03  0.22894036152E+03  0.12500000000E+03 0.  0.
</event>
<event>
 4    0  0.2210826E-002  0.1511227E+03  0.7546771E-02  0.1199100E+00
         21   -1    0    0  502  501  0.00000000000E+00  0.00000000000E+00  0.53045338989E+03  0.53045338989E+03  0.00000000000E+00 0. -1.
         21   -1    0    0  501  502 -0.00000000000E+00 -0.00000000000E+00 -0.43053858368E+02  0.43053858368E+02  0.00000000000E+00 0. -1.
         25    1    1    2    0    0  0.60331912971E+02 -0.50997423765E+02  0.18453010296E+03  0.23646783260E+03  0.12500000000E+03 0.  0.
         25    1    1    2    0    0 -0.60331912971E+02  0.50997423765E+02  0.30286942856E+03  0.33703941566E+03  0.12500000000E+03 0.  0.
</event>
<event>
 4    0  0.2210826E-002  0.2168574E+03  0.7546771E-02  0.1136248E+00
         21   -1    0    0  502  501  0.00000000000E+00  0.00000000000E+00  0.11679464453E+03  0.11679464453E+03  0.00000000000E+00 0.  1.
         21   -1    0    0  501  502 -0.00000000000E+00 -0.00000000000E+00 -0.40264819844E+03  0.40264819844E+03  0.00000000000E+00 0.  1.
         25    1    1    2    0    0 -0.49407595825E+02  0.79238376862E+01 -0.34652277612E+03  0.37176192933E+03  0.12500000000E+03 0.  0.
         25    1    1    2    0    0  0.49407595825E+02 -0.79238376862E+01  0.60669222210E+02  0.14768091364E+03  0.12500000000E+03 0.  0.
</event>
<event>
 4    0  0.2210826E-002  0.2564396E+03  0.7546771E-02  0.1109301E+00
         21   -1    0    0  502  501  0.00000000000E+00  0.00000000000E+00  0.52198306987E+03  0.52198306987E+03  0.00000000000E+00 0. -1.
         21   -1    0    0  501  502 -0.00000000000E+00 -0.00000000000E+00 -0.12598351096E+03  0.12598351096E+03  0.00000000000E+00 0. -1.
         25    1    1    2    0    0 -0.63650044068E+02 -0.15743271282E+03  0.13614581976E+02  0.21129776151E+03  0.12500000000E+03 0.  0.
         25    1    1    2    0    0  0.63650044068E+02  0.15743271282E+03  0.38238497694E+03  0.43666881932E+03  0.12500000000E+03 0.  0.
</event>
<event>
 4    0  0.2210826E-002  0.2024060E+03  0.7546771E-02  0.1147725E+00
         21   -1    0    0  502  501  0.00000000000E+00  0.00000000000E+00  0.12612640932E+03  0.12612640932E+03  0.00000000000E+00 0.  1.
         21   -1    0    0  501  502 -0.00000000000E+00 -0.00000000000E+00 -0.32481850095E+03  0.32481850095E+03  0.00000000000E+00 0.  1.
         25    1    1    2    0    0 -0.14747033196E+03 -0.56866591633E+02 -0.78154907653E+02  0.21613536879E+03  0.12500000000E+03 0.  0.
         25    1    1    2    0    0  0.14747033196E+03  0.56866591633E+02 -0.12053718397E+03  0.23480954148E+03  0.12500000000E+03 0.  0.
</event>
<event>
 4    0  0.2210826E-002  0.2387029E+03  0.7546771E-02  0.1120660E+00
         21   -1    0    0  502  501  0.00000000000E+00  0.00000000000E+00  0.64358647034E+03  0.64358647034E+03  0.00000000000E+00 0.  1.
         21   -1    0    0  501  502 -0.00000000000E+00 -0.00000000000E+00 -0.88533673305E+02  0.88533673305E+02  0.00000000000E+00 0.  1.
         25    1    1    2    0    0  0.66098701812E+02 -0.18194369730E+03  0.37306875932E+03  0.43849497893E+03  0.12500000000E+03 0.  0.
         25    1    1    2    0    0 -0.66098701812E+02  0.18194369730E+03  0.18198403772E+03  0.29362516471E+03  0.12500000000E+03 0.  0.
</event>
<event>
 4    0  0.2210826E-002  0.1809511E+03  0.7546771E-02  0.1166886E+00
         21   -1    0    0  502  501  0.00000000000E+00  0.00000000000E+00  0.63056763126E+03  0.63056763126E+03  0.00000000000E+00 0. -1.
         21   -1    0    0  501  502 -0.00000000000E+00 -0.00000000000E+00 -0.51926709674E+02  0.51926709674E+02  0.00000000000E+00 0. -1.
         25    1    1    2    0    0  0.95980214145E+02  0.87337930952E+02  0.32077446536E+03  0.36791489956E+03  0.12500000000E+03 0.  0.
         25    1    1    2    0    0 -0.95980214145E+02 -0.87337930952E+02  0.25786645623E+03  0.31457944138E+03  0.12500000000E+03 0.  0.
</event>
<event>
 4    0  0.2210826E-002  0.2087835E+03  0.7546771E-02  0.1142533E+00
         21   -1    0    0  502  501  0.00000000000E+00  0.00000000000E+00  0.90826264148E+02  0.90826264148E+02  0.00000000000E+00 0. -1.
         21   -1    0    0  501  502 -0.00000000000E+00 -0.00000000000E+00 -0.47993347557E+03  0.47993347557E+03  0.00000000000E+00 0. -1.
         25    1    1    2    0    0 -0.84100739149E+02 -0.35609931405E+02 -0.38603522285E+03  0.41591969756E+03  0.12500000000E+03 0.  0.
         25    1    1    2    0    0  0.84100739149E+02  0.35609931405E+02 -0.30719885707E+01  0.15484004215E+03  0.12500000000E+03 0.  0.
</event>
<event>
 4    0  0.2210826E-002  0.1680187E+03  0.7546771E-02  0.1179930E+00
         21   -1    0    0  502  501  0.00000000000E+00  0.00000000000E+00  0.14134524671E+03  0.14134524671E+03  0.00000000000E+00 0. -1.
         21   -1    0    0  501  502 -0.00000000000E+00 -0.00000000000E+00 -0.19972564596E+03  0.19972564596E+03  0.00000000000E+00 0. -1.
         25    1    1    2    0    0  0.92072504762E+02  0.56674759876E+02  0.15269038534E+01  0.16527766327E+03  0.12500000000E+03 0.  0.
         25    1    1    2    0    0 -0.92072504762E+02 -0.56674759876E+02 -0.59907303096E+02  0.17579322940E+03  0.12500000000E+03 0.  0.
</event>
<event>
 4    0  0.2210826E-002  0.2395362E+03  0.7546771E-02  0.1120102E+00
         21   -1    0    0  502  501  0.00000000000E+00  0.00000000000E+00  0.45581432901E+03  0.45581432901E+03  0.00000000000E+00 0. -1.
         21   -1    0    0  501  502 -0.00000000000E+00 -0.00000000000E+00 -0.12587925338E+03  0.12587925338E+03  0.00000000000E+00 0. -1.
         25    1    1    2    0    0  0.13215728052E+03 -0.48991830415E+01 -0.24164728498E+02  0.18357146536E+03  0.12500000000E+03 0.  0.
         25    1    1    2    0    0 -0.13215728052E+03  0.48991830415E+01  0.35409980412E+03  0.39812211703E+03  0.12500000000E+03 0.  0.
</event>
<event>
 4    0  0.2210826E-002  0.2415832E+03  0.7546771E-02  0.1118743E+00
         21   -1    0    0  502  501  0.00000000000E+00  0.00000000000E+00  0.20987732858E+04  0.20987732858E+04  0.00000000000E+00 0. -1.
         21   -1    0    0  501  502 -0.00000000000E+00 -0.00000000000E+00 -0.27807889301E+02  0.27807889301E+02  0.00000000000E+00 0. -1.
         25    1    1    2    0    0  0.18780673427E+03 -0.86135588659E+02  0.10053902162E+04  0.10339851043E+04  0.12500000000E+03 0.  0.
         25    1    1    2    0    0 -0.18780673427E+03  0.86135588659E+02  0.10655751802E+04  0.10925960708E+04  0.12500000000E+03 0.  0.
</event>
<event>
 4    0  0.2210826E-002  0.1953683E+03  0.7546771E-02  0.1153707E+00
         21   -1    0    0  502  501  0.00000000000E+00  0.00000000000E+00  0.61686785894E+03  0.61686785894E+03  0.00000000000E+00 0. -1.
         21   -1    0    0  501  502 -0.00000000000E+00 -0.00000000000E+00 -0.61875131336E+02  0.61875131336E+02  0.00000000000E+00 0. -1.
         25    1    1    2    0    0  0.65156381278E+02 -0.12229743477E+03  0.17707894338E+03  0.25726245113E+03  0.12500000000E+03 0.  0.
         25    1    1    2    0    0 -0.65156381278E+02  0.12229743477E+03  0.37791378422E+03  0.42148053914E+03  0.12500000000E+03 0.  0.
</event>
<event>
 4    0  0.2210826E-002  0.2036069E+03  0.7546771E-02  0.1146731E+00
         21   -1    0    0  502  501  0.00000000000E+00  0.00000000000E+00  0.39872764995E+02  0.39872764995E+02  0.00000000000E+00 0. -1.
         21   -1    0    0  501  502 -0.00000000000E+00 -0.00000000000E+00 -0.10397017252E+04  0.10397017252E+04  0.00000000000E+00 0. -1.
         25    1    1    2    0    0 -0.15926801794E+03  0.87493742005E+01 -0.55213082208E+03  0.58814649347E+03  0.12500000000E+03 0.  0.
         25    1    1    2    0    0  0.15926801794E+03 -0.87493742005E+01 -0.44769813814E+03  0.49142799674E+03  0.12500000000E+03 0.  0.
</event>
<event>
 4    0  0.2210826E-002  0.2625162E+03  0.7546771E-02  0.1105641E+00
         21   -1    0    0  502  501  0.00000000000E+00  0.00000000000E+00  0.40790709190E+03  0.40790709190E+03  0.00000000000E+00 0. -1.
         21   -1    0    0  501  502 -0.00000000000E+00 -0.00000000000E+00 -0.16894722574E+03  0.16894722574E+03  0.00000000000E+00 0. -1.
         25    1    1    2    0    0 -0.83953445575E+02  0.19411420490E+03  0.22113967111E+03  0.33053934668E+03  0.12500000000E+03 0.  0.
         25    1    1    2    0    0  0.83953445575E+02 -0.19411420490E+03  0.17820195043E+02  0.24631497096E+03  0.12500000000E+03 0.  0.
</event>
<event>
 4    0  0.2210826E-002  0.2993126E+03  0.7546771E-02  0.1085585E+00
         21   -1    0    0  502  501  0.00000000000E+00  0.00000000000E+00  0.24555512009E+03  0.24555512009E+03  0.00000000000E+00 0.  1.
         21   -1    0    0  501  502 -0.00000000000E+00 -0.00000000000E+00 -0.36483889060E+03  0.36483889060E+03  0.00000000000E+00 0.  1.
         25    1    1    2    0    0 -0.17150638292E+03  0.21106165358E+03 -0.58353478331E+02  0.30494522365E+03  0.12500000000E+03 0.  0.
         25    1    1    2    0    0  0.17150638292E+03 -0.21106165358E+03 -0.60930292179E+02  0.30544878703E+03  0.12500000000E+03 0.  0.
</event>
<event>
 4    0  0.2210826E-002  0.1964064E+03  0.7546771E-02  0.1152807E+00
         21   -1    0    0  502  501  0.00000000000E+00  0.00000000000E+00  0.92967688414E+02  0.92967688414E+02  0.00000000000E+00 0. -1.
         21   -1    0    0  501  502 -0.00000000000E+00 -0.00000000000E+00 -0.41493403620E+03  0.41493403620E+03  0.00000000000E+00 0. -1.
         25    1    1    2    0    0  0.13444972325E+03  0.19230961349E+02 -0.74209391945E+02  0.19894369005E+03  0.12500000000E+03 0.  0.
         25    1    1    2    0    0 -0.13444972325E+03 -0.19230961349E+02 -0.24775695585E+03  0.30895803457E+03  0.12500000000E+03 0.  0.
</event>
<event>
 4    0  0.2210826E-002  0.1969299E+03  0.7546771E-02  0.1152355E+00
         21   -1    0    0  502  501  0.00000000000E+00  0.00000000000E+00  0.16752547625E+03  0.16752547625E+03  0.00000000000E+00 0.  1.
         21   -1    0    0  501  502 -0.00000000000E+00 -0.00000000000E+00 -0.23149543047E+03  0.23149543047E+03  0.00000000000E+00 0.  1.
         25    1    1    2    0    0  0.47441168609E+02 -0.84174887247E+02 -0.15108527420E+03  0.21860429136E+03  0.12500000000E+03 0.  0.
         25    1    1    2    0    0 -0.47441168609E+02  0.84174887247E+02  0.87115319973E+02  0.18041661535E+03  0.12500000000E+03 0.  0.
</event>
<event>
 4    0  0.2210826E-002  0.2239032E+03  0.7546771E-02  0.1131006E+00
         21   -1    0    0  502  501  0.00000000000E+00  0.00000000000E+00  0.25300154845E+03  0.25300154845E+03  0.00000000000E+00 0.  1.
         21   -1    0    0  501  502 -0.00000000000E+00 -0.00000000000E+00 -0.19815145924E+03  0.19815145924E+03  0.00000000000E+00 0.  1.
         25    1    1    2    0    0  0.40363073181E+02 -0.48275923792E+02  0.20351078884E+03  0.24698458185E+03  0.12500000000E+03 0.  0.
         25    1    1    2    0    0 -0.40363073181E+02  0.48275923792E+02 -0.14866069964E+03  0.20416842584E+03  0.12500000000E+03 0.  0.
</event>
<event>
 4    0  0.2210826E-002  0.2171656E+03  0.7546771E-02  0.1136014E+00
         21   -1    0    0  502  501  0.00000000000E+00  0.00000000000E+00  0.52910561158E+02  0.52910561158E+02  0.00000000000E+00 0.  1.
         21   -1    0    0  501  502 -0.00000000000E+00 -0.00000000000E+00 -0.89133207935E+03  0.89133207935E+03  0.00000000000E+00 0.  1.
         25    1    1    2    0    0  0.35459927403E+02 -0.17330819511E+03 -0.38533909657E+03  0.44204564955E+03  0.12500000000E+03 0.  0.
         25    1    1    2    0    0 -0.35459927403E+02  0.17330819511E+03 -0.45308242163E+03  0.50219699096E+03  0.12500000000E+03 0.  0.
</event>
<event>
 4    0  0.2210826E-002  0.1936986E+03  0.7546771E-02  0.1155167E+00
         21   -1    0    0  502  501  0.00000000000E+00  0.00000000000E+00  0.49976945001E+02  0.49976945001E+02  0.00000000000E+00 0. -1.
         21   -1    0    0  501  502 -0.00000000000E+00 -0.00000000000E+00 -0.75072910520E+03  0.75072910520E+03  0.00000000000E+00 0. -1.
         25    1    1    2    0    0  0.12988488063E+03  0.59744132579E+01 -0.20439518431E+03  0.27259524427E+03  0.12500000000E+03 0.  0.
         25    1    1    2    0    0 -0.12988488063E+03 -0.59744132579E+01 -0.49635697589E+03  0.52811080594E+03  0.12500000000E+03 0.  0.
</event>
<event>
 4    0  0.2210826E-002  0.3787662E+03  0.7546771E-02  0.1051391E+00
         21   -1    0    0  502  501  0.00000000000E+00  0.00000000000E+00  0.60176599848E+03  0.60176599848E+03  0.00000000000E+00 0. -1.
         21   -1    0    0  501  502 -0.00000000000E+00 -0.00000000000E+00 -0.23840473178E+03  0.23840473178E+03  0.00000000000E+00 0. -1.
         25    1    1    2    0    0 -0.93332572240E+02 -0.34484050617E+03  0.16549714262E+03  0.41308624759E+03  0.12500000000E+03 0.  0.
         25    1    1    2    0    0  0.93332572240E+02  0.34484050617E+03  0.19786412408E+03  0.42708448266E+03  0.12500000000E+03 0.  0.
</event>
<event>
 4    0  0.2210826E-002  0.2208685E+03  0.7546771E-02  0.1133237E+00
         21   -1    0    0  502  501  0.00000000000E+00  0.00000000000E+00  0.48082205096E+03  0.48082205096E+03  0.00000000000E+00 0.  1.
         21   -1    0    0  501  502 -0.00000000000E+00 -0.00000000000E+00 -0.10145726215E+03  0.10145726215E+03  0.00000000000E+00 0.  1.
         25    1    1    2    0    0  0.10510237154E+03 -0.14502371979E+03  0.23299149307E+03  0.31935626446E+03  0.12500000000E+03 0.  0.
         25    1    1    2    0    0 -0.10510237154E+03  0.14502371979E+03  0.14637329575E+03  0.26292304865E+03  0.12500000000E+03 0.  0.
</event>
<event>
 4    0  0.2210826E-002  0.1858327E+03  0.7546771E-02  0.1162275E+00
         21   -1    0    0  502  501  0.00000000000E+00  0.00000000000E+00  0.10330580949E+03  0.10330580949E+03  0.00000000000E+00 0.  1.
         21   -1    0    0  501  502 -0.00000000000E+00 -0.00000000000E+00 -0.33428714072E+03  0.33428714072E+03  0.00000000000E+00 0.  1.
         25    1    1    2    0    0  0.84678092098E+02  0.10244816663E+03 -0.15699737529E+03  0.24070559190E+03  0.12500000000E+03 0.  0.
         25    1    1    2    0    0 -0.84678092098E+02 -0.10244816663E+03 -0.73983955945E+02  0.19688735831E+03  0.12500000000E+03 0.  0.
</event>
<event>
 4    0  0.2210826E-002  0.2028608E+03  0.7546771E-02  0.1147348E+00
         21   -1    0    0  502  501  0.00000000000E+00  0.00000000000E+00  0.64163483062E+03  0.64163483062E+03  0.00000000000E+00 0. -1.
         21   -1    0    0  501  502 -0.00000000000E+00 -0.00000000000E+00 -0.64136984222E+02  0.64136984222E+02  0.00000000000E+00 0. -1.
         25    1    1    2    0    0  0.69697600984E+02  0.69448535611E+02  0.50772923304E+03  0.53206656422E+03  0.12500000000E+03 0.  0.
         25    1    1    2    0    0 -0.69697600984E+02 -0.69448535611E+02  0.69768613353E+02  0.17370525061E+03  0.12500000000E+03 0.  0.
</event>
<event>
 4    0  0.2210826E-002  0.1643482E+03  0.7546771E-02  0.1183873E+00
         21   -1    0    0  502  501  0.00000000000E+00  0.00000000000E+00  0.14661587684E+03  0.14661587684E+03  0.00000000000E+00 0. -1.
         21   -1    0    0  501  502 -0.00000000000E+00 -0.00000000000E+00 -0.18422509202E+03  0.18422509202E+03  0.00000000000E+00 0. -1.
         25    1    1    2    0    0  0.43340303978E+02  0.82032190582E+02  0.34242783443E+02  0.15939018307E+03  0.12500000000E+03 0.  0.
         25    1    1    2    0    0 -0.43340303978E+02 -0.82032190582E+02 -0.71851998628E+02  0.17145078579E+03  0.12500000000E+03 0.  0.
</event>
<event>
 4    0  0.2210826E-002  0.1973847E+03  0.7546771E-02  0.1151964E+00
         21   -1    0    0  502  501  0.00000000000E+00  0.00000000000E+00  0.38985190162E+02  0.38985190162E+02  0.00000000000E+00 0.  1.
         21   -1    0    0  501  502 -0.00000000000E+00 -0.00000000000E+00 -0.99937211041E+03  0.99937211041E+03  0.00000000000E+00 0.  1.
         25    1    1    2    0    0 -0.14856288267E+03 -0.87784758780E+01 -0.57084191847E+03  0.60302030449E+03  0.12500000000E+03 0.  0.
         25    1    1    2    0    0  0.14856288267E+03  0.87784758780E+01 -0.38954500177E+03  0.43533699608E+03  0.12500000000E+03 0.  0.
</event>
<event>
 4    0  0.2210826E-002  0.3082851E+03  0.7546771E-02  0.1081171E+00
         21   -1    0    0  502  501  0.00000000000E+00  0.00000000000E+00  0.41988879035E+03  0.41988879035E+03  0.00000000000E+00 0.  1.
         21   -1    0    0  501  502 -0.00000000000E+00 -0.00000000000E+00 -0.22634496166E+03  0.22634496166E+03  0.00000000000E+00 0.  1.
         25    1    1    2    0    0  0.38360310869E+02  0.27672716291E+03  0.13549922282E+03  0.33471551432E+03  0.12500000000E+03 0.  0.
         25    1    1    2    0    0 -0.38360310869E+02 -0.27672716291E+03  0.58044605878E+02  0.31151823769E+03  0.12500000000E+03 0.  0.
</event>
<event>
 4    0  0.2210826E-002  0.1663145E+03  0.7546771E-02  0.1181747E+00
         21   -1    0    0  502  501  0.00000000000E+00  0.00000000000E+00  0.53455777247E+02  0.53455777247E+02  0.00000000000E+00 0. -1.
         21   -1    0    0  501  502 -0.00000000000E+00 -0.00000000000E+00 -0.51744669275E+03  0.51744669275E+03  0.00000000000E+00 0. -1.
         25    1    1    2    0    0 -0.64511480117E+02  0.69710620689E+02 -0.32622537188E+03  0.36203493610E+03  0.12500000000E+03 0.  0.
         25    1    1    2    0    0  0.64511480117E+02 -0.69710620689E+02 -0.13776554363E+03  0.20886753389E+03  0.12500000000E+03 0.  0.
</event>
<event>
 4    0  0.2210826E-002  0.2154581E+03  0.7546771E-02  0.1137315E+00
         21   -1    0    0  502  501  0.00000000000E+00  0.00000000000E+00  0.18569407531E+03  0.18569407531E+03  0.00000000000E+00 0.  1.
         21   -1    0    0  501  502 -0.00000000000E+00 -0.00000000000E+00 -0.24999296404E+03  0.24999296404E+03  0.00000000000E+00 0.  1.
         25    1    1    2    0    0 -0.16081605849E+03  0.61788655336E+02 -0.65949626208E+02  0.22283176567E+03  0.12500000000E+03 0.  0.
         25    1    1    2    0    0  0.16081605849E+03 -0.61788655336E+02  0.16507374723E+01  0.21285527367E+03  0.12500000000E+03 0.  0.
</event>
<event>
 4    0  0.2210826E-002  0.1709475E+03  0.7546771E-02  0.1176863E+00
         21   -1    0    0  502  501  0.00000000000E+00  0.00000000000E+00  0.50073455899E+02  0.50073455899E+02  0.00000000000E+00 0. -1.
         21   -1    0    0  501  502 -0.00000000000E+00 -0.00000000000E+00 -0.58360381484E+03  0.58360381484E+03  0.00000000000E+00 0. -1.
         25    1    1    2    0    0  0.64554635857E+02  0.64730093425E+02 -0.40094061109E+03  0.42980886406E+03  0.12500000000E+03 0.  0.
         25    1    1    2    0    0 -0.64554635857E+02 -0.64730093425E+02 -0.13258974785E+03  0.20386840668E+03  0.12500000000E+03 0.  0.
</event>
<event>
 4    0  0.2210826E-002  0.1988819E+03  0.7546771E-02  0.1150686E+00
         21   -1    0    0  502  501  0.00000000000E+00  0.00000000000E+00  0.23140258309E+02  0.23140258309E+02  0.00000000000E+00 0.  1.
         21   -1    0    0  501  502 -0.00000000000E+00 -0.00000000000E+00 -0.17093155341E+04  0.17093155341E+04  0.00000000000E+00 0.  1.
         25    1    1    2    0    0 -0.10597072373E+03 -0.87272598866E+02 -0.11536038478E+04  0.11684490312E+04  0.12500000000E+03 0.  0.
         25    1    1    2    0    0  0.10597072373E+03  0.87272598866E+02 -0.53257142795E+03  0.56400676119E+03  0.12500000000E+03 0.  0.
</event>
<event>
 4    0  0.2210826E-002  0.2146473E+03  0.7546771E-02  0.1137938E+00
         21   -1    0    0  502  501  0.00000000000E+00  0.00000000000E+00  0.10768045743E+03  0.10768045743E+03  0.00000000000E+00 0. -1.
         21   -1    0    0  501  502 -0.00000000000E+00 -0.00000000000E+00 -0.42787224731E+03  0.42787224731E+03  0.00000000000E+00 0. -1.
         25    1    1    2    0    0 -0.77786363679E+02 -0.85803410215E+01 -0.35466122352E+03  0.38410145026E+03  0.12500000000E+03 0.  0.
         25    1    1    2    0    0  0.77786363679E+02  0.85803410215E+01  0.34469433637E+02  0.15145125447E+03  0.12500000000E+03 0.  0.
</event>
<event>
 4    0  0.2210826E-002  0.3068080E+03  0.7546771E-02  0.1081886E+00
         21   -1    0    0  502  501  0.00000000000E+00  0.00000000000E+00  0.78935646843E+02  0.78935646843E+02  0.00000000000E+00 0.  1.
         21   -1    0    0  501  502 -0.00000000000E+00 -0.00000000000E+00 -0.11925048521E+04  0.11925048521E+04  0.00000000000E+00 0.  1.
         25    1    1    2    0    0 -0.27701719177E+03 -0.23019188224E+01 -0.46980016061E+03  0.55953642802E+03  0.12500000000E+03 0.  0.
         25    1    1    2    0    0  0.27701719177E+03  0.23019188224E+01 -0.64376904469E+03  0.71190407097E+03  0.12500000000E+03 0.  0.
</event>
<event>
 4    0  0.2210826E-002  0.2098164E+03  0.7546771E-02  0.1141711E+00
         21   -1    0    0  502  501  0.00000000000E+00  0.00000000000E+00  0.21698280491E+04  0.21698280491E+04  0.00000000000E+00 0.  1.
         21   -1    0    0  501  502 -0.00000000000E+00 -0.00000000000E+00 -0.20288669337E+02  0.20288669337E+02  0.00000000000E+00 0.  1.
         25    1    1    2    0    0 -0.87268835530E+02  0.12754564609E+03  0.14254306122E+04  0.14392224191E+04  0.12500000000E+03 0.  0.
         25    1    1    2    0    0  0.87268835530E+02 -0.12754564609E+03  0.72410876755E+03  0.75089429931E+03  0.12500000000E+03 0.  0.
</event>
<event>
 4    0  0.2210826E-002  0.1832203E+03  0.7546771E-02  0.1164722E+00
         21   -1    0    0  502  501  0.00000000000E+00  0.00000000000E+00  0.29668527871E+03  0.29668527871E+03  0.00000000000E+00 0.  1.
         21   -1    0    0  501  502 -0.00000000000E+00 -0.00000000000E+00 -0.11314908729E+03  0.11314908729E+03  0.00000000000E+00 0.  1.
         25    1    1    2    0    0 -0.46335512255E+02  0.76988210583E+02  0.20288356383E+03  0.25467804133E+03  0.12500000000E+03 0.  0.
         25    1    1    2    0    0  0.46335512255E+02 -0.76988210583E+02 -0.19347372406E+02  0.15515632467E+03  0.12500000000E+03 0.  0.
</event>
<event>
 4    0  0.2210826E-002  0.1887723E+03  0.7546771E-02  0.1159573E+00
         21   -1    0    0  502  501  0.00000000000E+00  0.00000000000E+00  0.10505635782E+03  0.10505635782E+03  0.00000000000E+00 0. -1.
         21   -1    0    0  501  502 -0.00000000000E+00 -0.00000000000E+00 -0.33919857161E+03  0.33919857161E+03  0.00000000000E+00 0. -1.
         25    1    1    2    0    0  0.79973280230E+02  0.45717585508E+02  0.92478142681E+01  0.15555174459E+03  0.12500000000E+03 0.  0.
         25    1    1    2    0    0 -0.79973280230E+02 -0.45717585508E+02 -0.24339002806E+03  0.28870318484E+03  0.12500000000E+03 0.  0.
</event>
<event>
 4    0  0.2210826E-002  0.2723856E+03  0.7546771E-02  0.1099922E+00
         21   -1    0    0  502  501  0.00000000000E+00  0.00000000000E+00  0.51962607441E+03  0.51962607441E+03  0.00000000000E+00 0.  1.
         21   -1    0    0  501  502 -0.00000000000E+00 -0.00000000000E+00 -0.14278326049E+03  0.14278326049E+03  0.00000000000E+00 0.  1.
         25    1    1    2    0    0 -0.21728994915E+03 -0.96541165142E+02  0.24325731265E+03  0.36240066049E+03  0.12500000000E+03 0.  0.
         25    1    1    2    0    0  0.21728994915E+03  0.96541165142E+02  0.13358550127E+03  0.30000867441E+03  0.12500000000E+03 0.  0.
</event>
<event>
 4    0  0.2210826E-002  0.2313117E+03  0.7546771E-02  0.1125720E+00
         21   -1    0    0  502  501  0.00000000000E+00  0.00000000000E+00  0.20445179891E+04  0.20445179891E+04  0.00000000000E+00 0. -1.
         21   -1    0    0  501  502 -0.00000000000E+00 -0.00000000000E+00 -0.26170024767E+02  0.26170024767E+02  0.00000000000E+00 0. -1.
         25    1    1    2    0    0  0.17834167688E+03 -0.77653215512E+02  0.10389688879E+04  0.10643857974E+04  0.12500000000E+03 0.  0.
         25    1    1    2    0    0 -0.17834167688E+03  0.77653215512E+02  0.97937907639E+03  0.10063022165E+04  0.12500000000E+03 0.  0.
</event>
<event>
 4    0  0.2210826E-002  0.2093897E+03  0.7546771E-02  0.1142050E+00
         21   -1    0    0  502  501  0.00000000000E+00  0.00000000000E+00  0.82011577662E+03  0.82011577662E+03  0.00000000000E+00 0. -1.
         21   -1    0    0  501  502 -0.00000000000E+00 -0.00000000000E+00 -0.53460777472E+02  0.53460777472E+02  0.00000000000E+00 0. -1.
         25    1    1    2    0    0  0.12389491569E+03  0.10568808386E+03  0.46931314797E+03  0.51224969699E+03  0.12500000000E+03 0.  0.
         25    1    1    2    0    0 -0.12389491569E+03 -0.10568808386E+03  0.29734185117E+03  0.36132685710E+03  0.12500000000E+03 0.  0.
</event>
<event>
 4    0  0.2210826E-002  0.1863450E+03  0.7546771E-02  0.1161800E+00
         21   -1    0    0  502  501  0.00000000000E+00  0.00000000000E+00  0.35981787050E+03  0.35981787050E+03  0.00000000000E+00 0.  1.
         21   -1    0    0  501  502 -0.00000000000E+00 -0.00000000000E+00 -0.96505653937E+02  0.96505653937E+02  0.00000000000E+00 0.  1.
         25    1    1    2    0    0  0.37261994801E+02  0.11505043551E+03  0.49754483310E+02  0.18090209390E+03  0.12500000000E+03 0.  0.
         25    1    1    2    0    0 -0.37261994801E+02 -0.11505043551E+03  0.21355773325E+03  0.27542143053E+03  0.12500000000E+03 0.  0.
</event>
<event>
 4    0  0.2210826E-002  0.2563557E+03  0.7546771E-02  0.1109353E+00
         21   -1    0    0  502  501  0.00000000000E+00  0.00000000000E+00  0.19600576161E+03  0.19600576161E+03  0.00000000000E+00 0.  1.
         21   -1    0    0  501  502 -0.00000000000E+00 -0.00000000000E+00 -0.33528732693E+03  0.33528732693E+03  0.00000000000E+00 0.  1.
         25    1    1    2    0    0  0.11518437346E+03  0.16374603104E+03 -0.17333254913E+03  0.29282994239E+03  0.12500000000E+03 0.  0.
         25    1    1    2    0    0 -0.11518437346E+03 -0.16374603104E+03  0.34050983809E+02  0.23846314615E+03  0.12500000000E+03 0.  0.
</event>
<event>
 4    0  0.2210826E-002  0.1594785E+03  0.7546771E-02  0.1189287E+00
         21   -1    0    0  502  501  0.00000000000E+00  0.00000000000E+00  0.14547952954E+04  0.14547952954E+04  0.00000000000E+00 0.  1.
         21   -1    0    0  501  502 -0.00000000000E+00 -0.00000000000E+00 -0.17482463623E+02  0.17482463623E+02  0.00000000000E+00 0.  1.
         25    1    1    2    0    0 -0.28942524860E+02 -0.82688202465E+02  0.50545339126E+03  0.52799918495E+03  0.12500000000E+03 0.  0.
         25    1    1    2    0    0  0.28942524860E+02  0.82688202465E+02  0.93185944049E+03  0.94427857404E+03  0.12500000000E+03 0.  0.
</event>
<event>
 4    0  0.2210826E-002  0.2065977E+03  0.7546771E-02  0.1144289E+00
         21   -1    0    0  502  501  0.00000000000E+00  0.00000000000E+00  0.28597024693E+03  0.28597024693E+03  0.00000000000E+00 0. -1.
         21   -1    0    0  501  502 -0.00000000000E+00 -0.00000000000E+00 -0.14925539615E+03  0.14925539615E+03  0.00000000000E+00 0. -1.
         25    1    1    2    0    0 -0.76212510159E+02  0.10268729349E+01 -0.85182074019E+02  0.16938236894E+03  0.12500000000E+03 0.  0.
         25    1    1    2    0    0  0.76212510159E+02 -0.10268729349E+01  0.22189692479E+03  0.26584327414E+03  0.12500000000E+03 0.  0.
</event>
<event>
 4    0  0.2210826E-002  0.2099016E+03  0.7546771E-02  0.1141644E+00
         21   -1    0    0  502  501  0.00000000000E+00  0.00000000000E+00  0.68417331045E+02  0.68417331045E+02  0.00000000000E+00 0. -1.
         21   -1    0    0  501  502 -0.00000000000E+00 -0.00000000000E+00 -0.64396953799E+03  0.64396953799E+03  0.00000000000E+00 0. -1.
         25    1    1    2    0    0  0.25617617529E+02  0.13637328415E+03 -0.45036295611E+03  0.48755074320E+03  0.12500000000E+03 0.  0.
         25    1    1    2    0    0 -0.25617617529E+02 -0.13637328415E+03 -0.12518925084E+03  0.22483612584E+03  0.12500000000E+03 0.  0.
</event>
<event>
 4    0  0.2210826E-002  0.2045587E+03  0.7546771E-02  0.1145949E+00
         21   -1    0    0  502  501  0.00000000000E+00  0.00000000000E+00  0.19654954675E+03  0.19654954675E+03  0.00000000000E+00 0.  1.
         21   -1    0    0  501  502 -0.00000000000E+00 -0.00000000000E+00 -0.21289413365E+03  0.21289413365E+03  0.00000000000E+00 0.  1.
         25    1    1    2    0    0  0.55656764390E+01 -0.53109706841E+02  0.14481438619E+03  0.19861476321E+03  0.12500000000E+03 0.  0.
         25    1    1    2    0    0 -0.55656764390E+01  0.53109706841E+02 -0.16115897309E+03  0.21082891719E+03  0.12500000000E+03 0.  0.
</event>
<event>
 4    0  0.2210826E-002  0.3852170E+03  0.7546771E-02  0.1049022E+00
         21   -1    0    0  502  501  0.00000000000E+00  0.00000000000E+00  0.42622184102E+03  0.42622184102E+03  0.00000000000E+00 0.  1.
         21   -1    0    0  501  502 -0.00000000000E+00 -0.00000000000E+00 -0.34815707985E+03  0.34815707985E+03  0.00000000000E+00 0. -1.
         25    1    1    2    0    0 -0.28165336218E+03  0.20147488793E+03 -0.74889949702E+02  0.37570500591E+03  0.12500000000E+03 0.  0.
         25    1    1    2    0    0  0.28165336218E+03 -0.20147488793E+03  0.15295471087E+03  0.39867391497E+03  0.12500000000E+03 0.  0.
</event>
<event>
 4    0  0.2210826E-002  0.1890846E+03  0.7546771E-02  0.1159290E+00
         21   -1    0    0  502  501  0.00000000000E+00  0.00000000000E+00  0.19630911187E+03  0.19630911187E+03  0.00000000000E+00 0.  1.
         21   -1    0    0  501  502 -0.00000000000E+00 -0.00000000000E+00 -0.18212594501E+03  0.18212594501E+03  0.00000000000E+00 0.  1.
         25    1    1    2    0    0  0.17026868965E+02  0.80153144860E+01 -0.13362670631E+03  0.18394362227E+03  0.12500000000E+03 0.  0.
         25    1    1    2    0    0 -0.17026868965E+02 -0.80153144860E+01  0.14780987317E+03  0.19449143462E+03  0.12500000000E+03 0.  0.
</event>
<event>
 4    0  0.2210826E-002  0.2880020E+03  0.7546771E-02  0.1091397E+00
         21   -1    0    0  502  501  0.00000000000E+00  0.00000000000E+00  0.63636124752E+03  0.63636124752E+03  0.00000000000E+00 0. -1.
         21   -1    0    0  501  502 -0.00000000000E+00 -0.00000000000E+00 -0.13034288740E+03  0.13034288740E+03  0.00000000000E+00 0.  1.
         25    1    1    2    0    0  0.41103511549E+02  0.25340310587E+03  0.20289410748E+03  0.35027653586E+03  0.12500000000E+03 0.  0.
         25    1    1    2    0    0 -0.41103511549E+02 -0.25340310587E+03  0.30312425263E+03  0.41642759906E+03  0.12500000000E+03 0.  0.
</event>
<event>
 4    0  0.2210826E-002  0.3648524E+03  0.7546771E-02  0.1056679E+00
         21   -1    0    0  502  501  0.00000000000E+00  0.00000000000E+00  0.21561201602E+04  0.21561201602E+04  0.00000000000E+00 0. -1.
         21   -1    0    0  501  502 -0.00000000000E+00 -0.00000000000E+00 -0.61739270803E+02  0.61739270803E+02  0.00000000000E+00 0.  1.
         25    1    1    2    0    0  0.26475157185E+02 -0.19234495423E+03  0.19057570847E+04  0.19196959606E+04  0.12500000000E+03 0.  0.
         25    1    1    2    0    0 -0.26475157185E+02  0.19234495423E+03  0.18862380468E+03  0.29816347036E+03  0.12500000000E+03 0.  0.
</event>
<event>
 4    0  0.2210826E-002  0.3838762E+03  0.7546771E-02  0.1049510E+00
         21   -1    0    0  502  501  0.00000000000E+00  0.00000000000E+00  0.29635184269E+03  0.29635184269E+03  0.00000000000E+00 0.  1.
         21   -1    0    0  501  502 -0.00000000000E+00 -0.00000000000E+00 -0.49724984020E+03  0.49724984020E+03  0.00000000000E+00 0.  1.
         25    1    1    2    0    0 -0.27360213113E+03  0.18732151968E+03 -0.25302786955E+03  0.43542574644E+03  0.12500000000E+03 0.  0.
         25    1    1    2    0    0  0.27360213113E+03 -0.18732151968E+03  0.52129872039E+02  0.35817593645E+03  0.12500000000E+03 0.  0.
</event>
<event>
 4    0  0.2210826E-002  0.2484552E+03  0.7546771E-02  0.1114285E+00
         21   -1    0    0  502  501  0.00000000000E+00  0.00000000000E+00  0.48873913635E+03  0.48873913635E+03  0.00000000000E+00 0. -1.
         21   -1    0    0  501  502 -0.00000000000E+00 -0.00000000000E+00 -0.12630455624E+03  0.12630455624E+03  0.00000000000E+00 0. -1.
         25    1    1    2    0    0 -0.40363007167E+02 -0.11630959990E+03  0.39895988229E+03  0.43583377915E+03  0.12500000000E+03 0.  0.
         25    1    1    2    0    0  0.40363007167E+02  0.11630959990E+03 -0.36525302175E+02  0.17920991344E+03  0.12500000000E+03 0.  0.
</event>
<event>
 4    0  0.2210826E-002  0.2037983E+03  0.7546771E-02  0.1146573E+00
         21   -1    0    0  502  501  0.00000000000E+00  0.00000000000E+00  0.58140971967E+03  0.58140971967E+03  0.00000000000E+00 0. -1.
         21   -1    0    0  501  502 -0.00000000000E+00 -0.00000000000E+00 -0.71436294797E+02  0.71436294797E+02  0.00000000000E+00 0. -1.
         25    1    1    2    0    0  0.81456809782E+02 -0.13669711372E+03  0.21616603039E+03  0.29609806729E+03  0.12500000000E+03 0.  0.
         25    1    1    2    0    0 -0.81456809782E+02  0.13669711372E+03  0.29380739448E+03  0.35674794717E+03  0.12500000000E+03 0.  0.
</event>
<event>
 4    0  0.2210826E-002  0.1958570E+03  0.7546771E-02  0.1153282E+00
         21   -1    0    0  502  501  0.00000000000E+00  0.00000000000E+00  0.52565021347E+02  0.52565021347E+02  0.00000000000E+00 0.  1.
         21   -1    0    0  501  502 -0.00000000000E+00 -0.00000000000E+00 -0.72976185428E+03  0.72976185428E+03  0.00000000000E+00 0.  1.
         25    1    1    2    0    0  0.12257722785E+03  0.28520125608E+02 -0.17274301227E+03  0.24759588576E+03  0.12500000000E+03 0.  0.
         25    1    1    2    0    0 -0.12257722785E+03 -0.28520125608E+02 -0.50445382066E+03  0.53473098987E+03  0.12500000000E+03 0.  0.
</event>
<event>
 4    0  0.2210826E-002  0.2008341E+03  0.7546771E-02  0.1149037E+00
         21   -1    0    0  502  501  0.00000000000E+00  0.00000000000E+00  0.72650879639E+02  0.72650879639E+02  0.00000000000E+00 0. -1.
         21   -1    0    0  501  502 -0.00000000000E+00 -0.00000000000E+00 -0.55518029355E+03  0.55518029355E+03  0.00000000000E+00 0. -1.
         25    1    1    2    0    0  0.31248916296E+02 -0.13623591683E+03 -0.35368134076E+03  0.40031513911E+03  0.12500000000E+03 0.  0.
         25    1    1    2    0    0 -0.31248916296E+02  0.13623591683E+03 -0.12884807316E+03  0.22751603407E+03  0.12500000000E+03 0.  0.
</event>
<event>
 4    0  0.2210826E-002  0.3020642E+03  0.7546771E-02  0.1084213E+00
         21   -1    0    0  502  501  0.00000000000E+00  0.00000000000E+00  0.73293499395E+03  0.73293499395E+03  0.00000000000E+00 0.  1.
         21   -1    0    0  501  502 -0.00000000000E+00 -0.00000000000E+00 -0.12448955943E+03  0.12448955943E+03  0.00000000000E+00 0.  1.
         25    1    1    2    0    0 -0.17364190258E+03  0.14321319508E+03  0.52843333328E+03  0.58781656773E+03  0.12500000000E+03 0.  0.
         25    1    1    2    0    0  0.17364190258E+03 -0.14321319508E+03  0.80012101240E+02  0.26960798564E+03  0.12500000000E+03 0.  0.
</event>
<event>
 4    0  0.2210826E-002  0.1523944E+03  0.7546771E-02  0.1197561E+00
         21   -1    0    0  502  501  0.00000000000E+00  0.00000000000E+00  0.15798741426E+03  0.15798741426E+03  0.00000000000E+00 0. -1.
         21   -1    0    0  501  502 -0.00000000000E+00 -0.00000000000E+00 -0.14699937183E+03  0.14699937183E+03  0.00000000000E+00 0. -1.
         25    1    1    2    0    0 -0.23862140174E+02 -0.31969611027E+02 -0.72064994707E+02  0.14969910229E+03  0.12500000000E+03 0.  0.
         25    1    1    2    0    0  0.23862140174E+02  0.31969611027E+02  0.83053037135E+02  0.15528768380E+03  0.12500000000E+03 0.  0.
</event>
<event>
 4    0  0.2210826E-002  0.1883886E+03  0.7546771E-02  0.1159923E+00
         21   -1    0    0  502  501  0.00000000000E+00  0.00000000000E+00  0.12893235535E+04  0.12893235535E+04  0.00000000000E+00 0.  1.
         21   -1    0    0  501  502 -0.00000000000E+00 -0.00000000000E+00 -0.27526276558E+02  0.27526276558E+02  0.00000000000E+00 0.  1.
         25    1    1    2    0    0 -0.69985822184E+02  0.11499663148E+03  0.48498201860E+03  0.51860852184E+03  0.12500000000E+03 0.  0.
         25    1    1    2    0    0  0.69985822184E+02 -0.11499663148E+03  0.77681525839E+03  0.79824130827E+03  0.12500000000E+03 0.  0.
</event>
<event>
 4    0  0.2210826E-002  0.1542439E+03  0.7546771E-02  0.1195353E+00
         21   -1    0    0  502  501  0.00000000000E+00  0.00000000000E+00  0.16809873591E+03  0.16809873591E+03  0.00000000000E+00 0.  1.
         21   -1    0    0  501  502 -0.00000000000E+00 -0.00000000000E+00 -0.14153104316E+03  0.14153104316E+03  0.00000000000E+00 0.  1.
         25    1    1    2    0    0  0.94594811314E+01 -0.46892278030E+02 -0.63666904482E+02  0.14821215284E+03  0.12500000000E+03 0.  0.
         25    1    1    2    0    0 -0.94594811314E+01  0.46892278030E+02  0.90234597233E+02  0.16141762624E+03  0.12500000000E+03 0.  0.
</event>
<event>
 4    0  0.2210826E-002  0.3603663E+03  0.7546771E-02  0.1058439E+00
         21   -1    0    0  502  501  0.00000000000E+00  0.00000000000E+00  0.43662324298E+03  0.43662324298E+03  0.00000000000E+00 0. -1.
         21   -1    0    0  501  502 -0.00000000000E+00 -0.00000000000E+00 -0.29742777155E+03  0.29742777155E+03  0.00000000000E+00 0. -1.
         25    1    1    2    0    0 -0.44668935827E+02 -0.10617164343E+03  0.39322917688E+03  0.42839458125E+03  0.12500000000E+03 0.  0.
         25    1    1    2    0    0  0.44668935827E+02  0.10617164343E+03 -0.25403370545E+03  0.30565643327E+03  0.12500000000E+03 0.  0.
</event>
<event>
 4    0  0.2210826E-002  0.2529937E+03  0.7546771E-02  0.1111427E+00
         21   -1    0    0  502  501  0.00000000000E+00  0.00000000000E+00  0.51741304647E+02  0.51741304647E+02  0.00000000000E+00 0. -1.
         21   -1    0    0  501  502 -0.00000000000E+00 -0.00000000000E+00 -0.12370350818E+04  0.12370350818E+04  0.00000000000E+00 0. -1.
         25    1    1    2    0    0  0.57880623727E+02 -0.20219289800E+03 -0.75670305374E+03  0.79527142922E+03  0.12500000000E+03 0.  0.
         25    1    1    2    0    0 -0.57880623727E+02  0.20219289800E+03 -0.42859072339E+03  0.49350495720E+03  0.12500000000E+03 0.  0.
</event>
<event>
 4    0  0.2210826E-002  0.2007716E+03  0.7546771E-02  0.1149090E+00
         21   -1    0    0  502  501  0.00000000000E+00  0.00000000000E+00  0.51345708911E+02  0.51345708911E+02  0.00000000000E+00 0. -1.
         21   -1    0    0  501  502 -0.00000000000E+00 -0.00000000000E+00 -0.78505537139E+03  0.78505537139E+03  0.00000000000E+00 0. -1.
         25    1    1    2    0    0  0.27414973940E+02 -0.14926867650E+03 -0.45150395075E+03  0.49245663375E+03  0.12500000000E+03 0.  0.
         25    1    1    2    0    0 -0.27414973940E+02  0.14926867650E+03 -0.28220571173E+03  0.34394444655E+03  0.12500000000E+03 0.  0.
</event>
<event>
 4    0  0.2210826E-002  0.1882373E+03  0.7546771E-02  0.1160061E+00
         21   -1    0    0  502  501  0.00000000000E+00  0.00000000000E+00  0.59852249259E+03  0.59852249259E+03  0.00000000000E+00 0. -1.
         21   -1    0    0  501  502 -0.00000000000E+00 -0.00000000000E+00 -0.59201283082E+02  0.59201283082E+02  0.00000000000E+00 0. -1.
         25    1    1    2    0    0 -0.12060282545E+02  0.54613372927E+02  0.49529678914E+03  0.51387934406E+03  0.12500000000E+03 0.  0.
         25    1    1    2    0    0  0.12060282545E+02 -0.54613372927E+02  0.44024420369E+02  0.14384443161E+03  0.12500000000E+03 0.  0.
</event>
<event>
 4    0  0.2210826E-002  0.2098049E+03  0.7546771E-02  0.1141721E+00
         21   -1    0    0  502  501  0.00000000000E+00  0.00000000000E+00  0.50191069616E+02  0.50191069616E+02  0.00000000000E+00 0. -1.
         21   -1    0    0  501  502 -0.00000000000E+00 -0.00000000000E+00 -0.87701049371E+03  0.87701049371E+03  0.00000000000E+00 0. -1.
         25    1    1    2    0    0 -0.89988265009E+02 -0.14245392052E+03 -0.41021718284E+03  0.46075388703E+03  0.12500000000E+03 0.  0.
         25    1    1    2    0    0  0.89988265009E+02  0.14245392052E+03 -0.41660224125E+03  0.46644767630E+03  0.12500000000E+03 0.  0.
</event>
<event>
 4    0  0.2210826E-002  0.2078642E+03  0.7546771E-02  0.1143269E+00
         21   -1    0    0  502  501  0.00000000000E+00  0.00000000000E+00  0.42902274441E+03  0.42902274441E+03  0.00000000000E+00 0. -1.
         21   -1    0    0  501  502 -0.00000000000E+00 -0.00000000000E+00 -0.10071155065E+03  0.10071155065E+03  0.00000000000E+00 0. -1.
         25    1    1    2    0    0  0.10745187951E+03 -0.25944676370E+02  0.62150767812E+01  0.16698101635E+03  0.12500000000E+03 0.  0.
         25    1    1    2    0    0 -0.10745187951E+03  0.25944676370E+02  0.32209611698E+03  0.36275327871E+03  0.12500000000E+03 0.  0.
</event>
<event>
 4    0  0.2210826E-002  0.1503786E+03  0.7546771E-02  0.1200009E+00
         21   -1    0    0  502  501  0.00000000000E+00  0.00000000000E+00  0.23830105732E+03  0.23830105732E+03  0.00000000000E+00 0. -1.
         21   -1    0    0  501  502 -0.00000000000E+00 -0.00000000000E+00 -0.94895626162E+02  0.94895626162E+02  0.00000000000E+00 0. -1.
         25    1    1    2    0    0 -0.18608605701E+02  0.41163603707E+02 -0.62263882233E+01  0.13305822179E+03  0.12500000000E+03 0.  0.
         25    1    1    2    0    0  0.18608605701E+02 -0.41163603707E+02  0.14963181938E+03  0.20013846169E+03  0.12500000000E+03 0.  0.
</event>
<event>
 4    0  0.2210826E-002  0.2095200E+03  0.7546771E-02  0.1141947E+00
         21   -1    0    0  502  501  0.00000000000E+00  0.00000000000E+00  0.28147840392E+03  0.28147840392E+03  0.00000000000E+00 0.  1.
         21   -1    0    0  501  502 -0.00000000000E+00 -0.00000000000E+00 -0.15595737200E+03  0.15595737200E+03  0.00000000000E+00 0.  1.
         25    1    1    2    0    0  0.76990118807E+02 -0.55690593483E+02 -0.82054805447E+02  0.17716351682E+03  0.12500000000E+03 0.  0.
         25    1    1    2    0    0 -0.76990118807E+02  0.55690593483E+02  0.20757583736E+03  0.26027225909E+03  0.12500000000E+03 0.  0.
</event>
<event>
 4    0  0.2210826E-002  0.2711370E+03  0.7546771E-02  0.1100631E+00
         21   -1    0    0  502  501  0.00000000000E+00  0.00000000000E+00  0.15866699831E+03  0.15866699831E+03  0.00000000000E+00 0. -1.
         21   -1    0    0  501  502 -0.00000000000E+00 -0.00000000000E+00 -0.46333067155E+03  0.46333067155E+03  0.00000000000E+00 0. -1.
         25    1    1    2    0    0 -0.17526480136E+03  0.16075936501E+03 -0.19414628322E+03  0.33148017033E+03  0.12500000000E+03 0.  0.
         25    1    1    2    0    0  0.17526480136E+03 -0.16075936501E+03 -0.11051739002E+03  0.29051749953E+03  0.12500000000E+03 0.  0.
</event>
<event>
 4    0  0.2210826E-002  0.2931007E+03  0.7546771E-02  0.1088741E+00
         21   -1    0    0  502  501  0.00000000000E+00  0.00000000000E+00  0.71319089345E+03  0.71319089345E+03  0.00000000000E+00 0.  1.
         21   -1    0    0  501  502 -0.00000000000E+00 -0.00000000000E+00 -0.12045584057E+03  0.12045584057E+03  0.00000000000E+00 0.  1.
         25    1    1    2    0    0 -0.21574544567E+03  0.14217628847E+02  0.51453510585E+03  0.57194371529E+03  0.12500000000E+03 0.  0.
         25    1    1    2    0    0  0.21574544567E+03 -0.14217628847E+02  0.78199947029E+02  0.26170301873E+03  0.12500000000E+03 0.  0.
</event>
<event>
 4    0  0.2210826E-002  0.3578128E+03  0.7546771E-02  0.1059453E+00
         21   -1    0    0  502  501  0.00000000000E+00  0.00000000000E+00  0.17375223245E+04  0.17375223245E+04  0.00000000000E+00 0. -1.
         21   -1    0    0  501  502 -0.00000000000E+00 -0.00000000000E+00 -0.73685394465E+02  0.73685394465E+02  0.00000000000E+00 0.  1.
         25    1    1    2    0    0  0.22740760345E+03  0.24621854084E+03  0.81116628993E+03  0.88654020658E+03  0.12500000000E+03 0.  0.
         25    1    1    2    0    0 -0.22740760345E+03 -0.24621854084E+03  0.85267064006E+03  0.92466751234E+03  0.12500000000E+03 0.  0.
</event>
<event>
 4    0  0.2210826E-002  0.2252353E+03  0.7546771E-02  0.1130039E+00
         21   -1    0    0  502  501  0.00000000000E+00  0.00000000000E+00  0.41411780468E+02  0.41411780468E+02  0.00000000000E+00 0. -1.
         21   -1    0    0  501  502 -0.00000000000E+00 -0.00000000000E+00 -0.12250369567E+04  0.12250369567E+04  0.00000000000E+00 0. -1.
         25    1    1    2    0    0  0.16527898991E+03  0.67346792615E+02 -0.75216600759E+03  0.78309095127E+03  0.12500000000E+03 0.  0.
         25    1    1    2    0    0 -0.16527898991E+03 -0.67346792615E+02 -0.43145916860E+03  0.48335778586E+03  0.12500000000E+03 0.  0.
</event>
<event>
 4    0  0.2210826E-002  0.2542269E+03  0.7546771E-02  0.1110662E+00
         21   -1    0    0  502  501  0.00000000000E+00  0.00000000000E+00  0.18214262056E+03  0.18214262056E+03  0.00000000000E+00 0. -1.
         21   -1    0    0  501  502 -0.00000000000E+00 -0.00000000000E+00 -0.35483908408E+03  0.35483908408E+03  0.00000000000E+00 0. -1.
         25    1    1    2    0    0 -0.18711461657E+03 -0.11462997321E+03 -0.55477908285E+02  0.25856277536E+03  0.12500000000E+03 0.  0.
         25    1    1    2    0    0  0.18711461657E+03  0.11462997321E+03 -0.11721855524E+03  0.27841892929E+03  0.12500000000E+03 0.  0.
</event>
<event>
 4    0  0.2210826E-002  0.1810909E+03  0.7546771E-02  0.1166751E+00
         21   -1    0    0  502  501  0.00000000000E+00  0.00000000000E+00  0.14849953502E+03  0.14849953502E+03  0.00000000000E+00 0.  1.
         21   -1    0    0  501  502 -0.00000000000E+00 -0.00000000000E+00 -0.22083518268E+03  0.22083518268E+03  0.00000000000E+00 0.  1.
         25    1    1    2    0    0  0.27066430853E+01  0.13386635272E+02 -0.16905801162E+03  0.21069442141E+03  0.12500000000E+03 0.  0.
         25    1    1    2    0    0 -0.27066430853E+01 -0.13386635272E+02  0.96722363953E+02  0.15864029630E+03  0.12500000000E+03 0.  0.
</event>
<event>
 4    0  0.2210826E-002  0.2959849E+03  0.7546771E-02  0.1087265E+00
         21   -1    0    0  502  501  0.00000000000E+00  0.00000000000E+00  0.50384568487E+03  0.50384568487E+03  0.00000000000E+00 0. -1.
         21   -1    0    0  501  502 -0.00000000000E+00 -0.00000000000E+00 -0.17387679119E+03  0.17387679119E+03  0.00000000000E+00 0. -1.
         25    1    1    2    0    0 -0.12353848702E+03 -0.90867681107E+02 -0.87049565107E+02  0.21615115089E+03  0.12500000000E+03 0.  0.
         25    1    1    2    0    0  0.12353848702E+03  0.90867681107E+02  0.41701845879E+03  0.46157132517E+03  0.12500000000E+03 0.  0.
</event>
<event>
 4    0  0.2210826E-002  0.2242454E+03  0.7546771E-02  0.1130757E+00
         21   -1    0    0  502  501  0.00000000000E+00  0.00000000000E+00  0.97605096771E+02  0.97605096771E+02  0.00000000000E+00 0. -1.
         21   -1    0    0  501  502 -0.00000000000E+00 -0.00000000000E+00 -0.51519834804E+03  0.51519834804E+03  0.00000000000E+00 0. -1.
         25    1    1    2    0    0 -0.67844462783E+02  0.13561652397E+03 -0.61214496840E+02  0.20583227960E+03  0.12500000000E+03 0.  0.
         25    1    1    2    0    0  0.67844462783E+02 -0.13561652397E+03 -0.35637875443E+03  0.40697116521E+03  0.12500000000E+03 0.  0.
</event>
<event>
 4    0  0.2210826E-002  0.5979559E+03  0.7546771E-02  0.9909656E-01
         21   -1    0    0  502  501  0.00000000000E+00  0.00000000000E+00  0.22575307532E+04  0.22575307532E+04  0.00000000000E+00 0.  1.
         21   -1    0    0  501  502 -0.00000000000E+00 -0.00000000000E+00 -0.15838155849E+03  0.15838155849E+03  0.00000000000E+00 0.  1.
         25    1    1    2    0    0 -0.56265087200E+03  0.12617916075E+03  0.12457371501E+04  0.13783987926E+04  0.12500000000E+03 0.  0.
         25    1    1    2    0    0  0.56265087200E+03 -0.12617916075E+03  0.85341204466E+03  0.10375135191E+04  0.12500000000E+03 0.  0.
</event>
<event>
 4    0  0.2210826E-002  0.2036084E+03  0.7546771E-02  0.1146730E+00
         21   -1    0    0  502  501  0.00000000000E+00  0.00000000000E+00  0.69180004838E+03  0.69180004838E+03  0.00000000000E+00 0.  1.
         21   -1    0    0  501  502 -0.00000000000E+00 -0.00000000000E+00 -0.59925367539E+02  0.59925367539E+02  0.00000000000E+00 0.  1.
         25    1    1    2    0    0 -0.33210347964E+02 -0.32803921842E+01  0.60616411734E+03  0.61981741290E+03  0.12500000000E+03 0.  0.
         25    1    1    2    0    0  0.33210347964E+02  0.32803921842E+01  0.25710563501E+02  0.13190800302E+03  0.12500000000E+03 0.  0.
</event>
<event>
 4    0  0.2210826E-002  0.1967028E+03  0.7546771E-02  0.1152551E+00
         21   -1    0    0  502  501  0.00000000000E+00  0.00000000000E+00  0.17005344677E+04  0.17005344677E+04  0.00000000000E+00 0. -1.
         21   -1    0    0  501  502 -0.00000000000E+00 -0.00000000000E+00 -0.22752833039E+02  0.22752833039E+02  0.00000000000E+00 0. -1.
         25    1    1    2    0    0 -0.48473711108E+02 -0.49775720488E+02  0.14304872247E+04  0.14376181770E+04  0.12500000000E+03 0.  0.
         25    1    1    2    0    0  0.48473711108E+02  0.49775720488E+02  0.24729440996E+03  0.28566912367E+03  0.12500000000E+03 0.  0.
</event>
<event>
 4    0  0.2210826E-002  0.2238614E+03  0.7546771E-02  0.1131037E+00
         21   -1    0    0  502  501  0.00000000000E+00  0.00000000000E+00  0.27813471128E+03  0.27813471128E+03  0.00000000000E+00 0. -1.
         21   -1    0    0  501  502 -0.00000000000E+00 -0.00000000000E+00 -0.18017853983E+03  0.18017853983E+03  0.00000000000E+00 0. -1.
         25    1    1    2    0    0  0.13460902218E+03  0.77970291045E+02 -0.54860782134E+02  0.20696294488E+03  0.12500000000E+03 0.  0.
         25    1    1    2    0    0 -0.13460902218E+03 -0.77970291045E+02  0.15281695358E+03  0.25135030623E+03  0.12500000000E+03 0.  0.
</event>
<event>
 4    0  0.2210826E-002  0.1813518E+03  0.7546771E-02  0.1166501E+00
         21   -1    0    0  502  501  0.00000000000E+00  0.00000000000E+00  0.27100161720E+02  0.27100161720E+02  0.00000000000E+00 0. -1.
         21   -1    0    0  501  502 -0.00000000000E+00 -0.00000000000E+00 -0.12135895260E+04  0.12135895260E+04  0.00000000000E+00 0. -1.
         25    1    1    2    0    0  0.11207479026E+03 -0.27293641017E+02 -0.80844190119E+03  0.82614103460E+03  0.12500000000E+03 0.  0.
         25    1    1    2    0    0 -0.11207479026E+03  0.27293641017E+02 -0.37804746308E+03  0.41454865311E+03  0.12500000000E+03 0.  0.
</event>
<event>
 4    0  0.2210826E-002  0.1967645E+03  0.7546771E-02  0.1152498E+00
         21   -1    0    0  502  501  0.00000000000E+00  0.00000000000E+00  0.26023406141E+03  0.26023406141E+03  0.00000000000E+00 0. -1.
         21   -1    0    0  501  502 -0.00000000000E+00 -0.00000000000E+00 -0.14877474934E+03  0.14877474934E+03  0.00000000000E+00 0. -1.
         25    1    1    2    0    0 -0.10909252015E+03 -0.58580363773E+02 -0.35817031682E+02  0.17955694565E+03  0.12500000000E+03 0.  0.
         25    1    1    2    0    0  0.10909252015E+03  0.58580363773E+02  0.14727634375E+03  0.22945186511E+03  0.12500000000E+03 0.  0.
</event>
<event>
 4    0  0.2210826E-002  0.1906839E+03  0.7546771E-02  0.1157846E+00
         21   -1    0    0  502  501  0.00000000000E+00  0.00000000000E+00  0.58221206108E+02  0.58221206108E+02  0.00000000000E+00 0.  1.
         21   -1    0    0  501  502 -0.00000000000E+00 -0.00000000000E+00 -0.62452047025E+03  0.62452047025E+03  0.00000000000E+00 0.  1.
         25    1    1    2    0    0  0.44852758784E+02 -0.47811619627E+02 -0.51267562263E+03  0.53175089561E+03  0.12500000000E+03 0.  0.
         25    1    1    2    0    0 -0.44852758784E+02  0.47811619627E+02 -0.53623641512E+02  0.15099078075E+03  0.12500000000E+03 0.  0.
</event>
<event>
 4    0  0.2210826E-002  0.2547443E+03  0.7546771E-02  0.1110343E+00
         21   -1    0    0  502  501  0.00000000000E+00  0.00000000000E+00  0.31665343212E+03  0.31665343212E+03  0.00000000000E+00 0. -1.
         21   -1    0    0  501  502 -0.00000000000E+00 -0.00000000000E+00 -0.20493899649E+03  0.20493899649E+03  0.00000000000E+00 0. -1.
         25    1    1    2    0    0 -0.12829199074E+03 -0.17298116527E+03  0.83736832959E+00  0.24901208728E+03  0.12500000000E+03 0.  0.
         25    1    1    2    0    0  0.12829199074E+03  0.17298116527E+03  0.11087706730E+03  0.27258034133E+03  0.12500000000E+03 0.  0.
</event>
<event>
 4    0  0.2210826E-002  0.1786215E+03  0.7546771E-02  0.1169144E+00
         21   -1    0    0  502  501  0.00000000000E+00  0.00000000000E+00  0.25116613270E+03  0.25116613270E+03  0.00000000000E+00 0. -1.
         21   -1    0    0  501  502 -0.00000000000E+00 -0.00000000000E+00 -0.12703006503E+03  0.12703006503E+03  0.00000000000E+00 0. -1.
         25    1    1    2    0    0  0.52508897585E+02 -0.11377187715E+03  0.36584932369E+02  0.18073373131E+03  0.12500000000E+03 0.  0.
         25    1    1    2    0    0 -0.52508897585E+02  0.11377187715E+03  0.87551135292E+02  0.19746246642E+03  0.12500000000E+03 0.  0.
</event>
<event>
 4    0  0.2210826E-002  0.2025003E+03  0.7546771E-02  0.1147647E+00
         21   -1    0    0  502  501  0.00000000000E+00  0.00000000000E+00  0.23677486211E+03  0.23677486211E+03  0.00000000000E+00 0.  1.
         21   -1    0    0  501  502 -0.00000000000E+00 -0.00000000000E+00 -0.17318711877E+03  0.17318711877E+03  0.00000000000E+00 0.  1.
         25    1    1    2    0    0  0.32551457754E+02 -0.14620006578E+03  0.86747976116E+02  0.21350472594E+03  0.12500000000E+03 0.  0.
         25    1    1    2    0    0 -0.32551457754E+02  0.14620006578E+03 -0.23160232773E+02  0.19645725494E+03  0.12500000000E+03 0.  0.
</event>
<event>
 4    0  0.2210826E-002  0.1519667E+03  0.7546771E-02  0.1198077E+00
         21   -1    0    0  502  501  0.00000000000E+00  0.00000000000E+00  0.12040962808E+04  0.12040962808E+04  0.00000000000E+00 0. -1.
         21   -1    0    0  501  502 -0.00000000000E+00 -0.00000000000E+00 -0.19179420849E+02  0.19179420849E+02  0.00000000000E+00 0. -1.
         25    1    1    2    0    0  0.24381231779E+02  0.81501609639E+02  0.53116582829E+03  0.55226723058E+03  0.12500000000E+03 0.  0.
         25    1    1    2    0    0 -0.24381231779E+02 -0.81501609639E+02  0.65375103162E+03  0.67100847102E+03  0.12500000000E+03 0.  0.
</event>
<event>
 4    0  0.2210826E-002  0.3531172E+03  0.7546771E-02  0.1061343E+00
         21   -1    0    0  502  501  0.00000000000E+00  0.00000000000E+00  0.40394103143E+03  0.40394103143E+03  0.00000000000E+00 0.  1.
         21   -1    0    0  501  502 -0.00000000000E+00 -0.00000000000E+00 -0.30868806160E+03  0.30868806160E+03  0.00000000000E+00 0.  1.
         25    1    1    2    0    0 -0.12909176027E+03  0.23851924010E+03  0.23777548436E+03  0.38173065299E+03  0.12500000000E+03 0.  0.
         25    1    1    2    0    0  0.12909176027E+03 -0.23851924010E+03 -0.14252251453E+03  0.33089844003E+03  0.12500000000E+03 0.  0.
</event>
<event>
 4    0  0.2210826E-002  0.1659565E+03  0.7546771E-02  0.1182131E+00
         21   -1    0    0  502  501  0.00000000000E+00  0.00000000000E+00  0.23184761878E+02  0.23184761878E+02  0.00000000000E+00 0. -1.
         21   -1    0    0  501  502 -0.00000000000E+00 -0.00000000000E+00 -0.11879163043E+04  0.11879163043E+04  0.00000000000E+00 0. -1.
         25    1    1    2    0    0 -0.42514039223E+02  0.61897274492E+02 -0.29325698594E+03  0.32751087909E+03  0.12500000000E+03 0.  0.
         25    1    1    2    0    0  0.42514039223E+02 -0.61897274492E+02 -0.87147455650E+03  0.88359018711E+03  0.12500000000E+03 0.  0.
</event>
<event>
 4    0  0.2210826E-002  0.1792789E+03  0.7546771E-02  0.1168503E+00
         21   -1    0    0  502  501  0.00000000000E+00  0.00000000000E+00  0.44737752754E+03  0.44737752754E+03  0.00000000000E+00 0.  1.
         21   -1    0    0  501  502 -0.00000000000E+00 -0.00000000000E+00 -0.71842963934E+02  0.71842963934E+02  0.00000000000E+00 0.  1.
         25    1    1    2    0    0  0.73221148579E+02  0.41747190884E+02  0.32825168704E+03  0.36121784921E+03  0.12500000000E+03 0.  0.
         25    1    1    2    0    0 -0.73221148579E+02 -0.41747190884E+02  0.47282876572E+02  0.15800264227E+03  0.12500000000E+03 0.  0.
</event>
<event>
 4    0  0.2210826E-002  0.1483532E+03  0.7546771E-02  0.1202511E+00
         21   -1    0    0  502  501  0.00000000000E+00  0.00000000000E+00  0.16018182264E+02  0.16018182264E+02  0.00000000000E+00 0.  1.
         21   -1    0    0  501  502 -0.00000000000E+00 -0.00000000000E+00 -0.13739806742E+04  0.13739806742E+04  0.00000000000E+00 0.  1.
         25    1    1    2    0    0 -0.75621356823E+02  0.25005704927E+02 -0.70853536603E+03  0.72387239193E+03  0.12500000000E+03 0.  0.
         25    1    1    2    0    0  0.75621356823E+02 -0.25005704927E+02 -0.64942712588E+03  0.66612646450E+03  0.12500000000E+03 0.  0.
</event>
<event>
 4    0  0.2210826E-002  0.1885702E+03  0.7546771E-02  0.1159757E+00
         21   -1    0    0  502  501  0.00000000000E+00  0.00000000000E+00  0.58595765829E+02  0.58595765829E+02  0.00000000000E+00 0.  1.
         21   -1    0    0  501  502 -0.00000000000E+00 -0.00000000000E+00 -0.60684823231E+03  0.60684823231E+03  0.00000000000E+00 0.  1.
         25    1    1    2    0    0 -0.10767762160E+03  0.51056813841E+02 -0.40771784560E+03  0.44278675460E+03  0.12500000000E+03 0.  0.
         25    1    1    2    0    0  0.10767762160E+03 -0.51056813841E+02 -0.14053462089E+03  0.22265724354E+03  0.12500000000E+03 0.  0.
</event>
<event>
 4    0  0.2210826E-002  0.2879644E+03  0.7546771E-02  0.1091417E+00
         21   -1    0    0  502  501  0.00000000000E+00  0.00000000000E+00  0.25639605917E+03  0.25639605917E+03  0.00000000000E+00 0. -1.
         21   -1    0    0  501  502 -0.00000000000E+00 -0.00000000000E+00 -0.32341958325E+03  0.32341958325E+03  0.00000000000E+00 0. -1.
         25    1    1    2    0    0 -0.27130017528E+02 -0.43147205077E+01 -0.29321362852E+03  0.31992793972E+03  0.12500000000E+03 0.  0.
         25    1    1    2    0    0  0.27130017528E+02  0.43147205077E+01  0.22619010445E+03  0.25988770270E+03  0.12500000000E+03 0.  0.
</event>
<event>
 4    0  0.2210826E-002  0.1791822E+03  0.7546771E-02  0.1168597E+00
         21   -1    0    0  502  501  0.00000000000E+00  0.00000000000E+00  0.39869767175E+03  0.39869767175E+03  0.00000000000E+00 0.  1.
         21   -1    0    0  501  502 -0.00000000000E+00 -0.00000000000E+00 -0.80527801858E+02  0.80527801858E+02  0.00000000000E+00 0.  1.
         25    1    1    2    0    0  0.23646164871E+02 -0.83910917019E+02  0.28510730054E+03  0.32328216147E+03  0.12500000000E+03 0.  0.
         25    1    1    2    0    0 -0.23646164871E+02  0.83910917019E+02  0.33062569360E+02  0.15594331214E+03  0.12500000000E+03 0.  0.
</event>
<event>
 4    0  0.2210826E-002  0.2698508E+03  0.7546771E-02  0.1101365E+00
         21   -1    0    0  502  501  0.00000000000E+00  0.00000000000E+00  0.10074918245E+04  0.10074918245E+04  0.00000000000E+00 0.  1.
         21   -1    0    0  501  502 -0.00000000000E+00 -0.00000000000E+00 -0.72277986962E+02  0.72277986962E+02  0.00000000000E+00 0.  1.
         25    1    1    2    0    0  0.80573898854E+02  0.20698164091E+03  0.64499086337E+03  0.69352128063E+03  0.12500000000E+03 0.  0.
         25    1    1    2    0    0 -0.80573898854E+02 -0.20698164091E+03  0.29022297421E+03  0.38624853088E+03  0.12500000000E+03 0.  0.
</event>
<event>
 4    0  0.2210826E-002  0.2451870E+03  0.7546771E-02  0.1116385E+00
         21   -1    0    0  502  501  0.00000000000E+00  0.00000000000E+00  0.29390859428E+02  0.29390859428E+02  0.00000000000E+00 0. -1.
         21   -1    0    0  501  502 -0.00000000000E+00 -0.00000000000E+00 -0.20454208262E+04  0.20454208262E+04  0.00000000000E+00 0. -1.
         25    1    1    2    0    0  0.82843234606E+02  0.13534766804E+02 -0.18926569142E+03  0.24185262740E+03  0.12500000000E+03 0.  0.
         25    1    1    2    0    0 -0.82843234606E+02 -0.13534766804E+02 -0.18267642753E+04  0.18329590582E+04  0.12500000000E+03 0.  0.
</event>
<event>
 4    0  0.2210826E-002  0.2218816E+03  0.7546771E-02  0.1132488E+00
         21   -1    0    0  502  501  0.00000000000E+00  0.00000000000E+00  0.26531880327E+03  0.26531880327E+03  0.00000000000E+00 0.  1.
         21   -1    0    0  501  502 -0.00000000000E+00 -0.00000000000E+00 -0.18555581726E+03  0.18555581726E+03  0.00000000000E+00 0.  1.
         25    1    1    2    0    0  0.75864895233E+02 -0.11194449839E+03 -0.85873515166E+02  0.20319033849E+03  0.12500000000E+03 0.  0.
         25    1    1    2    0    0 -0.75864895233E+02  0.11194449839E+03  0.16563650118E+03  0.24768428204E+03  0.12500000000E+03 0.  0.
</event>
<event>
 4    0  0.2210826E-002  0.2160713E+03  0.7546771E-02  0.1136846E+00
         21   -1    0    0  502  501  0.00000000000E+00  0.00000000000E+00  0.16987939059E+04  0.16987939059E+04  0.00000000000E+00 0. -1.
         21   -1    0    0  501  502 -0.00000000000E+00 -0.00000000000E+00 -0.27482317639E+02  0.27482317639E+02  0.00000000000E+00 0. -1.
         25    1    1    2    0    0  0.16227079317E+03 -0.47491874872E+02  0.63694225570E+03  0.67075161244E+03  0.12500000000E+03 0.  0.
         25    1    1    2    0    0 -0.16227079317E+03  0.47491874872E+02  0.10343693326E+04  0.10555246111E+04  0.12500000000E+03 0.  0.
</event>
<event>
 4    0  0.2210826E-002  0.2176579E+03  0.7546771E-02  0.1135641E+00
         21   -1    0    0  502  501  0.00000000000E+00  0.00000000000E+00  0.31407975540E+03  0.31407975540E+03  0.00000000000E+00 0. -1.
         21   -1    0    0  501  502 -0.00000000000E+00 -0.00000000000E+00 -0.15083730038E+03  0.15083730038E+03  0.00000000000E+00 0. -1.
         25    1    1    2    0    0  0.13216821353E+03  0.11819911730E+03  0.10043968579E+03  0.23906609647E+03  0.12500000000E+03 0.  0.
         25    1    1    2    0    0 -0.13216821353E+03 -0.11819911730E+03  0.62802769241E+02  0.22585095931E+03  0.12500000000E+03 0.  0.
</event>
<event>
 4    0  0.2210826E-002  0.1952503E+03  0.7546771E-02  0.1153809E+00
         21   -1    0    0  502  501  0.00000000000E+00  0.00000000000E+00  0.21005821176E+02  0.21005821176E+02  0.00000000000E+00 0.  1.
         21   -1    0    0  501  502 -0.00000000000E+00 -0.00000000000E+00 -0.18148632206E+04  0.18148632206E+04  0.00000000000E+00 0.  1.
         25    1    1    2    0    0  0.60106488045E+02 -0.13325084503E+03 -0.10549039110E+04  0.10722946606E+04  0.12500000000E+03 0.  0.
         25    1    1    2    0    0 -0.60106488045E+02  0.13325084503E+03 -0.73895348834E+03  0.76357438114E+03  0.12500000000E+03 0.  0.
</event>
<event>
 4    0  0.2210826E-002  0.2217044E+03  0.7546771E-02  0.1132619E+00
         21   -1    0    0  502  501  0.00000000000E+00  0.00000000000E+00  0.10589551148E+04  0.10589551148E+04  0.00000000000E+00 0. -1.
         21   -1    0    0  501  502 -0.00000000000E+00 -0.00000000000E+00 -0.46416357508E+02  0.46416357508E+02  0.00000000000E+00 0. -1.
         25    1    1    2    0    0 -0.15573546600E+03  0.32605610493E+02  0.28037434394E+03  0.34576210600E+03  0.12500000000E+03 0.  0.
         25    1    1    2    0    0  0.15573546600E+03 -0.32605610493E+02  0.73216441335E+03  0.75960936631E+03  0.12500000000E+03 0.  0.
</event>
<event>
 4    0  0.2210826E-002  0.2087515E+03  0.7546771E-02  0.1142558E+00
         21   -1    0    0  502  501  0.00000000000E+00  0.00000000000E+00  0.17443494263E+04  0.17443494263E+04  0.00000000000E+00 0.  1.
         21   -1    0    0  501  502 -0.00000000000E+00 -0.00000000000E+00 -0.24981918314E+02  0.24981918314E+02  0.00000000000E+00 0.  1.
         25    1    1    2    0    0 -0.13639129519E+03  0.80359249849E+02  0.10875860590E+04  0.11061322842E+04  0.12500000000E+03 0.  0.
         25    1    1    2    0    0  0.13639129519E+03 -0.80359249849E+02  0.63178144905E+03  0.66319906047E+03  0.12500000000E+03 0.  0.
</event>
<event>
 4    0  0.2210826E-002  0.2374006E+03  0.7546771E-02  0.1121537E+00
         21   -1    0    0  502  501  0.00000000000E+00  0.00000000000E+00  0.11303776941E+04  0.11303776941E+04  0.00000000000E+00 0.  1.
         21   -1    0    0  501  502 -0.00000000000E+00 -0.00000000000E+00 -0.49858612744E+02  0.49858612744E+02  0.00000000000E+00 0. -1.
         25    1    1    2    0    0  0.13865195963E+03 -0.14565031768E+03  0.58300304155E+03  0.62925028995E+03  0.12500000000E+03 0.  0.
         25    1    1    2    0    0 -0.13865195963E+03  0.14565031768E+03  0.49751603985E+03  0.55098601693E+03  0.12500000000E+03 0.  0.
</event>
<event>
 4    0  0.2210826E-002  0.1854421E+03  0.7546771E-02  0.1162638E+00
         21   -1    0    0  502  501  0.00000000000E+00  0.00000000000E+00  0.18340794621E+03  0.18340794621E+03  0.00000000000E+00 0.  1.
         21   -1    0    0  501  502 -0.00000000000E+00 -0.00000000000E+00 -0.18749880826E+03  0.18749880826E+03  0.00000000000E+00 0.  1.
         25    1    1    2    0    0  0.53861036593E+02  0.10072452386E+03  0.73572198865E+02  0.18461936360E+03  0.12500000000E+03 0.  0.
         25    1    1    2    0    0 -0.53861036593E+02 -0.10072452386E+03 -0.77663060918E+02  0.18628739088E+03  0.12500000000E+03 0.  0.
</event>
<event>
 4    0  0.2210826E-002  0.2198623E+03  0.7546771E-02  0.1133986E+00
         21   -1    0    0  502  501  0.00000000000E+00  0.00000000000E+00  0.62650162865E+03  0.62650162865E+03  0.00000000000E+00 0. -1.
         21   -1    0    0  501  502 -0.00000000000E+00 -0.00000000000E+00 -0.77157701009E+02  0.77157701009E+02  0.00000000000E+00 0. -1.
         25    1    1    2    0    0  0.10449516479E+03  0.18376316725E+02  0.40264604815E+02  0.16882880939E+03  0.12500000000E+03 0.  0.
         25    1    1    2    0    0 -0.10449516479E+03 -0.18376316725E+02  0.50907932283E+03  0.53483052027E+03  0.12500000000E+03 0.  0.
</event>
<event>
 4    0  0.2210826E-002  0.2384305E+03  0.7546771E-02  0.1120843E+00
         21   -1    0    0  502  501  0.00000000000E+00  0.00000000000E+00  0.83278714484E+03  0.83278714484E+03  0.00000000000E+00 0. -1.
         21   -1    0    0  501  502 -0.00000000000E+00 -0.00000000000E+00 -0.68263675357E+02  0.68263675357E+02  0.00000000000E+00 0. -1.
         25    1    1    2    0    0 -0.15478775405E+03 -0.99666893244E+02  0.54405114993E+03  0.58780046968E+03  0.12500000000E+03 0.  0.
         25    1    1    2    0    0  0.15478775405E+03  0.99666893244E+02  0.22047231955E+03  0.31325035052E+03  0.12500000000E+03 0.  0.
</event>
<event>
 4    0  0.2210826E-002  0.2327033E+03  0.7546771E-02  0.1124751E+00
         21   -1    0    0  502  501  0.00000000000E+00  0.00000000000E+00  0.89049936822E+02  0.89049936822E+02  0.00000000000E+00 0. -1.
         21   -1    0    0  501  502 -0.00000000000E+00 -0.00000000000E+00 -0.60809507448E+03  0.60809507448E+03  0.00000000000E+00 0. -1.
         25    1    1    2    0    0  0.56580479701E+02  0.58484108943E+02  0.80328388898E+01  0.14936956913E+03  0.12500000000E+03 0.  0.
         25    1    1    2    0    0 -0.56580479701E+02 -0.58484108943E+02 -0.52707797655E+03  0.54777544217E+03  0.12500000000E+03 0.  0.
</event>
<event>
 4    0  0.2210826E-002  0.3026287E+03  0.7546771E-02  0.1083934E+00
         21   -1    0    0  502  501  0.00000000000E+00  0.00000000000E+00  0.73270113583E+02  0.73270113583E+02  0.00000000000E+00 0. -1.
         21   -1    0    0  501  502 -0.00000000000E+00 -0.00000000000E+00 -0.12499520564E+04  0.12499520564E+04  0.00000000000E+00 0. -1.
         25    1    1    2    0    0  0.61324958030E+02 -0.94581644148E+02 -0.38506242880E+02  0.17266779847E+03  0.12500000000E+03 0.  0.
         25    1    1    2    0    0 -0.61324958030E+02  0.94581644148E+02 -0.11381756999E+04  0.11505543715E+04  0.12500000000E+03 0.  0.
</event>
<event>
 4    0  0.2210826E-002  0.2476494E+03  0.7546771E-02  0.1114799E+00
         21   -1    0    0  502  501  0.00000000000E+00  0.00000000000E+00  0.15972281023E+03  0.15972281023E+03  0.00000000000E+00 0.  1.
         21   -1    0    0  501  502 -0.00000000000E+00 -0.00000000000E+00 -0.38397914193E+03  0.38397914193E+03  0.00000000000E+00 0.  1.
         25    1    1    2    0    0  0.10542803655E+03  0.18531086288E+03 -0.94770190459E+02  0.26469147284E+03  0.12500000000E+03 0.  0.
         25    1    1    2    0    0 -0.10542803655E+03 -0.18531086288E+03 -0.12948614124E+03  0.27901047931E+03  0.12500000000E+03 0.  0.
</event>
<event>
 4    0  0.2210826E-002  0.3027669E+03  0.7546771E-02  0.1083866E+00
         21   -1    0    0  502  501  0.00000000000E+00  0.00000000000E+00  0.13354622071E+03  0.13354622071E+03  0.00000000000E+00 0.  1.
         21   -1    0    0  501  502 -0.00000000000E+00 -0.00000000000E+00 -0.68641240987E+03  0.68641240987E+03  0.00000000000E+00 0.  1.
         25    1    1    2    0    0  0.15871376723E+03 -0.66712900228E+02  0.15257520581E+02  0.21330368703E+03  0.12500000000E+03 0.  0.
         25    1    1    2    0    0 -0.15871376723E+03  0.66712900228E+02 -0.56812370975E+03  0.60665494356E+03  0.12500000000E+03 0.  0.
</event>
<event>
 4    0  0.2210826E-002  0.4895277E+03  0.7546771E-02  0.1016549E+00
         21   -1    0    0  502  501  0.00000000000E+00  0.00000000000E+00  0.74887548550E+03  0.74887548550E+03  0.00000000000E+00 0. -1.
         21   -1    0    0  501  502 -0.00000000000E+00 -0.00000000000E+00 -0.31999623180E+03  0.31999623180E+03  0.00000000000E+00 0.  1.
         25    1    1    2    0    0  0.43932996359E+03 -0.14472325318E+03  0.10495679468E+03  0.49050643795E+03  0.12500000000E+03 0.  0.
         25    1    1    2    0    0 -0.43932996359E+03  0.14472325318E+03  0.32392245902E+03  0.57836527936E+03  0.12500000000E+03 0.  0.
</event>
<event>
 4    0  0.2210826E-002  0.2139316E+03  0.7546771E-02  0.1138490E+00
         21   -1    0    0  502  501  0.00000000000E+00  0.00000000000E+00  0.26989644027E+02  0.26989644027E+02  0.00000000000E+00 0. -1.
         21   -1    0    0  501  502 -0.00000000000E+00 -0.00000000000E+00 -0.16957149234E+04  0.16957149234E+04  0.00000000000E+00 0. -1.
         25    1    1    2    0    0 -0.15221043925E+03 -0.42560854319E+02 -0.11236485929E+04  0.11415737403E+04  0.12500000000E+03 0.  0.
         25    1    1    2    0    0  0.15221043925E+03  0.42560854319E+02 -0.54507668639E+03  0.58113082708E+03  0.12500000000E+03 0.  0.
</event>
<event>
 4    0  0.2210826E-002  0.2737143E+03  0.7546771E-02  0.1099172E+00
         21   -1    0    0  502  501  0.00000000000E+00  0.00000000000E+00  0.75942727394E+03  0.75942727394E+03  0.00000000000E+00 0.  1.
         21   -1    0    0  501  502 -0.00000000000E+00 -0.00000000000E+00 -0.98652680330E+02  0.98652680330E+02  0.00000000000E+00 0.  1.
         25    1    1    2    0    0  0.11209225047E+03  0.15299866026E+03  0.91013641564E+02  0.24470746945E+03  0.12500000000E+03 0.  0.
         25    1    1    2    0    0 -0.11209225047E+03 -0.15299866026E+03  0.56976095205E+03  0.61337248482E+03  0.12500000000E+03 0.  0.
</event>
<event>
 4    0  0.2210826E-002  0.2321902E+03  0.7546771E-02  0.1125108E+00
         21   -1    0    0  502  501  0.00000000000E+00  0.00000000000E+00  0.10898545837E+04  0.10898545837E+04  0.00000000000E+00 0.  1.
         21   -1    0    0  501  502 -0.00000000000E+00 -0.00000000000E+00 -0.49467422926E+02  0.49467422926E+02  0.00000000000E+00 0.  1.
         25    1    1    2    0    0 -0.17600813018E+03 -0.84534917111E+02  0.55144788094E+03  0.59820128677E+03  0.12500000000E+03 0.  0.
         25    1    1    2    0    0  0.17600813018E+03  0.84534917111E+02  0.48893927987E+03  0.54112071990E+03  0.12500000000E+03 0.  0.
</event>
<event>
 4    0  0.2210826E-002  0.1953724E+03  0.7546771E-02  0.1153703E+00
         21   -1    0    0  502  501  0.00000000000E+00  0.00000000000E+00  0.15465480626E+03  0.15465480626E+03  0.00000000000E+00 0. -1.
         21   -1    0    0  501  502 -0.00000000000E+00 -0.00000000000E+00 -0.24681009435E+03  0.24681009435E+03  0.00000000000E+00 0. -1.
         25    1    1    2    0    0  0.84238071673E+02  0.11294914512E+03 -0.99383660864E+02  0.21296871636E+03  0.12500000000E+03 0.  0.
         25    1    1    2    0    0 -0.84238071673E+02 -0.11294914512E+03  0.72283727710E+01  0.18849618425E+03  0.12500000000E+03 0.  0.
</event>
<event>
 4    0  0.2210826E-002  0.2364056E+03  0.7546771E-02  0.1122211E+00
         21   -1    0    0  502  501  0.00000000000E+00  0.00000000000E+00  0.70761320534E+03  0.70761320534E+03  0.00000000000E+00 0. -1.
         21   -1    0    0  501  502 -0.00000000000E+00 -0.00000000000E+00 -0.78980460419E+02  0.78980460419E+02  0.00000000000E+00 0. -1.
         25    1    1    2    0    0  0.33915463343E+01 -0.13832708232E+03  0.55607167751E+03  0.58650370401E+03  0.12500000000E+03 0.  0.
         25    1    1    2    0    0 -0.33915463343E+01  0.13832708232E+03  0.72561067420E+02  0.20008996176E+03  0.12500000000E+03 0.  0.
</event>
<event>
 4    0  0.2210826E-002  0.2837786E+03  0.7546771E-02  0.1093643E+00
         21   -1    0    0  502  501  0.00000000000E+00  0.00000000000E+00  0.22926628014E+03  0.22926628014E+03  0.00000000000E+00 0.  1.
         21   -1    0    0  501  502 -0.00000000000E+00 -0.00000000000E+00 -0.35125222074E+03  0.35125222074E+03  0.00000000000E+00 0.  1.
         25    1    1    2    0    0 -0.62525610803E+02  0.78876790071E+02 -0.30037680313E+03  0.34056163007E+03  0.12500000000E+03 0.  0.
         25    1    1    2    0    0  0.62525610803E+02 -0.78876790071E+02  0.17839086253E+03  0.23995687081E+03  0.12500000000E+03 0.  0.
</event>
<event>
 4    0  0.2210826E-002  0.2470996E+03  0.7546771E-02  0.1115152E+00
         21   -1    0    0  502  501  0.00000000000E+00  0.00000000000E+00  0.23521326352E+04  0.23521326352E+04  0.00000000000E+00 0.  1.
         21   -1    0    0  501  502 -0.00000000000E+00 -0.00000000000E+00 -0.25958661603E+02  0.25958661603E+02  0.00000000000E+00 0.  1.
         25    1    1    2    0    0 -0.19338413677E+03 -0.43538524684E+02  0.78602105363E+03  0.82021163381E+03  0.12500000000E+03 0.  0.
         25    1    1    2    0    0  0.19338413677E+03  0.43538524684E+02  0.15401529199E+04  0.15578796630E+04  0.12500000000E+03 0.  0.
</event>
<event>
 4    0  0.2210826E-002  0.1888135E+03  0.7546771E-02  0.1159536E+00
         21   -1    0    0  502  501  0.00000000000E+00  0.00000000000E+00  0.22713725240E+03  0.22713725240E+03  0.00000000000E+00 0.  1.
         21   -1    0    0  501  502 -0.00000000000E+00 -0.00000000000E+00 -0.15695590492E+03  0.15695590492E+03  0.00000000000E+00 0.  1.
         25    1    1    2    0    0 -0.19895640619E+02  0.44474164736E+02  0.17022553038E+03  0.21673836541E+03  0.12500000000E+03 0.  0.
         25    1    1    2    0    0  0.19895640619E+02 -0.44474164736E+02 -0.10004418290E+03  0.16735479191E+03  0.12500000000E+03 0.  0.
</event>
<event>
 4    0  0.2210826E-002  0.2387497E+03  0.7546771E-02  0.1120629E+00
         21   -1    0    0  502  501  0.00000000000E+00  0.00000000000E+00  0.20078008370E+03  0.20078008370E+03  0.00000000000E+00 0.  1.
         21   -1    0    0  501  502 -0.00000000000E+00 -0.00000000000E+00 -0.28389984354E+03  0.28389984354E+03  0.00000000000E+00 0.  1.
         25    1    1    2    0    0  0.30743940174E+02 -0.25760717785E+02 -0.24397688765E+03  0.27705329117E+03  0.12500000000E+03 0.  0.
         25    1    1    2    0    0 -0.30743940174E+02  0.25760717785E+02  0.16085712781E+03  0.20762663607E+03  0.12500000000E+03 0.  0.
</event>
<event>
 4    0  0.2210826E-002  0.2273466E+03  0.7546771E-02  0.1128521E+00
         21   -1    0    0  502  501  0.00000000000E+00  0.00000000000E+00  0.42209955763E+02  0.42209955763E+02  0.00000000000E+00 0.  1.
         21   -1    0    0  501  502 -0.00000000000E+00 -0.00000000000E+00 -0.12245093166E+04  0.12245093166E+04  0.00000000000E+00 0.  1.
         25    1    1    2    0    0 -0.58685493056E+02  0.16732835227E+03 -0.78048109591E+03  0.81007314832E+03  0.12500000000E+03 0.  0.
         25    1    1    2    0    0  0.58685493056E+02 -0.16732835227E+03 -0.40181826491E+03  0.45664612402E+03  0.12500000000E+03 0.  0.
</event>
<event>
 4    0  0.2210826E-002  0.1841160E+03  0.7546771E-02  0.1163878E+00
         21   -1    0    0  502  501  0.00000000000E+00  0.00000000000E+00  0.10088531212E+03  0.10088531212E+03  0.00000000000E+00 0. -1.
         21   -1    0    0  501  502 -0.00000000000E+00 -0.00000000000E+00 -0.33601220873E+03  0.33601220873E+03  0.00000000000E+00 0. -1.
         25    1    1    2    0    0 -0.99339510363E+02 -0.20992763214E+02 -0.22345023363E+03  0.27543427771E+03  0.12500000000E+03 0.  0.
         25    1    1    2    0    0  0.99339510363E+02  0.20992763214E+02 -0.11676662975E+02  0.16146324314E+03  0.12500000000E+03 0.  0.
</event>
<event>
 4    0  0.2210826E-002  0.3182194E+03  0.7546771E-02  0.1076472E+00
         21   -1    0    0  502  501  0.00000000000E+00  0.00000000000E+00  0.25684492268E+03  0.25684492268E+03  0.00000000000E+00 0. -1.
         21   -1    0    0  501  502 -0.00000000000E+00 -0.00000000000E+00 -0.39425968777E+03  0.39425968777E+03  0.00000000000E+00 0. -1.
         25    1    1    2    0    0 -0.19745275661E+03  0.77378751631E+02 -0.27500616746E+03  0.36909139036E+03  0.12500000000E+03 0.  0.
         25    1    1    2    0    0  0.19745275661E+03 -0.77378751631E+02  0.13759140237E+03  0.28201322008E+03  0.12500000000E+03 0.  0.
</event>
<event>
 4    0  0.2210826E-002  0.1830827E+03  0.7546771E-02  0.1164853E+00
         21   -1    0    0  502  501  0.00000000000E+00  0.00000000000E+00  0.12525884991E+03  0.12525884991E+03  0.00000000000E+00 0. -1.
         21   -1    0    0  501  502 -0.00000000000E+00 -0.00000000000E+00 -0.26760003654E+03  0.26760003654E+03  0.00000000000E+00 0. -1.
         25    1    1    2    0    0  0.85351354723E+02  0.60509991197E+02  0.18260377868E+02  0.16402668742E+03  0.12500000000E+03 0.  0.
         25    1    1    2    0    0 -0.85351354723E+02 -0.60509991197E+02 -0.16060156450E+03  0.22883219902E+03  0.12500000000E+03 0.  0.
</event>
<event>
 4    0  0.2210826E-002  0.1969946E+03  0.7546771E-02  0.1152300E+00
         21   -1    0    0  502  501  0.00000000000E+00  0.00000000000E+00  0.61482655578E+03  0.61482655578E+03  0.00000000000E+00 0. -1.
         21   -1    0    0  501  502 -0.00000000000E+00 -0.00000000000E+00 -0.63118416985E+02  0.63118416985E+02  0.00000000000E+00 0. -1.
         25    1    1    2    0    0  0.67672825544E+02  0.80357980807E+01  0.51013553944E+03  0.52962954408E+03  0.12500000000E+03 0.  0.
         25    1    1    2    0    0 -0.67672825544E+02 -0.80357980807E+01  0.41572599356E+02  0.14831542868E+03  0.12500000000E+03 0.  0.
</event>
<event>
 4    0  0.2210826E-002  0.2395162E+03  0.7546771E-02  0.1120116E+00
         21   -1    0    0  502  501  0.00000000000E+00  0.00000000000E+00  0.31317220446E+03  0.31317220446E+03  0.00000000000E+00 0. -1.
         21   -1    0    0  501  502 -0.00000000000E+00 -0.00000000000E+00 -0.18318361612E+03  0.18318361612E+03  0.00000000000E+00 0. -1.
         25    1    1    2    0    0  0.81483890650E+02  0.70196579297E+02 -0.11499962626E+03  0.20104004134E+03  0.12500000000E+03 0.  0.
         25    1    1    2    0    0 -0.81483890650E+02 -0.70196579297E+02  0.24498821460E+03  0.29531577925E+03  0.12500000000E+03 0.  0.
</event>
<event>
 4    0  0.2210826E-002  0.2552067E+03  0.7546771E-02  0.1110058E+00
         21   -1    0    0  502  501  0.00000000000E+00  0.00000000000E+00  0.32066039689E+03  0.32066039689E+03  0.00000000000E+00 0.  1.
         21   -1    0    0  501  502 -0.00000000000E+00 -0.00000000000E+00 -0.20311358268E+03  0.20311358268E+03  0.00000000000E+00 0.  1.
         25    1    1    2    0    0  0.20972394773E+03 -0.66401334741E+02  0.24550627649E+02  0.25420661838E+03  0.12500000000E+03 0.  0.
         25    1    1    2    0    0 -0.20972394773E+03  0.66401334741E+02  0.92996186553E+02  0.26956736119E+03  0.12500000000E+03 0.  0.
</event>
<event>
 4    0  0.2210826E-002  0.2113681E+03  0.7546771E-02  0.1140487E+00
         21   -1    0    0  502  501  0.00000000000E+00  0.00000000000E+00  0.27592683505E+02  0.27592683505E+02  0.00000000000E+00 0.  1.
         21   -1    0    0  501  502 -0.00000000000E+00 -0.00000000000E+00 -0.16191423017E+04  0.16191423017E+04  0.00000000000E+00 0.  1.
         25    1    1    2    0    0  0.13220755744E+03  0.48027431693E+02 -0.11707483187E+04  0.11857748935E+04  0.12500000000E+03 0.  0.
         25    1    1    2    0    0 -0.13220755744E+03 -0.48027431693E+02 -0.42080129949E+03  0.46096009164E+03  0.12500000000E+03 0.  0.
</event>
<event>
 4    0  0.2210826E-002  0.2457545E+03  0.7546771E-02  0.1116018E+00
         21   -1    0    0  502  501  0.00000000000E+00  0.00000000000E+00  0.10833960413E+03  0.10833960413E+03  0.00000000000E+00 0. -1.
         21   -1    0    0  501  502 -0.00000000000E+00 -0.00000000000E+00 -0.55746249626E+03  0.55746249626E+03  0.00000000000E+00 0. -1.
         25    1    1    2    0    0  0.11667178272E+03 -0.57906788624E+02 -0.45043913248E+03  0.48526890805E+03  0.12500000000E+03 0.  0.
         25    1    1    2    0    0 -0.11667178272E+03  0.57906788624E+02  0.13162403486E+01  0.18053319235E+03  0.12500000000E+03 0.  0.
</event>
<event>
 4    0  0.2210826E-002  0.2399715E+03  0.7546771E-02  0.1119812E+00
         21   -1    0    0  502  501  0.00000000000E+00  0.00000000000E+00  0.82314100848E+02  0.82314100848E+02  0.00000000000E+00 0. -1.
         21   -1    0    0  501  502 -0.00000000000E+00 -0.00000000000E+00 -0.69959248721E+03  0.69959248721E+03  0.00000000000E+00 0. -1.
         25    1    1    2    0    0 -0.16894013517E+03 -0.11398254119E+03 -0.34236479004E+03  0.41757806267E+03  0.12500000000E+03 0.  0.
         25    1    1    2    0    0  0.16894013517E+03  0.11398254119E+03 -0.27491359632E+03  0.36432852538E+03  0.12500000000E+03 0.  0.
</event>
<event>
 4    0  0.2210826E-002  0.2060514E+03  0.7546771E-02  0.1144732E+00
         21   -1    0    0  502  501  0.00000000000E+00  0.00000000000E+00  0.28928821839E+03  0.28928821839E+03  0.00000000000E+00 0. -1.
         21   -1    0    0  501  502 -0.00000000000E+00 -0.00000000000E+00 -0.14676432178E+03  0.14676432178E+03  0.00000000000E+00 0. -1.
         25    1    1    2    0    0  0.57624367560E+02 -0.48689392877E+02  0.22511127633E+03  0.26831196665E+03  0.12500000000E+03 0.  0.
         25    1    1    2    0    0 -0.57624367560E+02  0.48689392877E+02 -0.82587379716E+02  0.16774057352E+03  0.12500000000E+03 0.  0.
</event>
<event>
 4    0  0.2210826E-002  0.1417645E+03  0.7546771E-02  0.1210974E+00
         21   -1    0    0  502  501  0.00000000000E+00  0.00000000000E+00  0.16080734382E+02  0.16080734382E+02  0.00000000000E+00 0. -1.
         21   -1    0    0  501  502 -0.00000000000E+00 -0.00000000000E+00 -0.12497665717E+04  0.12497665717E+04  0.00000000000E+00 0. -1.
         25    1    1    2    0    0  0.28267282152E+02  0.20258714591E+02 -0.36182356544E+03  0.38438359391E+03  0.12500000000E+03 0.  0.
         25    1    1    2    0    0 -0.28267282152E+02 -0.20258714591E+02 -0.87186227189E+03  0.88146371219E+03  0.12500000000E+03 0.  0.
</event>
<event>
 4    0  0.2210826E-002  0.2614693E+03  0.7546771E-02  0.1106264E+00
         21   -1    0    0  502  501  0.00000000000E+00  0.00000000000E+00  0.14797473132E+04  0.14797473132E+04  0.00000000000E+00 0. -1.
         21   -1    0    0  501  502 -0.00000000000E+00 -0.00000000000E+00 -0.46201247880E+02  0.46201247880E+02  0.00000000000E+00 0. -1.
         25    1    1    2    0    0 -0.14488553770E+03 -0.17748752973E+03  0.76268261447E+03  0.80610384731E+03  0.12500000000E+03 0.  0.
         25    1    1    2    0    0  0.14488553770E+03  0.17748752973E+03  0.67086345083E+03  0.71984471374E+03  0.12500000000E+03 0.  0.
</event>
<event>
 4    0  0.2210826E-002  0.2124314E+03  0.7546771E-02  0.1139655E+00
         21   -1    0    0  502  501  0.00000000000E+00  0.00000000000E+00  0.38873284503E+02  0.38873284503E+02  0.00000000000E+00 0.  1.
         21   -1    0    0  501  502 -0.00000000000E+00 -0.00000000000E+00 -0.11608765514E+04  0.11608765514E+04  0.00000000000E+00 0.  1.
         25    1    1    2    0    0 -0.38118657489E+02  0.15776941012E+03 -0.40231553246E+03  0.45147204396E+03  0.12500000000E+03 0.  0.
         25    1    1    2    0    0  0.38118657489E+02 -0.15776941012E+03 -0.71968773441E+03  0.74827779192E+03  0.12500000000E+03 0.  0.
</event>
<event>
 4    0  0.2210826E-002  0.1774046E+03  0.7546771E-02  0.1170339E+00
         21   -1    0    0  502  501  0.00000000000E+00  0.00000000000E+00  0.22232429239E+02  0.22232429239E+02  0.00000000000E+00 0. -1.
         21   -1    0    0  501  502 -0.00000000000E+00 -0.00000000000E+00 -0.14156079345E+04  0.14156079345E+04  0.00000000000E+00 0. -1.
         25    1    1    2    0    0  0.31906513772E+02  0.12174135419E+03 -0.70844699546E+03  0.73031577302E+03  0.12500000000E+03 0.  0.
         25    1    1    2    0    0 -0.31906513772E+02 -0.12174135419E+03 -0.68492850983E+03  0.70752459075E+03  0.12500000000E+03 0.  0.
</event>
<event>
 4    0  0.2210826E-002  0.1675408E+03  0.7546771E-02  0.1180437E+00
         21   -1    0    0  502  501  0.00000000000E+00  0.00000000000E+00  0.33494013150E+03  0.33494013150E+03  0.00000000000E+00 0. -1.
         21   -1    0    0  501  502 -0.00000000000E+00 -0.00000000000E+00 -0.83805792542E+02  0.83805792542E+02  0.00000000000E+00 0. -1.
         25    1    1    2    0    0 -0.56098062458E+02 -0.93706188898E+02  0.15398423048E+03  0.22641551556E+03  0.12500000000E+03 0.  0.
         25    1    1    2    0    0  0.56098062458E+02  0.93706188898E+02  0.97150108474E+02  0.19233040848E+03  0.12500000000E+03 0.  0.
</event>
<event>
 4    0  0.2210826E-002  0.1659584E+03  0.7546771E-02  0.1182129E+00
         21   -1    0    0  502  501  0.00000000000E+00  0.00000000000E+00  0.97195723588E+02  0.97195723588E+02  0.00000000000E+00 0.  1.
         21   -1    0    0  501  502 -0.00000000000E+00 -0.00000000000E+00 -0.28336828436E+03  0.28336828436E+03  0.00000000000E+00 0.  1.
         25    1    1    2    0    0 -0.50560482036E+02 -0.46351814486E+02 -0.19045879471E+03  0.23791680380E+03  0.12500000000E+03 0.  0.
         25    1    1    2    0    0  0.50560482036E+02  0.46351814486E+02  0.42862339347E+01  0.14264720415E+03  0.12500000000E+03 0.  0.
</event>
<event>
 4    0  0.2210826E-002  0.2289474E+03  0.7546771E-02  0.1127383E+00
         21   -1    0    0  502  501  0.00000000000E+00  0.00000000000E+00  0.73050081872E+02  0.73050081872E+02  0.00000000000E+00 0. -1.
         21   -1    0    0  501  502 -0.00000000000E+00 -0.00000000000E+00 -0.71754792195E+03  0.71754792195E+03  0.00000000000E+00 0. -1.
         25    1    1    2    0    0  0.40395403101E+02  0.96105815386E+02 -0.44252379468E+02  0.16867539664E+03  0.12500000000E+03 0.  0.
         25    1    1    2    0    0 -0.40395403101E+02 -0.96105815386E+02 -0.60024546061E+03  0.62192260718E+03  0.12500000000E+03 0.  0.
</event>
<event>
 4    0  0.2210826E-002  0.2076303E+03  0.7546771E-02  0.1143456E+00
         21   -1    0    0  502  501  0.00000000000E+00  0.00000000000E+00  0.77967531336E+02  0.77967531336E+02  0.00000000000E+00 0.  1.
         21   -1    0    0  501  502 -0.00000000000E+00 -0.00000000000E+00 -0.55292680785E+03  0.55292680785E+03  0.00000000000E+00 0.  1.
         25    1    1    2    0    0  0.63651181737E+02 -0.13871264686E+03 -0.13910546425E+03  0.24138765818E+03  0.12500000000E+03 0.  0.
         25    1    1    2    0    0 -0.63651181737E+02  0.13871264686E+03 -0.33585381226E+03  0.38950668101E+03  0.12500000000E+03 0.  0.
</event>
<event>
 4    0  0.2210826E-002  0.1520047E+03  0.7546771E-02  0.1198031E+00
         21   -1    0    0  502  501  0.00000000000E+00  0.00000000000E+00  0.15884253652E+03  0.15884253652E+03  0.00000000000E+00 0.  1.
         21   -1    0    0  501  502 -0.00000000000E+00 -0.00000000000E+00 -0.14546117483E+03  0.14546117483E+03  0.00000000000E+00 0.  1.
         25    1    1    2    0    0 -0.86479844414E+01  0.86036865778E+02  0.48745184282E+01  0.15207199229E+03  0.12500000000E+03 0.  0.
         25    1    1    2    0    0  0.86479844414E+01 -0.86036865778E+02  0.85068432686E+01  0.15223171907E+03  0.12500000000E+03 0.  0.
</event>
<event>
 4    0  0.2210826E-002  0.2150210E+03  0.7546771E-02  0.1137650E+00
         21   -1    0    0  502  501  0.00000000000E+00  0.00000000000E+00  0.21436679458E+03  0.21436679458E+03  0.00000000000E+00 0. -1.
         21   -1    0    0  501  502 -0.00000000000E+00 -0.00000000000E+00 -0.21567721909E+03  0.21567721909E+03  0.00000000000E+00 0. -1.
         25    1    1    2    0    0  0.80842719185E+02  0.11431841460E+03  0.10424898758E+03  0.21470234412E+03  0.12500000000E+03 0.  0.
         25    1    1    2    0    0 -0.80842719185E+02 -0.11431841460E+03 -0.10555941209E+03  0.21534166955E+03  0.12500000000E+03 0.  0.
</event>
<event>
 4    0  0.2210826E-002  0.2897122E+03  0.7546771E-02  0.1090499E+00
         21   -1    0    0  502  501  0.00000000000E+00  0.00000000000E+00  0.28271481063E+03  0.28271481063E+03  0.00000000000E+00 0. -1.
         21   -1    0    0  501  502 -0.00000000000E+00 -0.00000000000E+00 -0.29688287429E+03  0.29688287429E+03  0.00000000000E+00 0. -1.
         25    1    1    2    0    0 -0.81731307259E+02  0.23049780338E+03  0.85133228691E+02  0.28754462362E+03  0.12500000000E+03 0.  0.
         25    1    1    2    0    0  0.81731307259E+02 -0.23049780338E+03 -0.99301292355E+02  0.29205306129E+03  0.12500000000E+03 0.  0.
</event>
<event>
 4    0  0.2210826E-002  0.1835338E+03  0.7546771E-02  0.1164426E+00
         21   -1    0    0  502  501  0.00000000000E+00  0.00000000000E+00  0.99137530254E+02  0.99137530254E+02  0.00000000000E+00 0. -1.
         21   -1    0    0  501  502 -0.00000000000E+00 -0.00000000000E+00 -0.33977687972E+03  0.33977687972E+03  0.00000000000E+00 0. -1.
         25    1    1    2    0    0 -0.11572726761E+03 -0.64607491902E+02 -0.93777863946E+02  0.20490538364E+03  0.12500000000E+03 0.  0.
         25    1    1    2    0    0  0.11572726761E+03  0.64607491902E+02 -0.14686148552E+03  0.23400902634E+03  0.12500000000E+03 0.  0.
</event>
<event>
 4    0  0.2210826E-002  0.2089450E+03  0.7546771E-02  0.1142404E+00
         21   -1    0    0  502  501  0.00000000000E+00  0.00000000000E+00  0.59700433243E+03  0.59700433243E+03  0.00000000000E+00 0. -1.
         21   -1    0    0  501  502 -0.00000000000E+00 -0.00000000000E+00 -0.73128496197E+02  0.73128496197E+02  0.00000000000E+00 0. -1.
         25    1    1    2    0    0  0.14503644057E+03 -0.69074166499E+02  0.18627504563E+03  0.27591702049E+03  0.12500000000E+03 0.  0.
         25    1    1    2    0    0 -0.14503644057E+03  0.69074166499E+02  0.33760079060E+03  0.39421580814E+03  0.12500000000E+03 0.  0.
</event>
<event>
 4    0  0.2210826E-002  0.1661435E+03  0.7546771E-02  0.1181930E+00
         21   -1    0    0  502  501  0.00000000000E+00  0.00000000000E+00  0.27890661687E+04  0.27890661687E+04  0.00000000000E+00 0.  1.
         21   -1    0    0  501  502 -0.00000000000E+00 -0.00000000000E+00 -0.98970986380E+01  0.98970986380E+01  0.00000000000E+00 0.  1.
         25    1    1    2    0    0  0.41819468278E+02 -0.39399491011E+02  0.60492630423E+03  0.62037248598E+03  0.12500000000E+03 0.  0.
         25    1    1    2    0    0 -0.41819468278E+02  0.39399491011E+02  0.21742427658E+04  0.21785907814E+04  0.12500000000E+03 0.  0.
</event>
<event>
 4    0  0.2210826E-002  0.2328547E+03  0.7546771E-02  0.1124646E+00
         21   -1    0    0  502  501  0.00000000000E+00  0.00000000000E+00  0.22276305397E+03  0.22276305397E+03  0.00000000000E+00 0.  1.
         21   -1    0    0  501  502 -0.00000000000E+00 -0.00000000000E+00 -0.24340358879E+03  0.24340358879E+03  0.00000000000E+00 0.  1.
         25    1    1    2    0    0 -0.18869668284E+03 -0.47818025233E+02 -0.36866579528E+02  0.23425871668E+03  0.12500000000E+03 0.  0.
         25    1    1    2    0    0  0.18869668284E+03  0.47818025233E+02  0.16226044714E+02  0.23190792608E+03  0.12500000000E+03 0.  0.
</event>
<event>
 4    0  0.2210826E-002  0.2066486E+03  0.7546771E-02  0.1144248E+00
         21   -1    0    0  502  501  0.00000000000E+00  0.00000000000E+00  0.18055627545E+03  0.18055627545E+03  0.00000000000E+00 0. -1.
         21   -1    0    0  501  502 -0.00000000000E+00 -0.00000000000E+00 -0.23651160765E+03  0.23651160765E+03  0.00000000000E+00 0. -1.
         25    1    1    2    0    0  0.13820973758E+03 -0.78470990163E+02 -0.71016828955E+02  0.21430823095E+03  0.12500000000E+03 0.  0.
         25    1    1    2    0    0 -0.13820973758E+03  0.78470990163E+02  0.15061496754E+02  0.20275965216E+03  0.12500000000E+03 0.  0.
</event>
<event>
 4    0  0.2210826E-002  0.3185678E+03  0.7546771E-02  0.1076310E+00
         21   -1    0    0  502  501  0.00000000000E+00  0.00000000000E+00  0.39333135115E+03  0.39333135115E+03  0.00000000000E+00 0. -1.
         21   -1    0    0  501  502 -0.00000000000E+00 -0.00000000000E+00 -0.25801509602E+03  0.25801509602E+03  0.00000000000E+00 0. -1.
         25    1    1    2    0    0 -0.39059706712E+02  0.11737652527E+03  0.33920940934E+03  0.38208759827E+03  0.12500000000E+03 0.  0.
         25    1    1    2    0    0  0.39059706712E+02 -0.11737652527E+03 -0.20389315420E+03  0.26925884889E+03  0.12500000000E+03 0.  0.
</event>
<event>
 4    0  0.2210826E-002  0.2353511E+03  0.7546771E-02  0.1122929E+00
         21   -1    0    0  502  501  0.00000000000E+00  0.00000000000E+00  0.66897975946E+02  0.66897975946E+02  0.00000000000E+00 0.  1.
         21   -1    0    0  501  502 -0.00000000000E+00 -0.00000000000E+00 -0.82797900018E+03  0.82797900018E+03  0.00000000000E+00 0.  1.
         25    1    1    2    0    0 -0.13127218954E+03 -0.11190636273E+03 -0.57074802403E+03  0.60920745950E+03  0.12500000000E+03 0.  0.
         25    1    1    2    0    0  0.13127218954E+03  0.11190636273E+03 -0.19033300020E+03  0.28566951663E+03  0.12500000000E+03 0.  0.
</event>
<event>
 4    0  0.2210826E-002  0.2062502E+03  0.7546771E-02  0.1144570E+00
         21   -1    0    0  502  501  0.00000000000E+00  0.00000000000E+00  0.10836442020E+04  0.10836442020E+04  0.00000000000E+00 0. -1.
         21   -1    0    0  501  502 -0.00000000000E+00 -0.00000000000E+00 -0.39255624210E+02  0.39255624210E+02  0.00000000000E+00 0. -1.
         25    1    1    2    0    0  0.16249589074E+02 -0.12849518827E+03  0.24809007242E+03  0.30651059784E+03  0.12500000000E+03 0.  0.
         25    1    1    2    0    0 -0.16249589074E+02  0.12849518827E+03  0.79629850537E+03  0.81638922838E+03  0.12500000000E+03 0.  0.
</event>
<event>
 4    0  0.2210826E-002  0.1866237E+03  0.7546771E-02  0.1161542E+00
         21   -1    0    0  502  501  0.00000000000E+00  0.00000000000E+00  0.18554246287E+03  0.18554246287E+03  0.00000000000E+00 0.  1.
         21   -1    0    0  501  502 -0.00000000000E+00 -0.00000000000E+00 -0.18771120788E+03  0.18771120788E+03  0.00000000000E+00 0.  1.
         25    1    1    2    0    0 -0.16405028521E+02 -0.47430075462E+02 -0.13025567775E+03  0.18737736951E+03  0.12500000000E+03 0.  0.
         25    1    1    2    0    0  0.16405028521E+02  0.47430075462E+02  0.12808693274E+03  0.18587630123E+03  0.12500000000E+03 0.  0.
</event>
<event>
 4    0  0.2210826E-002  0.2704118E+03  0.7546771E-02  0.1101044E+00
         21   -1    0    0  502  501  0.00000000000E+00  0.00000000000E+00  0.18653033327E+04  0.18653033327E+04  0.00000000000E+00 0.  1.
         21   -1    0    0  501  502 -0.00000000000E+00 -0.00000000000E+00 -0.39201419914E+02  0.39201419914E+02  0.00000000000E+00 0.  1.
         25    1    1    2    0    0 -0.20589704603E+03  0.12285603780E+03  0.92437440862E+03  0.96310967542E+03  0.12500000000E+03 0.  0.
         25    1    1    2    0    0  0.20589704603E+03 -0.12285603780E+03  0.90172750419E+03  0.94139507721E+03  0.12500000000E+03 0.  0.
</event>
<event>
 4    0  0.2210826E-002  0.2662428E+03  0.7546771E-02  0.1103449E+00
         21   -1    0    0  502  501  0.00000000000E+00  0.00000000000E+00  0.50666860340E+03  0.50666860340E+03  0.00000000000E+00 0. -1.
         21   -1    0    0  501  502 -0.00000000000E+00 -0.00000000000E+00 -0.13990447226E+03  0.13990447226E+03  0.00000000000E+00 0. -1.
         25    1    1    2    0    0  0.22834279488E+03 -0.55196508924E+02  0.19376497318E+03  0.32917617077E+03  0.12500000000E+03 0.  0.
         25    1    1    2    0    0 -0.22834279488E+03  0.55196508924E+02  0.17299915796E+03  0.31739690488E+03  0.12500000000E+03 0.  0.
</event>
<event>
 4    0  0.2210826E-002  0.1910975E+03  0.7546771E-02  0.1157475E+00
         21   -1    0    0  502  501  0.00000000000E+00  0.00000000000E+00  0.17612027743E+03  0.17612027743E+03  0.00000000000E+00 0.  1.
         21   -1    0    0  501  502 -0.00000000000E+00 -0.00000000000E+00 -0.20734833637E+03  0.20734833637E+03  0.00000000000E+00 0.  1.
         25    1    1    2    0    0  0.11176819007E+03  0.67224237297E+02 -0.78127521805E+02  0.19682514081E+03  0.12500000000E+03 0.  0.
         25    1    1    2    0    0 -0.11176819007E+03 -0.67224237297E+02  0.46899462872E+02  0.18664347299E+03  0.12500000000E+03 0.  0.
</event>
<event>
 4    0  0.2210826E-002  0.2248725E+03  0.7546771E-02  0.1130302E+00
         21   -1    0    0  502  501  0.00000000000E+00  0.00000000000E+00  0.41178168980E+03  0.41178168980E+03  0.00000000000E+00 0. -1.
         21   -1    0    0  501  502 -0.00000000000E+00 -0.00000000000E+00 -0.12280210088E+03  0.12280210088E+03  0.00000000000E+00 0.  1.
         25    1    1    2    0    0 -0.17280497384E+03 -0.68974286872E+02  0.12310603394E+03  0.25573249075E+03  0.12500000000E+03 0.  0.
         25    1    1    2    0    0  0.17280497384E+03  0.68974286872E+02  0.16587355497E+03  0.27885129993E+03  0.12500000000E+03 0.  0.
</event>
<event>
 4    0  0.2210826E-002  0.1872592E+03  0.7546771E-02  0.1160957E+00
         21   -1    0    0  502  501  0.00000000000E+00  0.00000000000E+00  0.19621204002E+02  0.19621204002E+02  0.00000000000E+00 0. -1.
         21   -1    0    0  501  502 -0.00000000000E+00 -0.00000000000E+00 -0.17871495155E+04  0.17871495155E+04  0.00000000000E+00 0. -1.
         25    1    1    2    0    0 -0.98478622818E+02 -0.87869656124E+01 -0.13580586960E+04  0.13673783937E+04  0.12500000000E+03 0.  0.
         25    1    1    2    0    0  0.98478622818E+02  0.87869656124E+01 -0.40946961558E+03  0.43939232583E+03  0.12500000000E+03 0.  0.
</event>
<event>
 4    0  0.2210826E-002  0.2602147E+03  0.7546771E-02  0.1107014E+00
         21   -1    0    0  502  501  0.00000000000E+00  0.00000000000E+00  0.71436919111E+02  0.71436919111E+02  0.00000000000E+00 0.  1.
         21   -1    0    0  501  502 -0.00000000000E+00 -0.00000000000E+00 -0.94785259929E+03  0.94785259929E+03  0.00000000000E+00 0.  1.
         25    1    1    2    0    0  0.17667698103E+03 -0.14386146229E+03 -0.41223991694E+03  0.48731676051E+03  0.12500000000E+03 0.  0.
         25    1    1    2    0    0 -0.17667698103E+03  0.14386146229E+03 -0.46417576324E+03  0.53197275789E+03  0.12500000000E+03 0.  0.
</event>
<event>
 4    0  0.2210826E-002  0.1839512E+03  0.7546771E-02  0.1164033E+00
         21   -1    0    0  502  501  0.00000000000E+00  0.00000000000E+00  0.15222771414E+03  0.15222771414E+03  0.00000000000E+00 0.  1.
         21   -1    0    0  501  502 -0.00000000000E+00 -0.00000000000E+00 -0.22228579912E+03  0.22228579912E+03  0.00000000000E+00 0.  1.
         25    1    1    2    0    0 -0.88395226347E+02 -0.24567431457E+02 -0.13578120646E+03  0.20610388341E+03  0.12500000000E+03 0.  0.
         25    1    1    2    0    0  0.88395226347E+02  0.24567431457E+02  0.65723121482E+02  0.16840962985E+03  0.12500000000E+03 0.  0.
</event>
<event>
 4    0  0.2210826E-002  0.3321851E+03  0.7546771E-02  0.1070174E+00
         21   -1    0    0  502  501  0.00000000000E+00  0.00000000000E+00  0.30828800538E+04  0.30828800538E+04  0.00000000000E+00 0. -1.
         21   -1    0    0  501  502 -0.00000000000E+00 -0.00000000000E+00 -0.35793450782E+02  0.35793450782E+02  0.00000000000E+00 0. -1.
         25    1    1    2    0    0  0.21346988095E+03 -0.20665194736E+03  0.19004687202E+04  0.19276101198E+04  0.12500000000E+03 0.  0.
         25    1    1    2    0    0 -0.21346988095E+03  0.20665194736E+03  0.11466178828E+04  0.11910633848E+04  0.12500000000E+03 0.  0.
</event>
<event>
 4    0  0.2210826E-002  0.2530546E+03  0.7546771E-02  0.1111389E+00
         21   -1    0    0  502  501  0.00000000000E+00  0.00000000000E+00  0.74190469978E+02  0.74190469978E+02  0.00000000000E+00 0. -1.
         21   -1    0    0  501  502 -0.00000000000E+00 -0.00000000000E+00 -0.86313803582E+03  0.86313803582E+03  0.00000000000E+00 0. -1.
         25    1    1    2    0    0 -0.12212494123E+03  0.36446071408E+02 -0.72664734607E+03  0.74825408983E+03  0.12500000000E+03 0.  0.
         25    1    1    2    0    0  0.12212494123E+03 -0.36446071408E+02 -0.62300219771E+02  0.18907441597E+03  0.12500000000E+03 0.  0.
</event>
<event>
 4    0  0.2210826E-002  0.1507542E+03  0.7546771E-02  0.1199549E+00
         21   -1    0    0  502  501  0.00000000000E+00  0.00000000000E+00  0.35057073381E+03  0.35057073381E+03  0.00000000000E+00 0.  1.
         21   -1    0    0  501  502 -0.00000000000E+00 -0.00000000000E+00 -0.64828043873E+02  0.64828043873E+02  0.00000000000E+00 0.  1.
         25    1    1    2    0    0 -0.62237487518E+02  0.53817700359E+02  0.16797356908E+03  0.22496659671E+03  0.12500000000E+03 0.  0.
         25    1    1    2    0    0  0.62237487518E+02 -0.53817700359E+02  0.11776912086E+03  0.19043218098E+03  0.12500000000E+03 0.  0.
</event>
<event>
 4    0  0.2210826E-002  0.1978078E+03  0.7546771E-02  0.1151602E+00
         21   -1    0    0  502  501  0.00000000000E+00  0.00000000000E+00  0.51585317529E+02  0.51585317529E+02  0.00000000000E+00 0.  1.
         21   -1    0    0  501  502 -0.00000000000E+00 -0.00000000000E+00 -0.75850883872E+03  0.75850883872E+03  0.00000000000E+00 0.  1.
         25    1    1    2    0    0 -0.97268647255E+02  0.11839676436E+03 -0.36347986622E+03  0.41378931438E+03  0.12500000000E+03 0.  0.
         25    1    1    2    0    0  0.97268647255E+02 -0.11839676436E+03 -0.34344365497E+03  0.39630484187E+03  0.12500000000E+03 0.  0.
</event>
<event>
 4    0  0.2210826E-002  0.2475250E+03  0.7546771E-02  0.1114879E+00
         21   -1    0    0  502  501  0.00000000000E+00  0.00000000000E+00  0.49645546623E+02  0.49645546623E+02  0.00000000000E+00 0. -1.
         21   -1    0    0  501  502 -0.00000000000E+00 -0.00000000000E+00 -0.12341214608E+04  0.12341214608E+04  0.00000000000E+00 0. -1.
         25    1    1    2    0    0 -0.39044730297E+02  0.12951429646E+03 -0.10210604834E+04  0.10375393750E+04  0.12500000000E+03 0.  0.
         25    1    1    2    0    0  0.39044730297E+02 -0.12951429646E+03 -0.16341543081E+03  0.24622763244E+03  0.12500000000E+03 0.  0.
</event>
<event>
 4    0  0.2210826E-002  0.2514250E+03  0.7546771E-02  0.1112408E+00
         21   -1    0    0  502  501  0.00000000000E+00  0.00000000000E+00  0.19053875185E+03  0.19053875185E+03  0.00000000000E+00 0. -1.
         21   -1    0    0  501  502 -0.00000000000E+00 -0.00000000000E+00 -0.33176719140E+03  0.33176719140E+03  0.00000000000E+00 0. -1.
         25    1    1    2    0    0 -0.19746507896E+03  0.90550346333E+02 -0.49900618369E+02  0.25555213625E+03  0.12500000000E+03 0.  0.
         25    1    1    2    0    0  0.19746507896E+03 -0.90550346333E+02 -0.91327821182E+02  0.26675380701E+03  0.12500000000E+03 0.  0.
</event>
<event>
 4    0  0.2210826E-002  0.2657099E+03  0.7546771E-02  0.1103760E+00
         21   -1    0    0  502  501  0.00000000000E+00  0.00000000000E+00  0.12692596620E+03  0.12692596620E+03  0.00000000000E+00 0.  1.
         21   -1    0    0  501  502 -0.00000000000E+00 -0.00000000000E+00 -0.55624352657E+03  0.55624352657E+03  0.00000000000E+00 0.  1.
         25    1    1    2    0    0  0.38152966325E+02  0.15767078818E+03  0.29801446866E+01  0.20481603342E+03  0.12500000000E+03 0.  0.
         25    1    1    2    0    0 -0.38152966325E+02 -0.15767078818E+03 -0.43229770505E+03  0.47835345935E+03  0.12500000000E+03 0.  0.
</event>
<event>
 4    0  0.2210826E-002  0.3373615E+03  0.7546771E-02  0.1067925E+00
         21   -1    0    0  502  501  0.00000000000E+00  0.00000000000E+00  0.25262953349E+03  0.25262953349E+03  0.00000000000E+00 0.  1.
         21   -1    0    0  501  502 -0.00000000000E+00 -0.00000000000E+00 -0.45051262422E+03  0.45051262422E+03  0.00000000000E+00 0.  1.
         25    1    1    2    0    0  0.17015644975E+03 -0.18242919336E+03  0.98660852016E+02  0.29596045631E+03  0.12500000000E+03 0.  0.
         25    1    1    2    0    0 -0.17015644975E+03  0.18242919336E+03 -0.29654394274E+03  0.40718170140E+03  0.12500000000E+03 0.  0.
</event>
<event>
 4    0  0.2210826E-002  0.1666765E+03  0.7546771E-02  0.1181359E+00
         21   -1    0    0  502  501  0.00000000000E+00  0.00000000000E+00  0.39285538675E+03  0.39285538675E+03  0.00000000000E+00 0. -1.
         21   -1    0    0  501  502 -0.00000000000E+00 -0.00000000000E+00 -0.70715722383E+02  0.70715722383E+02  0.00000000000E+00 0. -1.
         25    1    1    2    0    0  0.10974406026E+03 -0.82391506738E-03  0.14633348917E+03  0.22154513945E+03  0.12500000000E+03 0.  0.
         25    1    1    2    0    0 -0.10974406026E+03  0.82391506738E-03  0.17580617520E+03  0.24202596968E+03  0.12500000000E+03 0.  0.
</event>
<event>
 4    0  0.2210826E-002  0.2378304E+03  0.7546771E-02  0.1121247E+00
         21   -1    0    0  502  501  0.00000000000E+00  0.00000000000E+00  0.14910976230E+04  0.14910976230E+04  0.00000000000E+00 0.  1.
         21   -1    0    0  501  502 -0.00000000000E+00 -0.00000000000E+00 -0.37934000300E+02  0.37934000300E+02  0.00000000000E+00 0.  1.
         25    1    1    2    0    0  0.67481490041E+02 -0.10401068614E+03  0.21259349150E+03  0.27603073553E+03  0.12500000000E+03 0.  0.
         25    1    1    2    0    0 -0.67481490041E+02  0.10401068614E+03  0.12405701312E+04  0.12530008878E+04  0.12500000000E+03 0.  0.
</event>
<event>
 4    0  0.2210826E-002  0.2097826E+03  0.7546771E-02  0.1141738E+00
         21   -1    0    0  502  501  0.00000000000E+00  0.00000000000E+00  0.50162490595E+03  0.50162490595E+03  0.00000000000E+00 0. -1.
         21   -1    0    0  501  502 -0.00000000000E+00 -0.00000000000E+00 -0.87732342072E+02  0.87732342072E+02  0.00000000000E+00 0. -1.
         25    1    1    2    0    0  0.15189330908E+03  0.30894084561E+02  0.11421885881E+03  0.22955820506E+03  0.12500000000E+03 0.  0.
         25    1    1    2    0    0 -0.15189330908E+03 -0.30894084561E+02  0.29967370507E+03  0.35979904296E+03  0.12500000000E+03 0.  0.
</event>
<event>
 4    0  0.2210826E-002  0.2587536E+03  0.7546771E-02  0.1107894E+00
         21   -1    0    0  502  501  0.00000000000E+00  0.00000000000E+00  0.12654711946E+03  0.12654711946E+03  0.00000000000E+00 0. -1.
         21   -1    0    0  501  502 -0.00000000000E+00 -0.00000000000E+00 -0.52907899496E+03  0.52907899496E+03  0.00000000000E+00 0. -1.
         25    1    1    2    0    0 -0.15595895062E+03 -0.13499048722E+03 -0.31999479154E+03  0.40070848822E+03  0.12500000000E+03 0.  0.
         25    1    1    2    0    0  0.15595895062E+03  0.13499048722E+03 -0.82537083962E+02  0.25491762620E+03  0.12500000000E+03 0.  0.
</event>
<event>
 4    0  0.2210826E-002  0.1760528E+03  0.7546771E-02  0.1171679E+00
         21   -1    0    0  502  501  0.00000000000E+00  0.00000000000E+00  0.18975376396E+02  0.18975376396E+02  0.00000000000E+00 0. -1.
         21   -1    0    0  501  502 -0.00000000000E+00 -0.00000000000E+00 -0.16334116732E+04  0.16334116732E+04  0.00000000000E+00 0. -1.
         25    1    1    2    0    0  0.66823959793E+02  0.11575523279E+02 -0.12942417162E+04  0.13020315105E+04  0.12500000000E+03 0.  0.
         25    1    1    2    0    0 -0.66823959793E+02 -0.11575523279E+02 -0.32019458066E+03  0.35035553916E+03  0.12500000000E+03 0.  0.
</event>
<event>
 4    0  0.2210826E-002  0.3130392E+03  0.7546771E-02  0.1078898E+00
         21   -1    0    0  502  501  0.00000000000E+00  0.00000000000E+00  0.35766481715E+03  0.35766481715E+03  0.00000000000E+00 0. -1.
         21   -1    0    0  501  502 -0.00000000000E+00 -0.00000000000E+00 -0.27398155203E+03  0.27398155203E+03  0.00000000000E+00 0. -1.
         25    1    1    2    0    0  0.25831647797E+03  0.12424751547E+03  0.56241400145E+02  0.31773092859E+03  0.12500000000E+03 0.  0.
         25    1    1    2    0    0 -0.25831647797E+03 -0.12424751547E+03  0.27441864972E+02  0.31391544059E+03  0.12500000000E+03 0.  0.
</event>
<event>
 4    0  0.2210826E-002  0.1788033E+03  0.7546771E-02  0.1168966E+00
         21   -1    0    0  502  501  0.00000000000E+00  0.00000000000E+00  0.12365189458E+02  0.12365189458E+02  0.00000000000E+00 0.  1.
         21   -1    0    0  501  502 -0.00000000000E+00 -0.00000000000E+00 -0.25855334691E+04  0.25855334691E+04  0.00000000000E+00 0.  1.
         25    1    1    2    0    0 -0.10784357796E+03  0.56765999819E+02 -0.10058818603E+04  0.10209191609E+04  0.12500000000E+03 0.  0.
         25    1    1    2    0    0  0.10784357796E+03 -0.56765999819E+02 -0.15672864193E+04  0.15769794977E+04  0.12500000000E+03 0.  0.
</event>
<event>
 4    0  0.2210826E-002  0.2455661E+03  0.7546771E-02  0.1116139E+00
         21   -1    0    0  502  501  0.00000000000E+00  0.00000000000E+00  0.14306204466E+03  0.14306204466E+03  0.00000000000E+00 0. -1.
         21   -1    0    0  501  502 -0.00000000000E+00 -0.00000000000E+00 -0.42151437508E+03  0.42151437508E+03  0.00000000000E+00 0. -1.
         25    1    1    2    0    0  0.12921905547E+02  0.19958486731E+03 -0.21783838649E+03  0.32106020857E+03  0.12500000000E+03 0.  0.
         25    1    1    2    0    0 -0.12921905547E+02 -0.19958486731E+03 -0.60613943936E+02  0.24351621117E+03  0.12500000000E+03 0.  0.
</event>
<event>
 4    0  0.2210826E-002  0.2449950E+03  0.7546771E-02  0.1116509E+00
         21   -1    0    0  502  501  0.00000000000E+00  0.00000000000E+00  0.17298086040E+03  0.17298086040E+03  0.00000000000E+00 0.  1.
         21   -1    0    0  501  502 -0.00000000000E+00 -0.00000000000E+00 -0.34698960287E+03  0.34698960287E+03  0.00000000000E+00 0.  1.
         25    1    1    2    0    0 -0.46691115365E+02 -0.20477661286E+03 -0.69119734477E+02  0.25400011638E+03  0.12500000000E+03 0.  0.
         25    1    1    2    0    0  0.46691115365E+02  0.20477661286E+03 -0.10488900799E+03  0.26597034689E+03  0.12500000000E+03 0.  0.
</event>
<event>
 4    0  0.2210826E-002  0.2287336E+03  0.7546771E-02  0.1127534E+00
         21   -1    0    0  502  501  0.00000000000E+00  0.00000000000E+00  0.54740360089E+03  0.54740360089E+03  0.00000000000E+00 0. -1.
         21   -1    0    0  501  502 -0.00000000000E+00 -0.00000000000E+00 -0.95576733242E+02  0.95576733242E+02  0.00000000000E+00 0. -1.
         25    1    1    2    0    0  0.13948336685E+02  0.81972088805E+02 -0.16636200563E+02  0.15104880870E+03  0.12500000000E+03 0.  0.
         25    1    1    2    0    0 -0.13948336685E+02 -0.81972088805E+02  0.46846306821E+03  0.49193152544E+03  0.12500000000E+03 0.  0.
</event>
<event>
 4    0  0.2210826E-002  0.2567162E+03  0.7546771E-02  0.1109132E+00
         21   -1    0    0  502  501  0.00000000000E+00  0.00000000000E+00  0.28021648579E+03  0.28021648579E+03  0.00000000000E+00 0. -1.
         21   -1    0    0  501  502 -0.00000000000E+00 -0.00000000000E+00 -0.23518683612E+03  0.23518683612E+03  0.00000000000E+00 0. -1.
         25    1    1    2    0    0  0.76363953039E+00 -0.12744246804E+03  0.20771164714E+03  0.27388189821E+03  0.12500000000E+03 0.  0.
         25    1    1    2    0    0 -0.76363953039E+00  0.12744246804E+03 -0.16268199747E+03  0.24152142370E+03  0.12500000000E+03 0.  0.
</event>
<event>
 4    0  0.2210826E-002  0.3089377E+03  0.7546771E-02  0.1080856E+00
         21   -1    0    0  502  501  0.00000000000E+00  0.00000000000E+00  0.24755151943E+03  0.24755151943E+03  0.00000000000E+00 0. -1.
         21   -1    0    0  501  502 -0.00000000000E+00 -0.00000000000E+00 -0.38554607713E+03  0.38554607713E+03  0.00000000000E+00 0. -1.
         25    1    1    2    0    0 -0.24024047609E+03 -0.97680667511E+02  0.45837516979E+02  0.29151857080E+03  0.12500000000E+03 0.  0.
         25    1    1    2    0    0  0.24024047609E+03  0.97680667511E+02 -0.18383207468E+03  0.34157902576E+03  0.12500000000E+03 0.  0.
</event>
<event>
 4    0  0.2210826E-002  0.2129490E+03  0.7546771E-02  0.1139252E+00
         21   -1    0    0  502  501  0.00000000000E+00  0.00000000000E+00  0.97199905830E+02  0.97199905830E+02  0.00000000000E+00 0.  1.
         21   -1    0    0  501  502 -0.00000000000E+00 -0.00000000000E+00 -0.46653624689E+03  0.46653624689E+03  0.00000000000E+00 0.  1.
         25    1    1    2    0    0  0.30437920640E+02  0.15881249222E+03 -0.26380381198E+03  0.33371443768E+03  0.12500000000E+03 0.  0.
         25    1    1    2    0    0 -0.30437920640E+02 -0.15881249222E+03 -0.10553252907E+03  0.23002171504E+03  0.12500000000E+03 0.  0.
</event>
<event>
 4    0  0.2210826E-002  0.2091548E+03  0.7546771E-02  0.1142237E+00
         21   -1    0    0  502  501  0.00000000000E+00  0.00000000000E+00  0.33068152127E+02  0.33068152127E+02  0.00000000000E+00 0. -1.
         21   -1    0    0  501  502 -0.00000000000E+00 -0.00000000000E+00 -0.13228959159E+04  0.13228959159E+04  0.00000000000E+00 0. -1.
         25    1    1    2    0    0 -0.63569110157E+02 -0.28174945107E+02 -0.11395622305E+04  0.11485042170E+04  0.12500000000E+03 0.  0.
         25    1    1    2    0    0  0.63569110157E+02  0.28174945107E+02 -0.15026553329E+03  0.20745985104E+03  0.12500000000E+03 0.  0.
</event>
<event>
 4    0  0.2210826E-002  0.5016810E+03  0.7546771E-02  0.1013341E+00
         21   -1    0    0  502  501  0.00000000000E+00  0.00000000000E+00  0.67937898967E+03  0.67937898967E+03  0.00000000000E+00 0. -1.
         21   -1    0    0  501  502 -0.00000000000E+00 -0.00000000000E+00 -0.37046159727E+03  0.37046159727E+03  0.00000000000E+00 0. -1.
         25    1    1    2    0    0 -0.11352532093E+03 -0.41030601225E+03 -0.90523456640E+02  0.45283387504E+03  0.12500000000E+03 0.  0.
         25    1    1    2    0    0  0.11352532093E+03  0.41030601225E+03  0.39944084904E+03  0.59700671191E+03  0.12500000000E+03 0.  0.
</event>
<event>
 4    0  0.2210826E-002  0.2242008E+03  0.7546771E-02  0.1130789E+00
         21   -1    0    0  502  501  0.00000000000E+00  0.00000000000E+00  0.61087569483E+03  0.61087569483E+03  0.00000000000E+00 0. -1.
         21   -1    0    0  501  502 -0.00000000000E+00 -0.00000000000E+00 -0.82285165034E+02  0.82285165034E+02  0.00000000000E+00 0. -1.
         25    1    1    2    0    0  0.43086658606E+02 -0.17764713304E+03  0.31842298708E+03  0.38785714217E+03  0.12500000000E+03 0.  0.
         25    1    1    2    0    0 -0.43086658606E+02  0.17764713304E+03  0.21016754271E+03  0.30530371770E+03  0.12500000000E+03 0.  0.
</event>
<event>
 4    0  0.2210826E-002  0.2696574E+03  0.7546771E-02  0.1101476E+00
         21   -1    0    0  502  501  0.00000000000E+00  0.00000000000E+00  0.33578976050E+04  0.33578976050E+04  0.00000000000E+00 0. -1.
         21   -1    0    0  501  502 -0.00000000000E+00 -0.00000000000E+00 -0.21654951517E+02  0.21654951517E+02  0.00000000000E+00 0. -1.
         25    1    1    2    0    0  0.11252757565E+03 -0.13848492125E+03  0.26638567693E+04  0.26727510951E+04  0.12500000000E+03 0.  0.
         25    1    1    2    0    0 -0.11252757565E+03  0.13848492125E+03  0.67238588415E+03  0.70680146144E+03  0.12500000000E+03 0.  0.
</event>
<event>
 4    0  0.2210826E-002  0.1812293E+03  0.7546771E-02  0.1166619E+00
         21   -1    0    0  502  501  0.00000000000E+00  0.00000000000E+00  0.10249513485E+04  0.10249513485E+04  0.00000000000E+00 0. -1.
         21   -1    0    0  501  502 -0.00000000000E+00 -0.00000000000E+00 -0.32044487956E+02  0.32044487956E+02  0.00000000000E+00 0. -1.
         25    1    1    2    0    0 -0.12122654403E+03 -0.46693678306E+02  0.44245544473E+03  0.47777400007E+03  0.12500000000E+03 0.  0.
         25    1    1    2    0    0  0.12122654403E+03  0.46693678306E+02  0.55045141578E+03  0.57922183635E+03  0.12500000000E+03 0.  0.
</event>
<event>
 4    0  0.2210826E-002  0.2473800E+03  0.7546771E-02  0.1114972E+00
         21   -1    0    0  502  501  0.00000000000E+00  0.00000000000E+00  0.59310419379E+03  0.59310419379E+03  0.00000000000E+00 0.  1.
         21   -1    0    0  501  502 -0.00000000000E+00 -0.00000000000E+00 -0.10318063601E+03  0.10318063601E+03  0.00000000000E+00 0.  1.
         25    1    1    2    0    0  0.25523109764E+01  0.87367478826E+00 -0.55442472583E+02  0.13677041115E+03  0.12500000000E+03 0.  0.
         25    1    1    2    0    0 -0.25523109764E+01 -0.87367478826E+00  0.54536603037E+03  0.55951441865E+03  0.12500000000E+03 0.  0.
</event>
<event>
 4    0  0.2210826E-002  0.4486119E+03  0.7546771E-02  0.1028137E+00
         21   -1    0    0  502  501  0.00000000000E+00  0.00000000000E+00  0.13672686075E+03  0.13672686075E+03  0.00000000000E+00 0.  1.
         21   -1    0    0  501  502 -0.00000000000E+00 -0.00000000000E+00 -0.14719321551E+04  0.14719321551E+04  0.00000000000E+00 0. -1.
         25    1    1    2    0    0  0.24150577643E+03  0.12476929358E+03 -0.68283325843E+02  0.30688764924E+03  0.12500000000E+03 0.  0.
         25    1    1    2    0    0 -0.24150577643E+03 -0.12476929358E+03 -0.12669219686E+04  0.13017713667E+04  0.12500000000E+03 0.  0.
</event>
<event>
 4    0  0.2210826E-002  0.2117811E+03  0.7546771E-02  0.1140163E+00
         21   -1    0    0  502  501  0.00000000000E+00  0.00000000000E+00  0.19650288293E+03  0.19650288293E+03  0.00000000000E+00 0. -1.
         21   -1    0    0  501  502 -0.00000000000E+00 -0.00000000000E+00 -0.22824722408E+03  0.22824722408E+03  0.00000000000E+00 0. -1.
         25    1    1    2    0    0 -0.16743928770E+03 -0.31649718810E+02 -0.20998346051E+01  0.21134575716E+03  0.12500000000E+03 0.  0.
         25    1    1    2    0    0  0.16743928770E+03  0.31649718810E+02 -0.29644506548E+02  0.21340434985E+03  0.12500000000E+03 0.  0.
</event>
<event>
 4    0  0.2210826E-002  0.2054349E+03  0.7546771E-02  0.1145233E+00
         21   -1    0    0  502  501  0.00000000000E+00  0.00000000000E+00  0.60387339242E+02  0.60387339242E+02  0.00000000000E+00 0. -1.
         21   -1    0    0  501  502 -0.00000000000E+00 -0.00000000000E+00 -0.69888010161E+03  0.69888010161E+03  0.00000000000E+00 0. -1.
         25    1    1    2    0    0 -0.13351987120E+03  0.20854875923E+02 -0.48776522304E+03  0.52134671253E+03  0.12500000000E+03 0.  0.
         25    1    1    2    0    0  0.13351987120E+03 -0.20854875923E+02 -0.15072753933E+03  0.23792072832E+03  0.12500000000E+03 0.  0.
</event>
<event>
 4    0  0.2210826E-002  0.1983736E+03  0.7546771E-02  0.1151118E+00
         21   -1    0    0  502  501  0.00000000000E+00  0.00000000000E+00  0.53456054031E+03  0.53456054031E+03  0.00000000000E+00 0.  1.
         21   -1    0    0  501  502 -0.00000000000E+00 -0.00000000000E+00 -0.73615800071E+02  0.73615800071E+02  0.00000000000E+00 0.  1.
         25    1    1    2    0    0 -0.78856748201E+02 -0.12960829744E+03  0.18961519206E+03  0.27312198476E+03  0.12500000000E+03 0.  0.
         25    1    1    2    0    0  0.78856748201E+02  0.12960829744E+03  0.27132954818E+03  0.33505435562E+03  0.12500000000E+03 0.  0.
</event>
<event>
 4    0  0.2210826E-002  0.2138977E+03  0.7546771E-02  0.1138516E+00
         21   -1    0    0  502  501  0.00000000000E+00  0.00000000000E+00  0.17356568698E+03  0.17356568698E+03  0.00000000000E+00 0. -1.
         21   -1    0    0  501  502 -0.00000000000E+00 -0.00000000000E+00 -0.26360170662E+03  0.26360170662E+03  0.00000000000E+00 0. -1.
         25    1    1    2    0    0  0.11387776499E+03 -0.77631166921E+02  0.62804006001E+02  0.19637740860E+03  0.12500000000E+03 0.  0.
         25    1    1    2    0    0 -0.11387776499E+03  0.77631166921E+02 -0.15284002564E+03  0.24078998500E+03  0.12500000000E+03 0.  0.
</event>
<event>
 4    0  0.2210826E-002  0.2022207E+03  0.7546771E-02  0.1147879E+00
         21   -1    0    0  502  501  0.00000000000E+00  0.00000000000E+00  0.79043232812E+03  0.79043232812E+03  0.00000000000E+00 0. -1.
         21   -1    0    0  501  502 -0.00000000000E+00 -0.00000000000E+00 -0.51735247669E+02  0.51735247669E+02  0.00000000000E+00 0. -1.
         25    1    1    2    0    0 -0.75721737284E+02 -0.13294505907E+03  0.27954276073E+03  0.34231173703E+03  0.12500000000E+03 0.  0.
         25    1    1    2    0    0  0.75721737284E+02  0.13294505907E+03  0.45915431972E+03  0.49985583876E+03  0.12500000000E+03 0.  0.
</event>
<event>
 4    0  0.2210826E-002  0.3700056E+03  0.7546771E-02  0.1054691E+00
         21   -1    0    0  502  501  0.00000000000E+00  0.00000000000E+00  0.12774560730E+04  0.12774560730E+04  0.00000000000E+00 0.  1.
         21   -1    0    0  501  502 -0.00000000000E+00 -0.00000000000E+00 -0.10716936258E+03  0.10716936258E+03  0.00000000000E+00 0.  1.
         25    1    1    2    0    0 -0.30540441119E+03  0.11162732299E+03  0.81844202454E+03  0.88949697085E+03  0.12500000000E+03 0.  0.
         25    1    1    2    0    0  0.30540441119E+03 -0.11162732299E+03  0.35184468592E+03  0.49512846477E+03  0.12500000000E+03 0.  0.
</event>
<event>
 4    0  0.2210826E-002  0.2732465E+03  0.7546771E-02  0.1099436E+00
         21   -1    0    0  502  501  0.00000000000E+00  0.00000000000E+00  0.19350813327E+03  0.19350813327E+03  0.00000000000E+00 0. -1.
         21   -1    0    0  501  502 -0.00000000000E+00 -0.00000000000E+00 -0.38584251861E+03  0.38584251861E+03  0.00000000000E+00 0. -1.
         25    1    1    2    0    0 -0.13646489788E+03 -0.95964982228E+02  0.91108282766E+02  0.22750311065E+03  0.12500000000E+03 0.  0.
         25    1    1    2    0    0  0.13646489788E+03  0.95964982228E+02 -0.28344266810E+03  0.35184754123E+03  0.12500000000E+03 0.  0.
</event>
<event>
 4    0  0.2210826E-002  0.2630943E+03  0.7546771E-02  0.1105298E+00
         21   -1    0    0  502  501  0.00000000000E+00  0.00000000000E+00  0.32081989786E+03  0.32081989786E+03  0.00000000000E+00 0.  1.
         21   -1    0    0  501  502 -0.00000000000E+00 -0.00000000000E+00 -0.21575531191E+03  0.21575531191E+03  0.00000000000E+00 0.  1.
         25    1    1    2    0    0 -0.16662782279E+03  0.99438652834E+02  0.18128109011E+03  0.29349737756E+03  0.12500000000E+03 0.  0.
         25    1    1    2    0    0  0.16662782279E+03 -0.99438652834E+02 -0.76216504154E+02  0.24307783221E+03  0.12500000000E+03 0.  0.
</event>
<event>
 4    0  0.2210826E-002  0.2929120E+03  0.7546771E-02  0.1088838E+00
         21   -1    0    0  502  501  0.00000000000E+00  0.00000000000E+00  0.55567321830E+03  0.55567321830E+03  0.00000000000E+00 0. -1.
         21   -1    0    0  501  502 -0.00000000000E+00 -0.00000000000E+00 -0.15440267831E+03  0.15440267831E+03  0.00000000000E+00 0. -1.
         25    1    1    2    0    0 -0.25906489244E+02 -0.23868876461E+03  0.33630880786E+03  0.43170833531E+03  0.12500000000E+03 0.  0.
         25    1    1    2    0    0  0.25906489244E+02  0.23868876461E+03  0.64961732137E+02  0.27836756129E+03  0.12500000000E+03 0.  0.
</event>
<event>
 4    0  0.2210826E-002  0.2976474E+03  0.7546771E-02  0.1086423E+00
         21   -1    0    0  502  501  0.00000000000E+00  0.00000000000E+00  0.20046080071E+03  0.20046080071E+03  0.00000000000E+00 0.  1.
         21   -1    0    0  501  502 -0.00000000000E+00 -0.00000000000E+00 -0.44195162113E+03  0.44195162113E+03  0.00000000000E+00 0.  1.
         25    1    1    2    0    0  0.12072610339E+03 -0.78941895231E+02 -0.36721336338E+03  0.41385658036E+03  0.12500000000E+03 0.  0.
         25    1    1    2    0    0 -0.12072610339E+03  0.78941895231E+02  0.12572254297E+03  0.22855584148E+03  0.12500000000E+03 0.  0.
</event>
<event>
 4    0  0.2210826E-002  0.2406071E+03  0.7546771E-02  0.1119389E+00
         21   -1    0    0  502  501  0.00000000000E+00  0.00000000000E+00  0.88273984076E+02  0.88273984076E+02  0.00000000000E+00 0. -1.
         21   -1    0    0  501  502 -0.00000000000E+00 -0.00000000000E+00 -0.65581928763E+03  0.65581928763E+03  0.00000000000E+00 0. -1.
         25    1    1    2    0    0 -0.11776810036E+03  0.10145768955E+03 -0.75719780202E+02  0.21335761844E+03  0.12500000000E+03 0.  0.
         25    1    1    2    0    0  0.11776810036E+03 -0.10145768955E+03 -0.49182552336E+03  0.53073565327E+03  0.12500000000E+03 0.  0.
</event>
<event>
 4    0  0.2210826E-002  0.1830500E+03  0.7546771E-02  0.1164883E+00
         21   -1    0    0  502  501  0.00000000000E+00  0.00000000000E+00  0.19005942042E+03  0.19005942042E+03  0.00000000000E+00 0. -1.
         21   -1    0    0  501  502 -0.00000000000E+00 -0.00000000000E+00 -0.17629910352E+03  0.17629910352E+03  0.00000000000E+00 0. -1.
         25    1    1    2    0    0 -0.12132095039E+03  0.45067637198E+02 -0.26795356947E+02  0.18191441966E+03  0.12500000000E+03 0.  0.
         25    1    1    2    0    0  0.12132095039E+03 -0.45067637198E+02  0.40555673848E+02  0.18444410429E+03  0.12500000000E+03 0.  0.
</event>
<event>
 4    0  0.2210826E-002  0.1758313E+03  0.7546771E-02  0.1171900E+00
         21   -1    0    0  502  501  0.00000000000E+00  0.00000000000E+00  0.22446475924E+04  0.22446475924E+04  0.00000000000E+00 0.  1.
         21   -1    0    0  501  502 -0.00000000000E+00 -0.00000000000E+00 -0.13773494130E+02  0.13773494130E+02  0.00000000000E+00 0.  1.
         25    1    1    2    0    0 -0.53002897259E+02 -0.95888308517E+01  0.18302974227E+04  0.18353514400E+04  0.12500000000E+03 0.  0.
         25    1    1    2    0    0  0.53002897259E+02  0.95888308517E+01  0.40057667550E+03  0.42306964645E+03  0.12500000000E+03 0.  0.
</event>
<event>
 4    0  0.2210826E-002  0.2092327E+03  0.7546771E-02  0.1142175E+00
         21   -1    0    0  502  501  0.00000000000E+00  0.00000000000E+00  0.14160160176E+04  0.14160160176E+04  0.00000000000E+00 0.  1.
         21   -1    0    0  501  502 -0.00000000000E+00 -0.00000000000E+00 -0.30916549684E+02  0.30916549684E+02  0.00000000000E+00 0.  1.
         25    1    1    2    0    0 -0.14569984156E+03  0.81316148875E+02  0.75368082060E+03  0.78198499937E+03  0.12500000000E+03 0.  0.
         25    1    1    2    0    0  0.14569984156E+03 -0.81316148875E+02  0.63141864734E+03  0.66494756794E+03  0.12500000000E+03 0.  0.
</event>
<event>
 4    0  0.2210826E-002  0.2899792E+03  0.7546771E-02  0.1090360E+00
         21   -1    0    0  502  501  0.00000000000E+00  0.00000000000E+00  0.13817551189E+03  0.13817551189E+03  0.00000000000E+00 0.  1.
         21   -1    0    0  501  502 -0.00000000000E+00 -0.00000000000E+00 -0.60855899664E+03  0.60855899664E+03  0.00000000000E+00 0.  1.
         25    1    1    2    0    0  0.18084570286E+03  0.15822753442E+03 -0.10186913471E+03  0.28938459098E+03  0.12500000000E+03 0.  0.
         25    1    1    2    0    0 -0.18084570286E+03 -0.15822753442E+03 -0.36851435004E+03  0.45734991754E+03  0.12500000000E+03 0.  0.
</event>
<event>
 4    0  0.2210826E-002  0.1901427E+03  0.7546771E-02  0.1158333E+00
         21   -1    0    0  502  501  0.00000000000E+00  0.00000000000E+00  0.42553831854E+03  0.42553831854E+03  0.00000000000E+00 0. -1.
         21   -1    0    0  501  502 -0.00000000000E+00 -0.00000000000E+00 -0.84961217763E+02  0.84961217763E+02  0.00000000000E+00 0. -1.
         25    1    1    2    0    0 -0.12027344547E+03 -0.34636558607E+02  0.26391018663E+03  0.31770895405E+03  0.12500000000E+03 0.  0.
         25    1    1    2    0    0  0.12027344547E+03  0.34636558607E+02  0.76666914143E+02  0.19279058225E+03  0.12500000000E+03 0.  0.
</event>
<event>
 4    0  0.2210826E-002  0.2433317E+03  0.7546771E-02  0.1117593E+00
         21   -1    0    0  502  501  0.00000000000E+00  0.00000000000E+00  0.12787186767E+03  0.12787186767E+03  0.00000000000E+00 0. -1.
         21   -1    0    0  501  502 -0.00000000000E+00 -0.00000000000E+00 -0.46304420276E+03  0.46304420276E+03  0.00000000000E+00 0. -1.
         25    1    1    2    0    0 -0.17030002070E+03  0.16383173399E+02 -0.31286088706E+03  0.37785902142E+03  0.12500000000E+03 0.  0.
         25    1    1    2    0    0  0.17030002070E+03 -0.16383173399E+02 -0.22311448030E+02  0.21305704901E+03  0.12500000000E+03 0.  0.
</event>
<event>
 4    0  0.2210826E-002  0.3034873E+03  0.7546771E-02  0.1083510E+00
         21   -1    0    0  502  501  0.00000000000E+00  0.00000000000E+00  0.23725342344E+03  0.23725342344E+03  0.00000000000E+00 0.  1.
         21   -1    0    0  501  502 -0.00000000000E+00 -0.00000000000E+00 -0.38821176187E+03  0.38821176187E+03  0.00000000000E+00 0.  1.
         25    1    1    2    0    0  0.18353559892E+03 -0.18012238107E+03 -0.18031422609E+03  0.33803492181E+03  0.12500000000E+03 0.  0.
         25    1    1    2    0    0 -0.18353559892E+03  0.18012238107E+03  0.29355887665E+02  0.28743026350E+03  0.12500000000E+03 0.  0.
</event>
<event>
 4    0  0.2210826E-002  0.2036758E+03  0.7546771E-02  0.1146674E+00
         21   -1    0    0  502  501  0.00000000000E+00  0.00000000000E+00  0.39819785103E+02  0.39819785103E+02  0.00000000000E+00 0. -1.
         21   -1    0    0  501  502 -0.00000000000E+00 -0.00000000000E+00 -0.10417889915E+04  0.10417889915E+04  0.00000000000E+00 0. -1.
         25    1    1    2    0    0  0.11678316542E+03  0.52780579828E+02 -0.75889288899E+03  0.77972271629E+03  0.12500000000E+03 0.  0.
         25    1    1    2    0    0 -0.11678316542E+03 -0.52780579828E+02 -0.24307631743E+03  0.30188606034E+03  0.12500000000E+03 0.  0.
</event>
<event>
 4    0  0.2210826E-002  0.2173645E+03  0.7546771E-02  0.1135863E+00
         21   -1    0    0  502  501  0.00000000000E+00  0.00000000000E+00  0.10234080137E+03  0.10234080137E+03  0.00000000000E+00 0.  1.
         21   -1    0    0  501  502 -0.00000000000E+00 -0.00000000000E+00 -0.46166663976E+03  0.46166663976E+03  0.00000000000E+00 0.  1.
         25    1    1    2    0    0  0.12769161407E+03 -0.10959549487E+03 -0.25425942213E+03  0.32952871581E+03  0.12500000000E+03 0.  0.
         25    1    1    2    0    0 -0.12769161407E+03  0.10959549487E+03 -0.10506641626E+03  0.23447872532E+03  0.12500000000E+03 0.  0.
</event>
<event>
 4    0  0.2210826E-002  0.1840117E+03  0.7546771E-02  0.1163976E+00
         21   -1    0    0  502  501  0.00000000000E+00  0.00000000000E+00  0.60435598208E+02  0.60435598208E+02  0.00000000000E+00 0.  1.
         21   -1    0    0  501  502 -0.00000000000E+00 -0.00000000000E+00 -0.56027089031E+03  0.56027089031E+03  0.00000000000E+00 0.  1.
         25    1    1    2    0    0 -0.52759302475E+01  0.11477672176E+03 -0.36958005803E+03  0.40671359774E+03  0.12500000000E+03 0.  0.
         25    1    1    2    0    0  0.52759302475E+01 -0.11477672176E+03 -0.13025523407E+03  0.21399289077E+03  0.12500000000E+03 0.  0.
</event>
<event>
 4    0  0.2210826E-002  0.1563408E+03  0.7546771E-02  0.1192891E+00
         21   -1    0    0  502  501  0.00000000000E+00  0.00000000000E+00  0.41131065043E+02  0.41131065043E+02  0.00000000000E+00 0. -1.
         21   -1    0    0  501  502 -0.00000000000E+00 -0.00000000000E+00 -0.59425781379E+03  0.59425781379E+03  0.00000000000E+00 0. -1.
         25    1    1    2    0    0  0.31369017842E+02 -0.53349986247E+02 -0.42006818817E+03  0.44262006171E+03  0.12500000000E+03 0.  0.
         25    1    1    2    0    0 -0.31369017842E+02  0.53349986247E+02 -0.13305856058E+03  0.19276881712E+03  0.12500000000E+03 0.  0.
</event>
<event>
 4    0  0.2210826E-002  0.2389552E+03  0.7546771E-02  0.1120491E+00
         21   -1    0    0  502  501  0.00000000000E+00  0.00000000000E+00  0.13639006447E+03  0.13639006447E+03  0.00000000000E+00 0.  1.
         21   -1    0    0  501  502 -0.00000000000E+00 -0.00000000000E+00 -0.41864924619E+03  0.41864924619E+03  0.00000000000E+00 0.  1.
         25    1    1    2    0    0 -0.87512020220E+02 -0.18377263106E+03 -0.13343772527E+03  0.27360804106E+03  0.12500000000E+03 0.  0.
         25    1    1    2    0    0  0.87512020220E+02  0.18377263106E+03 -0.14882145645E+03  0.28143126960E+03  0.12500000000E+03 0.  0.
</event>
<event>
 4    0  0.2210826E-002  0.2227941E+03  0.7546771E-02  0.1131817E+00
         21   -1    0    0  502  501  0.00000000000E+00  0.00000000000E+00  0.22011456638E+03  0.22011456638E+03  0.00000000000E+00 0. -1.
         21   -1    0    0  501  502 -0.00000000000E+00 -0.00000000000E+00 -0.22550617506E+03  0.22550617506E+03  0.00000000000E+00 0. -1.
         25    1    1    2    0    0  0.53380438735E+02 -0.85233297352E+02  0.15190531668E+03  0.22093983672E+03  0.12500000000E+03 0.  0.
         25    1    1    2    0    0 -0.53380438735E+02  0.85233297352E+02 -0.15729692536E+03  0.22468090472E+03  0.12500000000E+03 0.  0.
</event>
<event>
 4    0  0.2210826E-002  0.2665659E+03  0.7546771E-02  0.1103261E+00
         21   -1    0    0  502  501  0.00000000000E+00  0.00000000000E+00  0.13370564659E+03  0.13370564659E+03  0.00000000000E+00 0. -1.
         21   -1    0    0  501  502 -0.00000000000E+00 -0.00000000000E+00 -0.53144622769E+03  0.53144622769E+03  0.00000000000E+00 0. -1.
         25    1    1    2    0    0 -0.12625578325E+03  0.19872521198E+03 -0.19931808032E+03  0.33284370179E+03  0.12500000000E+03 0.  0.
         25    1    1    2    0    0  0.12625578325E+03 -0.19872521198E+03 -0.19842250078E+03  0.33230817248E+03  0.12500000000E+03 0.  0.
</event>
<event>
 4    0  0.2210826E-002  0.4103751E+03  0.7546771E-02  0.1040245E+00
         21   -1    0    0  502  501  0.00000000000E+00  0.00000000000E+00  0.14605120596E+03  0.14605120596E+03  0.00000000000E+00 0. -1.
         21   -1    0    0  501  502 -0.00000000000E+00 -0.00000000000E+00 -0.11530730690E+04  0.11530730690E+04  0.00000000000E+00 0.  1.
         25    1    1    2    0    0 -0.26996638451E+03 -0.18036457841E+03 -0.15901108429E+03  0.38252157435E+03  0.12500000000E+03 0.  0.
         25    1    1    2    0    0  0.26996638451E+03  0.18036457841E+03 -0.84801077872E+03  0.91660270059E+03  0.12500000000E+03 0.  0.
</event>
<event>
 4    0  0.2210826E-002  0.1426730E+03  0.7546771E-02  0.1209777E+00
         21   -1    0    0  502  501  0.00000000000E+00  0.00000000000E+00  0.12782788159E+03  0.12782788159E+03  0.00000000000E+00 0. -1.
         21   -1    0    0  501  502 -0.00000000000E+00 -0.00000000000E+00 -0.15924224740E+03  0.15924224740E+03  0.00000000000E+00 0. -1.
         25    1    1    2    0    0  0.28258188585E+02  0.35032710285E+02 -0.68028936178E+02  0.14926068528E+03  0.12500000000E+03 0.  0.
         25    1    1    2    0    0 -0.28258188585E+02 -0.35032710285E+02  0.36614570371E+02  0.13780944371E+03  0.12500000000E+03 0.  0.
</event>
<event>
 4    0  0.2210826E-002  0.2173344E+03  0.7546771E-02  0.1135886E+00
         21   -1    0    0  502  501  0.00000000000E+00  0.00000000000E+00  0.11159329642E+03  0.11159329642E+03  0.00000000000E+00 0. -1.
         21   -1    0    0  501  502 -0.00000000000E+00 -0.00000000000E+00 -0.42327113183E+03  0.42327113183E+03  0.00000000000E+00 0. -1.
         25    1    1    2    0    0  0.79714452377E+02 -0.15646124335E+03 -0.19008838993E+03  0.28739017133E+03  0.12500000000E+03 0.  0.
         25    1    1    2    0    0 -0.79714452377E+02  0.15646124335E+03 -0.12158944548E+03  0.24747425692E+03  0.12500000000E+03 0.  0.
</event>
<event>
 4    0  0.2210826E-002  0.1735182E+03  0.7546771E-02  0.1174228E+00
         21   -1    0    0  502  501  0.00000000000E+00  0.00000000000E+00  0.30922089357E+02  0.30922089357E+02  0.00000000000E+00 0. -1.
         21   -1    0    0  501  502 -0.00000000000E+00 -0.00000000000E+00 -0.97369162728E+03  0.97369162728E+03  0.00000000000E+00 0. -1.
         25    1    1    2    0    0 -0.10923282016E+03  0.48959705073E+02 -0.50739236208E+03  0.53609781833E+03  0.12500000000E+03 0.  0.
         25    1    1    2    0    0  0.10923282016E+03 -0.48959705073E+02 -0.43537717584E+03  0.46851589831E+03  0.12500000000E+03 0.  0.
</event>
<event>
 4    0  0.2210826E-002  0.3033644E+03  0.7546771E-02  0.1083571E+00
         21   -1    0    0  502  501  0.00000000000E+00  0.00000000000E+00  0.74812421515E+03  0.74812421515E+03  0.00000000000E+00 0.  1.
         21   -1    0    0  501  502 -0.00000000000E+00 -0.00000000000E+00 -0.12301430366E+03  0.12301430366E+03  0.00000000000E+00 0.  1.
         25    1    1    2    0    0  0.99729333283E+02  0.25745731544E+03  0.29357364373E+03  0.42194868584E+03  0.12500000000E+03 0.  0.
         25    1    1    2    0    0 -0.99729333283E+02 -0.25745731544E+03  0.33153626776E+03  0.44918983296E+03  0.12500000000E+03 0.  0.
</event>
<event>
 4    0  0.2210826E-002  0.3048363E+03  0.7546771E-02  0.1082848E+00
         21   -1    0    0  502  501  0.00000000000E+00  0.00000000000E+00  0.16394378506E+03  0.16394378506E+03  0.00000000000E+00 0.  1.
         21   -1    0    0  501  502 -0.00000000000E+00 -0.00000000000E+00 -0.56681125198E+03  0.56681125198E+03  0.00000000000E+00 0.  1.
         25    1    1    2    0    0 -0.17599936222E+03 -0.14498969221E+03 -0.10775338179E+02  0.26026696729E+03  0.12500000000E+03 0.  0.
         25    1    1    2    0    0  0.17599936222E+03  0.14498969221E+03 -0.39209212874E+03  0.47048806974E+03  0.12500000000E+03 0.  0.
</event>
<event>
 4    0  0.2210826E-002  0.2366187E+03  0.7546771E-02  0.1122066E+00
         21   -1    0    0  502  501  0.00000000000E+00  0.00000000000E+00  0.22800346749E+03  0.22800346749E+03  0.00000000000E+00 0. -1.
         21   -1    0    0  501  502 -0.00000000000E+00 -0.00000000000E+00 -0.24555939216E+03  0.24555939216E+03  0.00000000000E+00 0. -1.
         25    1    1    2    0    0 -0.18987488584E+02  0.15492708302E+03 -0.13535792660E+03  0.24147400288E+03  0.12500000000E+03 0.  0.
         25    1    1    2    0    0  0.18987488584E+02 -0.15492708302E+03  0.11780200193E+03  0.23208885677E+03  0.12500000000E+03 0.  0.
</event>
<event>
 4    0  0.2210826E-002  0.2208122E+03  0.7546771E-02  0.1133279E+00
         21   -1    0    0  502  501  0.00000000000E+00  0.00000000000E+00  0.17590423292E+04  0.17590423292E+04  0.00000000000E+00 0. -1.
         21   -1    0    0  501  502 -0.00000000000E+00 -0.00000000000E+00 -0.27718505010E+02  0.27718505010E+02  0.00000000000E+00 0. -1.
         25    1    1    2    0    0 -0.36579449708E+02 -0.17779711954E+03  0.92041629966E+03  0.94643596537E+03  0.12500000000E+03 0.  0.
         25    1    1    2    0    0  0.36579449708E+02  0.17779711954E+03  0.81090752454E+03  0.84032486885E+03  0.12500000000E+03 0.  0.
</event>
<event>
 4    0  0.2210826E-002  0.2595885E+03  0.7546771E-02  0.1107391E+00
         21   -1    0    0  502  501  0.00000000000E+00  0.00000000000E+00  0.25191339976E+03  0.25191339976E+03  0.00000000000E+00 0. -1.
         21   -1    0    0  501  502 -0.00000000000E+00 -0.00000000000E+00 -0.26749741448E+03  0.26749741448E+03  0.00000000000E+00 0. -1.
         25    1    1    2    0    0 -0.94260566852E+02  0.27826079981E+02  0.19748773334E+03  0.25354634687E+03  0.12500000000E+03 0.  0.
         25    1    1    2    0    0  0.94260566852E+02 -0.27826079981E+02 -0.21307174806E+03  0.26586446737E+03  0.12500000000E+03 0.  0.
</event>
<event>
 4    0  0.2210826E-002  0.1777273E+03  0.7546771E-02  0.1170021E+00
         21   -1    0    0  502  501  0.00000000000E+00  0.00000000000E+00  0.50804248584E+03  0.50804248584E+03  0.00000000000E+00 0. -1.
         21   -1    0    0  501  502 -0.00000000000E+00 -0.00000000000E+00 -0.62173925324E+02  0.62173925324E+02  0.00000000000E+00 0. -1.
         25    1    1    2    0    0  0.52274985414E+01  0.96083553075E+02  0.35426848392E+03  0.38780218490E+03  0.12500000000E+03 0.  0.
         25    1    1    2    0    0 -0.52274985414E+01 -0.96083553075E+02  0.91600076599E+02  0.18241422627E+03  0.12500000000E+03 0.  0.
</event>
<event>
 4    0  0.2210826E-002  0.1958637E+03  0.7546771E-02  0.1153277E+00
         21   -1    0    0  502  501  0.00000000000E+00  0.00000000000E+00  0.35113588555E+03  0.35113588555E+03  0.00000000000E+00 0. -1.
         21   -1    0    0  501  502 -0.00000000000E+00 -0.00000000000E+00 -0.10925279552E+03  0.10925279552E+03  0.00000000000E+00 0.  1.
         25    1    1    2    0    0 -0.11955877763E+03 -0.20814337275E+02  0.22612757756E+03  0.28545791157E+03  0.12500000000E+03 0.  0.
         25    1    1    2    0    0  0.11955877763E+03  0.20814337275E+02  0.15755512472E+02  0.17493076950E+03  0.12500000000E+03 0.  0.
</event>
<event>
 4    0  0.2210826E-002  0.2618054E+03  0.7546771E-02  0.1106063E+00
         21   -1    0    0  502  501  0.00000000000E+00  0.00000000000E+00  0.46210633615E+02  0.46210633615E+02  0.00000000000E+00 0. -1.
         21   -1    0    0  501  502 -0.00000000000E+00 -0.00000000000E+00 -0.14832533523E+04  0.14832533523E+04  0.00000000000E+00 0. -1.
         25    1    1    2    0    0 -0.44954737804E+02  0.11861505838E+03 -0.15797499604E+03  0.23805789190E+03  0.12500000000E+03 0.  0.
         25    1    1    2    0    0  0.44954737804E+02 -0.11861505838E+03 -0.12790677226E+04  0.12914060940E+04  0.12500000000E+03 0.  0.
</event>
<event>
 4    0  0.2210826E-002  0.1486453E+03  0.7546771E-02  0.1202148E+00
         21   -1    0    0  502  501  0.00000000000E+00  0.00000000000E+00  0.29131510411E+03  0.29131510411E+03  0.00000000000E+00 0.  1.
         21   -1    0    0  501  502 -0.00000000000E+00 -0.00000000000E+00 -0.75847155964E+02  0.75847155964E+02  0.00000000000E+00 0.  1.
         25    1    1    2    0    0 -0.64194754598E+02  0.69315806830E+01  0.16698198470E+03  0.21835062753E+03  0.12500000000E+03 0.  0.
         25    1    1    2    0    0  0.64194754598E+02 -0.69315806830E+01  0.48485963445E+02  0.14881163254E+03  0.12500000000E+03 0.  0.
</event>
<event>
 4    0  0.2210826E-002  0.2369216E+03  0.7546771E-02  0.1121861E+00
         21   -1    0    0  502  501  0.00000000000E+00  0.00000000000E+00  0.12924300246E+04  0.12924300246E+04  0.00000000000E+00 0.  1.
         21   -1    0    0  501  502 -0.00000000000E+00 -0.00000000000E+00 -0.43431246942E+02  0.43431246942E+02  0.00000000000E+00 0.  1.
         25    1    1    2    0    0 -0.90066408280E+02 -0.11327024987E+03  0.23016583104E+03  0.29923806105E+03  0.12500000000E+03 0.  0.
         25    1    1    2    0    0  0.90066408280E+02  0.11327024987E+03  0.10188329466E+04  0.10366232105E+04  0.12500000000E+03 0.  0.
</event>
<event>
 4    0  0.2210826E-002  0.1976102E+03  0.7546771E-02  0.1151771E+00
         21   -1    0    0  502  501  0.00000000000E+00  0.00000000000E+00  0.15179989799E+03  0.15179989799E+03  0.00000000000E+00 0.  1.
         21   -1    0    0  501  502 -0.00000000000E+00 -0.00000000000E+00 -0.25724525396E+03  0.25724525396E+03  0.00000000000E+00 0.  1.
         25    1    1    2    0    0 -0.26518801580E+02 -0.77429255715E+02  0.81131317448E+02  0.17001713781E+03  0.12500000000E+03 0.  0.
         25    1    1    2    0    0  0.26518801580E+02  0.77429255715E+02 -0.18657667342E+03  0.23902801414E+03  0.12500000000E+03 0.  0.
</event>
<event>
 4    0  0.2210826E-002  0.3458253E+03  0.7546771E-02  0.1064342E+00
         21   -1    0    0  502  501  0.00000000000E+00  0.00000000000E+00  0.13176177096E+03  0.13176177096E+03  0.00000000000E+00 0.  1.
         21   -1    0    0  501  502 -0.00000000000E+00 -0.00000000000E+00 -0.90766183756E+03  0.90766183756E+03  0.00000000000E+00 0.  1.
         25    1    1    2    0    0 -0.72229349228E+02  0.26750182465E+03 -0.14011827454E+03  0.33471246756E+03  0.12500000000E+03 0.  0.
         25    1    1    2    0    0  0.72229349228E+02 -0.26750182465E+03 -0.63578179207E+03  0.70471114097E+03  0.12500000000E+03 0.  0.
</event>
<event>
 4    0  0.2210826E-002  0.2479942E+03  0.7546771E-02  0.1114579E+00
         21   -1    0    0  502  501  0.00000000000E+00  0.00000000000E+00  0.45277544262E+03  0.45277544262E+03  0.00000000000E+00 0. -1.
         21   -1    0    0  501  502 -0.00000000000E+00 -0.00000000000E+00 -0.13583145404E+03  0.13583145404E+03  0.00000000000E+00 0. -1.
         25    1    1    2    0    0 -0.10862628438E+03 -0.16897503021E+03  0.70270227226E+02  0.24680991740E+03  0.12500000000E+03 0.  0.
         25    1    1    2    0    0  0.10862628438E+03  0.16897503021E+03  0.24667376136E+03  0.34179697926E+03  0.12500000000E+03 0.  0.
</event>
<event>
 4    0  0.2210826E-002  0.1963084E+03  0.7546771E-02  0.1152891E+00
         21   -1    0    0  502  501  0.00000000000E+00  0.00000000000E+00  0.78492285645E+02  0.78492285645E+02  0.00000000000E+00 0. -1.
         21   -1    0    0  501  502 -0.00000000000E+00 -0.00000000000E+00 -0.49096545185E+03  0.49096545185E+03  0.00000000000E+00 0. -1.
         25    1    1    2    0    0 -0.10295196439E+03 -0.53280428575E+02 -0.65060447864E+02  0.18247129341E+03  0.12500000000E+03 0.  0.
         25    1    1    2    0    0  0.10295196439E+03  0.53280428575E+02 -0.34741271834E+03  0.38698644409E+03  0.12500000000E+03 0.  0.
</event>
<event>
 4    0  0.2210826E-002  0.2669227E+03  0.7546771E-02  0.1103054E+00
         21   -1    0    0  502  501  0.00000000000E+00  0.00000000000E+00  0.20017784054E+03  0.20017784054E+03  0.00000000000E+00 0.  1.
         21   -1    0    0  501  502 -0.00000000000E+00 -0.00000000000E+00 -0.35592224824E+03  0.35592224824E+03  0.00000000000E+00 0.  1.
         25    1    1    2    0    0  0.30313486023E+02 -0.18038273938E+03  0.77216495465E+02  0.23461506191E+03  0.12500000000E+03 0.  0.
         25    1    1    2    0    0 -0.30313486023E+02  0.18038273938E+03 -0.23296090316E+03  0.32148502688E+03  0.12500000000E+03 0.  0.
</event>
<event>
 4    0  0.2210826E-002  0.1965855E+03  0.7546771E-02  0.1152652E+00
         21   -1    0    0  502  501  0.00000000000E+00  0.00000000000E+00  0.47836268257E+02  0.47836268257E+02  0.00000000000E+00 0.  1.
         21   -1    0    0  501  502 -0.00000000000E+00 -0.00000000000E+00 -0.80787740265E+03  0.80787740265E+03  0.00000000000E+00 0.  1.
         25    1    1    2    0    0 -0.92120248964E+02 -0.98654299884E+02 -0.53084075845E+03  0.56181466872E+03  0.12500000000E+03 0.  0.
         25    1    1    2    0    0  0.92120248964E+02  0.98654299884E+02 -0.22920037594E+03  0.29389900218E+03  0.12500000000E+03 0.  0.
</event>
<event>
 4    0  0.2210826E-002  0.2328565E+03  0.7546771E-02  0.1124645E+00
         21   -1    0    0  502  501  0.00000000000E+00  0.00000000000E+00  0.22293783539E+04  0.22293783539E+04  0.00000000000E+00 0.  1.
         21   -1    0    0  501  502 -0.00000000000E+00 -0.00000000000E+00 -0.24321641948E+02  0.24321641948E+02  0.00000000000E+00 0.  1.
         25    1    1    2    0    0 -0.11501254733E+03 -0.14821727766E+03  0.82031707997E+03  0.85072989787E+03  0.12500000000E+03 0.  0.
         25    1    1    2    0    0  0.11501254733E+03  0.14821727766E+03  0.13847396319E+04  0.14029700979E+04  0.12500000000E+03 0.  0.
</event>
<event>
 4    0  0.2210826E-002  0.1521748E+03  0.7546771E-02  0.1197826E+00
         21   -1    0    0  502  501  0.00000000000E+00  0.00000000000E+00  0.92068269121E+02  0.92068269121E+02  0.00000000000E+00 0. -1.
         21   -1    0    0  501  502 -0.00000000000E+00 -0.00000000000E+00 -0.25152182484E+03  0.25152182484E+03  0.00000000000E+00 0. -1.
         25    1    1    2    0    0 -0.53798357952E+02  0.15205470107E+02 -0.47848228058E+01  0.13701592670E+03  0.12500000000E+03 0.  0.
         25    1    1    2    0    0  0.53798357952E+02 -0.15205470107E+02 -0.15466873291E+03  0.20657416726E+03  0.12500000000E+03 0.  0.
</event>
<event>
 4    0  0.2210826E-002  0.1626583E+03  0.7546771E-02  0.1185728E+00
         21   -1    0    0  502  501  0.00000000000E+00  0.00000000000E+00  0.29139633395E+02  0.29139633395E+02  0.00000000000E+00 0. -1.
         21   -1    0    0  501  502 -0.00000000000E+00 -0.00000000000E+00 -0.90796364805E+03  0.90796364805E+03  0.00000000000E+00 0. -1.
         25    1    1    2    0    0 -0.85721807243E+02  0.39667375176E+02 -0.56533684939E+03  0.58664510751E+03  0.12500000000E+03 0.  0.
         25    1    1    2    0    0  0.85721807243E+02 -0.39667375176E+02 -0.31348716527E+03  0.35045817394E+03  0.12500000000E+03 0.  0.
</event>
<event>
 4    0  0.2210826E-002  0.2320541E+03  0.7546771E-02  0.1125202E+00
         21   -1    0    0  502  501  0.00000000000E+00  0.00000000000E+00  0.52280064195E+03  0.52280064195E+03  0.00000000000E+00 0. -1.
         21   -1    0    0  501  502 -0.00000000000E+00 -0.00000000000E+00 -0.10300119206E+03  0.10300119206E+03  0.00000000000E+00 0. -1.
         25    1    1    2    0    0 -0.10504407691E+03 -0.59558963354E+02  0.41723104585E+03  0.45198260346E+03  0.12500000000E+03 0.  0.
         25    1    1    2    0    0  0.10504407691E+03  0.59558963354E+02  0.25684040342E+01  0.17381923055E+03  0.12500000000E+03 0.  0.
</event>
<event>
 4    0  0.2210826E-002  0.2087911E+03  0.7546771E-02  0.1142527E+00
         21   -1    0    0  502  501  0.00000000000E+00  0.00000000000E+00  0.73043868863E+03  0.73043868863E+03  0.00000000000E+00 0.  1.
         21   -1    0    0  501  502 -0.00000000000E+00 -0.00000000000E+00 -0.59681569248E+02  0.59681569248E+02  0.00000000000E+00 0.  1.
         25    1    1    2    0    0 -0.69318183119E+01 -0.16550457362E+03  0.37889400137E+03  0.43200171096E+03  0.12500000000E+03 0.  0.
         25    1    1    2    0    0  0.69318183119E+01  0.16550457362E+03  0.29186311801E+03  0.35811854692E+03  0.12500000000E+03 0.  0.
</event>
<event>
 4    0  0.2210826E-002  0.2537461E+03  0.7546771E-02  0.1110960E+00
         21   -1    0    0  502  501  0.00000000000E+00  0.00000000000E+00  0.57204496653E+02  0.57204496653E+02  0.00000000000E+00 0.  1.
         21   -1    0    0  501  502 -0.00000000000E+00 -0.00000000000E+00 -0.11255598521E+04  0.11255598521E+04  0.00000000000E+00 0.  1.
         25    1    1    2    0    0  0.63365311914E+02  0.11387304478E+03 -0.94965256801E+03  0.96666810903E+03  0.12500000000E+03 0.  0.
         25    1    1    2    0    0 -0.63365311914E+02 -0.11387304478E+03 -0.11870278746E+03  0.21609623975E+03  0.12500000000E+03 0.  0.
</event>
<event>
 4    0  0.2210826E-002  0.3701441E+03  0.7546771E-02  0.1054638E+00
         21   -1    0    0  502  501  0.00000000000E+00  0.00000000000E+00  0.63610052142E+03  0.63610052142E+03  0.00000000000E+00 0.  1.
         21   -1    0    0  501  502 -0.00000000000E+00 -0.00000000000E+00 -0.21538521743E+03  0.21538521743E+03  0.00000000000E+00 0. -1.
         25    1    1    2    0    0 -0.27732423264E+03 -0.19058168101E+03  0.10651005656E+03  0.37443223592E+03  0.12500000000E+03 0.  0.
         25    1    1    2    0    0  0.27732423264E+03  0.19058168101E+03  0.31420524743E+03  0.47705350293E+03  0.12500000000E+03 0.  0.
</event>
<event>
 4    0  0.2210826E-002  0.1484483E+03  0.7546771E-02  0.1202393E+00
         21   -1    0    0  502  501  0.00000000000E+00  0.00000000000E+00  0.11615832822E+03  0.11615832822E+03  0.00000000000E+00 0.  1.
         21   -1    0    0  501  502 -0.00000000000E+00 -0.00000000000E+00 -0.18971429792E+03  0.18971429792E+03  0.00000000000E+00 0.  1.
         25    1    1    2    0    0 -0.48472754172E+02  0.63555051041E+02 -0.31832515452E+02  0.15174703111E+03  0.12500000000E+03 0.  0.
         25    1    1    2    0    0  0.48472754172E+02 -0.63555051041E+02 -0.41723454251E+02  0.15412559503E+03  0.12500000000E+03 0.  0.
</event>
<event>
 4    0  0.2210826E-002  0.1818324E+03  0.7546771E-02  0.1166041E+00
         21   -1    0    0  502  501  0.00000000000E+00  0.00000000000E+00  0.20591747030E+02  0.20591747030E+02  0.00000000000E+00 0.  1.
         21   -1    0    0  501  502 -0.00000000000E+00 -0.00000000000E+00 -0.16056439808E+04  0.16056439808E+04  0.00000000000E+00 0.  1.
         25    1    1    2    0    0 -0.75929662121E+02  0.33312656928E+02 -0.33293115528E+03  0.36516188308E+03  0.12500000000E+03 0.  0.
         25    1    1    2    0    0  0.75929662121E+02 -0.33312656928E+02 -0.12521210785E+04  0.12610738447E+04  0.12500000000E+03 0.  0.
</event>
<event>
 4    0  0.2210826E-002  0.3036111E+03  0.7546771E-02  0.1083449E+00
         21   -1    0    0  502  501  0.00000000000E+00  0.00000000000E+00  0.71756611681E+02  0.71756611681E+02  0.00000000000E+00 0. -1.
         21   -1    0    0  501  502 -0.00000000000E+00 -0.00000000000E+00 -0.12846157706E+04  0.12846157706E+04  0.00000000000E+00 0. -1.
         25    1    1    2    0    0  0.21463847931E+02  0.19968895470E+03 -0.10315337688E+04  0.10583115286E+04  0.12500000000E+03 0.  0.
         25    1    1    2    0    0 -0.21463847931E+02 -0.19968895470E+03 -0.18132539014E+03  0.29806085370E+03  0.12500000000E+03 0.  0.
</event>
<event>
 4    0  0.2210826E-002  0.2741227E+03  0.7546771E-02  0.1098943E+00
         21   -1    0    0  502  501  0.00000000000E+00  0.00000000000E+00  0.95071777965E+03  0.95071777965E+03  0.00000000000E+00 0. -1.
         21   -1    0    0  501  502 -0.00000000000E+00 -0.00000000000E+00 -0.79038439292E+02  0.79038439292E+02  0.00000000000E+00 0. -1.
         25    1    1    2    0    0 -0.14463044147E+03 -0.68722770481E+02  0.78155202407E+03  0.80752049516E+03  0.12500000000E+03 0.  0.
         25    1    1    2    0    0  0.14463044147E+03  0.68722770481E+02  0.90127316294E+02  0.22223572378E+03  0.12500000000E+03 0.  0.
</event>
<event>
 4    0  0.2210826E-002  0.1446633E+03  0.7546771E-02  0.1207188E+00
         21   -1    0    0  502  501  0.00000000000E+00  0.00000000000E+00  0.14887813039E+02  0.14887813039E+02  0.00000000000E+00 0. -1.
         21   -1    0    0  501  502 -0.00000000000E+00 -0.00000000000E+00 -0.14056773361E+04  0.14056773361E+04  0.00000000000E+00 0. -1.
         25    1    1    2    0    0 -0.24390161593E+02  0.14919966300E+02 -0.36657875751E+03  0.38835868837E+03  0.12500000000E+03 0.  0.
         25    1    1    2    0    0  0.24390161593E+02 -0.14919966300E+02 -0.10242107656E+04  0.10322064608E+04  0.12500000000E+03 0.  0.
</event>
<event>
 4    0  0.2210826E-002  0.4021605E+03  0.7546771E-02  0.1043034E+00
         21   -1    0    0  502  501  0.00000000000E+00  0.00000000000E+00  0.39906355988E+03  0.39906355988E+03  0.00000000000E+00 0. -1.
         21   -1    0    0  501  502 -0.00000000000E+00 -0.00000000000E+00 -0.40528148007E+03  0.40528148007E+03  0.00000000000E+00 0. -1.
         25    1    1    2    0    0 -0.47501958246E+02  0.34546950845E+03 -0.15964623113E+03  0.40338261790E+03  0.12500000000E+03 0.  0.
         25    1    1    2    0    0  0.47501958246E+02 -0.34546950845E+03  0.15342831094E+03  0.40096242206E+03  0.12500000000E+03 0.  0.
</event>
<event>
 4    0  0.2210826E-002  0.4086557E+03  0.7546771E-02  0.1040823E+00
         21   -1    0    0  502  501  0.00000000000E+00  0.00000000000E+00  0.27696537915E+03  0.27696537915E+03  0.00000000000E+00 0.  1.
         21   -1    0    0  501  502 -0.00000000000E+00 -0.00000000000E+00 -0.60296148194E+03  0.60296148194E+03  0.00000000000E+00 0.  1.
         25    1    1    2    0    0 -0.30404084433E+03 -0.95393657717E+02 -0.40333497093E+03  0.52900367081E+03  0.12500000000E+03 0.  0.
         25    1    1    2    0    0  0.30404084433E+03  0.95393657717E+02  0.77338868131E+02  0.35092319028E+03  0.12500000000E+03 0.  0.
</event>
<event>
 4    0  0.2210826E-002  0.4164479E+03  0.7546771E-02  0.1038229E+00
         21   -1    0    0  502  501  0.00000000000E+00  0.00000000000E+00  0.18167891610E+04  0.18167891610E+04  0.00000000000E+00 0.  1.
         21   -1    0    0  501  502 -0.00000000000E+00 -0.00000000000E+00 -0.95458972746E+02  0.95458972746E+02  0.00000000000E+00 0.  1.
         25    1    1    2    0    0  0.38644408964E+03  0.51128247319E+02  0.68505182285E+03  0.79804394119E+03  0.12500000000E+03 0.  0.
         25    1    1    2    0    0 -0.38644408964E+03 -0.51128247319E+02  0.10362783654E+04  0.11142041926E+04  0.12500000000E+03 0.  0.
</event>
<event>
 4    0  0.2210826E-002  0.1835190E+03  0.7546771E-02  0.1164440E+00
         21   -1    0    0  502  501  0.00000000000E+00  0.00000000000E+00  0.33977058866E+03  0.33977058866E+03  0.00000000000E+00 0.  1.
         21   -1    0    0  501  502 -0.00000000000E+00 -0.00000000000E+00 -0.99123453153E+02  0.99123453153E+02  0.00000000000E+00 0.  1.
         25    1    1    2    0    0 -0.34841372450E+02 -0.64603169168E+02 -0.14256602000E+02  0.14565624395E+03  0.12500000000E+03 0.  0.
         25    1    1    2    0    0  0.34841372450E+02  0.64603169168E+02  0.25490373751E+03  0.29323779786E+03  0.12500000000E+03 0.  0.
</event>
<event>
 4    0  0.2210826E-002  0.3355183E+03  0.7546771E-02  0.1068721E+00
         21   -1    0    0  502  501  0.00000000000E+00  0.00000000000E+00  0.53041018208E+03  0.53041018208E+03  0.00000000000E+00 0. -1.
         21   -1    0    0  501  502 -0.00000000000E+00 -0.00000000000E+00 -0.21223671644E+03  0.21223671644E+03  0.00000000000E+00 0. -1.
         25    1    1    2    0    0 -0.20179305893E+03 -0.87095443118E+02  0.40317083541E+03  0.47589681378E+03  0.12500000000E+03 0.  0.
         25    1    1    2    0    0  0.20179305893E+03  0.87095443118E+02 -0.84997369761E+02  0.26675008474E+03  0.12500000000E+03 0.  0.
</event>
<event>
 4    0  0.2210826E-002  0.3300819E+03  0.7546771E-02  0.1071101E+00
         21   -1    0    0  502  501  0.00000000000E+00  0.00000000000E+00  0.10642828011E+04  0.10642828011E+04  0.00000000000E+00 0.  1.
         21   -1    0    0  501  502 -0.00000000000E+00 -0.00000000000E+00 -0.10237322881E+03  0.10237322881E+03  0.00000000000E+00 0.  1.
         25    1    1    2    0    0  0.26135898663E+03 -0.13995631072E+03  0.61121209100E+03  0.69072534989E+03  0.12500000000E+03 0.  0.
         25    1    1    2    0    0 -0.26135898663E+03  0.13995631072E+03  0.35069748134E+03  0.47593068006E+03  0.12500000000E+03 0.  0.
</event>
<event>
 4    0  0.2210826E-002  0.3185818E+03  0.7546771E-02  0.1076304E+00
         21   -1    0    0  502  501  0.00000000000E+00  0.00000000000E+00  0.28501107499E+03  0.28501107499E+03  0.00000000000E+00 0. -1.
         21   -1    0    0  501  502 -0.00000000000E+00 -0.00000000000E+00 -0.35610664858E+03  0.35610664858E+03  0.00000000000E+00 0. -1.
         25    1    1    2    0    0 -0.22298886153E+03 -0.18753341477E+03 -0.41044595765E+01  0.31707201171E+03  0.12500000000E+03 0.  0.
         25    1    1    2    0    0  0.22298886153E+03  0.18753341477E+03 -0.66991114006E+02  0.32404571186E+03  0.12500000000E+03 0.  0.
</event>
<event>
 4    0  0.2210826E-002  0.4617454E+03  0.7546771E-02  0.1024276E+00
         21   -1    0    0  502  501  0.00000000000E+00  0.00000000000E+00  0.42198663270E+03  0.42198663270E+03  0.00000000000E+00 0. -1.
         21   -1    0    0  501  502 -0.00000000000E+00 -0.00000000000E+00 -0.50525013961E+03  0.50525013961E+03  0.00000000000E+00 0. -1.
         25    1    1    2    0    0  0.12751344398E+03  0.36287092265E+03  0.18209223293E+03  0.44352854045E+03  0.12500000000E+03 0.  0.
         25    1    1    2    0    0 -0.12751344398E+03 -0.36287092265E+03 -0.26535573984E+03  0.48370823186E+03  0.12500000000E+03 0.  0.
</event>
<event>
 4    0  0.2210826E-002  0.1573114E+03  0.7546771E-02  0.1191766E+00
         21   -1    0    0  502  501  0.00000000000E+00  0.00000000000E+00  0.18216328383E+03  0.18216328383E+03  0.00000000000E+00 0. -1.
         21   -1    0    0  501  502 -0.00000000000E+00 -0.00000000000E+00 -0.13584995193E+03  0.13584995193E+03  0.00000000000E+00 0. -1.
         25    1    1    2    0    0 -0.88528215323E+01 -0.23306367692E+02 -0.70034022450E+02  0.14543494602E+03  0.12500000000E+03 0.  0.
         25    1    1    2    0    0  0.88528215323E+01  0.23306367692E+02  0.11634735435E+03  0.17257828974E+03  0.12500000000E+03 0.  0.
</event>
<event>
 4    0  0.2210826E-002  0.3763800E+03  0.7546771E-02  0.1052280E+00
         21   -1    0    0  502  501  0.00000000000E+00  0.00000000000E+00  0.33819224779E+03  0.33819224779E+03  0.00000000000E+00 0.  1.
         21   -1    0    0  501  502 -0.00000000000E+00 -0.00000000000E+00 -0.41887975701E+03  0.41887975701E+03  0.00000000000E+00 0.  1.
         25    1    1    2    0    0  0.24482510480E+03 -0.66113755921E+02  0.20952767302E+03  0.35190510997E+03  0.12500000000E+03 0.  0.
         25    1    1    2    0    0 -0.24482510480E+03  0.66113755921E+02 -0.29021518224E+03  0.40516689483E+03  0.12500000000E+03 0.  0.
</event>
<event>
 4    0  0.2210826E-002  0.3212996E+03  0.7546771E-02  0.1075053E+00
         21   -1    0    0  502  501  0.00000000000E+00  0.00000000000E+00  0.14420219212E+04  0.14420219212E+04  0.00000000000E+00 0. -1.
         21   -1    0    0  501  502 -0.00000000000E+00 -0.00000000000E+00 -0.71589383033E+02  0.71589383033E+02  0.00000000000E+00 0. -1.
         25    1    1    2    0    0 -0.78866617437E+02  0.70064795087E+02  0.33818183660E+02  0.16702601116E+03  0.12500000000E+03 0.  0.
         25    1    1    2    0    0  0.78866617437E+02 -0.70064795087E+02  0.13366143545E+04  0.13465852931E+04  0.12500000000E+03 0.  0.
</event>
<event>
 4    0  0.2210826E-002  0.2347324E+03  0.7546771E-02  0.1123353E+00
         21   -1    0    0  502  501  0.00000000000E+00  0.00000000000E+00  0.10033731584E+03  0.10033731584E+03  0.00000000000E+00 0.  1.
         21   -1    0    0  501  502 -0.00000000000E+00 -0.00000000000E+00 -0.54914066125E+03  0.54914066125E+03  0.00000000000E+00 0.  1.
         25    1    1    2    0    0  0.38526829148E+02  0.15458627750E+03 -0.38863607687E+03  0.43822851801E+03  0.12500000000E+03 0.  0.
         25    1    1    2    0    0 -0.38526829148E+02 -0.15458627750E+03 -0.60167268545E+02  0.21124945907E+03  0.12500000000E+03 0.  0.
</event>
<event>
 4    0  0.2210826E-002  0.3609334E+03  0.7546771E-02  0.1058215E+00
         21   -1    0    0  502  501  0.00000000000E+00  0.00000000000E+00  0.63877056724E+03  0.63877056724E+03  0.00000000000E+00 0. -1.
         21   -1    0    0  501  502 -0.00000000000E+00 -0.00000000000E+00 -0.20394316127E+03  0.20394316127E+03  0.00000000000E+00 0. -1.
         25    1    1    2    0    0  0.33357629564E+03  0.17610159478E+02  0.28204037587E+03  0.45470323988E+03  0.12500000000E+03 0.  0.
         25    1    1    2    0    0 -0.33357629564E+03 -0.17610159478E+02  0.15278703009E+03  0.38801048864E+03  0.12500000000E+03 0.  0.
</event>
<event>
 4    0  0.2210826E-002  0.2156261E+03  0.7546771E-02  0.1137187E+00
         21   -1    0    0  502  501  0.00000000000E+00  0.00000000000E+00  0.99913795370E+02  0.99913795370E+02  0.00000000000E+00 0.  1.
         21   -1    0    0  501  502 -0.00000000000E+00 -0.00000000000E+00 -0.46534741713E+03  0.46534741713E+03  0.00000000000E+00 0.  1.
         25    1    1    2    0    0  0.24469197850E+01  0.15921056266E+03 -0.28006224897E+03  0.34556309696E+03  0.12500000000E+03 0.  0.
         25    1    1    2    0    0 -0.24469197850E+01 -0.15921056266E+03 -0.85371372782E+02  0.21969811554E+03  0.12500000000E+03 0.  0.
</event>
<event>
 4    0  0.2210826E-002  0.2402177E+03  0.7546771E-02  0.1119648E+00
         21   -1    0    0  502  501  0.00000000000E+00  0.00000000000E+00  0.30121559012E+03  0.30121559012E+03  0.00000000000E+00 0. -1.
         21   -1    0    0  501  502 -0.00000000000E+00 -0.00000000000E+00 -0.19157230357E+03  0.19157230357E+03  0.00000000000E+00 0. -1.
         25    1    1    2    0    0  0.14450265088E+03  0.62892566759E+02 -0.79867406532E+02  0.21642618532E+03  0.12500000000E+03 0.  0.
         25    1    1    2    0    0 -0.14450265088E+03 -0.62892566759E+02  0.18951069308E+03  0.27636170838E+03  0.12500000000E+03 0.  0.
</event>
<event>
 4    0  0.2210826E-002  0.1797437E+03  0.7546771E-02  0.1168051E+00
         21   -1    0    0  502  501  0.00000000000E+00  0.00000000000E+00  0.90855187223E+02  0.90855187223E+02  0.00000000000E+00 0.  1.
         21   -1    0    0  501  502 -0.00000000000E+00 -0.00000000000E+00 -0.35559646254E+03  0.35559646254E+03  0.00000000000E+00 0.  1.
         25    1    1    2    0    0  0.37318454927E+02  0.12328583243E+03 -0.14419945922E+03  0.23024019543E+03  0.12500000000E+03 0.  0.
         25    1    1    2    0    0 -0.37318454927E+02 -0.12328583243E+03 -0.12054181611E+03  0.21621145433E+03  0.12500000000E+03 0.  0.
</event>
<event>
 4    0  0.2210826E-002  0.4444775E+03  0.7546771E-02  0.1029382E+00
         21   -1    0    0  502  501  0.00000000000E+00  0.00000000000E+00  0.76810014534E+03  0.76810014534E+03  0.00000000000E+00 0. -1.
         21   -1    0    0  501  502 -0.00000000000E+00 -0.00000000000E+00 -0.25720634308E+03  0.25720634308E+03  0.00000000000E+00 0. -1.
         25    1    1    2    0    0  0.10987168603E+03  0.60241623332E+02  0.72570294366E+03  0.74697429876E+03  0.12500000000E+03 0.  0.
         25    1    1    2    0    0 -0.10987168603E+03 -0.60241623332E+02 -0.21480914139E+03  0.27833218966E+03  0.12500000000E+03 0.  0.
</event>
<event>
 4    0  0.2210826E-002  0.2199982E+03  0.7546771E-02  0.1133884E+00
         21   -1    0    0  502  501  0.00000000000E+00  0.00000000000E+00  0.56590785708E+03  0.56590785708E+03  0.00000000000E+00 0.  1.
         21   -1    0    0  501  502 -0.00000000000E+00 -0.00000000000E+00 -0.85524903678E+02  0.85524903678E+02  0.00000000000E+00 0.  1.
         25    1    1    2    0    0  0.74056045597E+02  0.10056326353E+02 -0.39352681873E+01  0.14569115939E+03  0.12500000000E+03 0.  0.
         25    1    1    2    0    0 -0.74056045597E+02 -0.10056326353E+02  0.48431822159E+03  0.50574160137E+03  0.12500000000E+03 0.  0.
</event>
<event>
 4    0  0.2210826E-002  0.2474739E+03  0.7546771E-02  0.1114912E+00
         21   -1    0    0  502  501  0.00000000000E+00  0.00000000000E+00  0.98635409511E+03  0.98635409511E+03  0.00000000000E+00 0. -1.
         21   -1    0    0  501  502 -0.00000000000E+00 -0.00000000000E+00 -0.62090599473E+02  0.62090599473E+02  0.00000000000E+00 0. -1.
         25    1    1    2    0    0  0.40260134881E+02  0.17674986335E+03  0.70138572686E+03  0.73513830705E+03  0.12500000000E+03 0.  0.
         25    1    1    2    0    0 -0.40260134881E+02 -0.17674986335E+03  0.22287776878E+03  0.31330638753E+03  0.12500000000E+03 0.  0.
</event>
<event>
 4    0  0.2210826E-002  0.1953859E+03  0.7546771E-02  0.1153691E+00
         21   -1    0    0  502  501  0.00000000000E+00  0.00000000000E+00  0.18573215440E+03  0.18573215440E+03  0.00000000000E+00 0.  1.
         21   -1    0    0  501  502 -0.00000000000E+00 -0.00000000000E+00 -0.20554150733E+03  0.20554150733E+03  0.00000000000E+00 0.  1.
         25    1    1    2    0    0 -0.13138604812E+03 -0.72415351531E+02 -0.32335242827E+01  0.19529908463E+03  0.12500000000E+03 0.  0.
         25    1    1    2    0    0  0.13138604812E+03  0.72415351531E+02 -0.16575828651E+02  0.19597457711E+03  0.12500000000E+03 0.  0.
</event>
<event>
 4    0  0.2210826E-002  0.4120529E+03  0.7546771E-02  0.1039684E+00
         21   -1    0    0  502  501  0.00000000000E+00  0.00000000000E+00  0.92819050132E+03  0.92819050132E+03  0.00000000000E+00 0. -1.
         21   -1    0    0  501  502 -0.00000000000E+00 -0.00000000000E+00 -0.18292325155E+03  0.18292325155E+03  0.00000000000E+00 0. -1.
         25    1    1    2    0    0 -0.34181570091E+03  0.49687650773E+01  0.63302686712E+03  0.73021276112E+03  0.12500000000E+03 0.  0.
         25    1    1    2    0    0  0.34181570091E+03 -0.49687650773E+01  0.11224038266E+03  0.38090099175E+03  0.12500000000E+03 0.  0.
</event>
<event>
 4    0  0.2210826E-002  0.3213518E+03  0.7546771E-02  0.1075029E+00
         21   -1    0    0  502  501  0.00000000000E+00  0.00000000000E+00  0.57630755356E+03  0.57630755356E+03  0.00000000000E+00 0.  1.
         21   -1    0    0  501  502 -0.00000000000E+00 -0.00000000000E+00 -0.17918731776E+03  0.17918731776E+03  0.00000000000E+00 0.  1.
         25    1    1    2    0    0  0.10446655507E+03 -0.15151314189E+03  0.47114445346E+03  0.52102935553E+03  0.12500000000E+03 0.  0.
         25    1    1    2    0    0 -0.10446655507E+03  0.15151314189E+03 -0.74024217658E+02  0.23446551579E+03  0.12500000000E+03 0.  0.
</event>
<event>
 4    0  0.2210826E-002  0.4717116E+03  0.7546771E-02  0.1021438E+00
         21   -1    0    0  502  501  0.00000000000E+00  0.00000000000E+00  0.45662665940E+03  0.45662665940E+03  0.00000000000E+00 0.  1.
         21   -1    0    0  501  502 -0.00000000000E+00 -0.00000000000E+00 -0.48729490839E+03  0.48729490839E+03  0.00000000000E+00 0. -1.
         25    1    1    2    0    0 -0.11433052874E+03 -0.34936366120E+03 -0.28335695954E+03  0.48066891317E+03  0.12500000000E+03 0.  0.
         25    1    1    2    0    0  0.11433052874E+03  0.34936366120E+03  0.25268871055E+03  0.46325265461E+03  0.12500000000E+03 0.  0.
</event>
<event>
 4    0  0.2210826E-002  0.2180511E+03  0.7546771E-02  0.1135344E+00
         21   -1    0    0  502  501  0.00000000000E+00  0.00000000000E+00  0.43493470391E+02  0.43493470391E+02  0.00000000000E+00 0. -1.
         21   -1    0    0  501  502 -0.00000000000E+00 -0.00000000000E+00 -0.10931817004E+04  0.10931817004E+04  0.00000000000E+00 0. -1.
         25    1    1    2    0    0 -0.15865739940E+03  0.62881971347E+02 -0.38704848603E+03  0.44108711526E+03  0.12500000000E+03 0.  0.
         25    1    1    2    0    0  0.15865739940E+03 -0.62881971347E+02 -0.66263974394E+03  0.69558805550E+03  0.12500000000E+03 0.  0.
</event>
<event>
 4    0  0.2210826E-002  0.3596280E+03  0.7546771E-02  0.1058731E+00
         21   -1    0    0  502  501  0.00000000000E+00  0.00000000000E+00  0.18191846650E+03  0.18191846650E+03  0.00000000000E+00 0.  1.
         21   -1    0    0  501  502 -0.00000000000E+00 -0.00000000000E+00 -0.71093542597E+03  0.71093542597E+03  0.00000000000E+00 0.  1.
         25    1    1    2    0    0  0.76296945613E+02 -0.62713664121E+02 -0.66474393449E+03  0.68356691407E+03  0.12500000000E+03 0.  0.
         25    1    1    2    0    0 -0.76296945613E+02  0.62713664121E+02  0.13572697503E+03  0.20928697840E+03  0.12500000000E+03 0.  0.
</event>
<event>
 4    0  0.2210826E-002  0.2487682E+03  0.7546771E-02  0.1114086E+00
         21   -1    0    0  502  501  0.00000000000E+00  0.00000000000E+00  0.40069239192E+03  0.40069239192E+03  0.00000000000E+00 0.  1.
         21   -1    0    0  501  502 -0.00000000000E+00 -0.00000000000E+00 -0.15444675854E+03  0.15444675854E+03  0.00000000000E+00 0.  1.
         25    1    1    2    0    0 -0.53308537502E+02 -0.97118268075E+02  0.32882200665E+03  0.36881251365E+03  0.12500000000E+03 0.  0.
         25    1    1    2    0    0  0.53308537502E+02  0.97118268075E+02 -0.82576373276E+02  0.18632663682E+03  0.12500000000E+03 0.  0.
</event>
<event>
 4    0  0.2210826E-002  0.2563745E+03  0.7546771E-02  0.1109341E+00
         21   -1    0    0  502  501  0.00000000000E+00  0.00000000000E+00  0.97205870201E+02  0.97205870201E+02  0.00000000000E+00 0. -1.
         21   -1    0    0  501  502 -0.00000000000E+00 -0.00000000000E+00 -0.67617179143E+03  0.67617179143E+03  0.00000000000E+00 0. -1.
         25    1    1    2    0    0  0.18398184357E+03  0.10113004956E+03 -0.17239537485E+03  0.29903473202E+03  0.12500000000E+03 0.  0.
         25    1    1    2    0    0 -0.18398184357E+03 -0.10113004956E+03 -0.40657054637E+03  0.47434292960E+03  0.12500000000E+03 0.  0.
</event>
<event>
 4    0  0.2210826E-002  0.1985029E+03  0.7546771E-02  0.1151008E+00
         21   -1    0    0  502  501  0.00000000000E+00  0.00000000000E+00  0.26075515094E+02  0.26075515094E+02  0.00000000000E+00 0.  1.
         21   -1    0    0  501  502 -0.00000000000E+00 -0.00000000000E+00 -0.15111258971E+04  0.15111258971E+04  0.00000000000E+00 0.  1.
         25    1    1    2    0    0  0.70105218674E+02 -0.89298980371E+02 -0.33847555747E+03  0.37825884337E+03  0.12500000000E+03 0.  0.
         25    1    1    2    0    0 -0.70105218674E+02  0.89298980371E+02 -0.11465748245E+04  0.11589425688E+04  0.12500000000E+03 0.  0.
</event>
<event>
 4    0  0.2210826E-002  0.1847727E+03  0.7546771E-02  0.1163262E+00
         21   -1    0    0  502  501  0.00000000000E+00  0.00000000000E+00  0.38266174413E+03  0.38266174413E+03  0.00000000000E+00 0. -1.
         21   -1    0    0  501  502 -0.00000000000E+00 -0.00000000000E+00 -0.89219685854E+02  0.89219685854E+02  0.00000000000E+00 0. -1.
         25    1    1    2    0    0 -0.10556769817E+03  0.78883290255E+01  0.37551905009E+02  0.16805329572E+03  0.12500000000E+03 0.  0.
         25    1    1    2    0    0  0.10556769817E+03 -0.78883290255E+01  0.25589015327E+03  0.30382813426E+03  0.12500000000E+03 0.  0.
</event>
<event>
 4    0  0.2210826E-002  0.1792512E+03  0.7546771E-02  0.1168530E+00
         21   -1    0    0  502  501  0.00000000000E+00  0.00000000000E+00  0.16792173101E+03  0.16792173101E+03  0.00000000000E+00 0. -1.
         21   -1    0    0  501  502 -0.00000000000E+00 -0.00000000000E+00 -0.19134515500E+03  0.19134515500E+03  0.00000000000E+00 0.  1.
         25    1    1    2    0    0  0.10810306255E+03 -0.43033037045E+02  0.42882838088E+02  0.17607399641E+03  0.12500000000E+03 0.  0.
         25    1    1    2    0    0 -0.10810306255E+03  0.43033037045E+02 -0.66306262081E+02  0.18319288960E+03  0.12500000000E+03 0.  0.
</event>
<event>
 4    0  0.2210826E-002  0.2036143E+03  0.7546771E-02  0.1146725E+00
         21   -1    0    0  502  501  0.00000000000E+00  0.00000000000E+00  0.22112985406E+03  0.22112985406E+03  0.00000000000E+00 0.  1.
         21   -1    0    0  501  502 -0.00000000000E+00 -0.00000000000E+00 -0.18748614592E+03  0.18748614592E+03  0.00000000000E+00 0.  1.
         25    1    1    2    0    0 -0.11605934908E+03  0.14140460385E+02  0.12748839874E+03  0.21341981385E+03  0.12500000000E+03 0.  0.
         25    1    1    2    0    0  0.11605934908E+03 -0.14140460385E+02 -0.93844690599E+02  0.19519618614E+03  0.12500000000E+03 0.  0.
</event>
<event>
 4    0  0.2210826E-002  0.1957539E+03  0.7546771E-02  0.1153372E+00
         21   -1    0    0  502  501  0.00000000000E+00  0.00000000000E+00  0.69422164031E+02  0.69422164031E+02  0.00000000000E+00 0.  1.
         21   -1    0    0  501  502 -0.00000000000E+00 -0.00000000000E+00 -0.55197928620E+03  0.55197928620E+03  0.00000000000E+00 0.  1.
         25    1    1    2    0    0  0.40875196057E+02 -0.11289613479E+03 -0.96867055138E+02  0.19855615144E+03  0.12500000000E+03 0.  0.
         25    1    1    2    0    0 -0.40875196057E+02  0.11289613479E+03 -0.38569006703E+03  0.42284529879E+03  0.12500000000E+03 0.  0.
</event>
<event>
 4    0  0.2210826E-002  0.2821610E+03  0.7546771E-02  0.1094514E+00
         21   -1    0    0  502  501  0.00000000000E+00  0.00000000000E+00  0.21550733326E+03  0.21550733326E+03  0.00000000000E+00 0. -1.
         21   -1    0    0  501  502 -0.00000000000E+00 -0.00000000000E+00 -0.36942980830E+03  0.36942980830E+03  0.00000000000E+00 0. -1.
         25    1    1    2    0    0  0.26688528436E+02  0.20853285951E+03 -0.22278311349E+03  0.33084066663E+03  0.12500000000E+03 0.  0.
         25    1    1    2    0    0 -0.26688528436E+02 -0.20853285951E+03  0.68860638452E+02  0.25409647493E+03  0.12500000000E+03 0.  0.
</event>
<event>
 4    0  0.2210826E-002  0.1501260E+03  0.7546771E-02  0.1200318E+00
         21   -1    0    0  502  501  0.00000000000E+00  0.00000000000E+00  0.53791808942E+02  0.53791808942E+02  0.00000000000E+00 0. -1.
         21   -1    0    0  501  502 -0.00000000000E+00 -0.00000000000E+00 -0.41898239462E+03  0.41898239462E+03  0.00000000000E+00 0. -1.
         25    1    1    2    0    0  0.39479887085E+02  0.19777938936E+02 -0.71667690343E+02  0.15070197806E+03  0.12500000000E+03 0.  0.
         25    1    1    2    0    0 -0.39479887085E+02 -0.19777938936E+02 -0.29352289534E+03  0.32207222550E+03  0.12500000000E+03 0.  0.
</event>
<event>
 4    0  0.2210826E-002  0.2664615E+03  0.7546771E-02  0.1103322E+00
         21   -1    0    0  502  501  0.00000000000E+00  0.00000000000E+00  0.15283674653E+03  0.15283674653E+03  0.00000000000E+00 0.  1.
         21   -1    0    0  501  502 -0.00000000000E+00 -0.00000000000E+00 -0.46455917202E+03  0.46455917202E+03  0.00000000000E+00 0.  1.
         25    1    1    2    0    0 -0.93496663282E+02 -0.20163556387E+03 -0.66286783481E+02  0.26347194220E+03  0.12500000000E+03 0.  0.
         25    1    1    2    0    0  0.93496663282E+02  0.20163556387E+03 -0.24543564201E+03  0.35392397634E+03  0.12500000000E+03 0.  0.
</event>
<event>
 4    0  0.2210826E-002  0.2045797E+03  0.7546771E-02  0.1145932E+00
         21   -1    0    0  502  501  0.00000000000E+00  0.00000000000E+00  0.19886773179E+02  0.19886773179E+02  0.00000000000E+00 0.  1.
         21   -1    0    0  501  502 -0.00000000000E+00 -0.00000000000E+00 -0.21045575565E+04  0.21045575565E+04  0.00000000000E+00 0.  1.
         25    1    1    2    0    0  0.13094618986E+03  0.30558881389E+02 -0.15109917959E+04  0.15221044501E+04  0.12500000000E+03 0.  0.
         25    1    1    2    0    0 -0.13094618986E+03 -0.30558881389E+02 -0.57367898745E+03  0.60233987956E+03  0.12500000000E+03 0.  0.
</event>
<event>
 4    0  0.2210826E-002  0.1997516E+03  0.7546771E-02  0.1149949E+00
         21   -1    0    0  502  501  0.00000000000E+00  0.00000000000E+00  0.23424332817E+03  0.23424332817E+03  0.00000000000E+00 0.  1.
         21   -1    0    0  501  502 -0.00000000000E+00 -0.00000000000E+00 -0.17033876079E+03  0.17033876079E+03  0.00000000000E+00 0.  1.
         25    1    1    2    0    0  0.93951149325E+02 -0.89353637790E+02  0.11944989149E+03  0.21611147036E+03  0.12500000000E+03 0.  0.
         25    1    1    2    0    0 -0.93951149325E+02  0.89353637790E+02 -0.55545324106E+02  0.18847061860E+03  0.12500000000E+03 0.  0.
</event>
<event>
 4    0  0.2210826E-002  0.3851569E+03  0.7546771E-02  0.1049044E+00
         21   -1    0    0  502  501  0.00000000000E+00  0.00000000000E+00  0.11449112233E+04  0.11449112233E+04  0.00000000000E+00 0.  1.
         21   -1    0    0  501  502 -0.00000000000E+00 -0.00000000000E+00 -0.12956973944E+03  0.12956973944E+03  0.00000000000E+00 0.  1.
         25    1    1    2    0    0 -0.14626220465E+03 -0.23624473733E+03  0.11783895681E+03  0.32667296822E+03  0.12500000000E+03 0.  0.
         25    1    1    2    0    0  0.14626220465E+03  0.23624473733E+03  0.89750252705E+03  0.94780799452E+03  0.12500000000E+03 0.  0.
</event>
<event>
 4    0  0.2210826E-002  0.2634357E+03  0.7546771E-02  0.1105096E+00
         21   -1    0    0  502  501  0.00000000000E+00  0.00000000000E+00  0.73635922855E+02  0.73635922855E+02  0.00000000000E+00 0.  1.
         21   -1    0    0  501  502 -0.00000000000E+00 -0.00000000000E+00 -0.94245259394E+03  0.94245259394E+03  0.00000000000E+00 0.  1.
         25    1    1    2    0    0  0.78223709599E+02  0.51935559269E+02 -0.25499831582E+02  0.15840294338E+03  0.12500000000E+03 0.  0.
         25    1    1    2    0    0 -0.78223709599E+02 -0.51935559269E+02 -0.84331683950E+03  0.85768557342E+03  0.12500000000E+03 0.  0.
</event>
<event>
 4    0  0.2210826E-002  0.2409123E+03  0.7546771E-02  0.1119187E+00
         21   -1    0    0  502  501  0.00000000000E+00  0.00000000000E+00  0.45406264658E+02  0.45406264658E+02  0.00000000000E+00 0.  1.
         21   -1    0    0  501  502 -0.00000000000E+00 -0.00000000000E+00 -0.12782095367E+04  0.12782095367E+04  0.00000000000E+00 0.  1.
         25    1    1    2    0    0  0.12859583461E+03 -0.86536025191E+02 -0.98891717353E+03  0.10087653585E+04  0.12500000000E+03 0.  0.
         25    1    1    2    0    0 -0.12859583461E+03  0.86536025191E+02 -0.24388609846E+03  0.31485044284E+03  0.12500000000E+03 0.  0.
</event>
<event>
 4    0  0.2210826E-002  0.2398577E+03  0.7546771E-02  0.1119888E+00
         21   -1    0    0  502  501  0.00000000000E+00  0.00000000000E+00  0.50940815371E+02  0.50940815371E+02  0.00000000000E+00 0. -1.
         21   -1    0    0  501  502 -0.00000000000E+00 -0.00000000000E+00 -0.11293834798E+04  0.11293834798E+04  0.00000000000E+00 0. -1.
         25    1    1    2    0    0 -0.32517460197E+02 -0.19003234195E+03 -0.36987680140E+03  0.43543486817E+03  0.12500000000E+03 0.  0.
         25    1    1    2    0    0  0.32517460197E+02  0.19003234195E+03 -0.70856586299E+03  0.74488942696E+03  0.12500000000E+03 0.  0.
</event>
<event>
 4    0  0.2210826E-002  0.2264731E+03  0.7546771E-02  0.1129147E+00
         21   -1    0    0  502  501  0.00000000000E+00  0.00000000000E+00  0.11124527506E+04  0.11124527506E+04  0.00000000000E+00 0.  1.
         21   -1    0    0  501  502 -0.00000000000E+00 -0.00000000000E+00 -0.46105373204E+02  0.46105373204E+02  0.00000000000E+00 0.  1.
         25    1    1    2    0    0 -0.86186256301E+02  0.16727031847E+03  0.49211923872E+03  0.54149217477E+03  0.12500000000E+03 0.  0.
         25    1    1    2    0    0  0.86186256301E+02 -0.16727031847E+03  0.57422813871E+03  0.61706594907E+03  0.12500000000E+03 0.  0.
</event>
<event>
 4    0  0.2210826E-002  0.2164126E+03  0.7546771E-02  0.1136586E+00
         21   -1    0    0  502  501  0.00000000000E+00  0.00000000000E+00  0.79445706008E+03  0.79445706008E+03  0.00000000000E+00 0.  1.
         21   -1    0    0  501  502 -0.00000000000E+00 -0.00000000000E+00 -0.58951478408E+02  0.58951478408E+02  0.00000000000E+00 0.  1.
         25    1    1    2    0    0  0.27377403356E+02 -0.16065122165E+02  0.71041080473E+03  0.72202224470E+03  0.12500000000E+03 0.  0.
         25    1    1    2    0    0 -0.27377403356E+02  0.16065122165E+02  0.25094776938E+02  0.13138629378E+03  0.12500000000E+03 0.  0.
</event>
<event>
 4    0  0.2210826E-002  0.2518231E+03  0.7546771E-02  0.1112158E+00
         21   -1    0    0  502  501  0.00000000000E+00  0.00000000000E+00  0.28715541721E+03  0.28715541721E+03  0.00000000000E+00 0.  1.
         21   -1    0    0  501  502 -0.00000000000E+00 -0.00000000000E+00 -0.22083813189E+03  0.22083813189E+03  0.00000000000E+00 0. -1.
         25    1    1    2    0    0 -0.21117078851E+03 -0.55590684637E+02  0.43564661457E+02  0.25535525424E+03  0.12500000000E+03 0.  0.
         25    1    1    2    0    0  0.21117078851E+03  0.55590684637E+02  0.22752623859E+02  0.25263829486E+03  0.12500000000E+03 0.  0.
</event>
<event>
 4    0  0.2210826E-002  0.1758773E+03  0.7546771E-02  0.1171854E+00
         21   -1    0    0  502  501  0.00000000000E+00  0.00000000000E+00  0.63615443923E+02  0.63615443923E+02  0.00000000000E+00 0.  1.
         21   -1    0    0  501  502 -0.00000000000E+00 -0.00000000000E+00 -0.48624698598E+03  0.48624698598E+03  0.00000000000E+00 0.  1.
         25    1    1    2    0    0  0.69609526353E+02 -0.73123620292E+02 -0.32311749476E+03  0.36086349971E+03  0.12500000000E+03 0.  0.
         25    1    1    2    0    0 -0.69609526353E+02  0.73123620292E+02 -0.99514047295E+02  0.18899893019E+03  0.12500000000E+03 0.  0.
</event>
<event>
 4    0  0.2210826E-002  0.2040107E+03  0.7546771E-02  0.1146399E+00
         21   -1    0    0  502  501  0.00000000000E+00  0.00000000000E+00  0.38233018993E+03  0.38233018993E+03  0.00000000000E+00 0.  1.
         21   -1    0    0  501  502 -0.00000000000E+00 -0.00000000000E+00 -0.10885974575E+03  0.10885974575E+03  0.00000000000E+00 0.  1.
         25    1    1    2    0    0 -0.14647562716E+03  0.62058553011E+02  0.10513615922E+03  0.22800216080E+03  0.12500000000E+03 0.  0.
         25    1    1    2    0    0  0.14647562716E+03 -0.62058553011E+02  0.16833428495E+03  0.26318777488E+03  0.12500000000E+03 0.  0.
</event>
<event>
 4    0  0.2210826E-002  0.2929207E+03  0.7546771E-02  0.1088834E+00
         21   -1    0    0  502  501  0.00000000000E+00  0.00000000000E+00  0.96291616707E+03  0.96291616707E+03  0.00000000000E+00 0.  1.
         21   -1    0    0  501  502 -0.00000000000E+00 -0.00000000000E+00 -0.89106943428E+02  0.89106943428E+02  0.00000000000E+00 0.  1.
         25    1    1    2    0    0  0.27281133460E+02  0.62670242687E+02  0.89650967853E+03  0.90775901167E+03  0.12500000000E+03 0.  0.
         25    1    1    2    0    0 -0.27281133460E+02 -0.62670242687E+02 -0.22700454884E+02  0.14426409884E+03  0.12500000000E+03 0.  0.
</event>
<event>
 4    0  0.2210826E-002  0.2351664E+03  0.7546771E-02  0.1123055E+00
         21   -1    0    0  502  501  0.00000000000E+00  0.00000000000E+00  0.12885009974E+04  0.12885009974E+04  0.00000000000E+00 0.  1.
         21   -1    0    0  501  502 -0.00000000000E+00 -0.00000000000E+00 -0.42920585209E+02  0.42920585209E+02  0.00000000000E+00 0.  1.
         25    1    1    2    0    0  0.16163248365E+03 -0.11639630716E+03  0.62915591165E+03  0.67166607868E+03  0.12500000000E+03 0.  0.
         25    1    1    2    0    0 -0.16163248365E+03  0.11639630716E+03  0.61642450053E+03  0.65975550391E+03  0.12500000000E+03 0.  0.
</event>
<event>
 4    0  0.2210826E-002  0.2448875E+03  0.7546771E-02  0.1116579E+00
         21   -1    0    0  502  501  0.00000000000E+00  0.00000000000E+00  0.71694883568E+02  0.71694883568E+02  0.00000000000E+00 0. -1.
         21   -1    0    0  501  502 -0.00000000000E+00 -0.00000000000E+00 -0.83645994509E+03  0.83645994509E+03  0.00000000000E+00 0. -1.
         25    1    1    2    0    0  0.91331015710E+02 -0.14171910586E+03 -0.14843180570E+03  0.25706547870E+03  0.12500000000E+03 0.  0.
         25    1    1    2    0    0 -0.91331015710E+02  0.14171910586E+03 -0.61633325582E+03  0.65108934996E+03  0.12500000000E+03 0.  0.
</event>
<event>
 4    0  0.2210826E-002  0.2662372E+03  0.7546771E-02  0.1103453E+00
         21   -1    0    0  502  501  0.00000000000E+00  0.00000000000E+00  0.29055547437E+03  0.29055547437E+03  0.00000000000E+00 0. -1.
         21   -1    0    0  501  502 -0.00000000000E+00 -0.00000000000E+00 -0.24395428591E+03  0.24395428591E+03  0.00000000000E+00 0. -1.
         25    1    1    2    0    0  0.53757846394E+02 -0.12104429483E+03  0.21824803874E+03  0.28425135668E+03  0.12500000000E+03 0.  0.
         25    1    1    2    0    0 -0.53757846394E+02  0.12104429483E+03 -0.17164685028E+03  0.25025840360E+03  0.12500000000E+03 0.  0.
</event>
<event>
 4    0  0.2210826E-002  0.1508277E+03  0.7546771E-02  0.1199460E+00
         21   -1    0    0  502  501  0.00000000000E+00  0.00000000000E+00  0.87627274466E+03  0.87627274466E+03  0.00000000000E+00 0.  1.
         21   -1    0    0  501  502 -0.00000000000E+00 -0.00000000000E+00 -0.25961086804E+02  0.25961086804E+02  0.00000000000E+00 0.  1.
         25    1    1    2    0    0 -0.63340311372E+02  0.38338229523E+02  0.30395150109E+03  0.33688771112E+03  0.12500000000E+03 0.  0.
         25    1    1    2    0    0  0.63340311372E+02 -0.38338229523E+02  0.54636015677E+03  0.56534612035E+03  0.12500000000E+03 0.  0.
</event>
<event>
 4    0  0.2210826E-002  0.2935652E+03  0.7546771E-02  0.1088502E+00
         21   -1    0    0  502  501  0.00000000000E+00  0.00000000000E+00  0.39227757688E+03  0.39227757688E+03  0.00000000000E+00 0. -1.
         21   -1    0    0  501  502 -0.00000000000E+00 -0.00000000000E+00 -0.21969264450E+03  0.21969264450E+03  0.00000000000E+00 0. -1.
         25    1    1    2    0    0 -0.50876356185E+02  0.84649062965E+02  0.34330447001E+03  0.37846641411E+03  0.12500000000E+03 0.  0.
         25    1    1    2    0    0  0.50876356185E+02 -0.84649062965E+02 -0.17071953763E+03  0.23350380727E+03  0.12500000000E+03 0.  0.
</event>
<event>
 4    0  0.2210826E-002  0.2170411E+03  0.7546771E-02  0.1136108E+00
         21   -1    0    0  502  501  0.00000000000E+00  0.00000000000E+00  0.15303945069E+03  0.15303945069E+03  0.00000000000E+00 0.  1.
         21   -1    0    0  501  502 -0.00000000000E+00 -0.00000000000E+00 -0.30780858588E+03  0.30780858588E+03  0.00000000000E+00 0.  1.
         25    1    1    2    0    0  0.86575628309E+02 -0.98775421888E+02  0.49260160938E+02  0.18789222134E+03  0.12500000000E+03 0.  0.
         25    1    1    2    0    0 -0.86575628309E+02  0.98775421888E+02 -0.20402929613E+03  0.27295581523E+03  0.12500000000E+03 0.  0.
</event>
<event>
 4    0  0.2210826E-002  0.2672782E+03  0.7546771E-02  0.1102848E+00
         21   -1    0    0  502  501  0.00000000000E+00  0.00000000000E+00  0.10576520927E+03  0.10576520927E+03  0.00000000000E+00 0.  1.
         21   -1    0    0  501  502 -0.00000000000E+00 -0.00000000000E+00 -0.67543589984E+03  0.67543589984E+03  0.00000000000E+00 0.  1.
         25    1    1    2    0    0 -0.19925464812E+03  0.50399615959E+02 -0.11459573186E+03  0.26645772244E+03  0.12500000000E+03 0.  0.
         25    1    1    2    0    0  0.19925464812E+03 -0.50399615959E+02 -0.45507495870E+03  0.51474338668E+03  0.12500000000E+03 0.  0.
</event>
<event>
 4    0  0.2210826E-002  0.2165408E+03  0.7546771E-02  0.1136489E+00
         21   -1    0    0  502  501  0.00000000000E+00  0.00000000000E+00  0.41049743890E+03  0.41049743890E+03  0.00000000000E+00 0.  1.
         21   -1    0    0  501  502 -0.00000000000E+00 -0.00000000000E+00 -0.11422703758E+03  0.11422703758E+03  0.00000000000E+00 0.  1.
         25    1    1    2    0    0  0.14616582436E+03  0.75991555708E+02  0.22595904104E+03  0.30630320432E+03  0.12500000000E+03 0.  0.
         25    1    1    2    0    0 -0.14616582436E+03 -0.75991555708E+02  0.70311360286E+02  0.21842127217E+03  0.12500000000E+03 0.  0.
</event>
<event>
 4    0  0.2210826E-002  0.2938666E+03  0.7546771E-02  0.1088347E+00
         21   -1    0    0  502  501  0.00000000000E+00  0.00000000000E+00  0.33374237357E+02  0.33374237357E+02  0.00000000000E+00 0. -1.
         21   -1    0    0  501  502 -0.00000000000E+00 -0.00000000000E+00 -0.25875521513E+04  0.25875521513E+04  0.00000000000E+00 0. -1.
         25    1    1    2    0    0 -0.11577020793E+02 -0.13367282985E+03 -0.23010985020E+04  0.23083937638E+04  0.12500000000E+03 0.  0.
         25    1    1    2    0    0  0.11577020793E+02  0.13367282985E+03 -0.25307941195E+03  0.31253262487E+03  0.12500000000E+03 0.  0.
</event>
<event>
 4    0  0.2210826E-002  0.3970215E+03  0.7546771E-02  0.1044816E+00
         21   -1    0    0  502  501  0.00000000000E+00  0.00000000000E+00  0.92926791753E+03  0.92926791753E+03  0.00000000000E+00 0.  1.
         21   -1    0    0  501  502 -0.00000000000E+00 -0.00000000000E+00 -0.16962392383E+03  0.16962392383E+03  0.00000000000E+00 0.  1.
         25    1    1    2    0    0 -0.16790049232E+03 -0.26559798499E+02 -0.85605427495E+02  0.22770438607E+03  0.12500000000E+03 0.  0.
         25    1    1    2    0    0  0.16790049232E+03  0.26559798499E+02  0.84524942120E+03  0.87118745529E+03  0.12500000000E+03 0.  0.
</event>
<event>
 4    0  0.2210826E-002  0.2557489E+03  0.7546771E-02  0.1109725E+00
         21   -1    0    0  502  501  0.00000000000E+00  0.00000000000E+00  0.12584121948E+03  0.12584121948E+03  0.00000000000E+00 0. -1.
         21   -1    0    0  501  502 -0.00000000000E+00 -0.00000000000E+00 -0.51976207714E+03  0.51976207714E+03  0.00000000000E+00 0. -1.
         25    1    1    2    0    0 -0.14030735360E+03  0.13206874685E+03 -0.54976528840E+02  0.23616885081E+03  0.12500000000E+03 0.  0.
         25    1    1    2    0    0  0.14030735360E+03 -0.13206874685E+03 -0.33894432882E+03  0.40943444580E+03  0.12500000000E+03 0.  0.
</event>
<event>
 4    0  0.2210826E-002  0.1735809E+03  0.7546771E-02  0.1174164E+00
         21   -1    0    0  502  501  0.00000000000E+00  0.00000000000E+00  0.86065626310E+02  0.86065626310E+02  0.00000000000E+00 0.  1.
         21   -1    0    0  501  502 -0.00000000000E+00 -0.00000000000E+00 -0.35008556911E+03  0.35008556911E+03  0.00000000000E+00 0.  1.
         25    1    1    2    0    0  0.64850006841E+02  0.70337494606E+01 -0.48137626384E+01  0.14107859274E+03  0.12500000000E+03 0.  0.
         25    1    1    2    0    0 -0.64850006841E+02 -0.70337494606E+01 -0.25920618016E+03  0.29507260268E+03  0.12500000000E+03 0.  0.
</event>
<event>
 4    0  0.2210826E-002  0.1989061E+03  0.7546771E-02  0.1150665E+00
         21   -1    0    0  502  501  0.00000000000E+00  0.00000000000E+00  0.12951729097E+03  0.12951729097E+03  0.00000000000E+00 0. -1.
         21   -1    0    0  501  502 -0.00000000000E+00 -0.00000000000E+00 -0.30547006994E+03  0.30547006994E+03  0.00000000000E+00 0. -1.
         25    1    1    2    0    0  0.85178497813E+02  0.11111802811E+02 -0.22868674926E+03  0.27441114762E+03  0.12500000000E+03 0.  0.
         25    1    1    2    0    0 -0.85178497813E+02 -0.11111802811E+02  0.52733970286E+02  0.16057621329E+03  0.12500000000E+03 0.  0.
</event>
<event>
 4    0  0.2210826E-002  0.1953333E+03  0.7546771E-02  0.1153737E+00
         21   -1    0    0  502  501  0.00000000000E+00  0.00000000000E+00  0.56772581836E+03  0.56772581836E+03  0.00000000000E+00 0. -1.
         21   -1    0    0  501  502 -0.00000000000E+00 -0.00000000000E+00 -0.67206895620E+02  0.67206895620E+02  0.00000000000E+00 0. -1.
         25    1    1    2    0    0  0.43673002089E+02 -0.11810917831E+03  0.38302378973E+03  0.42212478322E+03  0.12500000000E+03 0.  0.
         25    1    1    2    0    0 -0.43673002089E+02  0.11810917831E+03  0.11749513301E+03  0.21280793076E+03  0.12500000000E+03 0.  0.
</event>
<event>
 4    0  0.2210826E-002  0.2592969E+03  0.7546771E-02  0.1107566E+00
         21   -1    0    0  502  501  0.00000000000E+00  0.00000000000E+00  0.35757091511E+03  0.35757091511E+03  0.00000000000E+00 0.  1.
         21   -1    0    0  501  502 -0.00000000000E+00 -0.00000000000E+00 -0.18803237096E+03  0.18803237096E+03  0.00000000000E+00 0.  1.
         25    1    1    2    0    0  0.50735312139E+02 -0.18941415163E+03  0.20545235711E+03  0.31030221362E+03  0.12500000000E+03 0.  0.
         25    1    1    2    0    0 -0.50735312139E+02  0.18941415163E+03 -0.35913812953E+02  0.23530107245E+03  0.12500000000E+03 0.  0.
</event>
<event>
 4    0  0.2210826E-002  0.1861940E+03  0.7546771E-02  0.1161940E+00
         21   -1    0    0  502  501  0.00000000000E+00  0.00000000000E+00  0.55123627642E+02  0.55123627642E+02  0.00000000000E+00 0.  1.
         21   -1    0    0  501  502 -0.00000000000E+00 -0.00000000000E+00 -0.62891750537E+03  0.62891750537E+03  0.00000000000E+00 0.  1.
         25    1    1    2    0    0  0.10741529593E+03  0.46296925933E+02 -0.15239135892E+03  0.22919331889E+03  0.12500000000E+03 0.  0.
         25    1    1    2    0    0 -0.10741529593E+03 -0.46296925933E+02 -0.42140251881E+03  0.45484781412E+03  0.12500000000E+03 0.  0.
</event>
<event>
 4    0  0.2210826E-002  0.1804928E+03  0.7546771E-02  0.1167327E+00
         21   -1    0    0  502  501  0.00000000000E+00  0.00000000000E+00  0.64475866570E+02  0.64475866570E+02  0.00000000000E+00 0. -1.
         21   -1    0    0  501  502 -0.00000000000E+00 -0.00000000000E+00 -0.50526890221E+03  0.50526890221E+03  0.00000000000E+00 0. -1.
         25    1    1    2    0    0  0.27790318260E+01  0.14833409133E+02 -0.42451023952E+03  0.44278854603E+03  0.12500000000E+03 0.  0.
         25    1    1    2    0    0 -0.27790318260E+01 -0.14833409133E+02 -0.16282796123E+02  0.12695622275E+03  0.12500000000E+03 0.  0.
</event>
<event>
 4    0  0.2210826E-002  0.2222367E+03  0.7546771E-02  0.1132226E+00
         21   -1    0    0  502  501  0.00000000000E+00  0.00000000000E+00  0.49986573726E+02  0.49986573726E+02  0.00000000000E+00 0.  1.
         21   -1    0    0  501  502 -0.00000000000E+00 -0.00000000000E+00 -0.98804824025E+03  0.98804824025E+03  0.00000000000E+00 0.  1.
         25    1    1    2    0    0  0.15766355338E+03  0.87483265381E+02 -0.38636108316E+03  0.44430958168E+03  0.12500000000E+03 0.  0.
         25    1    1    2    0    0 -0.15766355338E+03 -0.87483265381E+02 -0.55170058336E+03  0.59372523230E+03  0.12500000000E+03 0.  0.
</event>
<event>
 4    0  0.2210826E-002  0.3177492E+03  0.7546771E-02  0.1076690E+00
         21   -1    0    0  502  501  0.00000000000E+00  0.00000000000E+00  0.28719130014E+03  0.28719130014E+03  0.00000000000E+00 0.  1.
         21   -1    0    0  501  502 -0.00000000000E+00 -0.00000000000E+00 -0.35155848314E+03  0.35155848314E+03  0.00000000000E+00 0. -1.
         25    1    1    2    0    0 -0.23219183331E+03  0.17699710152E+03 -0.22207263582E+02  0.31836957134E+03  0.12500000000E+03 0.  0.
         25    1    1    2    0    0  0.23219183331E+03 -0.17699710152E+03 -0.42159919417E+02  0.32038021194E+03  0.12500000000E+03 0.  0.
</event>
<event>
 4    0  0.2210826E-002  0.2121458E+03  0.7546771E-02  0.1139878E+00
         21   -1    0    0  502  501  0.00000000000E+00  0.00000000000E+00  0.19117675639E+02  0.19117675639E+02  0.00000000000E+00 0.  1.
         21   -1    0    0  501  502 -0.00000000000E+00 -0.00000000000E+00 -0.23541477049E+04  0.23541477049E+04  0.00000000000E+00 0.  1.
         25    1    1    2    0    0 -0.21093738943E+02  0.90413968142E+02 -0.36156493202E+03  0.39366715830E+03  0.12500000000E+03 0.  0.
         25    1    1    2    0    0  0.21093738943E+02 -0.90413968142E+02 -0.19734650973E+04  0.19795982223E+04  0.12500000000E+03 0.  0.
</event>
<event>
 4    0  0.2210826E-002  0.1510919E+03  0.7546771E-02  0.1199138E+00
         21   -1    0    0  502  501  0.00000000000E+00  0.00000000000E+00  0.43208233879E+03  0.43208233879E+03  0.00000000000E+00 0. -1.
         21   -1    0    0  501  502 -0.00000000000E+00 -0.00000000000E+00 -0.52834296956E+02  0.52834296956E+02  0.00000000000E+00 0. -1.
         25    1    1    2    0    0 -0.78349561227E+02  0.31828604062E+02  0.20120160597E+03  0.25151302158E+03  0.12500000000E+03 0.  0.
         25    1    1    2    0    0  0.78349561227E+02 -0.31828604062E+02  0.17804643587E+03  0.23340361417E+03  0.12500000000E+03 0.  0.
</event>
<event>
 4    0  0.2210826E-002  0.2454084E+03  0.7546771E-02  0.1116241E+00
         21   -1    0    0  502  501  0.00000000000E+00  0.00000000000E+00  0.16494356262E+03  0.16494356262E+03  0.00000000000E+00 0.  1.
         21   -1    0    0  501  502 -0.00000000000E+00 -0.00000000000E+00 -0.36512671492E+03  0.36512671492E+03  0.00000000000E+00 0.  1.
         25    1    1    2    0    0 -0.59398609045E+02  0.16814192713E+03  0.22095624861E+02  0.21889065548E+03  0.12500000000E+03 0.  0.
         25    1    1    2    0    0  0.59398609045E+02 -0.16814192713E+03 -0.22227877716E+03  0.31117962207E+03  0.12500000000E+03 0.  0.
</event>
<event>
 4    0  0.2210826E-002  0.1643456E+03  0.7546771E-02  0.1183876E+00
         21   -1    0    0  502  501  0.00000000000E+00  0.00000000000E+00  0.13809436043E+04  0.13809436043E+04  0.00000000000E+00 0.  1.
         21   -1    0    0  501  502 -0.00000000000E+00 -0.00000000000E+00 -0.19558714257E+02  0.19558714257E+02  0.00000000000E+00 0.  1.
         25    1    1    2    0    0 -0.54573863750E+02  0.90278908794E+02  0.61253312602E+03  0.63399559813E+03  0.12500000000E+03 0.  0.
         25    1    1    2    0    0  0.54573863750E+02 -0.90278908794E+02  0.74885176402E+03  0.76650672042E+03  0.12500000000E+03 0.  0.
</event>
<event>
 4    0  0.2210826E-002  0.1785506E+03  0.7546771E-02  0.1169213E+00
         21   -1    0    0  502  501  0.00000000000E+00  0.00000000000E+00  0.13849314900E+03  0.13849314900E+03  0.00000000000E+00 0. -1.
         21   -1    0    0  501  502 -0.00000000000E+00 -0.00000000000E+00 -0.23019413332E+03  0.23019413332E+03  0.00000000000E+00 0. -1.
         25    1    1    2    0    0  0.80633795487E+02  0.98272239666E+02 -0.55969945172E+02  0.18686058125E+03  0.12500000000E+03 0.  0.
         25    1    1    2    0    0 -0.80633795487E+02 -0.98272239666E+02 -0.35731039150E+02  0.18182670107E+03  0.12500000000E+03 0.  0.
</event>
<event>
 4    0  0.2210826E-002  0.1568850E+03  0.7546771E-02  0.1192259E+00
         21   -1    0    0  502  501  0.00000000000E+00  0.00000000000E+00  0.67818111468E+02  0.67818111468E+02  0.00000000000E+00 0. -1.
         21   -1    0    0  501  502 -0.00000000000E+00 -0.00000000000E+00 -0.36292504463E+03  0.36292504463E+03  0.00000000000E+00 0. -1.
         25    1    1    2    0    0  0.92184451892E+02  0.54547327700E+01 -0.17700197647E+03  0.23554708012E+03  0.12500000000E+03 0.  0.
         25    1    1    2    0    0 -0.92184451892E+02 -0.54547327700E+01 -0.11810495669E+03  0.19519607597E+03  0.12500000000E+03 0.  0.
</event>
<event>
 4    0  0.2210826E-002  0.1773324E+03  0.7546771E-02  0.1170410E+00
         21   -1    0    0  502  501  0.00000000000E+00  0.00000000000E+00  0.82627087146E+02  0.82627087146E+02  0.00000000000E+00 0. -1.
         21   -1    0    0  501  502 -0.00000000000E+00 -0.00000000000E+00 -0.38058687840E+03  0.38058687840E+03  0.00000000000E+00 0. -1.
         25    1    1    2    0    0 -0.16379633819E+02  0.77531532816E+02 -0.21397342701E+02  0.14954021954E+03  0.12500000000E+03 0.  0.
         25    1    1    2    0    0  0.16379633819E+02 -0.77531532816E+02 -0.27656244855E+03  0.31367374601E+03  0.12500000000E+03 0.  0.
</event>
<event>
 4    0  0.2210826E-002  0.2077477E+03  0.7546771E-02  0.1143362E+00
         21   -1    0    0  502  501  0.00000000000E+00  0.00000000000E+00  0.55952632443E+03  0.55952632443E+03  0.00000000000E+00 0. -1.
         21   -1    0    0  501  502 -0.00000000000E+00 -0.00000000000E+00 -0.77135076501E+02  0.77135076501E+02  0.00000000000E+00 0. -1.
         25    1    1    2    0    0 -0.79985137541E+02  0.31441304106E+02  0.45869474231E+03  0.48312735842E+03  0.12500000000E+03 0.  0.
         25    1    1    2    0    0  0.79985137541E+02 -0.31441304106E+02  0.23696505620E+02  0.15353404251E+03  0.12500000000E+03 0.  0.
</event>
<event>
 4    0  0.2210826E-002  0.1802235E+03  0.7546771E-02  0.1167587E+00
         21   -1    0    0  502  501  0.00000000000E+00  0.00000000000E+00  0.60974556114E+02  0.60974556114E+02  0.00000000000E+00 0. -1.
         21   -1    0    0  501  502 -0.00000000000E+00 -0.00000000000E+00 -0.53268938119E+03  0.53268938119E+03  0.00000000000E+00 0. -1.
         25    1    1    2    0    0 -0.69458388382E+02  0.87561698726E+02 -0.12705445694E+03  0.21037907174E+03  0.12500000000E+03 0.  0.
         25    1    1    2    0    0  0.69458388382E+02 -0.87561698726E+02 -0.34466036814E+03  0.38328486556E+03  0.12500000000E+03 0.  0.
</event>
<event>
 4    0  0.2210826E-002  0.1590218E+03  0.7546771E-02  0.1189806E+00
         21   -1    0    0  502  501  0.00000000000E+00  0.00000000000E+00  0.24874294953E+03  0.24874294953E+03  0.00000000000E+00 0.  1.
         21   -1    0    0  501  502 -0.00000000000E+00 -0.00000000000E+00 -0.10166286851E+03  0.10166286851E+03  0.00000000000E+00 0.  1.
         25    1    1    2    0    0 -0.15055029893E+02 -0.58463074276E+02  0.15901186745E+03  0.21107903489E+03  0.12500000000E+03 0.  0.
         25    1    1    2    0    0  0.15055029893E+02  0.58463074276E+02 -0.11931786425E+02  0.13932678316E+03  0.12500000000E+03 0.  0.
</event>
<event>
 4    0  0.2210826E-002  0.4565951E+03  0.7546771E-02  0.1025773E+00
         21   -1    0    0  502  501  0.00000000000E+00  0.00000000000E+00  0.34881627144E+03  0.34881627144E+03  0.00000000000E+00 0.  1.
         21   -1    0    0  501  502 -0.00000000000E+00 -0.00000000000E+00 -0.59767590438E+03  0.59767590438E+03  0.00000000000E+00 0.  1.
         25    1    1    2    0    0 -0.17865359845E+01 -0.26109155935E+03  0.24155057863E+03  0.37701946384E+03  0.12500000000E+03 0.  0.
         25    1    1    2    0    0  0.17865359845E+01  0.26109155935E+03 -0.49041021157E+03  0.56947271198E+03  0.12500000000E+03 0.  0.
</event>
<event>
 4    0  0.2210826E-002  0.2206512E+03  0.7546771E-02  0.1133399E+00
         21   -1    0    0  502  501  0.00000000000E+00  0.00000000000E+00  0.23758464259E+02  0.23758464259E+02  0.00000000000E+00 0.  1.
         21   -1    0    0  501  502 -0.00000000000E+00 -0.00000000000E+00 -0.20492461198E+04  0.20492461198E+04  0.00000000000E+00 0. -1.
         25    1    1    2    0    0 -0.17010184140E+03  0.44130388752E+02 -0.12320615095E+04  0.12507928249E+04  0.12500000000E+03 0.  0.
         25    1    1    2    0    0  0.17010184140E+03 -0.44130388752E+02 -0.79342614600E+03  0.82221175911E+03  0.12500000000E+03 0.  0.
</event>
<event>
 4    0  0.2210826E-002  0.2207015E+03  0.7546771E-02  0.1133361E+00
         21   -1    0    0  502  501  0.00000000000E+00  0.00000000000E+00  0.49594597389E+03  0.49594597389E+03  0.00000000000E+00 0. -1.
         21   -1    0    0  501  502 -0.00000000000E+00 -0.00000000000E+00 -0.98214667181E+02  0.98214667181E+02  0.00000000000E+00 0. -1.
         25    1    1    2    0    0  0.91034069858E+02 -0.73518091836E+02  0.38631350396E+03  0.42255796649E+03  0.12500000000E+03 0.  0.
         25    1    1    2    0    0 -0.91034069858E+02  0.73518091836E+02  0.11417802743E+02  0.17160267458E+03  0.12500000000E+03 0.  0.
</event>
<event>
 4    0  0.2210826E-002  0.1721748E+03  0.7546771E-02  0.1175599E+00
         21   -1    0    0  502  501  0.00000000000E+00  0.00000000000E+00  0.78661410971E+03  0.78661410971E+03  0.00000000000E+00 0.  1.
         21   -1    0    0  501  502 -0.00000000000E+00 -0.00000000000E+00 -0.37685754561E+02  0.37685754561E+02  0.00000000000E+00 0.  1.
         25    1    1    2    0    0  0.30964058880E+02  0.15699004848E+00  0.10089753224E+03  0.16359740096E+03  0.12500000000E+03 0.  0.
         25    1    1    2    0    0 -0.30964058880E+02 -0.15699004848E+00  0.64803082291E+03  0.66070246331E+03  0.12500000000E+03 0.  0.
</event>
<event>
 4    0  0.2210826E-002  0.2647929E+03  0.7546771E-02  0.1104297E+00
         21   -1    0    0  502  501  0.00000000000E+00  0.00000000000E+00  0.41596246167E+03  0.41596246167E+03  0.00000000000E+00 0.  1.
         21   -1    0    0  501  502 -0.00000000000E+00 -0.00000000000E+00 -0.16856150834E+03  0.16856150834E+03  0.00000000000E+00 0.  1.
         25    1    1    2    0    0  0.22728322938E+03 -0.18465120949E+02  0.68605997206E+02  0.26894313507E+03  0.12500000000E+03 0.  0.
         25    1    1    2    0    0 -0.22728322938E+03  0.18465120949E+02  0.17879495612E+03  0.31558083494E+03  0.12500000000E+03 0.  0.
</event>
<event>
 4    0  0.2210826E-002  0.1726166E+03  0.7546771E-02  0.1175146E+00
         21   -1    0    0  502  501  0.00000000000E+00  0.00000000000E+00  0.22963009099E+03  0.22963009099E+03  0.00000000000E+00 0. -1.
         21   -1    0    0  501  502 -0.00000000000E+00 -0.00000000000E+00 -0.12975868020E+03  0.12975868020E+03  0.00000000000E+00 0. -1.
         25    1    1    2    0    0 -0.50789134605E+02  0.96592413306E+02  0.99444851426E+02  0.19345260137E+03  0.12500000000E+03 0.  0.
         25    1    1    2    0    0  0.50789134605E+02 -0.96592413306E+02  0.42655936987E+00  0.16593616982E+03  0.12500000000E+03 0.  0.
</event>
<event>
 4    0  0.2210826E-002  0.1796858E+03  0.7546771E-02  0.1168107E+00
         21   -1    0    0  502  501  0.00000000000E+00  0.00000000000E+00  0.68050028741E+03  0.68050028741E+03  0.00000000000E+00 0. -1.
         21   -1    0    0  501  502 -0.00000000000E+00 -0.00000000000E+00 -0.47445981487E+02  0.47445981487E+02  0.00000000000E+00 0. -1.
         25    1    1    2    0    0 -0.89960902439E+02 -0.55660380290E+02  0.16670111010E+03  0.23367777389E+03  0.12500000000E+03 0.  0.
         25    1    1    2    0    0  0.89960902439E+02  0.55660380290E+02  0.46635319582E+03  0.49426849501E+03  0.12500000000E+03 0.  0.
</event>
<event>
 4    0  0.2210826E-002  0.8180069E+03  0.7546771E-02  0.9534312E-01
         21   -1    0    0  502  501  0.00000000000E+00  0.00000000000E+00  0.34544343498E+03  0.34544343498E+03  0.00000000000E+00 0.  1.
         21   -1    0    0  501  502 -0.00000000000E+00 -0.00000000000E+00 -0.19370330701E+04  0.19370330701E+04  0.00000000000E+00 0.  1.
         25    1    1    2    0    0 -0.21770067421E+02 -0.15034683664E+03  0.31194697659E+03  0.36880079085E+03  0.12500000000E+03 0.  0.
         25    1    1    2    0    0  0.21770067421E+02  0.15034683664E+03 -0.19035366117E+04  0.19136757142E+04  0.12500000000E+03 0.  0.
</event>
<event>
 4    0  0.2210826E-002  0.1974791E+03  0.7546771E-02  0.1151883E+00
         21   -1    0    0  502  501  0.00000000000E+00  0.00000000000E+00  0.15757786936E+04  0.15757786936E+04  0.00000000000E+00 0.  1.
         21   -1    0    0  501  502 -0.00000000000E+00 -0.00000000000E+00 -0.24748395815E+02  0.24748395815E+02  0.00000000000E+00 0.  1.
         25    1    1    2    0    0 -0.71008550353E+02 -0.12594733981E+03  0.57419431844E+03  0.60516862275E+03  0.12500000000E+03 0.  0.
         25    1    1    2    0    0  0.71008550353E+02  0.12594733981E+03  0.97683597939E+03  0.99535846672E+03  0.12500000000E+03 0.  0.
</event>
<event>
 4    0  0.2210826E-002  0.2102066E+03  0.7546771E-02  0.1141402E+00
         21   -1    0    0  502  501  0.00000000000E+00  0.00000000000E+00  0.36271619724E+02  0.36271619724E+02  0.00000000000E+00 0. -1.
         21   -1    0    0  501  502 -0.00000000000E+00 -0.00000000000E+00 -0.12182199133E+04  0.12182199133E+04  0.00000000000E+00 0. -1.
         25    1    1    2    0    0 -0.12927418281E+03  0.32472075452E+02 -0.28093681352E+03  0.33513690220E+03  0.12500000000E+03 0.  0.
         25    1    1    2    0    0  0.12927418281E+03 -0.32472075452E+02 -0.90101148004E+03  0.91935463080E+03  0.12500000000E+03 0.  0.
</event>
<event>
 4    0  0.2210826E-002  0.4356739E+03  0.7546771E-02  0.1032082E+00
         21   -1    0    0  502  501  0.00000000000E+00  0.00000000000E+00  0.65357888243E+03  0.65357888243E+03  0.00000000000E+00 0. -1.
         21   -1    0    0  501  502 -0.00000000000E+00 -0.00000000000E+00 -0.29041897371E+03  0.29041897371E+03  0.00000000000E+00 0. -1.
         25    1    1    2    0    0 -0.39317495613E+03  0.11680034781E+03  0.26520261169E+03  0.50416891279E+03  0.12500000000E+03 0.  0.
         25    1    1    2    0    0  0.39317495613E+03 -0.11680034781E+03  0.97957297038E+02  0.43982894336E+03  0.12500000000E+03 0.  0.
</event>
<event>
 4    0  0.2210826E-002  0.1802924E+03  0.7546771E-02  0.1167520E+00
         21   -1    0    0  502  501  0.00000000000E+00  0.00000000000E+00  0.17283077479E+04  0.17283077479E+04  0.00000000000E+00 0. -1.
         21   -1    0    0  501  502 -0.00000000000E+00 -0.00000000000E+00 -0.18807608324E+02  0.18807608324E+02  0.00000000000E+00 0. -1.
         25    1    1    2    0    0  0.11990783920E+03  0.71076640956E+01  0.10946709110E+04  0.11083130480E+04  0.12500000000E+03 0.  0.
         25    1    1    2    0    0 -0.11990783920E+03 -0.71076640956E+01  0.61482922857E+03  0.63880230831E+03  0.12500000000E+03 0.  0.
</event>
<event>
 4    0  0.2210826E-002  0.2128982E+03  0.7546771E-02  0.1139291E+00
         21   -1    0    0  502  501  0.00000000000E+00  0.00000000000E+00  0.30085481144E+04  0.30085481144E+04  0.00000000000E+00 0.  1.
         21   -1    0    0  501  502 -0.00000000000E+00 -0.00000000000E+00 -0.15065616379E+02  0.15065616379E+02  0.00000000000E+00 0.  1.
         25    1    1    2    0    0  0.11418031800E+02  0.12145234248E+03  0.23611963812E+04  0.23676474386E+04  0.12500000000E+03 0.  0.
         25    1    1    2    0    0 -0.11418031800E+02 -0.12145234248E+03  0.63228611683E+03  0.65596629219E+03  0.12500000000E+03 0.  0.
</event>
<event>
 4    0  0.2210826E-002  0.2208186E+03  0.7546771E-02  0.1133274E+00
         21   -1    0    0  502  501  0.00000000000E+00  0.00000000000E+00  0.11861147523E+03  0.11861147523E+03  0.00000000000E+00 0.  1.
         21   -1    0    0  501  502 -0.00000000000E+00 -0.00000000000E+00 -0.41109743961E+03  0.41109743961E+03  0.00000000000E+00 0.  1.
         25    1    1    2    0    0 -0.98336802274E+02  0.11155970485E+03 -0.27215462140E+03  0.33437827737E+03  0.12500000000E+03 0.  0.
         25    1    1    2    0    0  0.98336802274E+02 -0.11155970485E+03 -0.20331342979E+02  0.19533063747E+03  0.12500000000E+03 0.  0.
</event>
<event>
 4    0  0.2210826E-002  0.2041175E+03  0.7546771E-02  0.1146311E+00
         21   -1    0    0  502  501  0.00000000000E+00  0.00000000000E+00  0.14739345067E+03  0.14739345067E+03  0.00000000000E+00 0.  1.
         21   -1    0    0  501  502 -0.00000000000E+00 -0.00000000000E+00 -0.28267164135E+03  0.28267164135E+03  0.00000000000E+00 0.  1.
         25    1    1    2    0    0 -0.12560398722E+03 -0.37172755202E+02 -0.16691626228E+03  0.24626045957E+03  0.12500000000E+03 0.  0.
         25    1    1    2    0    0  0.12560398722E+03  0.37172755202E+02  0.31638071600E+02  0.18380463245E+03  0.12500000000E+03 0.  0.
</event>
<event>
 4    0  0.2210826E-002  0.1762129E+03  0.7546771E-02  0.1171519E+00
         21   -1    0    0  502  501  0.00000000000E+00  0.00000000000E+00  0.15067775014E+03  0.15067775014E+03  0.00000000000E+00 0.  1.
         21   -1    0    0  501  502 -0.00000000000E+00 -0.00000000000E+00 -0.20607547700E+03  0.20607547700E+03  0.00000000000E+00 0.  1.
         25    1    1    2    0    0  0.10699463572E+03  0.33192869716E+02  0.26591482881E+02  0.16994624337E+03  0.12500000000E+03 0.  0.
         25    1    1    2    0    0 -0.10699463572E+03 -0.33192869716E+02 -0.81989209740E+02  0.18680698377E+03  0.12500000000E+03 0.  0.
</event>
<event>
 4    0  0.2210826E-002  0.2474565E+03  0.7546771E-02  0.1114923E+00
         21   -1    0    0  502  501  0.00000000000E+00  0.00000000000E+00  0.56541614535E+02  0.56541614535E+02  0.00000000000E+00 0.  1.
         21   -1    0    0  501  502 -0.00000000000E+00 -0.00000000000E+00 -0.10830023187E+04  0.10830023187E+04  0.00000000000E+00 0.  1.
         25    1    1    2    0    0 -0.73185015263E+02  0.13704724965E+03 -0.17583775985E+03  0.26586070203E+03  0.12500000000E+03 0.  0.
         25    1    1    2    0    0  0.73185015263E+02 -0.13704724965E+03 -0.85062294435E+03  0.87368323124E+03  0.12500000000E+03 0.  0.
</event>
<event>
 4    0  0.2210826E-002  0.1507890E+03  0.7546771E-02  0.1199507E+00
         21   -1    0    0  502  501  0.00000000000E+00  0.00000000000E+00  0.30356989956E+03  0.30356989956E+03  0.00000000000E+00 0.  1.
         21   -1    0    0  501  502 -0.00000000000E+00 -0.00000000000E+00 -0.74899804433E+02  0.74899804433E+02  0.00000000000E+00 0.  1.
         25    1    1    2    0    0 -0.67509809877E+02  0.50524015777E+02  0.11252706713E+03  0.18814247643E+03  0.12500000000E+03 0.  0.
         25    1    1    2    0    0  0.67509809877E+02 -0.50524015777E+02  0.11614302800E+03  0.19032722756E+03  0.12500000000E+03 0.  0.
</event>
<event>
 4    0  0.2210826E-002  0.2340560E+03  0.7546771E-02  0.1123817E+00
         21   -1    0    0  502  501  0.00000000000E+00  0.00000000000E+00  0.28301222838E+03  0.28301222838E+03  0.00000000000E+00 0. -1.
         21   -1    0    0  501  502 -0.00000000000E+00 -0.00000000000E+00 -0.19356833223E+03  0.19356833223E+03  0.00000000000E+00 0. -1.
         25    1    1    2    0    0 -0.83005052309E+02  0.13703686535E+02 -0.13762599918E+03  0.20406750203E+03  0.12500000000E+03 0.  0.
         25    1    1    2    0    0  0.83005052309E+02 -0.13703686535E+02  0.22706989533E+03  0.27251305859E+03  0.12500000000E+03 0.  0.
</event>
<event>
 4    0  0.2210826E-002  0.3122711E+03  0.7546771E-02  0.1079262E+00
         21   -1    0    0  502  501  0.00000000000E+00  0.00000000000E+00  0.16002043915E+03  0.16002043915E+03  0.00000000000E+00 0. -1.
         21   -1    0    0  501  502 -0.00000000000E+00 -0.00000000000E+00 -0.60937987609E+03  0.60937987609E+03  0.00000000000E+00 0. -1.
         25    1    1    2    0    0 -0.19601350743E+03 -0.12372330187E+03 -0.17949990071E+02  0.26396202883E+03  0.12500000000E+03 0.  0.
         25    1    1    2    0    0  0.19601350743E+03  0.12372330187E+03 -0.43140944686E+03  0.50543828641E+03  0.12500000000E+03 0.  0.
</event>
<event>
 4    0  0.2210826E-002  0.2064895E+03  0.7546771E-02  0.1144376E+00
         21   -1    0    0  502  501  0.00000000000E+00  0.00000000000E+00  0.35452441053E+02  0.35452441053E+02  0.00000000000E+00 0. -1.
         21   -1    0    0  501  502 -0.00000000000E+00 -0.00000000000E+00 -0.12026797796E+04  0.12026797796E+04  0.00000000000E+00 0. -1.
         25    1    1    2    0    0  0.15900733461E+03  0.52025324902E+01 -0.70731859754E+03  0.73568675211E+03  0.12500000000E+03 0.  0.
         25    1    1    2    0    0 -0.15900733461E+03 -0.52025324902E+01 -0.45990874096E+03  0.50244546850E+03  0.12500000000E+03 0.  0.
</event>
<event>
 4    0  0.2210826E-002  0.3924104E+03  0.7546771E-02  0.1046440E+00
         21   -1    0    0  502  501  0.00000000000E+00  0.00000000000E+00  0.30043385593E+03  0.30043385593E+03  0.00000000000E+00 0.  1.
         21   -1    0    0  501  502 -0.00000000000E+00 -0.00000000000E+00 -0.51254517019E+03  0.51254517019E+03  0.00000000000E+00 0.  1.
         25    1    1    2    0    0 -0.27294287295E+03 -0.65561961391E+02  0.14675970458E+03  0.34052840347E+03  0.12500000000E+03 0.  0.
         25    1    1    2    0    0  0.27294287295E+03  0.65561961391E+02 -0.35887101885E+03  0.47245062265E+03  0.12500000000E+03 0.  0.
</event>
<event>
 4    0  0.2210826E-002  0.3694558E+03  0.7546771E-02  0.1054901E+00
         21   -1    0    0  502  501  0.00000000000E+00  0.00000000000E+00  0.84592964769E+03  0.84592964769E+03  0.00000000000E+00 0.  1.
         21   -1    0    0  501  502 -0.00000000000E+00 -0.00000000000E+00 -0.16135807169E+03  0.16135807169E+03  0.00000000000E+00 0.  1.
         25    1    1    2    0    0  0.14449576209E+02  0.25962961601E+03  0.65687683585E+03  0.71744582042E+03  0.12500000000E+03 0.  0.
         25    1    1    2    0    0 -0.14449576209E+02 -0.25962961601E+03  0.27694740149E+02  0.28984189896E+03  0.12500000000E+03 0.  0.
</event>
<event>
 4    0  0.2210826E-002  0.2412258E+03  0.7546771E-02  0.1118979E+00
         21   -1    0    0  502  501  0.00000000000E+00  0.00000000000E+00  0.16987102048E+03  0.16987102048E+03  0.00000000000E+00 0. -1.
         21   -1    0    0  501  502 -0.00000000000E+00 -0.00000000000E+00 -0.34255327267E+03  0.34255327267E+03  0.00000000000E+00 0. -1.
         25    1    1    2    0    0  0.16864706451E+03  0.93435093219E+02 -0.16433997549E+03  0.28249703814E+03  0.12500000000E+03 0.  0.
         25    1    1    2    0    0 -0.16864706451E+03 -0.93435093219E+02 -0.83422767014E+01  0.22992725501E+03  0.12500000000E+03 0.  0.
</event>
<event>
 4    0  0.2210826E-002  0.1993961E+03  0.7546771E-02  0.1150250E+00
         21   -1    0    0  502  501  0.00000000000E+00  0.00000000000E+00  0.10858530409E+03  0.10858530409E+03  0.00000000000E+00 0. -1.
         21   -1    0    0  501  502 -0.00000000000E+00 -0.00000000000E+00 -0.36615275171E+03  0.36615275171E+03  0.00000000000E+00 0. -1.
         25    1    1    2    0    0  0.10945285138E+02  0.72617557469E+02  0.34183499682E+02  0.14895173906E+03  0.12500000000E+03 0.  0.
         25    1    1    2    0    0 -0.10945285138E+02 -0.72617557469E+02 -0.29175094731E+03  0.32578631674E+03  0.12500000000E+03 0.  0.
</event>
<event>
 4    0  0.2210826E-002  0.1540813E+03  0.7546771E-02  0.1195546E+00
         21   -1    0    0  502  501  0.00000000000E+00  0.00000000000E+00  0.14539851139E+03  0.14539851139E+03  0.00000000000E+00 0.  1.
         21   -1    0    0  501  502 -0.00000000000E+00 -0.00000000000E+00 -0.16328267848E+03  0.16328267848E+03  0.00000000000E+00 0.  1.
         25    1    1    2    0    0 -0.63712737567E+02 -0.91767288322E+01 -0.72076169106E+02  0.15799841592E+03  0.12500000000E+03 0.  0.
         25    1    1    2    0    0  0.63712737567E+02  0.91767288322E+01  0.54192002017E+02  0.15068277394E+03  0.12500000000E+03 0.  0.
</event>
<event>
 4    0  0.2210826E-002  0.3851210E+03  0.7546771E-02  0.1049057E+00
         21   -1    0    0  502  501  0.00000000000E+00  0.00000000000E+00  0.14077688117E+04  0.14077688117E+04  0.00000000000E+00 0. -1.
         21   -1    0    0  501  502 -0.00000000000E+00 -0.00000000000E+00 -0.10535692230E+03  0.10535692230E+03  0.00000000000E+00 0. -1.
         25    1    1    2    0    0 -0.24065403470E+03  0.14295037918E+03  0.19325003156E+03  0.36238067005E+03  0.12500000000E+03 0.  0.
         25    1    1    2    0    0  0.24065403470E+03 -0.14295037918E+03  0.11091618579E+04  0.11507450640E+04  0.12500000000E+03 0.  0.
</event>
<event>
 4    0  0.2210826E-002  0.2154634E+03  0.7546771E-02  0.1137311E+00
         21   -1    0    0  502  501  0.00000000000E+00  0.00000000000E+00  0.81520764409E+02  0.81520764409E+02  0.00000000000E+00 0.  1.
         21   -1    0    0  501  502 -0.00000000000E+00 -0.00000000000E+00 -0.56948035533E+03  0.56948035533E+03  0.00000000000E+00 0.  1.
         25    1    1    2    0    0 -0.89200899396E+02  0.14135907402E+03 -0.32477450910E+03  0.38606044866E+03  0.12500000000E+03 0.  0.
         25    1    1    2    0    0  0.89200899396E+02 -0.14135907402E+03 -0.16318508182E+03  0.26494067108E+03  0.12500000000E+03 0.  0.
</event>
<event>
 4    0  0.2210826E-002  0.2044529E+03  0.7546771E-02  0.1146036E+00
         21   -1    0    0  502  501  0.00000000000E+00  0.00000000000E+00  0.25899828930E+02  0.25899828930E+02  0.00000000000E+00 0.  1.
         21   -1    0    0  501  502 -0.00000000000E+00 -0.00000000000E+00 -0.16139486666E+04  0.16139486666E+04  0.00000000000E+00 0.  1.
         25    1    1    2    0    0 -0.11161556052E+03 -0.11658146236E+03 -0.83916937773E+03  0.86364316429E+03  0.12500000000E+03 0.  0.
         25    1    1    2    0    0  0.11161556052E+03  0.11658146236E+03 -0.74887945994E+03  0.77620533124E+03  0.12500000000E+03 0.  0.
</event>
<event>
 4    0  0.2210826E-002  0.2905026E+03  0.7546771E-02  0.1090087E+00
         21   -1    0    0  502  501  0.00000000000E+00  0.00000000000E+00  0.67514919295E+03  0.67514919295E+03  0.00000000000E+00 0. -1.
         21   -1    0    0  501  502 -0.00000000000E+00 -0.00000000000E+00 -0.12499719398E+03  0.12499719398E+03  0.00000000000E+00 0. -1.
         25    1    1    2    0    0  0.30740316720E+02 -0.24643939490E+03  0.39103235545E+03  0.47980063093E+03  0.12500000000E+03 0.  0.
         25    1    1    2    0    0 -0.30740316720E+02  0.24643939490E+03  0.15911964352E+03  0.32034575600E+03  0.12500000000E+03 0.  0.
</event>
<event>
 4    0  0.2210826E-002  0.4015767E+03  0.7546771E-02  0.1043235E+00
         21   -1    0    0  502  501  0.00000000000E+00  0.00000000000E+00  0.12231829323E+03  0.12231829323E+03  0.00000000000E+00 0.  1.
         21   -1    0    0  501  502 -0.00000000000E+00 -0.00000000000E+00 -0.13183948543E+04  0.13183948543E+04  0.00000000000E+00 0.  1.
         25    1    1    2    0    0  0.32613502225E+02 -0.26570661645E+03 -0.10859284076E+04  0.11254017740E+04  0.12500000000E+03 0.  0.
         25    1    1    2    0    0 -0.32613502225E+02  0.26570661645E+03 -0.11014815348E+03  0.31531137351E+03  0.12500000000E+03 0.  0.
</event>
<event>
 4    0  0.2210826E-002  0.2862731E+03  0.7546771E-02  0.1092311E+00
         21   -1    0    0  502  501  0.00000000000E+00  0.00000000000E+00  0.30825412072E+03  0.30825412072E+03  0.00000000000E+00 0. -1.
         21   -1    0    0  501  502 -0.00000000000E+00 -0.00000000000E+00 -0.26585950164E+03  0.26585950164E+03  0.00000000000E+00 0. -1.
         25    1    1    2    0    0  0.19953048645E+02 -0.13803694913E+03 -0.19590167319E+03  0.27102543983E+03  0.12500000000E+03 0.  0.
         25    1    1    2    0    0 -0.19953048645E+02  0.13803694913E+03  0.23829629227E+03  0.30308818253E+03  0.12500000000E+03 0.  0.
</event>
<event>
 4    0  0.2210826E-002  0.1503643E+03  0.7546771E-02  0.1200026E+00
         21   -1    0    0  502  501  0.00000000000E+00  0.00000000000E+00  0.14121183717E+03  0.14121183717E+03  0.00000000000E+00 0. -1.
         21   -1    0    0  501  502 -0.00000000000E+00 -0.00000000000E+00 -0.16010995990E+03  0.16010995990E+03  0.00000000000E+00 0. -1.
         25    1    1    2    0    0  0.70755541742E+02 -0.44460206356E+02 -0.10619676972E+02  0.15073431652E+03  0.12500000000E+03 0.  0.
         25    1    1    2    0    0 -0.70755541742E+02  0.44460206356E+02 -0.82784457561E+01  0.15058748056E+03  0.12500000000E+03 0.  0.
</event>
<event>
 4    0  0.2210826E-002  0.1910504E+03  0.7546771E-02  0.1157517E+00
         21   -1    0    0  502  501  0.00000000000E+00  0.00000000000E+00  0.23199677325E+03  0.23199677325E+03  0.00000000000E+00 0.  1.
         21   -1    0    0  501  502 -0.00000000000E+00 -0.00000000000E+00 -0.15733090583E+03  0.15733090583E+03  0.00000000000E+00 0.  1.
         25    1    1    2    0    0 -0.65494447530E+01  0.12669162110E+03 -0.33124031185E+02  0.18115149330E+03  0.12500000000E+03 0.  0.
         25    1    1    2    0    0  0.65494447530E+01 -0.12669162110E+03  0.10778989861E+03  0.20817618578E+03  0.12500000000E+03 0.  0.
</event>
<event>
 4    0  0.2210826E-002  0.2391003E+03  0.7546771E-02  0.1120394E+00
         21   -1    0    0  502  501  0.00000000000E+00  0.00000000000E+00  0.49084926761E+03  0.49084926761E+03  0.00000000000E+00 0.  1.
         21   -1    0    0  501  502 -0.00000000000E+00 -0.00000000000E+00 -0.11646950496E+03  0.11646950496E+03  0.00000000000E+00 0.  1.
         25    1    1    2    0    0 -0.11826652968E+03  0.14979302392E+03  0.27805583130E+03  0.35967341767E+03  0.12500000000E+03 0.  0.
         25    1    1    2    0    0  0.11826652968E+03 -0.14979302392E+03  0.96323931349E+02  0.24764535491E+03  0.12500000000E+03 0.  0.
</event>
<event>
 4    0  0.2210826E-002  0.1864661E+03  0.7546771E-02  0.1161688E+00
         21   -1    0    0  502  501  0.00000000000E+00  0.00000000000E+00  0.19499034233E+03  0.19499034233E+03  0.00000000000E+00 0.  1.
         21   -1    0    0  501  502 -0.00000000000E+00 -0.00000000000E+00 -0.17831458987E+03  0.17831458987E+03  0.00000000000E+00 0.  1.
         25    1    1    2    0    0  0.12561807400E+03 -0.32563820782E+02  0.56389175471E+02  0.18879894610E+03  0.12500000000E+03 0.  0.
         25    1    1    2    0    0 -0.12561807400E+03  0.32563820782E+02 -0.39713423013E+02  0.18450598610E+03  0.12500000000E+03 0.  0.
</event>
<event>
 4    0  0.2210826E-002  0.2263369E+03  0.7546771E-02  0.1129245E+00
         21   -1    0    0  502  501  0.00000000000E+00  0.00000000000E+00  0.55806475536E+03  0.55806475536E+03  0.00000000000E+00 0. -1.
         21   -1    0    0  501  502 -0.00000000000E+00 -0.00000000000E+00 -0.91796540494E+02  0.91796540494E+02  0.00000000000E+00 0. -1.
         25    1    1    2    0    0 -0.10882151204E+03  0.15410212562E+03  0.23847242108E+03  0.32876082829E+03  0.12500000000E+03 0.  0.
         25    1    1    2    0    0  0.10882151204E+03 -0.15410212562E+03  0.22779579379E+03  0.32110046757E+03  0.12500000000E+03 0.  0.
</event>
<event>
 4    0  0.2210826E-002  0.2614550E+03  0.7546771E-02  0.1106272E+00
         21   -1    0    0  502  501  0.00000000000E+00  0.00000000000E+00  0.37106307620E+03  0.37106307620E+03  0.00000000000E+00 0. -1.
         21   -1    0    0  501  502 -0.00000000000E+00 -0.00000000000E+00 -0.18422400137E+03  0.18422400137E+03  0.00000000000E+00 0. -1.
         25    1    1    2    0    0 -0.76725094601E+02  0.78001200051E+02  0.30781845333E+03  0.34978297208E+03  0.12500000000E+03 0.  0.
         25    1    1    2    0    0  0.76725094601E+02 -0.78001200051E+02 -0.12097937849E+03  0.20550410548E+03  0.12500000000E+03 0.  0.
</event>
<event>
 4    0  0.2210826E-002  0.2018707E+03  0.7546771E-02  0.1148170E+00
         21   -1    0    0  502  501  0.00000000000E+00  0.00000000000E+00  0.72692184531E+03  0.72692184531E+03  0.00000000000E+00 0.  1.
         21   -1    0    0  501  502 -0.00000000000E+00 -0.00000000000E+00 -0.56060736771E+02  0.56060736771E+02  0.00000000000E+00 0.  1.
         25    1    1    2    0    0  0.44282383584E+02  0.10940755926E+03  0.54063038868E+03  0.56730693692E+03  0.12500000000E+03 0.  0.
         25    1    1    2    0    0 -0.44282383584E+02 -0.10940755926E+03  0.13023071987E+03  0.21567564516E+03  0.12500000000E+03 0.  0.
</event>
<event>
 4    0  0.2210826E-002  0.2318722E+03  0.7546771E-02  0.1125329E+00
         21   -1    0    0  502  501  0.00000000000E+00  0.00000000000E+00  0.20050828988E+03  0.20050828988E+03  0.00000000000E+00 0.  1.
         21   -1    0    0  501  502 -0.00000000000E+00 -0.00000000000E+00 -0.26814202568E+03  0.26814202568E+03  0.00000000000E+00 0.  1.
         25    1    1    2    0    0  0.28945629154E+02  0.15570468655E+03  0.81663186664E+02  0.21765953900E+03  0.12500000000E+03 0.  0.
         25    1    1    2    0    0 -0.28945629154E+02 -0.15570468655E+03 -0.14929692246E+03  0.25099077656E+03  0.12500000000E+03 0.  0.
</event>
<event>
 4    0  0.2210826E-002  0.3851868E+03  0.7546771E-02  0.1049033E+00
         21   -1    0    0  502  501  0.00000000000E+00  0.00000000000E+00  0.52869818520E+02  0.52869818520E+02  0.00000000000E+00 0.  1.
         21   -1    0    0  501  502 -0.00000000000E+00 -0.00000000000E+00 -0.28063058434E+04  0.28063058434E+04  0.00000000000E+00 0.  1.
         25    1    1    2    0    0 -0.18542404036E+03 -0.26521207512E+03 -0.75540951568E+03  0.83125691330E+03  0.12500000000E+03 0.  0.
         25    1    1    2    0    0  0.18542404036E+03  0.26521207512E+03 -0.19980265092E+04  0.20279187486E+04  0.12500000000E+03 0.  0.
</event>
<event>
 4    0  0.2210826E-002  0.3299811E+03  0.7546771E-02  0.1071145E+00
         21   -1    0    0  502  501  0.00000000000E+00  0.00000000000E+00  0.20183420972E+04  0.20183420972E+04  0.00000000000E+00 0. -1.
         21   -1    0    0  501  502 -0.00000000000E+00 -0.00000000000E+00 -0.53949003743E+02  0.53949003743E+02  0.00000000000E+00 0. -1.
         25    1    1    2    0    0  0.26158297740E+03  0.82113335429E+02  0.14045756784E+04  0.14365326625E+04  0.12500000000E+03 0.  0.
         25    1    1    2    0    0 -0.26158297740E+03 -0.82113335429E+02  0.55981741506E+03  0.63575843850E+03  0.12500000000E+03 0.  0.
</event>
<event>
 4    0  0.2210826E-002  0.2006933E+03  0.7546771E-02  0.1149155E+00
         21   -1    0    0  502  501  0.00000000000E+00  0.00000000000E+00  0.28375817787E+03  0.28375817787E+03  0.00000000000E+00 0. -1.
         21   -1    0    0  501  502 -0.00000000000E+00 -0.00000000000E+00 -0.14194417582E+03  0.14194417582E+03  0.00000000000E+00 0. -1.
         25    1    1    2    0    0  0.14227706294E+03  0.49893135270E+02  0.11738812106E+03  0.22833540801E+03  0.12500000000E+03 0.  0.
         25    1    1    2    0    0 -0.14227706294E+03 -0.49893135270E+02  0.24425880983E+02  0.19736694568E+03  0.12500000000E+03 0.  0.
</event>
<event>
 4    0  0.2210826E-002  0.1596956E+03  0.7546771E-02  0.1189041E+00
         21   -1    0    0  502  501  0.00000000000E+00  0.00000000000E+00  0.21102751508E+02  0.21102751508E+02  0.00000000000E+00 0. -1.
         21   -1    0    0  501  502 -0.00000000000E+00 -0.00000000000E+00 -0.12085007425E+04  0.12085007425E+04  0.00000000000E+00 0. -1.
         25    1    1    2    0    0  0.82449854551E+02  0.81656360481E+00 -0.80732304736E+03  0.82109326394E+03  0.12500000000E+03 0.  0.
         25    1    1    2    0    0 -0.82449854551E+02 -0.81656360481E+00 -0.38007494363E+03  0.40851023006E+03  0.12500000000E+03 0.  0.
</event>
<event>
 4    0  0.2210826E-002  0.2630442E+03  0.7546771E-02  0.1105328E+00
         21   -1    0    0  502  501  0.00000000000E+00  0.00000000000E+00  0.94743638586E+03  0.94743638586E+03  0.00000000000E+00 0. -1.
         21   -1    0    0  501  502 -0.00000000000E+00 -0.00000000000E+00 -0.73031025229E+02  0.73031025229E+02  0.00000000000E+00 0. -1.
         25    1    1    2    0    0 -0.12919499125E+03 -0.32520402471E+02  0.80431002367E+03  0.82479605753E+03  0.12500000000E+03 0.  0.
         25    1    1    2    0    0  0.12919499125E+03  0.32520402471E+02  0.70095336962E+02  0.19567135356E+03  0.12500000000E+03 0.  0.
</event>
<event>
 4    0  0.2210826E-002  0.2628147E+03  0.7546771E-02  0.1105464E+00
         21   -1    0    0  502  501  0.00000000000E+00  0.00000000000E+00  0.10324575823E+03  0.10324575823E+03  0.00000000000E+00 0.  1.
         21   -1    0    0  501  502 -0.00000000000E+00 -0.00000000000E+00 -0.66900167919E+03  0.66900167919E+03  0.00000000000E+00 0.  1.
         25    1    1    2    0    0 -0.68151268519E+02 -0.21976102240E+03 -0.31596183791E+03  0.41036128641E+03  0.12500000000E+03 0.  0.
         25    1    1    2    0    0  0.68151268519E+02  0.21976102240E+03 -0.24979408305E+03  0.36188615101E+03  0.12500000000E+03 0.  0.
</event>
<event>
 4    0  0.2210826E-002  0.1797168E+03  0.7546771E-02  0.1168077E+00
         21   -1    0    0  502  501  0.00000000000E+00  0.00000000000E+00  0.23237767370E+02  0.23237767370E+02  0.00000000000E+00 0.  1.
         21   -1    0    0  501  502 -0.00000000000E+00 -0.00000000000E+00 -0.13898981983E+04  0.13898981983E+04  0.00000000000E+00 0.  1.
         25    1    1    2    0    0 -0.50236737575E+02 -0.11627822078E+03 -0.78191580389E+03  0.80191126616E+03  0.12500000000E+03 0.  0.
         25    1    1    2    0    0  0.50236737575E+02  0.11627822078E+03 -0.58474462700E+03  0.61122469946E+03  0.12500000000E+03 0.  0.
</event>
<event>
 4    0  0.2210826E-002  0.2190981E+03  0.7546771E-02  0.1134557E+00
         21   -1    0    0  502  501  0.00000000000E+00  0.00000000000E+00  0.46779165124E+03  0.46779165124E+03  0.00000000000E+00 0.  1.
         21   -1    0    0  501  502 -0.00000000000E+00 -0.00000000000E+00 -0.10261826180E+03  0.10261826180E+03  0.00000000000E+00 0.  1.
         25    1    1    2    0    0  0.10552879238E+03  0.12864170925E+03  0.93402525101E+02  0.22810972596E+03  0.12500000000E+03 0.  0.
         25    1    1    2    0    0 -0.10552879238E+03 -0.12864170925E+03  0.27177086434E+03  0.34230018709E+03  0.12500000000E+03 0.  0.
</event>
<event>
 4    0  0.2210826E-002  0.2406934E+03  0.7546771E-02  0.1119332E+00
         21   -1    0    0  502  501  0.00000000000E+00  0.00000000000E+00  0.35244449893E+02  0.35244449893E+02  0.00000000000E+00 0.  1.
         21   -1    0    0  501  502 -0.00000000000E+00 -0.00000000000E+00 -0.16437575456E+04  0.16437575456E+04  0.00000000000E+00 0.  1.
         25    1    1    2    0    0 -0.55379170256E+02 -0.18164438535E+03 -0.52858902508E+03  0.57540671934E+03  0.12500000000E+03 0.  0.
         25    1    1    2    0    0  0.55379170256E+02  0.18164438535E+03 -0.10799240706E+04  0.11035952761E+04  0.12500000000E+03 0.  0.
</event>
<event>
 4    0  0.2210826E-002  0.1784350E+03  0.7546771E-02  0.1169326E+00
         21   -1    0    0  502  501  0.00000000000E+00  0.00000000000E+00  0.10800637779E+04  0.10800637779E+04  0.00000000000E+00 0.  1.
         21   -1    0    0  501  502 -0.00000000000E+00 -0.00000000000E+00 -0.29478861080E+02  0.29478861080E+02  0.00000000000E+00 0.  1.
         25    1    1    2    0    0  0.73020217442E+02 -0.95617586232E+02  0.39562512613E+03  0.43199411498E+03  0.12500000000E+03 0.  0.
         25    1    1    2    0    0 -0.73020217442E+02  0.95617586232E+02  0.65495979066E+03  0.67754852397E+03  0.12500000000E+03 0.  0.
</event>
<event>
 4    0  0.2210826E-002  0.1993102E+03  0.7546771E-02  0.1150322E+00
         21   -1    0    0  502  501  0.00000000000E+00  0.00000000000E+00  0.19168739021E+03  0.19168739021E+03  0.00000000000E+00 0.  1.
         21   -1    0    0  501  502 -0.00000000000E+00 -0.00000000000E+00 -0.20723621173E+03  0.20723621173E+03  0.00000000000E+00 0.  1.
         25    1    1    2    0    0  0.92830999197E+02 -0.60962361811E+02  0.10077726393E+03  0.19523078880E+03  0.12500000000E+03 0.  0.
         25    1    1    2    0    0 -0.92830999197E+02  0.60962361811E+02 -0.11632608545E+03  0.20369281314E+03  0.12500000000E+03 0.  0.
</event>
<event>
 4    0  0.2210826E-002  0.2013678E+03  0.7546771E-02  0.1148590E+00
         21   -1    0    0  502  501  0.00000000000E+00  0.00000000000E+00  0.73439838894E+02  0.73439838894E+02  0.00000000000E+00 0.  1.
         21   -1    0    0  501  502 -0.00000000000E+00 -0.00000000000E+00 -0.55213888516E+03  0.55213888516E+03  0.00000000000E+00 0.  1.
         25    1    1    2    0    0  0.10950620846E+03  0.66117673545E+02 -0.38307044550E+03  0.42276603774E+03  0.12500000000E+03 0.  0.
         25    1    1    2    0    0 -0.10950620846E+03 -0.66117673545E+02 -0.95628600767E+02  0.20281268632E+03  0.12500000000E+03 0.  0.
</event>
<event>
 4    0  0.2210826E-002  0.2353445E+03  0.7546771E-02  0.1122934E+00
         21   -1    0    0  502  501  0.00000000000E+00  0.00000000000E+00  0.19192018927E+04  0.19192018927E+04  0.00000000000E+00 0.  1.
         21   -1    0    0  501  502 -0.00000000000E+00 -0.00000000000E+00 -0.28859406420E+02  0.28859406420E+02  0.00000000000E+00 0.  1.
         25    1    1    2    0    0 -0.14997904743E+02  0.16779582071E+03  0.50363001496E+03  0.54557177948E+03  0.12500000000E+03 0.  0.
         25    1    1    2    0    0  0.14997904743E+02 -0.16779582071E+03  0.13867124713E+04  0.14024895196E+04  0.12500000000E+03 0.  0.
</event>
<event>
 4    0  0.2210826E-002  0.2036647E+03  0.7546771E-02  0.1146683E+00
         21   -1    0    0  502  501  0.00000000000E+00  0.00000000000E+00  0.46063930839E+03  0.46063930839E+03  0.00000000000E+00 0. -1.
         21   -1    0    0  501  502 -0.00000000000E+00 -0.00000000000E+00 -0.90047233158E+02  0.90047233158E+02  0.00000000000E+00 0. -1.
         25    1    1    2    0    0 -0.12871833019E+03 -0.96310985698E+02  0.18958847878E+03  0.27823192804E+03  0.12500000000E+03 0.  0.
         25    1    1    2    0    0  0.12871833019E+03  0.96310985698E+02  0.18100359645E+03  0.27245461350E+03  0.12500000000E+03 0.  0.
</event>
<event>
 4    0  0.2210826E-002  0.1846889E+03  0.7546771E-02  0.1163341E+00
         21   -1    0    0  502  501  0.00000000000E+00  0.00000000000E+00  0.58789761626E+02  0.58789761626E+02  0.00000000000E+00 0. -1.
         21   -1    0    0  501  502 -0.00000000000E+00 -0.00000000000E+00 -0.58020279049E+03  0.58020279049E+03  0.00000000000E+00 0. -1.
         25    1    1    2    0    0  0.73007528737E+02  0.99048995562E+02 -0.16066737892E+03  0.23786510762E+03  0.12500000000E+03 0.  0.
         25    1    1    2    0    0 -0.73007528737E+02 -0.99048995562E+02 -0.36074564994E+03  0.40112744449E+03  0.12500000000E+03 0.  0.
</event>
<event>
 4    0  0.2210826E-002  0.4109737E+03  0.7546771E-02  0.1040045E+00
         21   -1    0    0  502  501  0.00000000000E+00  0.00000000000E+00  0.43829538179E+03  0.43829538179E+03  0.00000000000E+00 0.  1.
         21   -1    0    0  501  502 -0.00000000000E+00 -0.00000000000E+00 -0.38535512622E+03  0.38535512622E+03  0.00000000000E+00 0. -1.
         25    1    1    2    0    0 -0.75012111122E+02 -0.34432733129E+03  0.19737041043E+03  0.42280989440E+03  0.12500000000E+03 0.  0.
         25    1    1    2    0    0  0.75012111122E+02  0.34432733129E+03 -0.14443015486E+03  0.40084061361E+03  0.12500000000E+03 0.  0.
</event>
<event>
 4    0  0.2210826E-002  0.3759644E+03  0.7546771E-02  0.1052435E+00
         21   -1    0    0  502  501  0.00000000000E+00  0.00000000000E+00  0.29997702496E+03  0.29997702496E+03  0.00000000000E+00 0.  1.
         21   -1    0    0  501  502 -0.00000000000E+00 -0.00000000000E+00 -0.47120013273E+03  0.47120013273E+03  0.00000000000E+00 0.  1.
         25    1    1    2    0    0  0.30442567856E+03 -0.10722892767E+03  0.64949609684E+02  0.35215974855E+03  0.12500000000E+03 0.  0.
         25    1    1    2    0    0 -0.30442567856E+03  0.10722892767E+03 -0.23617271745E+03  0.41901740915E+03  0.12500000000E+03 0.  0.
</event>
<event>
 4    0  0.2210826E-002  0.1900477E+03  0.7546771E-02  0.1158418E+00
         21   -1    0    0  502  501  0.00000000000E+00  0.00000000000E+00  0.12838705631E+03  0.12838705631E+03  0.00000000000E+00 0.  1.
         21   -1    0    0  501  502 -0.00000000000E+00 -0.00000000000E+00 -0.28132225697E+03  0.28132225697E+03  0.00000000000E+00 0.  1.
         25    1    1    2    0    0  0.10060136450E+03  0.87154222310E+02 -0.19668268019E+02  0.18365275324E+03  0.12500000000E+03 0.  0.
         25    1    1    2    0    0 -0.10060136450E+03 -0.87154222310E+02 -0.13326693263E+03  0.22605656004E+03  0.12500000000E+03 0.  0.
</event>
<event>
 4    0  0.2210826E-002  0.3104726E+03  0.7546771E-02  0.1080120E+00
         21   -1    0    0  502  501  0.00000000000E+00  0.00000000000E+00  0.47575429322E+03  0.47575429322E+03  0.00000000000E+00 0.  1.
         21   -1    0    0  501  502 -0.00000000000E+00 -0.00000000000E+00 -0.20261139473E+03  0.20261139473E+03  0.00000000000E+00 0.  1.
         25    1    1    2    0    0 -0.22071563163E+03  0.17902068295E+03  0.13887496850E+03  0.34011035245E+03  0.12500000000E+03 0.  0.
         25    1    1    2    0    0  0.22071563163E+03 -0.17902068295E+03  0.13426792999E+03  0.33825533550E+03  0.12500000000E+03 0.  0.
</event>
<event>
 4    0  0.2210826E-002  0.3351242E+03  0.7546771E-02  0.1068892E+00
         21   -1    0    0  502  501  0.00000000000E+00  0.00000000000E+00  0.18623429890E+04  0.18623429890E+04  0.00000000000E+00 0.  1.
         21   -1    0    0  501  502 -0.00000000000E+00 -0.00000000000E+00 -0.60304815112E+02  0.60304815112E+02  0.00000000000E+00 0.  1.
         25    1    1    2    0    0 -0.18287005307E+03 -0.10538060614E+03  0.24602742878E+03  0.34742052929E+03  0.12500000000E+03 0.  0.
         25    1    1    2    0    0  0.18287005307E+03  0.10538060614E+03  0.15560107451E+04  0.15752272748E+04  0.12500000000E+03 0.  0.
</event>
<event>
 4    0  0.2210826E-002  0.3073216E+03  0.7546771E-02  0.1081637E+00
         21   -1    0    0  502  501  0.00000000000E+00  0.00000000000E+00  0.10318926817E+04  0.10318926817E+04  0.00000000000E+00 0.  1.
         21   -1    0    0  501  502 -0.00000000000E+00 -0.00000000000E+00 -0.91527523627E+02  0.91527523627E+02  0.00000000000E+00 0.  1.
         25    1    1    2    0    0 -0.14816351743E+03  0.12547044555E+03  0.84084541497E+03  0.87197549993E+03  0.12500000000E+03 0.  0.
         25    1    1    2    0    0  0.14816351743E+03 -0.12547044555E+03  0.99519743101E+02  0.25144470539E+03  0.12500000000E+03 0.  0.
</event>
<event>
 4    0  0.2210826E-002  0.2766555E+03  0.7546771E-02  0.1097530E+00
         21   -1    0    0  502  501  0.00000000000E+00  0.00000000000E+00  0.27806524328E+03  0.27806524328E+03  0.00000000000E+00 0. -1.
         21   -1    0    0  501  502 -0.00000000000E+00 -0.00000000000E+00 -0.27525300117E+03  0.27525300117E+03  0.00000000000E+00 0.  1.
         25    1    1    2    0    0 -0.22501305750E+03 -0.19959465883E+02  0.10082589644E+03  0.27716442362E+03  0.12500000000E+03 0.  0.
         25    1    1    2    0    0  0.22501305750E+03  0.19959465883E+02 -0.98013654338E+02  0.27615382083E+03  0.12500000000E+03 0.  0.
</event>
<event>
 4    0  0.2210826E-002  0.2156171E+03  0.7546771E-02  0.1137194E+00
         21   -1    0    0  502  501  0.00000000000E+00  0.00000000000E+00  0.14419761325E+03  0.14419761325E+03  0.00000000000E+00 0. -1.
         21   -1    0    0  501  502 -0.00000000000E+00 -0.00000000000E+00 -0.32240983412E+03  0.32240983412E+03  0.00000000000E+00 0. -1.
         25    1    1    2    0    0 -0.13990416071E+02 -0.17022720953E+03 -0.13362329777E+03  0.25030625304E+03  0.12500000000E+03 0.  0.
         25    1    1    2    0    0  0.13990416071E+02  0.17022720953E+03 -0.44588923103E+02  0.21630119433E+03  0.12500000000E+03 0.  0.
</event>
<event>
 4    0  0.2210826E-002  0.1842385E+03  0.7546771E-02  0.1163763E+00
         21   -1    0    0  502  501  0.00000000000E+00  0.00000000000E+00  0.57585579629E+02  0.57585579629E+02  0.00000000000E+00 0. -1.
         21   -1    0    0  501  502 -0.00000000000E+00 -0.00000000000E+00 -0.58944976853E+03  0.58944976853E+03  0.00000000000E+00 0. -1.
         25    1    1    2    0    0 -0.90216637684E+02 -0.89710593062E+02 -0.34700735570E+03  0.39016168076E+03  0.12500000000E+03 0.  0.
         25    1    1    2    0    0  0.90216637684E+02  0.89710593062E+02 -0.18485683320E+03  0.25687366740E+03  0.12500000000E+03 0.  0.
</event>
<event>
 4    0  0.2210826E-002  0.2551807E+03  0.7546771E-02  0.1110074E+00
         21   -1    0    0  502  501  0.00000000000E+00  0.00000000000E+00  0.24915827538E+03  0.24915827538E+03  0.00000000000E+00 0. -1.
         21   -1    0    0  501  502 -0.00000000000E+00 -0.00000000000E+00 -0.26134870513E+03  0.26134870513E+03  0.00000000000E+00 0. -1.
         25    1    1    2    0    0  0.18221644154E+03  0.12752073337E+03 -0.11371530824E+02  0.25537948375E+03  0.12500000000E+03 0.  0.
         25    1    1    2    0    0 -0.18221644154E+03 -0.12752073337E+03 -0.81889892555E+00  0.25512749676E+03  0.12500000000E+03 0.  0.
</event>
<event>
 4    0  0.2210826E-002  0.1725642E+03  0.7546771E-02  0.1175200E+00
         21   -1    0    0  502  501  0.00000000000E+00  0.00000000000E+00  0.35777094588E+03  0.35777094588E+03  0.00000000000E+00 0. -1.
         21   -1    0    0  501  502 -0.00000000000E+00 -0.00000000000E+00 -0.83233158131E+02  0.83233158131E+02  0.00000000000E+00 0. -1.
         25    1    1    2    0    0 -0.38623702794E+02 -0.80366360311E+01 -0.61465619450E+01  0.13122178996E+03  0.12500000000E+03 0.  0.
         25    1    1    2    0    0  0.38623702794E+02  0.80366360311E+01  0.28068434969E+03  0.30978231405E+03  0.12500000000E+03 0.  0.
</event>
<event>
 4    0  0.2210826E-002  0.1711662E+03  0.7546771E-02  0.1176637E+00
         21   -1    0    0  502  501  0.00000000000E+00  0.00000000000E+00  0.13556821851E+02  0.13556821851E+02  0.00000000000E+00 0.  1.
         21   -1    0    0  501  502 -0.00000000000E+00 -0.00000000000E+00 -0.21611154367E+04  0.21611154367E+04  0.00000000000E+00 0.  1.
         25    1    1    2    0    0  0.31954397366E+02 -0.80331863296E+02 -0.57363943569E+03  0.59343196236E+03  0.12500000000E+03 0.  0.
         25    1    1    2    0    0 -0.31954397366E+02  0.80331863296E+02 -0.15739191792E+04  0.15812402962E+04  0.12500000000E+03 0.  0.
</event>
<event>
 4    0  0.2210826E-002  0.2130483E+03  0.7546771E-02  0.1139175E+00
         21   -1    0    0  502  501  0.00000000000E+00  0.00000000000E+00  0.64748081611E+03  0.64748081611E+03  0.00000000000E+00 0.  1.
         21   -1    0    0  501  502 -0.00000000000E+00 -0.00000000000E+00 -0.70101781540E+02  0.70101781540E+02  0.00000000000E+00 0.  1.
         25    1    1    2    0    0  0.75628243850E+02  0.15187406314E+03  0.23599094783E+03  0.31638914296E+03  0.12500000000E+03 0.  0.
         25    1    1    2    0    0 -0.75628243850E+02 -0.15187406314E+03  0.34138808674E+03  0.40119345470E+03  0.12500000000E+03 0.  0.
</event>
<event>
 4    0  0.2210826E-002  0.1914677E+03  0.7546771E-02  0.1157144E+00
         21   -1    0    0  502  501  0.00000000000E+00  0.00000000000E+00  0.10167944191E+03  0.10167944191E+03  0.00000000000E+00 0. -1.
         21   -1    0    0  501  502 -0.00000000000E+00 -0.00000000000E+00 -0.36054357971E+03  0.36054357971E+03  0.00000000000E+00 0. -1.
         25    1    1    2    0    0 -0.71964707816E+02 -0.23254713109E+00 -0.28142434571E+03  0.31623351436E+03  0.12500000000E+03 0.  0.
         25    1    1    2    0    0  0.71964707816E+02  0.23254713109E+00  0.22560207906E+02  0.14598950726E+03  0.12500000000E+03 0.  0.
</event>
<event>
 4    0  0.2210826E-002  0.2581905E+03  0.7546771E-02  0.1108235E+00
         21   -1    0    0  502  501  0.00000000000E+00  0.00000000000E+00  0.10842727487E+04  0.10842727487E+04  0.00000000000E+00 0.  1.
         21   -1    0    0  501  502 -0.00000000000E+00 -0.00000000000E+00 -0.61481167304E+02  0.61481167304E+02  0.00000000000E+00 0.  1.
         25    1    1    2    0    0  0.11423244636E+03  0.18118792612E+03  0.35202313562E+03  0.43060817965E+03  0.12500000000E+03 0.  0.
         25    1    1    2    0    0 -0.11423244636E+03 -0.18118792612E+03  0.67076844577E+03  0.71514573634E+03  0.12500000000E+03 0.  0.
</event>
<event>
 4    0  0.2210826E-002  0.5535553E+03  0.7546771E-02  0.1000674E+00
         21   -1    0    0  502  501  0.00000000000E+00  0.00000000000E+00  0.75120234506E+03  0.75120234506E+03  0.00000000000E+00 0.  1.
         21   -1    0    0  501  502 -0.00000000000E+00 -0.00000000000E+00 -0.40791074192E+03  0.40791074192E+03  0.00000000000E+00 0.  1.
         25    1    1    2    0    0  0.12877379922E+03  0.24088284356E+03  0.65844948043E+03  0.72373196279E+03  0.12500000000E+03 0.  0.
         25    1    1    2    0    0 -0.12877379922E+03 -0.24088284356E+03 -0.31515787728E+03  0.43538112419E+03  0.12500000000E+03 0.  0.
</event>
<event>
 4    0  0.2210826E-002  0.2281821E+03  0.7546771E-02  0.1127926E+00
         21   -1    0    0  502  501  0.00000000000E+00  0.00000000000E+00  0.19580603508E+03  0.19580603508E+03  0.00000000000E+00 0. -1.
         21   -1    0    0  501  502 -0.00000000000E+00 -0.00000000000E+00 -0.26591135678E+03  0.26591135678E+03  0.00000000000E+00 0. -1.
         25    1    1    2    0    0 -0.31615424290E+02 -0.18279538791E+03 -0.80618275199E+02  0.23777719653E+03  0.12500000000E+03 0.  0.
         25    1    1    2    0    0  0.31615424290E+02  0.18279538791E+03  0.10512953505E+02  0.22394019533E+03  0.12500000000E+03 0.  0.
</event>
<event>
 4    0  0.2210826E-002  0.1364816E+03  0.7546771E-02  0.1218143E+00
         21   -1    0    0  502  501  0.00000000000E+00  0.00000000000E+00  0.37008792213E+02  0.37008792213E+02  0.00000000000E+00 0. -1.
         21   -1    0    0  501  502 -0.00000000000E+00 -0.00000000000E+00 -0.50331862917E+03  0.50331862917E+03  0.00000000000E+00 0. -1.
         25    1    1    2    0    0 -0.21302060414E+02 -0.47059222055E+02 -0.26932416110E+03  0.30137825388E+03  0.12500000000E+03 0.  0.
         25    1    1    2    0    0  0.21302060414E+02  0.47059222055E+02 -0.19698567585E+03  0.23894916750E+03  0.12500000000E+03 0.  0.
</event>
<event>
 4    0  0.2210826E-002  0.2127532E+03  0.7546771E-02  0.1139404E+00
         21   -1    0    0  502  501  0.00000000000E+00  0.00000000000E+00  0.33922112209E+02  0.33922112209E+02  0.00000000000E+00 0. -1.
         21   -1    0    0  501  502 -0.00000000000E+00 -0.00000000000E+00 -0.13343489504E+04  0.13343489504E+04  0.00000000000E+00 0. -1.
         25    1    1    2    0    0 -0.52759535229E+02  0.12559975101E+03 -0.98869670076E+03  0.10058354896E+04  0.12500000000E+03 0.  0.
         25    1    1    2    0    0  0.52759535229E+02 -0.12559975101E+03 -0.31173013745E+03  0.36243557304E+03  0.12500000000E+03 0.  0.
</event>
<event>
 4    0  0.2210826E-002  0.1772381E+03  0.7546771E-02  0.1170503E+00
         21   -1    0    0  502  501  0.00000000000E+00  0.00000000000E+00  0.14657100765E+03  0.14657100765E+03  0.00000000000E+00 0.  1.
         21   -1    0    0  501  502 -0.00000000000E+00 -0.00000000000E+00 -0.21432159163E+03  0.21432159163E+03  0.00000000000E+00 0.  1.
         25    1    1    2    0    0  0.22043641037E+02  0.10892892087E+03  0.25810974298E+02  0.16924136110E+03  0.12500000000E+03 0.  0.
         25    1    1    2    0    0 -0.22043641037E+02 -0.10892892087E+03 -0.93561558279E+02  0.19165123819E+03  0.12500000000E+03 0.  0.
</event>
<event>
 4    0  0.2210826E-002  0.1406071E+03  0.7546771E-02  0.1212514E+00
         21   -1    0    0  502  501  0.00000000000E+00  0.00000000000E+00  0.69308887921E+02  0.69308887921E+02  0.00000000000E+00 0. -1.
         21   -1    0    0  501  502 -0.00000000000E+00 -0.00000000000E+00 -0.28525011861E+03  0.28525011861E+03  0.00000000000E+00 0. -1.
         25    1    1    2    0    0  0.42859254439E+02 -0.36810303713E+02 -0.69039119006E+02  0.15356859739E+03  0.12500000000E+03 0.  0.
         25    1    1    2    0    0 -0.42859254439E+02  0.36810303713E+02 -0.14690211168E+03  0.20099040914E+03  0.12500000000E+03 0.  0.
</event>
<event>
 4    0  0.2210826E-002  0.2268660E+03  0.7546771E-02  0.1128865E+00
         21   -1    0    0  502  501  0.00000000000E+00  0.00000000000E+00  0.75716745009E+03  0.75716745009E+03  0.00000000000E+00 0. -1.
         21   -1    0    0  501  502 -0.00000000000E+00 -0.00000000000E+00 -0.67974658315E+02  0.67974658315E+02  0.00000000000E+00 0. -1.
         25    1    1    2    0    0  0.53209665287E+02  0.67345700504E+02  0.37713647520E+02  0.15624989941E+03  0.12500000000E+03 0.  0.
         25    1    1    2    0    0 -0.53209665287E+02 -0.67345700504E+02  0.65147914426E+03  0.66889220900E+03  0.12500000000E+03 0.  0.
</event>
<event>
 4    0  0.2210826E-002  0.3747595E+03  0.7546771E-02  0.1052888E+00
         21   -1    0    0  502  501  0.00000000000E+00  0.00000000000E+00  0.49223753791E+03  0.49223753791E+03  0.00000000000E+00 0. -1.
         21   -1    0    0  501  502 -0.00000000000E+00 -0.00000000000E+00 -0.28531886487E+03  0.28531886487E+03  0.00000000000E+00 0. -1.
         25    1    1    2    0    0 -0.30626611949E+02  0.30912316505E+02 -0.26026414561E+03  0.29198627735E+03  0.12500000000E+03 0.  0.
         25    1    1    2    0    0  0.30626611949E+02 -0.30912316505E+02  0.46718281864E+03  0.48557012543E+03  0.12500000000E+03 0.  0.
</event>
<event>
 4    0  0.2210826E-002  0.2025605E+03  0.7546771E-02  0.1147597E+00
         21   -1    0    0  502  501  0.00000000000E+00  0.00000000000E+00  0.10078018473E+03  0.10078018473E+03  0.00000000000E+00 0.  1.
         21   -1    0    0  501  502 -0.00000000000E+00 -0.00000000000E+00 -0.40713123954E+03  0.40713123954E+03  0.00000000000E+00 0.  1.
         25    1    1    2    0    0 -0.46581598797E+02 -0.76181822544E+02 -0.31870673034E+03  0.35379725182E+03  0.12500000000E+03 0.  0.
         25    1    1    2    0    0  0.46581598797E+02  0.76181822544E+02  0.12355675534E+02  0.15411417245E+03  0.12500000000E+03 0.  0.
</event>
<event>
 4    0  0.2210826E-002  0.2720625E+03  0.7546771E-02  0.1100105E+00
         21   -1    0    0  502  501  0.00000000000E+00  0.00000000000E+00  0.15675535142E+03  0.15675535142E+03  0.00000000000E+00 0. -1.
         21   -1    0    0  501  502 -0.00000000000E+00 -0.00000000000E+00 -0.47218814252E+03  0.47218814252E+03  0.00000000000E+00 0. -1.
         25    1    1    2    0    0  0.75753031907E+02 -0.17787398927E+03  0.98477592975E+01  0.23043362659E+03  0.12500000000E+03 0.  0.
         25    1    1    2    0    0 -0.75753031907E+02  0.17787398927E+03 -0.32528055041E+03  0.39850986735E+03  0.12500000000E+03 0.  0.
</event>
<event>
 4    0  0.2210826E-002  0.2447022E+03  0.7546771E-02  0.1116699E+00
         21   -1    0    0  502  501  0.00000000000E+00  0.00000000000E+00  0.53537226562E+03  0.53537226562E+03  0.00000000000E+00 0. -1.
         21   -1    0    0  501  502 -0.00000000000E+00 -0.00000000000E+00 -0.11184584983E+03  0.11184584983E+03  0.00000000000E+00 0. -1.
         25    1    1    2    0    0  0.85949910773E+02 -0.11124037900E+03  0.47976457569E+01  0.18817498900E+03  0.12500000000E+03 0.  0.
         25    1    1    2    0    0 -0.85949910773E+02  0.11124037900E+03  0.41872877004E+03  0.45904312645E+03  0.12500000000E+03 0.  0.
</event>
<event>
 4    0  0.2210826E-002  0.1967350E+03  0.7546771E-02  0.1152523E+00
         21   -1    0    0  502  501  0.00000000000E+00  0.00000000000E+00  0.43601258248E+02  0.43601258248E+02  0.00000000000E+00 0.  1.
         21   -1    0    0  501  502 -0.00000000000E+00 -0.00000000000E+00 -0.88769595938E+03  0.88769595938E+03  0.00000000000E+00 0.  1.
         25    1    1    2    0    0  0.63630664054E+02  0.13745493821E+03 -0.39434983808E+03  0.44054456783E+03  0.12500000000E+03 0.  0.
         25    1    1    2    0    0 -0.63630664054E+02 -0.13745493821E+03 -0.44974486305E+03  0.49075264980E+03  0.12500000000E+03 0.  0.
</event>
<event>
 4    0  0.2210826E-002  0.2540149E+03  0.7546771E-02  0.1110793E+00
         21   -1    0    0  502  501  0.00000000000E+00  0.00000000000E+00  0.72670652625E+03  0.72670652625E+03  0.00000000000E+00 0. -1.
         21   -1    0    0  501  502 -0.00000000000E+00 -0.00000000000E+00 -0.88789034121E+02  0.88789034121E+02  0.00000000000E+00 0. -1.
         25    1    1    2    0    0 -0.26564637453E+02  0.21731090612E+03  0.36892342179E+03  0.44683240821E+03  0.12500000000E+03 0.  0.
         25    1    1    2    0    0  0.26564637453E+02 -0.21731090612E+03  0.26899407034E+03  0.36866315216E+03  0.12500000000E+03 0.  0.
</event>
<event>
 4    0  0.2210826E-002  0.3015089E+03  0.7546771E-02  0.1084489E+00
         21   -1    0    0  502  501  0.00000000000E+00  0.00000000000E+00  0.44666295372E+03  0.44666295372E+03  0.00000000000E+00 0.  1.
         21   -1    0    0  501  502 -0.00000000000E+00 -0.00000000000E+00 -0.20352626070E+03  0.20352626070E+03  0.00000000000E+00 0.  1.
         25    1    1    2    0    0  0.29024177984E+02 -0.18934130342E+03 -0.90242195996E+02  0.24588856425E+03  0.12500000000E+03 0.  0.
         25    1    1    2    0    0 -0.29024177984E+02  0.18934130342E+03  0.33337888902E+03  0.40430065018E+03  0.12500000000E+03 0.  0.
</event>
<event>
 4    0  0.2210826E-002  0.1868413E+03  0.7546771E-02  0.1161341E+00
         21   -1    0    0  502  501  0.00000000000E+00  0.00000000000E+00  0.15540762919E+03  0.15540762919E+03  0.00000000000E+00 0. -1.
         21   -1    0    0  501  502 -0.00000000000E+00 -0.00000000000E+00 -0.22463300624E+03  0.22463300624E+03  0.00000000000E+00 0. -1.
         25    1    1    2    0    0  0.83616029574E+02  0.92486823900E+02 -0.96802347313E+02  0.20134832366E+03  0.12500000000E+03 0.  0.
         25    1    1    2    0    0 -0.83616029574E+02 -0.92486823900E+02  0.27576970262E+02  0.17869231177E+03  0.12500000000E+03 0.  0.
</event>
<event>
 4    0  0.2210826E-002  0.2697758E+03  0.7546771E-02  0.1101408E+00
         21   -1    0    0  502  501  0.00000000000E+00  0.00000000000E+00  0.50680928830E+03  0.50680928830E+03  0.00000000000E+00 0.  1.
         21   -1    0    0  501  502 -0.00000000000E+00 -0.00000000000E+00 -0.14360228917E+03  0.14360228917E+03  0.00000000000E+00 0.  1.
         25    1    1    2    0    0 -0.13484397687E+03 -0.85453327318E+02 -0.32918155640E+02  0.20541123197E+03  0.12500000000E+03 0.  0.
         25    1    1    2    0    0  0.13484397687E+03  0.85453327318E+02  0.39612515478E+03  0.44500034550E+03  0.12500000000E+03 0.  0.
</event>
<event>
 4    0  0.2210826E-002  0.3878716E+03  0.7546771E-02  0.1048062E+00
         21   -1    0    0  502  501  0.00000000000E+00  0.00000000000E+00  0.37419775446E+03  0.37419775446E+03  0.00000000000E+00 0.  1.
         21   -1    0    0  501  502 -0.00000000000E+00 -0.00000000000E+00 -0.40204520572E+03  0.40204520572E+03  0.00000000000E+00 0.  1.
         25    1    1    2    0    0 -0.44217285330E+02  0.36274930439E+03 -0.49684498271E+02  0.38940438560E+03  0.12500000000E+03 0.  0.
         25    1    1    2    0    0  0.44217285330E+02 -0.36274930439E+03  0.21837047012E+02  0.38683857457E+03  0.12500000000E+03 0.  0.
</event>
<event>
 4    0  0.2210826E-002  0.3541758E+03  0.7546771E-02  0.1060914E+00
         21   -1    0    0  502  501  0.00000000000E+00  0.00000000000E+00  0.20436490973E+03  0.20436490973E+03  0.00000000000E+00 0.  1.
         21   -1    0    0  501  502 -0.00000000000E+00 -0.00000000000E+00 -0.61380653192E+03  0.61380653192E+03  0.00000000000E+00 0.  1.
         25    1    1    2    0    0  0.22895940290E+03  0.12475192412E+03 -0.44095332819E+03  0.52730473959E+03  0.12500000000E+03 0.  0.
         25    1    1    2    0    0 -0.22895940290E+03 -0.12475192412E+03  0.31511706001E+02  0.29086670205E+03  0.12500000000E+03 0.  0.
</event>
<event>
 4    0  0.2210826E-002  0.1908576E+03  0.7546771E-02  0.1157690E+00
         21   -1    0    0  502  501  0.00000000000E+00  0.00000000000E+00  0.54758290585E+02  0.54758290585E+02  0.00000000000E+00 0. -1.
         21   -1    0    0  501  502 -0.00000000000E+00 -0.00000000000E+00 -0.66522569165E+03  0.66522569165E+03  0.00000000000E+00 0. -1.
         25    1    1    2    0    0 -0.28072380118E+02  0.11248093921E+03 -0.14339978432E+03  0.22277459091E+03  0.12500000000E+03 0.  0.
         25    1    1    2    0    0  0.28072380118E+02 -0.11248093921E+03 -0.46706761675E+03  0.49720939133E+03  0.12500000000E+03 0.  0.
</event>
<event>
 4    0  0.2210826E-002  0.3473584E+03  0.7546771E-02  0.1063705E+00
         21   -1    0    0  502  501  0.00000000000E+00  0.00000000000E+00  0.10236071924E+04  0.10236071924E+04  0.00000000000E+00 0. -1.
         21   -1    0    0  501  502 -0.00000000000E+00 -0.00000000000E+00 -0.11787516199E+03  0.11787516199E+03  0.00000000000E+00 0. -1.
         25    1    1    2    0    0 -0.70195578126E+02  0.31598244943E+03  0.42634468346E+03  0.54969729547E+03  0.12500000000E+03 0.  0.
         25    1    1    2    0    0  0.70195578126E+02 -0.31598244943E+03  0.47938734698E+03  0.59178505893E+03  0.12500000000E+03 0.  0.
</event>
<event>
 4    0  0.2210826E-002  0.3273338E+03  0.7546771E-02  0.1072323E+00
         21   -1    0    0  502  501  0.00000000000E+00  0.00000000000E+00  0.84736548875E+02  0.84736548875E+02  0.00000000000E+00 0.  1.
         21   -1    0    0  501  502 -0.00000000000E+00 -0.00000000000E+00 -0.12644768024E+04  0.12644768024E+04  0.00000000000E+00 0.  1.
         25    1    1    2    0    0 -0.22254193653E+03 -0.26867722657E+02 -0.17116663989E+03  0.30849603992E+03  0.12500000000E+03 0.  0.
         25    1    1    2    0    0  0.22254193653E+03  0.26867722657E+02 -0.10085736136E+04  0.10407173113E+04  0.12500000000E+03 0.  0.
</event>
<event>
 4    0  0.2210826E-002  0.2212614E+03  0.7546771E-02  0.1132946E+00
         21   -1    0    0  502  501  0.00000000000E+00  0.00000000000E+00  0.19904696320E+03  0.19904696320E+03  0.00000000000E+00 0.  1.
         21   -1    0    0  501  502 -0.00000000000E+00 -0.00000000000E+00 -0.24595499960E+03  0.24595499960E+03  0.00000000000E+00 0.  1.
         25    1    1    2    0    0 -0.10443353184E+03 -0.13479387950E+03  0.42148292415E+02  0.21558578589E+03  0.12500000000E+03 0.  0.
         25    1    1    2    0    0  0.10443353184E+03  0.13479387950E+03 -0.89056328817E+02  0.22941617691E+03  0.12500000000E+03 0.  0.
</event>
<event>
 4    0  0.2210826E-002  0.2097607E+03  0.7546771E-02  0.1141756E+00
         21   -1    0    0  502  501  0.00000000000E+00  0.00000000000E+00  0.89118162496E+02  0.89118162496E+02  0.00000000000E+00 0.  1.
         21   -1    0    0  501  502 -0.00000000000E+00 -0.00000000000E+00 -0.49372153247E+03  0.49372153247E+03  0.00000000000E+00 0.  1.
         25    1    1    2    0    0 -0.12466230052E+03 -0.52172360487E+02 -0.62596794787E+02  0.19443765862E+03  0.12500000000E+03 0.  0.
         25    1    1    2    0    0  0.12466230052E+03  0.52172360487E+02 -0.34200657519E+03  0.38840203635E+03  0.12500000000E+03 0.  0.
</event>
<event>
 4    0  0.2210826E-002  0.1980585E+03  0.7546771E-02  0.1151387E+00
         21   -1    0    0  502  501  0.00000000000E+00  0.00000000000E+00  0.21543283905E+03  0.21543283905E+03  0.00000000000E+00 0.  1.
         21   -1    0    0  501  502 -0.00000000000E+00 -0.00000000000E+00 -0.18208534446E+03  0.18208534446E+03  0.00000000000E+00 0.  1.
         25    1    1    2    0    0  0.13008356971E+03  0.77359806657E+02 -0.97992552574E+01  0.19653829194E+03  0.12500000000E+03 0.  0.
         25    1    1    2    0    0 -0.13008356971E+03 -0.77359806657E+02  0.43146749848E+02  0.20097989157E+03  0.12500000000E+03 0.  0.
</event>
<event>
 4    0  0.2210826E-002  0.2913695E+03  0.7546771E-02  0.1089636E+00
         21   -1    0    0  502  501  0.00000000000E+00  0.00000000000E+00  0.28749538544E+03  0.28749538544E+03  0.00000000000E+00 0.  1.
         21   -1    0    0  501  502 -0.00000000000E+00 -0.00000000000E+00 -0.29529580809E+03  0.29529580809E+03  0.00000000000E+00 0.  1.
         25    1    1    2    0    0  0.80262043751E+02 -0.16168952662E+03  0.18765201863E+03  0.28883174822E+03  0.12500000000E+03 0.  0.
         25    1    1    2    0    0 -0.80262043751E+02  0.16168952662E+03 -0.19545244128E+03  0.29395944531E+03  0.12500000000E+03 0.  0.
</event>
<event>
 4    0  0.2210826E-002  0.1553997E+03  0.7546771E-02  0.1193991E+00
         21   -1    0    0  502  501  0.00000000000E+00  0.00000000000E+00  0.58595648641E+02  0.58595648641E+02  0.00000000000E+00 0.  1.
         21   -1    0    0  501  502 -0.00000000000E+00 -0.00000000000E+00 -0.41213078993E+03  0.41213078993E+03  0.00000000000E+00 0.  1.
         25    1    1    2    0    0 -0.68818333885E+02 -0.24510440439E+02 -0.26227483264E+03  0.29958273082E+03  0.12500000000E+03 0.  0.
         25    1    1    2    0    0  0.68818333885E+02  0.24510440439E+02 -0.91260308656E+02  0.17114370776E+03  0.12500000000E+03 0.  0.
</event>
<event>
 4    0  0.2210826E-002  0.2449728E+03  0.7546771E-02  0.1116524E+00
         21   -1    0    0  502  501  0.00000000000E+00  0.00000000000E+00  0.18357598177E+03  0.18357598177E+03  0.00000000000E+00 0. -1.
         21   -1    0    0  501  502 -0.00000000000E+00 -0.00000000000E+00 -0.32690381448E+03  0.32690381448E+03  0.00000000000E+00 0. -1.
         25    1    1    2    0    0 -0.11429569522E+03  0.17260426755E+03 -0.11243113485E+03  0.26668614363E+03  0.12500000000E+03 0.  0.
         25    1    1    2    0    0  0.11429569522E+03 -0.17260426755E+03 -0.30896697863E+02  0.24379365262E+03  0.12500000000E+03 0.  0.
</event>
<event>
 4    0  0.2210826E-002  0.2330867E+03  0.7546771E-02  0.1124486E+00
         21   -1    0    0  502  501  0.00000000000E+00  0.00000000000E+00  0.58859500057E+03  0.58859500057E+03  0.00000000000E+00 0.  1.
         21   -1    0    0  501  502 -0.00000000000E+00 -0.00000000000E+00 -0.92303590765E+02  0.92303590765E+02  0.00000000000E+00 0.  1.
         25    1    1    2    0    0 -0.83476191123E+02 -0.12916484754E+03  0.68944628414E+02  0.20983372968E+03  0.12500000000E+03 0.  0.
         25    1    1    2    0    0  0.83476191123E+02  0.12916484754E+03  0.42734678139E+03  0.47106486166E+03  0.12500000000E+03 0.  0.
</event>
<event>
 4    0  0.2210826E-002  0.2488936E+03  0.7546771E-02  0.1114006E+00
         21   -1    0    0  502  501  0.00000000000E+00  0.00000000000E+00  0.60943192353E+02  0.60943192353E+02  0.00000000000E+00 0.  1.
         21   -1    0    0  501  502 -0.00000000000E+00 -0.00000000000E+00 -0.10164882708E+04  0.10164882708E+04  0.00000000000E+00 0.  1.
         25    1    1    2    0    0  0.14093129122E+03 -0.15910309073E+03 -0.40444881307E+03  0.47368688468E+03  0.12500000000E+03 0.  0.
         25    1    1    2    0    0 -0.14093129122E+03  0.15910309073E+03 -0.55109626536E+03  0.60374457846E+03  0.12500000000E+03 0.  0.
</event>
<event>
 4    0  0.2210826E-002  0.1663920E+03  0.7546771E-02  0.1181664E+00
         21   -1    0    0  502  501  0.00000000000E+00  0.00000000000E+00  0.10307371379E+03  0.10307371379E+03  0.00000000000E+00 0.  1.
         21   -1    0    0  501  502 -0.00000000000E+00 -0.00000000000E+00 -0.26860665422E+03  0.26860665422E+03  0.00000000000E+00 0.  1.
         25    1    1    2    0    0  0.36830084458E+02 -0.15393287343E+02  0.31504676666E+02  0.13494796430E+03  0.12500000000E+03 0.  0.
         25    1    1    2    0    0 -0.36830084458E+02  0.15393287343E+02 -0.19703761710E+03  0.23673240371E+03  0.12500000000E+03 0.  0.
</event>
<event>
 4    0  0.2210826E-002  0.1916726E+03  0.7546771E-02  0.1156961E+00
         21   -1    0    0  502  501  0.00000000000E+00  0.00000000000E+00  0.12250785062E+03  0.12250785062E+03  0.00000000000E+00 0.  1.
         21   -1    0    0  501  502 -0.00000000000E+00 -0.00000000000E+00 -0.29988611593E+03  0.29988611593E+03  0.00000000000E+00 0.  1.
         25    1    1    2    0    0  0.17138768810E+02  0.14559815562E+02 -0.24686568275E+03  0.27762094831E+03  0.12500000000E+03 0.  0.
         25    1    1    2    0    0 -0.17138768810E+02 -0.14559815562E+02  0.69487417441E+02  0.14477301823E+03  0.12500000000E+03 0.  0.
</event>
<event>
 4    0  0.2210826E-002  0.2160932E+03  0.7546771E-02  0.1136830E+00
         21   -1    0    0  502  501  0.00000000000E+00  0.00000000000E+00  0.85370668599E+02  0.85370668599E+02  0.00000000000E+00 0. -1.
         21   -1    0    0  501  502 -0.00000000000E+00 -0.00000000000E+00 -0.54698251808E+03  0.54698251808E+03  0.00000000000E+00 0. -1.
         25    1    1    2    0    0  0.14801227051E+03 -0.85963077106E+02 -0.16918005464E+03  0.27119029063E+03  0.12500000000E+03 0.  0.
         25    1    1    2    0    0 -0.14801227051E+03  0.85963077106E+02 -0.29243179485E+03  0.36116289605E+03  0.12500000000E+03 0.  0.
</event>
<event>
 4    0  0.2210826E-002  0.2107378E+03  0.7546771E-02  0.1140983E+00
         21   -1    0    0  502  501  0.00000000000E+00  0.00000000000E+00  0.13159963729E+03  0.13159963729E+03  0.00000000000E+00 0. -1.
         21   -1    0    0  501  502 -0.00000000000E+00 -0.00000000000E+00 -0.33746597260E+03  0.33746597260E+03  0.00000000000E+00 0. -1.
         25    1    1    2    0    0 -0.26320441339E+02  0.77169777257E+02 -0.26851975148E+03  0.30720644051E+03  0.12500000000E+03 0.  0.
         25    1    1    2    0    0  0.26320441339E+02 -0.77169777257E+02  0.62653416176E+02  0.16185916938E+03  0.12500000000E+03 0.  0.
</event>
<event>
 4    0  0.2210826E-002  0.2471692E+03  0.7546771E-02  0.1115107E+00
         21   -1    0    0  502  501  0.00000000000E+00  0.00000000000E+00  0.15699835695E+03  0.15699835695E+03  0.00000000000E+00 0.  1.
         21   -1    0    0  501  502 -0.00000000000E+00 -0.00000000000E+00 -0.38912902664E+03  0.38912902664E+03  0.00000000000E+00 0.  1.
         25    1    1    2    0    0  0.24639527612E+02 -0.87545033329E+02  0.97003494617E+02  0.18249908808E+03  0.12500000000E+03 0.  0.
         25    1    1    2    0    0 -0.24639527612E+02  0.87545033329E+02 -0.32913416430E+03  0.36362829551E+03  0.12500000000E+03 0.  0.
</event>
<event>
 4    0  0.2210826E-002  0.1899401E+03  0.7546771E-02  0.1158515E+00
         21   -1    0    0  502  501  0.00000000000E+00  0.00000000000E+00  0.48194204320E+02  0.48194204320E+02  0.00000000000E+00 0.  1.
         21   -1    0    0  501  502 -0.00000000000E+00 -0.00000000000E+00 -0.74858067946E+03  0.74858067946E+03  0.00000000000E+00 0.  1.
         25    1    1    2    0    0  0.14017902274E+03  0.13153035447E+01 -0.29085534811E+03  0.34622784690E+03  0.12500000000E+03 0.  0.
         25    1    1    2    0    0 -0.14017902274E+03 -0.13153035447E+01 -0.40953112702E+03  0.45054703688E+03  0.12500000000E+03 0.  0.
</event>
<event>
 4    0  0.2210826E-002  0.1996398E+03  0.7546771E-02  0.1150043E+00
         21   -1    0    0  502  501  0.00000000000E+00  0.00000000000E+00  0.21627071904E+03  0.21627071904E+03  0.00000000000E+00 0. -1.
         21   -1    0    0  501  502 -0.00000000000E+00 -0.00000000000E+00 -0.18428783673E+03  0.18428783673E+03  0.00000000000E+00 0. -1.
         25    1    1    2    0    0  0.15465552773E+02 -0.11855448099E+03 -0.84010914076E+02  0.19229451882E+03  0.12500000000E+03 0.  0.
         25    1    1    2    0    0 -0.15465552773E+02  0.11855448099E+03  0.11599379638E+03  0.20826403694E+03  0.12500000000E+03 0.  0.
</event>
<event>
 4    0  0.2210826E-002  0.1842978E+03  0.7546771E-02  0.1163707E+00
         21   -1    0    0  502  501  0.00000000000E+00  0.00000000000E+00  0.12320529681E+04  0.12320529681E+04  0.00000000000E+00 0. -1.
         21   -1    0    0  501  502 -0.00000000000E+00 -0.00000000000E+00 -0.27568374009E+02  0.27568374009E+02  0.00000000000E+00 0. -1.
         25    1    1    2    0    0  0.10090373245E+03 -0.15629744765E+02  0.29821613794E+03  0.33909249044E+03  0.12500000000E+03 0.  0.
         25    1    1    2    0    0 -0.10090373245E+03  0.15629744765E+02  0.90626845617E+03  0.92052885169E+03  0.12500000000E+03 0.  0.
</event>
<event>
 4    0  0.2210826E-002  0.2558379E+03  0.7546771E-02  0.1109670E+00
         21   -1    0    0  502  501  0.00000000000E+00  0.00000000000E+00  0.65366523640E+02  0.65366523640E+02  0.00000000000E+00 0.  1.
         21   -1    0    0  501  502 -0.00000000000E+00 -0.00000000000E+00 -0.10013235917E+04  0.10013235917E+04  0.00000000000E+00 0.  1.
         25    1    1    2    0    0 -0.65402370574E+02 -0.16435332634E+03 -0.75182357501E+03  0.78240218167E+03  0.12500000000E+03 0.  0.
         25    1    1    2    0    0  0.65402370574E+02  0.16435332634E+03 -0.18413349301E+03  0.28428793362E+03  0.12500000000E+03 0.  0.
</event>
<event>
 4    0  0.2210826E-002  0.1796023E+03  0.7546771E-02  0.1168188E+00
         21   -1    0    0  502  501  0.00000000000E+00  0.00000000000E+00  0.27229674023E+03  0.27229674023E+03  0.00000000000E+00 0.  1.
         21   -1    0    0  501  502 -0.00000000000E+00 -0.00000000000E+00 -0.11846267639E+03  0.11846267639E+03  0.00000000000E+00 0.  1.
         25    1    1    2    0    0  0.97313935203E+02 -0.59217307599E+02  0.14268728611E+03  0.22127212459E+03  0.12500000000E+03 0.  0.
         25    1    1    2    0    0 -0.97313935203E+02  0.59217307599E+02  0.11146777728E+02  0.16948729202E+03  0.12500000000E+03 0.  0.
</event>
<event>
 4    0  0.2210826E-002  0.2212938E+03  0.7546771E-02  0.1132922E+00
         21   -1    0    0  502  501  0.00000000000E+00  0.00000000000E+00  0.22599657474E+04  0.22599657474E+04  0.00000000000E+00 0.  1.
         21   -1    0    0  501  502 -0.00000000000E+00 -0.00000000000E+00 -0.21668883454E+02  0.21668883454E+02  0.00000000000E+00 0.  1.
         25    1    1    2    0    0  0.35242425139E+02  0.87484036071E+02  0.31304581516E+03  0.35002595259E+03  0.12500000000E+03 0.  0.
         25    1    1    2    0    0 -0.35242425139E+02 -0.87484036071E+02  0.19252510488E+04  0.19316086783E+04  0.12500000000E+03 0.  0.
</event>
<event>
 4    0  0.2210826E-002  0.3675516E+03  0.7546771E-02  0.1055633E+00
         21   -1    0    0  502  501  0.00000000000E+00  0.00000000000E+00  0.57958876991E+03  0.57958876991E+03  0.00000000000E+00 0.  1.
         21   -1    0    0  501  502 -0.00000000000E+00 -0.00000000000E+00 -0.23308627326E+03  0.23308627326E+03  0.00000000000E+00 0.  1.
         25    1    1    2    0    0  0.24808566458E+03 -0.20968484321E+03  0.30384813756E+03  0.46202047697E+03  0.12500000000E+03 0.  0.
         25    1    1    2    0    0 -0.24808566458E+03  0.20968484321E+03  0.42654359085E+02  0.35065456619E+03  0.12500000000E+03 0.  0.
</event>
<event>
 4    0  0.2210826E-002  0.2918262E+03  0.7546771E-02  0.1089399E+00
         21   -1    0    0  502  501  0.00000000000E+00  0.00000000000E+00  0.67104310013E+03  0.67104310013E+03  0.00000000000E+00 0. -1.
         21   -1    0    0  501  502 -0.00000000000E+00 -0.00000000000E+00 -0.12691071301E+03  0.12691071301E+03  0.00000000000E+00 0. -1.
         25    1    1    2    0    0 -0.22489833356E+03 -0.78071965634E+02  0.11700766483E+03  0.29324100308E+03  0.12500000000E+03 0.  0.
         25    1    1    2    0    0  0.22489833356E+03  0.78071965634E+02  0.42712472229E+03  0.50471281007E+03  0.12500000000E+03 0.  0.
</event>
<event>
 4    0  0.2210826E-002  0.2464408E+03  0.7546771E-02  0.1115575E+00
         21   -1    0    0  502  501  0.00000000000E+00  0.00000000000E+00  0.16860953541E+04  0.16860953541E+04  0.00000000000E+00 0.  1.
         21   -1    0    0  501  502 -0.00000000000E+00 -0.00000000000E+00 -0.36019955896E+02  0.36019955896E+02  0.00000000000E+00 0.  1.
         25    1    1    2    0    0  0.19716556295E+03  0.38787865332E+02  0.10653184866E+04  0.10912869630E+04  0.12500000000E+03 0.  0.
         25    1    1    2    0    0 -0.19716556295E+03 -0.38787865332E+02  0.58475691161E+03  0.63082834700E+03  0.12500000000E+03 0.  0.
</event>
<event>
 4    0  0.2210826E-002  0.2314759E+03  0.7546771E-02  0.1125605E+00
         21   -1    0    0  502  501  0.00000000000E+00  0.00000000000E+00  0.56186769834E+02  0.56186769834E+02  0.00000000000E+00 0. -1.
         21   -1    0    0  501  502 -0.00000000000E+00 -0.00000000000E+00 -0.95362501269E+03  0.95362501269E+03  0.00000000000E+00 0. -1.
         25    1    1    2    0    0 -0.66503757607E+02 -0.36533715560E+02 -0.57316797737E+02  0.15705947107E+03  0.12500000000E+03 0.  0.
         25    1    1    2    0    0  0.66503757607E+02  0.36533715560E+02 -0.84012144511E+03  0.85275231145E+03  0.12500000000E+03 0.  0.
</event>
<event>
 4    0  0.2210826E-002  0.1878253E+03  0.7546771E-02  0.1160437E+00
         21   -1    0    0  502  501  0.00000000000E+00  0.00000000000E+00  0.27990539711E+03  0.27990539711E+03  0.00000000000E+00 0. -1.
         21   -1    0    0  501  502 -0.00000000000E+00 -0.00000000000E+00 -0.12603671837E+03  0.12603671837E+03  0.00000000000E+00 0. -1.
         25    1    1    2    0    0 -0.41633989065E+02 -0.10596528179E+03  0.16533104610E+03  0.23647702805E+03  0.12500000000E+03 0.  0.
         25    1    1    2    0    0  0.41633989065E+02  0.10596528179E+03 -0.11462367366E+02  0.16946508743E+03  0.12500000000E+03 0.  0.
</event>
<event>
 4    0  0.2210826E-002  0.1652907E+03  0.7546771E-02  0.1182850E+00
         21   -1    0    0  502  501  0.00000000000E+00  0.00000000000E+00  0.34149847837E+03  0.34149847837E+03  0.00000000000E+00 0.  1.
         21   -1    0    0  501  502 -0.00000000000E+00 -0.00000000000E+00 -0.80003376464E+02  0.80003376464E+02  0.00000000000E+00 0.  1.
         25    1    1    2    0    0 -0.64303279515E+02 -0.46880731976E+01  0.20038813444E+02  0.14206844770E+03  0.12500000000E+03 0.  0.
         25    1    1    2    0    0  0.64303279515E+02  0.46880731976E+01  0.24145628847E+03  0.27943340714E+03  0.12500000000E+03 0.  0.
</event>
<event>
 4    0  0.2210826E-002  0.2642183E+03  0.7546771E-02  0.1104635E+00
         21   -1    0    0  502  501  0.00000000000E+00  0.00000000000E+00  0.81653228364E+02  0.81653228364E+02  0.00000000000E+00 0. -1.
         21   -1    0    0  501  502 -0.00000000000E+00 -0.00000000000E+00 -0.85497294999E+03  0.85497294999E+03  0.00000000000E+00 0. -1.
         25    1    1    2    0    0 -0.76018113265E+02  0.16952360046E+03 -0.13807890903E+03  0.26307373448E+03  0.12500000000E+03 0.  0.
         25    1    1    2    0    0  0.76018113265E+02 -0.16952360046E+03 -0.63524081260E+03  0.67355244388E+03  0.12500000000E+03 0.  0.
</event>
<event>
 4    0  0.2210826E-002  0.1829309E+03  0.7546771E-02  0.1164996E+00
         21   -1    0    0  502  501  0.00000000000E+00  0.00000000000E+00  0.61073142967E+03  0.61073142967E+03  0.00000000000E+00 0. -1.
         21   -1    0    0  501  502 -0.00000000000E+00 -0.00000000000E+00 -0.54792862128E+02  0.54792862128E+02  0.00000000000E+00 0. -1.
         25    1    1    2    0    0  0.34171733732E+02 -0.11076943148E+03  0.39864775734E+03  0.43356961237E+03  0.12500000000E+03 0.  0.
         25    1    1    2    0    0 -0.34171733732E+02  0.11076943148E+03  0.15729081020E+03  0.23195467943E+03  0.12500000000E+03 0.  0.
</event>
<event>
 4    0  0.2210826E-002  0.2956343E+03  0.7546771E-02  0.1087444E+00
         21   -1    0    0  502  501  0.00000000000E+00  0.00000000000E+00  0.24910274883E+03  0.24910274883E+03  0.00000000000E+00 0. -1.
         21   -1    0    0  501  502 -0.00000000000E+00 -0.00000000000E+00 -0.35085788565E+03  0.35085788565E+03  0.00000000000E+00 0. -1.
         25    1    1    2    0    0  0.70291576901E+02 -0.22010805958E+01  0.21143559110E+03  0.25549121262E+03  0.12500000000E+03 0.  0.
         25    1    1    2    0    0 -0.70291576901E+02  0.22010805958E+01 -0.31319072792E+03  0.34446942186E+03  0.12500000000E+03 0.  0.
</event>
<event>
 4    0  0.2210826E-002  0.2139222E+03  0.7546771E-02  0.1138497E+00
         21   -1    0    0  502  501  0.00000000000E+00  0.00000000000E+00  0.24834805640E+03  0.24834805640E+03  0.00000000000E+00 0.  1.
         21   -1    0    0  501  502 -0.00000000000E+00 -0.00000000000E+00 -0.18426843944E+03  0.18426843944E+03  0.00000000000E+00 0.  1.
         25    1    1    2    0    0  0.16157756644E+03 -0.57315449270E+02  0.44344192098E+01  0.21221930821E+03  0.12500000000E+03 0.  0.
         25    1    1    2    0    0 -0.16157756644E+03  0.57315449270E+02  0.59645197746E+02  0.22039718764E+03  0.12500000000E+03 0.  0.
</event>
<event>
 4    0  0.2210826E-002  0.2456409E+03  0.7546771E-02  0.1116091E+00
         21   -1    0    0  502  501  0.00000000000E+00  0.00000000000E+00  0.20279962445E+03  0.20279962445E+03  0.00000000000E+00 0.  1.
         21   -1    0    0  501  502 -0.00000000000E+00 -0.00000000000E+00 -0.29753245053E+03  0.29753245053E+03  0.00000000000E+00 0.  1.
         25    1    1    2    0    0 -0.97919492509E+02  0.18163070311E+03 -0.29230555722E+00  0.24125303059E+03  0.12500000000E+03 0.  0.
         25    1    1    2    0    0  0.97919492509E+02 -0.18163070311E+03 -0.94440520527E+02  0.25907904439E+03  0.12500000000E+03 0.  0.
</event>
<event>
 4    0  0.2210826E-002  0.2517662E+03  0.7546771E-02  0.1112194E+00
         21   -1    0    0  502  501  0.00000000000E+00  0.00000000000E+00  0.26929905530E+03  0.26929905530E+03  0.00000000000E+00 0. -1.
         21   -1    0    0  501  502 -0.00000000000E+00 -0.00000000000E+00 -0.23537474446E+03  0.23537474446E+03  0.00000000000E+00 0. -1.
         25    1    1    2    0    0  0.17023324537E+03  0.12272404486E+03 -0.44173232123E+02  0.24822736241E+03  0.12500000000E+03 0.  0.
         25    1    1    2    0    0 -0.17023324537E+03 -0.12272404486E+03  0.78097542962E+02  0.25644643735E+03  0.12500000000E+03 0.  0.
</event>
<event>
 4    0  0.2210826E-002  0.2871394E+03  0.7546771E-02  0.1091852E+00
         21   -1    0    0  502  501  0.00000000000E+00  0.00000000000E+00  0.59679800927E+03  0.59679800927E+03  0.00000000000E+00 0.  1.
         21   -1    0    0  501  502 -0.00000000000E+00 -0.00000000000E+00 -0.13815237411E+03  0.13815237411E+03  0.00000000000E+00 0.  1.
         25    1    1    2    0    0 -0.39383935068E+02  0.25442327644E+03  0.19953489602E+03  0.34888604539E+03  0.12500000000E+03 0.  0.
         25    1    1    2    0    0  0.39383935068E+02 -0.25442327644E+03  0.25911073914E+03  0.38606433800E+03  0.12500000000E+03 0.  0.
</event>
<event>
 4    0  0.2210826E-002  0.2082190E+03  0.7546771E-02  0.1142984E+00
         21   -1    0    0  502  501  0.00000000000E+00  0.00000000000E+00  0.84524227740E+02  0.84524227740E+02  0.00000000000E+00 0. -1.
         21   -1    0    0  501  502 -0.00000000000E+00 -0.00000000000E+00 -0.51293167105E+03  0.51293167105E+03  0.00000000000E+00 0. -1.
         25    1    1    2    0    0 -0.40722811425E+02 -0.18733094872E+02 -0.44429405955E+03  0.46371487745E+03  0.12500000000E+03 0.  0.
         25    1    1    2    0    0  0.40722811425E+02  0.18733094872E+02  0.15886616243E+02  0.13374102134E+03  0.12500000000E+03 0.  0.
</event>
<event>
 4    0  0.2210826E-002  0.1490688E+03  0.7546771E-02  0.1201622E+00
         21   -1    0    0  502  501  0.00000000000E+00  0.00000000000E+00  0.82341392477E+03  0.82341392477E+03  0.00000000000E+00 0.  1.
         21   -1    0    0  501  502 -0.00000000000E+00 -0.00000000000E+00 -0.26987049461E+02  0.26987049461E+02  0.00000000000E+00 0.  1.
         25    1    1    2    0    0 -0.16550176645E+02  0.53058722747E+02  0.56714006236E+03  0.58340550798E+03  0.12500000000E+03 0.  0.
         25    1    1    2    0    0  0.16550176645E+02 -0.53058722747E+02  0.22928681295E+03  0.26699546625E+03  0.12500000000E+03 0.  0.
</event>
<event>
 4    0  0.2210826E-002  0.2558178E+03  0.7546771E-02  0.1109682E+00
         21   -1    0    0  502  501  0.00000000000E+00  0.00000000000E+00  0.64196905207E+03  0.64196905207E+03  0.00000000000E+00 0. -1.
         21   -1    0    0  501  502 -0.00000000000E+00 -0.00000000000E+00 -0.10194069653E+03  0.10194069653E+03  0.00000000000E+00 0. -1.
         25    1    1    2    0    0 -0.71446954467E+02  0.68523527435E+02  0.56087491372E+03  0.58310017146E+03  0.12500000000E+03 0.  0.
         25    1    1    2    0    0  0.71446954467E+02 -0.68523527435E+02 -0.20846558173E+02  0.16080957715E+03  0.12500000000E+03 0.  0.
</event>
<event>
 4    0  0.2210826E-002  0.2044305E+03  0.7546771E-02  0.1146054E+00
         21   -1    0    0  502  501  0.00000000000E+00  0.00000000000E+00  0.40164259909E+03  0.40164259909E+03  0.00000000000E+00 0. -1.
         21   -1    0    0  501  502 -0.00000000000E+00 -0.00000000000E+00 -0.10405227712E+03  0.10405227712E+03  0.00000000000E+00 0. -1.
         25    1    1    2    0    0 -0.82020428960E+02 -0.66583595379E+02 -0.27167627996E+01  0.16368600044E+03  0.12500000000E+03 0.  0.
         25    1    1    2    0    0  0.82020428960E+02  0.66583595379E+02  0.30030708477E+03  0.34200887577E+03  0.12500000000E+03 0.  0.
</event>
<event>
 4    0  0.2210826E-002  0.1982431E+03  0.7546771E-02  0.1151230E+00
         21   -1    0    0  502  501  0.00000000000E+00  0.00000000000E+00  0.45596844354E+03  0.45596844354E+03  0.00000000000E+00 0.  1.
         21   -1    0    0  501  502 -0.00000000000E+00 -0.00000000000E+00 -0.86190856332E+02  0.86190856332E+02  0.00000000000E+00 0.  1.
         25    1    1    2    0    0  0.55391682183E+02 -0.13838331471E+03  0.23708610443E+03  0.30668061751E+03  0.12500000000E+03 0.  0.
         25    1    1    2    0    0 -0.55391682183E+02  0.13838331471E+03  0.13269148279E+03  0.23547868237E+03  0.12500000000E+03 0.  0.
</event>
<event>
 4    0  0.2210826E-002  0.2277904E+03  0.7546771E-02  0.1128205E+00
         21   -1    0    0  502  501  0.00000000000E+00  0.00000000000E+00  0.19197619726E+03  0.19197619726E+03  0.00000000000E+00 0. -1.
         21   -1    0    0  501  502 -0.00000000000E+00 -0.00000000000E+00 -0.27028599677E+03  0.27028599677E+03  0.00000000000E+00 0. -1.
         25    1    1    2    0    0  0.74610425110E+02 -0.57643472772E+02  0.12872240419E+03  0.20269174336E+03  0.12500000000E+03 0.  0.
         25    1    1    2    0    0 -0.74610425110E+02  0.57643472772E+02 -0.20703220370E+03  0.25957045067E+03  0.12500000000E+03 0.  0.
</event>
<event>
 4    0  0.2210826E-002  0.2154096E+03  0.7546771E-02  0.1137352E+00
         21   -1    0    0  502  501  0.00000000000E+00  0.00000000000E+00  0.39883105634E+03  0.39883105634E+03  0.00000000000E+00 0. -1.
         21   -1    0    0  501  502 -0.00000000000E+00 -0.00000000000E+00 -0.11634318687E+03  0.11634318687E+03  0.00000000000E+00 0. -1.
         25    1    1    2    0    0 -0.12402814626E+03  0.38055967110E+02  0.32767975947E-01  0.18015615107E+03  0.12500000000E+03 0.  0.
         25    1    1    2    0    0  0.12402814626E+03 -0.38055967110E+02  0.28245510150E+03  0.33501809214E+03  0.12500000000E+03 0.  0.
</event>
<event>
 4    0  0.2210826E-002  0.1824110E+03  0.7546771E-02  0.1165490E+00
         21   -1    0    0  502  501  0.00000000000E+00  0.00000000000E+00  0.23595077473E+02  0.23595077473E+02  0.00000000000E+00 0.  1.
         21   -1    0    0  501  502 -0.00000000000E+00 -0.00000000000E+00 -0.14102005110E+04  0.14102005110E+04  0.00000000000E+00 0.  1.
         25    1    1    2    0    0  0.45767077122E+02  0.40235361356E+01 -0.20340735093E+03  0.24312623183E+03  0.12500000000E+03 0.  0.
         25    1    1    2    0    0 -0.45767077122E+02 -0.40235361356E+01 -0.11831980826E+04  0.11906693567E+04  0.12500000000E+03 0.  0.
</event>
<event>
 4    0  0.2210826E-002  0.2072045E+03  0.7546771E-02  0.1143799E+00
         21   -1    0    0  502  501  0.00000000000E+00  0.00000000000E+00  0.11931396623E+03  0.11931396623E+03  0.00000000000E+00 0.  1.
         21   -1    0    0  501  502 -0.00000000000E+00 -0.00000000000E+00 -0.35983821762E+03  0.35983821762E+03  0.00000000000E+00 0.  1.
         25    1    1    2    0    0 -0.48591264797E+02 -0.42621230475E+02  0.55587648425E+02  0.15130322852E+03  0.12500000000E+03 0.  0.
         25    1    1    2    0    0  0.48591264797E+02  0.42621230475E+02 -0.29611189981E+03  0.32784895533E+03  0.12500000000E+03 0.  0.
</event>
<event>
 4    0  0.2210826E-002  0.1811527E+03  0.7546771E-02  0.1166692E+00
         21   -1    0    0  502  501  0.00000000000E+00  0.00000000000E+00  0.26554644628E+03  0.26554644628E+03  0.00000000000E+00 0. -1.
         21   -1    0    0  501  502 -0.00000000000E+00 -0.00000000000E+00 -0.12358020213E+03  0.12358020213E+03  0.00000000000E+00 0. -1.
         25    1    1    2    0    0 -0.66850222452E+00  0.86486468253E+02  0.17682234300E+03  0.23317696514E+03  0.12500000000E+03 0.  0.
         25    1    1    2    0    0  0.66850222452E+00 -0.86486468253E+02 -0.34856098847E+02  0.15594968327E+03  0.12500000000E+03 0.  0.
</event>
<event>
 4    0  0.2210826E-002  0.2494537E+03  0.7546771E-02  0.1113651E+00
         21   -1    0    0  502  501  0.00000000000E+00  0.00000000000E+00  0.77015306313E+02  0.77015306313E+02  0.00000000000E+00 0. -1.
         21   -1    0    0  501  502 -0.00000000000E+00 -0.00000000000E+00 -0.80798396952E+03  0.80798396952E+03  0.00000000000E+00 0. -1.
         25    1    1    2    0    0 -0.72859818782E+02  0.86316738229E+02 -0.39153991512E+02  0.17296579877E+03  0.12500000000E+03 0.  0.
         25    1    1    2    0    0  0.72859818782E+02 -0.86316738229E+02 -0.69181467170E+03  0.71203347707E+03  0.12500000000E+03 0.  0.
</event>
<event>
 4    0  0.2210826E-002  0.2324832E+03  0.7546771E-02  0.1124904E+00
         21   -1    0    0  502  501  0.00000000000E+00  0.00000000000E+00  0.52939760933E+03  0.52939760933E+03  0.00000000000E+00 0. -1.
         21   -1    0    0  501  502 -0.00000000000E+00 -0.00000000000E+00 -0.10209422986E+03  0.10209422986E+03  0.00000000000E+00 0. -1.
         25    1    1    2    0    0  0.82663540609E+02  0.23417966751E+02  0.45293888667E+03  0.47766127870E+03  0.12500000000E+03 0.  0.
         25    1    1    2    0    0 -0.82663540609E+02 -0.23417966751E+02 -0.25635507199E+02  0.15383056049E+03  0.12500000000E+03 0.  0.
</event>
<event>
 4    0  0.2210826E-002  0.3360606E+03  0.7546771E-02  0.1068486E+00
         21   -1    0    0  502  501  0.00000000000E+00  0.00000000000E+00  0.45971652148E+02  0.45971652148E+02  0.00000000000E+00 0.  1.
         21   -1    0    0  501  502 -0.00000000000E+00 -0.00000000000E+00 -0.24566595986E+04  0.24566595986E+04  0.00000000000E+00 0.  1.
         25    1    1    2    0    0 -0.95244122862E+02  0.29387410384E+03 -0.10439719750E+04  0.10958722172E+04  0.12500000000E+03 0.  0.
         25    1    1    2    0    0  0.95244122862E+02 -0.29387410384E+03 -0.13667159714E+04  0.14067590335E+04  0.12500000000E+03 0.  0.
</event>
<event>
 4    0  0.2210826E-002  0.1823971E+03  0.7546771E-02  0.1165503E+00
         21   -1    0    0  502  501  0.00000000000E+00  0.00000000000E+00  0.71189193571E+03  0.71189193571E+03  0.00000000000E+00 0.  1.
         21   -1    0    0  501  502 -0.00000000000E+00 -0.00000000000E+00 -0.46732822266E+02  0.46732822266E+02  0.00000000000E+00 0.  1.
         25    1    1    2    0    0 -0.34966439664E+02  0.90061085939E+02  0.14300446757E+03  0.21309370908E+03  0.12500000000E+03 0.  0.
         25    1    1    2    0    0  0.34966439664E+02 -0.90061085939E+02  0.52215464587E+03  0.54553104890E+03  0.12500000000E+03 0.  0.
</event>
<event>
 4    0  0.2210826E-002  0.1845969E+03  0.7546771E-02  0.1163427E+00
         21   -1    0    0  502  501  0.00000000000E+00  0.00000000000E+00  0.21048173885E+03  0.21048173885E+03  0.00000000000E+00 0. -1.
         21   -1    0    0  501  502 -0.00000000000E+00 -0.00000000000E+00 -0.16189530782E+03  0.16189530782E+03  0.00000000000E+00 0. -1.
         25    1    1    2    0    0  0.27458622238E+02  0.83946149751E+02  0.12838222505E+03  0.19976968664E+03  0.12500000000E+03 0.  0.
         25    1    1    2    0    0 -0.27458622238E+02 -0.83946149751E+02 -0.79795794015E+02  0.17260736003E+03  0.12500000000E+03 0.  0.
</event>
<event>
 4    0  0.2210826E-002  0.3257055E+03  0.7546771E-02  0.1073053E+00
         21   -1    0    0  502  501  0.00000000000E+00  0.00000000000E+00  0.77330933891E+02  0.77330933891E+02  0.00000000000E+00 0.  1.
         21   -1    0    0  501  502 -0.00000000000E+00 -0.00000000000E+00 -0.13718196113E+04  0.13718196113E+04  0.00000000000E+00 0.  1.
         25    1    1    2    0    0  0.14673879507E+02 -0.29507740350E+03 -0.52193024818E+03  0.61263543871E+03  0.12500000000E+03 0.  0.
         25    1    1    2    0    0 -0.14673879507E+02  0.29507740350E+03 -0.77255842925E+03  0.83651510650E+03  0.12500000000E+03 0.  0.
</event>
<event>
 4    0  0.2210826E-002  0.2520321E+03  0.7546771E-02  0.1112027E+00
         21   -1    0    0  502  501  0.00000000000E+00  0.00000000000E+00  0.33678848035E+03  0.33678848035E+03  0.00000000000E+00 0. -1.
         21   -1    0    0  501  502 -0.00000000000E+00 -0.00000000000E+00 -0.18860557270E+03  0.18860557270E+03  0.00000000000E+00 0. -1.
         25    1    1    2    0    0 -0.18610206514E+03  0.86604400832E+02  0.15320371950E+03  0.28500996572E+03  0.12500000000E+03 0.  0.
         25    1    1    2    0    0  0.18610206514E+03 -0.86604400832E+02 -0.50208118379E+01  0.24038408733E+03  0.12500000000E+03 0.  0.
</event>
<event>
 4    0  0.2210826E-002  0.2337937E+03  0.7546771E-02  0.1123998E+00
         21   -1    0    0  502  501  0.00000000000E+00  0.00000000000E+00  0.10428600265E+03  0.10428600265E+03  0.00000000000E+00 0.  1.
         21   -1    0    0  501  502 -0.00000000000E+00 -0.00000000000E+00 -0.52413049790E+03  0.52413049790E+03  0.00000000000E+00 0.  1.
         25    1    1    2    0    0  0.12870589969E+03 -0.12517195830E+03 -0.32075780851E+03  0.38825738818E+03  0.12500000000E+03 0.  0.
         25    1    1    2    0    0 -0.12870589969E+03  0.12517195830E+03 -0.99086686743E+02  0.24015911236E+03  0.12500000000E+03 0.  0.
</event>
<event>
 4    0  0.2210826E-002  0.3122648E+03  0.7546771E-02  0.1079265E+00
         21   -1    0    0  502  501  0.00000000000E+00  0.00000000000E+00  0.63290484466E+03  0.63290484466E+03  0.00000000000E+00 0.  1.
         21   -1    0    0  501  502 -0.00000000000E+00 -0.00000000000E+00 -0.15406626830E+03  0.15406626830E+03  0.00000000000E+00 0.  1.
         25    1    1    2    0    0 -0.61194505615E+02  0.25759256472E+03  0.10262074235E+03  0.31024943784E+03  0.12500000000E+03 0.  0.
         25    1    1    2    0    0  0.61194505615E+02 -0.25759256472E+03  0.37621783401E+03  0.47672167513E+03  0.12500000000E+03 0.  0.
</event>
<event>
 4    0  0.2210826E-002  0.2240012E+03  0.7546771E-02  0.1130935E+00
         21   -1    0    0  502  501  0.00000000000E+00  0.00000000000E+00  0.14486625299E+03  0.14486625299E+03  0.00000000000E+00 0. -1.
         21   -1    0    0  501  502 -0.00000000000E+00 -0.00000000000E+00 -0.34636441746E+03  0.34636441746E+03  0.00000000000E+00 0. -1.
         25    1    1    2    0    0  0.16764841988E+03  0.30792744743E+02 -0.18204731685E+03  0.27896310041E+03  0.12500000000E+03 0.  0.
         25    1    1    2    0    0 -0.16764841988E+03 -0.30792744743E+02 -0.19450847612E+02  0.21226757004E+03  0.12500000000E+03 0.  0.
</event>
<event>
 4    0  0.2210826E-002  0.4649176E+03  0.7546771E-02  0.1023365E+00
         21   -1    0    0  502  501  0.00000000000E+00  0.00000000000E+00  0.41577163490E+03  0.41577163490E+03  0.00000000000E+00 0. -1.
         21   -1    0    0  501  502 -0.00000000000E+00 -0.00000000000E+00 -0.51987290863E+03  0.51987290863E+03  0.00000000000E+00 0. -1.
         25    1    1    2    0    0 -0.24785154484E+03 -0.37212058328E+03 -0.77091698650E+02  0.47060837942E+03  0.12500000000E+03 0.  0.
         25    1    1    2    0    0  0.24785154484E+03  0.37212058328E+03 -0.27009575077E+02  0.46503616411E+03  0.12500000000E+03 0.  0.
</event>
<event>
 4    0  0.2210826E-002  0.1628267E+03  0.7546771E-02  0.1185542E+00
         21   -1    0    0  502  501  0.00000000000E+00  0.00000000000E+00  0.99810151173E+03  0.99810151173E+03  0.00000000000E+00 0. -1.
         21   -1    0    0  501  502 -0.00000000000E+00 -0.00000000000E+00 -0.26562962493E+02  0.26562962493E+02  0.00000000000E+00 0. -1.
         25    1    1    2    0    0 -0.85108789410E+02 -0.31110024798E+02  0.64854319192E+03  0.66666679193E+03  0.12500000000E+03 0.  0.
         25    1    1    2    0    0  0.85108789410E+02  0.31110024798E+02  0.32299535732E+03  0.35799768229E+03  0.12500000000E+03 0.  0.
</event>
<event>
 4    0  0.2210826E-002  0.1682754E+03  0.7546771E-02  0.1179658E+00
         21   -1    0    0  502  501  0.00000000000E+00  0.00000000000E+00  0.73383123166E+02  0.73383123166E+02  0.00000000000E+00 0. -1.
         21   -1    0    0  501  502 -0.00000000000E+00 -0.00000000000E+00 -0.38587365192E+03  0.38587365192E+03  0.00000000000E+00 0. -1.
         25    1    1    2    0    0 -0.76623929597E+01 -0.81376219282E+02 -0.50448714648E+02  0.15764160028E+03  0.12500000000E+03 0.  0.
         25    1    1    2    0    0  0.76623929597E+01  0.81376219282E+02 -0.26204181411E+03  0.30161517480E+03  0.12500000000E+03 0.  0.
</event>
<event>
 4    0  0.2210826E-002  0.2237412E+03  0.7546771E-02  0.1131124E+00
         21   -1    0    0  502  501  0.00000000000E+00  0.00000000000E+00  0.24798243589E+03  0.24798243589E+03  0.00000000000E+00 0.  1.
         21   -1    0    0  501  502 -0.00000000000E+00 -0.00000000000E+00 -0.20186967950E+03  0.20186967950E+03  0.00000000000E+00 0.  1.
         25    1    1    2    0    0  0.16050481801E+03  0.82992497378E+02  0.65536314967E+02  0.22928052644E+03  0.12500000000E+03 0.  0.
         25    1    1    2    0    0 -0.16050481801E+03 -0.82992497378E+02 -0.19423558571E+02  0.22057158895E+03  0.12500000000E+03 0.  0.
</event>
<event>
 4    0  0.2210826E-002  0.1737741E+03  0.7546771E-02  0.1173968E+00
         21   -1    0    0  502  501  0.00000000000E+00  0.00000000000E+00  0.30461949507E+03  0.30461949507E+03  0.00000000000E+00 0. -1.
         21   -1    0    0  501  502 -0.00000000000E+00 -0.00000000000E+00 -0.99131707082E+02  0.99131707082E+02  0.00000000000E+00 0. -1.
         25    1    1    2    0    0  0.59269354995E+02 -0.79743310231E+02  0.18239196760E+03  0.24241221465E+03  0.12500000000E+03 0.  0.
         25    1    1    2    0    0 -0.59269354995E+02  0.79743310231E+02  0.23095820390E+02  0.16133898750E+03  0.12500000000E+03 0.  0.
</event>
<event>
 4    0  0.2210826E-002  0.3390286E+03  0.7546771E-02  0.1067210E+00
         21   -1    0    0  502  501  0.00000000000E+00  0.00000000000E+00  0.42291496887E+03  0.42291496887E+03  0.00000000000E+00 0.  1.
         21   -1    0    0  501  502 -0.00000000000E+00 -0.00000000000E+00 -0.27178125585E+03  0.27178125585E+03  0.00000000000E+00 0.  1.
         25    1    1    2    0    0 -0.10726068197E+03  0.42711682105E+02 -0.22486300109E+03  0.28198849434E+03  0.12500000000E+03 0.  0.
         25    1    1    2    0    0  0.10726068197E+03 -0.42711682105E+02  0.37599671411E+03  0.41270773037E+03  0.12500000000E+03 0.  0.
</event>
<event>
 4    0  0.2210826E-002  0.1364868E+03  0.7546771E-02  0.1218136E+00
         21   -1    0    0  502  501  0.00000000000E+00  0.00000000000E+00  0.46564341380E+02  0.46564341380E+02  0.00000000000E+00 0. -1.
         21   -1    0    0  501  502 -0.00000000000E+00 -0.00000000000E+00 -0.40006263601E+03  0.40006263601E+03  0.00000000000E+00 0. -1.
         25    1    1    2    0    0 -0.36150226078E+02  0.38370203148E+02 -0.15223183561E+03  0.20390841843E+03  0.12500000000E+03 0.  0.
         25    1    1    2    0    0  0.36150226078E+02 -0.38370203148E+02 -0.20126645902E+03  0.24271855895E+03  0.12500000000E+03 0.  0.
</event>
<event>
 4    0  0.2210826E-002  0.3281820E+03  0.7546771E-02  0.1071944E+00
         21   -1    0    0  502  501  0.00000000000E+00  0.00000000000E+00  0.40614760313E+03  0.40614760313E+03  0.00000000000E+00 0. -1.
         21   -1    0    0  501  502 -0.00000000000E+00 -0.00000000000E+00 -0.26518302808E+03  0.26518302808E+03  0.00000000000E+00 0. -1.
         25    1    1    2    0    0 -0.12178752052E+02 -0.14520779307E+03  0.34271839534E+03  0.39282887327E+03  0.12500000000E+03 0.  0.
         25    1    1    2    0    0  0.12178752052E+02  0.14520779307E+03 -0.20175382030E+03  0.27850175794E+03  0.12500000000E+03 0.  0.
</event>
<event>
 4    0  0.2210826E-002  0.2009653E+03  0.7546771E-02  0.1148927E+00
         21   -1    0    0  502  501  0.00000000000E+00  0.00000000000E+00  0.43421141982E+02  0.43421141982E+02  0.00000000000E+00 0. -1.
         21   -1    0    0  501  502 -0.00000000000E+00 -0.00000000000E+00 -0.93012404691E+03  0.93012404691E+03  0.00000000000E+00 0. -1.
         25    1    1    2    0    0 -0.13516423965E+03  0.22847011983E+02 -0.63051331052E+03  0.65723922006E+03  0.12500000000E+03 0.  0.
         25    1    1    2    0    0  0.13516423965E+03 -0.22847011983E+02 -0.25618959441E+03  0.31630596884E+03  0.12500000000E+03 0.  0.
</event>
<event>
 4    0  0.2210826E-002  0.1900053E+03  0.7546771E-02  0.1158457E+00
         21   -1    0    0  502  501  0.00000000000E+00  0.00000000000E+00  0.34456824652E+03  0.34456824652E+03  0.00000000000E+00 0. -1.
         21   -1    0    0  501  502 -0.00000000000E+00 -0.00000000000E+00 -0.10477469167E+03  0.10477469167E+03  0.00000000000E+00 0. -1.
         25    1    1    2    0    0 -0.77296874077E+02 -0.10619023515E+03  0.52737688847E+02  0.18883176801E+03  0.12500000000E+03 0.  0.
         25    1    1    2    0    0  0.77296874077E+02  0.10619023515E+03  0.18705586600E+03  0.26051117018E+03  0.12500000000E+03 0.  0.
</event>
<event>
 4    0  0.2210826E-002  0.1889196E+03  0.7546771E-02  0.1159439E+00
         21   -1    0    0  502  501  0.00000000000E+00  0.00000000000E+00  0.79930582025E+02  0.79930582025E+02  0.00000000000E+00 0. -1.
         21   -1    0    0  501  502 -0.00000000000E+00 -0.00000000000E+00 -0.44651999926E+03  0.44651999926E+03  0.00000000000E+00 0. -1.
         25    1    1    2    0    0  0.65090937648E+02 -0.74658378420E+02 -0.42198163736E+02  0.16497390295E+03  0.12500000000E+03 0.  0.
         25    1    1    2    0    0 -0.65090937648E+02  0.74658378420E+02 -0.32439125350E+03  0.36147667833E+03  0.12500000000E+03 0.  0.
</event>
<event>
 4    0  0.2210826E-002  0.1837400E+03  0.7546771E-02  0.1164232E+00
         21   -1    0    0  502  501  0.00000000000E+00  0.00000000000E+00  0.60237541213E+02  0.60237541213E+02  0.00000000000E+00 0.  1.
         21   -1    0    0  501  502 -0.00000000000E+00 -0.00000000000E+00 -0.56045453852E+03  0.56045453852E+03  0.00000000000E+00 0.  1.
         25    1    1    2    0    0  0.10270621320E+02  0.25893792578E+02 -0.47264953958E+03  0.48969231301E+03  0.12500000000E+03 0.  0.
         25    1    1    2    0    0 -0.10270621320E+02 -0.25893792578E+02 -0.27567457729E+02  0.13099976672E+03  0.12500000000E+03 0.  0.
</event>
<event>
 4    0  0.2210826E-002  0.2556861E+03  0.7546771E-02  0.1109763E+00
         21   -1    0    0  502  501  0.00000000000E+00  0.00000000000E+00  0.97628441118E+03  0.97628441118E+03  0.00000000000E+00 0.  1.
         21   -1    0    0  501  502 -0.00000000000E+00 -0.00000000000E+00 -0.66963476158E+02  0.66963476158E+02  0.00000000000E+00 0.  1.
         25    1    1    2    0    0  0.12055883879E+03  0.89901391394E+01  0.72257547174E+02  0.18831199998E+03  0.12500000000E+03 0.  0.
         25    1    1    2    0    0 -0.12055883879E+03 -0.89901391394E+01  0.83706338785E+03  0.85493588735E+03  0.12500000000E+03 0.  0.
</event>
<event>
 4    0  0.2210826E-002  0.2500453E+03  0.7546771E-02  0.1113276E+00
         21   -1    0    0  502  501  0.00000000000E+00  0.00000000000E+00  0.31460371397E+03  0.31460371397E+03  0.00000000000E+00 0. -1.
         21   -1    0    0  501  502 -0.00000000000E+00 -0.00000000000E+00 -0.19873461913E+03  0.19873461913E+03  0.00000000000E+00 0. -1.
         25    1    1    2    0    0 -0.21124083157E+03  0.73635334893E+01  0.10630762814E+03  0.26758778438E+03  0.12500000000E+03 0.  0.
         25    1    1    2    0    0  0.21124083157E+03 -0.73635334893E+01  0.95614667078E+01  0.24575054872E+03  0.12500000000E+03 0.  0.
</event>
<event>
 4    0  0.2210826E-002  0.2248709E+03  0.7546771E-02  0.1130303E+00
         21   -1    0    0  502  501  0.00000000000E+00  0.00000000000E+00  0.14163500949E+03  0.14163500949E+03  0.00000000000E+00 0.  1.
         21   -1    0    0  501  502 -0.00000000000E+00 -0.00000000000E+00 -0.35702290815E+03  0.35702290815E+03  0.00000000000E+00 0.  1.
         25    1    1    2    0    0 -0.11950595075E+03  0.12708135439E+03 -0.33228204862E+02  0.21716458389E+03  0.12500000000E+03 0.  0.
         25    1    1    2    0    0  0.11950595075E+03 -0.12708135439E+03 -0.18215969380E+03  0.28149333375E+03  0.12500000000E+03 0.  0.
</event>
<event>
 4    0  0.2210826E-002  0.2772001E+03  0.7546771E-02  0.1097228E+00
         21   -1    0    0  502  501  0.00000000000E+00  0.00000000000E+00  0.72966617818E+03  0.72966617818E+03  0.00000000000E+00 0. -1.
         21   -1    0    0  501  502 -0.00000000000E+00 -0.00000000000E+00 -0.10530832261E+03  0.10530832261E+03  0.00000000000E+00 0. -1.
         25    1    1    2    0    0 -0.67398234141E+02  0.15170297364E+03  0.58848970938E+03  0.62410051452E+03  0.12500000000E+03 0.  0.
         25    1    1    2    0    0  0.67398234141E+02 -0.15170297364E+03  0.35868146198E+02  0.21087398628E+03  0.12500000000E+03 0.  0.
</event>
<event>
 4    0  0.2210826E-002  0.2738222E+03  0.7546771E-02  0.1099112E+00
         21   -1    0    0  502  501  0.00000000000E+00  0.00000000000E+00  0.18412819822E+03  0.18412819822E+03  0.00000000000E+00 0. -1.
         21   -1    0    0  501  502 -0.00000000000E+00 -0.00000000000E+00 -0.40720861132E+03  0.40720861132E+03  0.00000000000E+00 0. -1.
         25    1    1    2    0    0  0.17771981126E+03 -0.16538566399E+03 -0.89494687717E+02  0.28735178492E+03  0.12500000000E+03 0.  0.
         25    1    1    2    0    0 -0.17771981126E+03  0.16538566399E+03 -0.13358572538E+03  0.30398502462E+03  0.12500000000E+03 0.  0.
</event>
<event>
 4    0  0.2210826E-002  0.3026480E+03  0.7546771E-02  0.1083924E+00
         21   -1    0    0  502  501  0.00000000000E+00  0.00000000000E+00  0.19702801343E+03  0.19702801343E+03  0.00000000000E+00 0.  1.
         21   -1    0    0  501  502 -0.00000000000E+00 -0.00000000000E+00 -0.46488723387E+03  0.46488723387E+03  0.00000000000E+00 0.  1.
         25    1    1    2    0    0 -0.31704750261E+02 -0.62277689581E+02  0.15763177728E+03  0.21297060600E+03  0.12500000000E+03 0.  0.
         25    1    1    2    0    0  0.31704750261E+02  0.62277689581E+02 -0.42549099773E+03  0.44894464131E+03  0.12500000000E+03 0.  0.
</event>
<event>
 4    0  0.2210826E-002  0.1891540E+03  0.7546771E-02  0.1159227E+00
         21   -1    0    0  502  501  0.00000000000E+00  0.00000000000E+00  0.37963871198E+03  0.37963871198E+03  0.00000000000E+00 0. -1.
         21   -1    0    0  501  502 -0.00000000000E+00 -0.00000000000E+00 -0.94245452017E+02  0.94245452017E+02  0.00000000000E+00 0. -1.
         25    1    1    2    0    0 -0.70585791572E+02 -0.95826937509E+02  0.45755895349E+02  0.17856023601E+03  0.12500000000E+03 0.  0.
         25    1    1    2    0    0  0.70585791572E+02  0.95826937509E+02  0.23963736461E+03  0.29532392799E+03  0.12500000000E+03 0.  0.
</event>
<event>
 4    0  0.2210826E-002  0.2318875E+03  0.7546771E-02  0.1125318E+00
         21   -1    0    0  502  501  0.00000000000E+00  0.00000000000E+00  0.18355728344E+03  0.18355728344E+03  0.00000000000E+00 0. -1.
         21   -1    0    0  501  502 -0.00000000000E+00 -0.00000000000E+00 -0.29294291896E+03  0.29294291896E+03  0.00000000000E+00 0. -1.
         25    1    1    2    0    0 -0.12912910454E+03  0.13963378322E+03 -0.90337599982E+01  0.22776858404E+03  0.12500000000E+03 0.  0.
         25    1    1    2    0    0  0.12912910454E+03 -0.13963378322E+03 -0.10035187552E+03  0.24873161837E+03  0.12500000000E+03 0.  0.
</event>
<event>
 4    0  0.2210826E-002  0.2363233E+03  0.7546771E-02  0.1122267E+00
         21   -1    0    0  502  501  0.00000000000E+00  0.00000000000E+00  0.23351272624E+02  0.23351272624E+02  0.00000000000E+00 0.  1.
         21   -1    0    0  501  502 -0.00000000000E+00 -0.00000000000E+00 -0.23916775689E+04  0.23916775689E+04  0.00000000000E+00 0.  1.
         25    1    1    2    0    0 -0.38371805911E+02  0.13505239649E+03 -0.19159616797E+04  0.19251612149E+04  0.12500000000E+03 0.  0.
         25    1    1    2    0    0  0.38371805911E+02 -0.13505239649E+03 -0.45236461661E+03  0.48986762666E+03  0.12500000000E+03 0.  0.
</event>
<event>
 4    0  0.2210826E-002  0.1795066E+03  0.7546771E-02  0.1168281E+00
         21   -1    0    0  502  501  0.00000000000E+00  0.00000000000E+00  0.68463358123E+02  0.68463358123E+02  0.00000000000E+00 0. -1.
         21   -1    0    0  501  502 -0.00000000000E+00 -0.00000000000E+00 -0.47065513924E+03  0.47065513924E+03  0.00000000000E+00 0. -1.
         25    1    1    2    0    0 -0.48052615712E+02 -0.35708854341E+02 -0.37240089342E+03  0.39735576197E+03  0.12500000000E+03 0.  0.
         25    1    1    2    0    0  0.48052615712E+02  0.35708854341E+02 -0.29790887699E+02  0.14176273539E+03  0.12500000000E+03 0.  0.
</event>
<event>
 4    0  0.2210826E-002  0.2191184E+03  0.7546771E-02  0.1134542E+00
         21   -1    0    0  502  501  0.00000000000E+00  0.00000000000E+00  0.50482534495E+03  0.50482534495E+03  0.00000000000E+00 0. -1.
         21   -1    0    0  501  502 -0.00000000000E+00 -0.00000000000E+00 -0.95107870037E+02  0.95107870037E+02  0.00000000000E+00 0. -1.
         25    1    1    2    0    0  0.17904501075E+03  0.18033470328E+02  0.20808131074E+03  0.30216742678E+03  0.12500000000E+03 0.  0.
         25    1    1    2    0    0 -0.17904501075E+03 -0.18033470328E+02  0.20163616417E+03  0.29776578821E+03  0.12500000000E+03 0.  0.
</event>
<event>
 4    0  0.2210826E-002  0.1889847E+03  0.7546771E-02  0.1159380E+00
         21   -1    0    0  502  501  0.00000000000E+00  0.00000000000E+00  0.55970223659E+03  0.55970223659E+03  0.00000000000E+00 0. -1.
         21   -1    0    0  501  502 -0.00000000000E+00 -0.00000000000E+00 -0.63811112944E+02  0.63811112944E+02  0.00000000000E+00 0. -1.
         25    1    1    2    0    0  0.72182280486E+02  0.16762731471E+02  0.44726512093E+03  0.47027902269E+03  0.12500000000E+03 0.  0.
         25    1    1    2    0    0 -0.72182280486E+02 -0.16762731471E+02  0.48626002713E+02  0.15323432684E+03  0.12500000000E+03 0.  0.
</event>
<event>
 4    0  0.2210826E-002  0.2176025E+03  0.7546771E-02  0.1135683E+00
         21   -1    0    0  502  501  0.00000000000E+00  0.00000000000E+00  0.12599856460E+03  0.12599856460E+03  0.00000000000E+00 0. -1.
         21   -1    0    0  501  502 -0.00000000000E+00 -0.00000000000E+00 -0.37580469629E+03  0.37580469629E+03  0.00000000000E+00 0. -1.
         25    1    1    2    0    0 -0.13842640659E+03  0.60992752952E+02 -0.16470266804E+02  0.19692195317E+03  0.12500000000E+03 0.  0.
         25    1    1    2    0    0  0.13842640659E+03 -0.60992752952E+02 -0.23333586489E+03  0.30488130772E+03  0.12500000000E+03 0.  0.
</event>
<event>
 4    0  0.2210826E-002  0.1938223E+03  0.7546771E-02  0.1155058E+00
         21   -1    0    0  502  501  0.00000000000E+00  0.00000000000E+00  0.19964054587E+04  0.19964054587E+04  0.00000000000E+00 0. -1.
         21   -1    0    0  501  502 -0.00000000000E+00 -0.00000000000E+00 -0.18817360539E+02  0.18817360539E+02  0.00000000000E+00 0. -1.
         25    1    1    2    0    0  0.93640235310E+02  0.11214419189E+03  0.11158438297E+04  0.11322885082E+04  0.12500000000E+03 0.  0.
         25    1    1    2    0    0 -0.93640235310E+02 -0.11214419189E+03  0.86174426842E+03  0.88293431103E+03  0.12500000000E+03 0.  0.
</event>
<event>
 4    0  0.2210826E-002  0.3132904E+03  0.7546771E-02  0.1078779E+00
         21   -1    0    0  502  501  0.00000000000E+00  0.00000000000E+00  0.59879980143E+03  0.59879980143E+03  0.00000000000E+00 0. -1.
         21   -1    0    0  501  502 -0.00000000000E+00 -0.00000000000E+00 -0.16391264921E+03  0.16391264921E+03  0.00000000000E+00 0. -1.
         25    1    1    2    0    0  0.20766926706E+03 -0.12666688332E+03  0.40346896073E+03  0.48742509792E+03  0.12500000000E+03 0.  0.
         25    1    1    2    0    0 -0.20766926706E+03  0.12666688332E+03  0.31418191493E+02  0.27528735272E+03  0.12500000000E+03 0.  0.
</event>
<event>
 4    0  0.2210826E-002  0.1895140E+03  0.7546771E-02  0.1158900E+00
         21   -1    0    0  502  501  0.00000000000E+00  0.00000000000E+00  0.18412550271E+04  0.18412550271E+04  0.00000000000E+00 0.  1.
         21   -1    0    0  501  502 -0.00000000000E+00 -0.00000000000E+00 -0.19506020351E+02  0.19506020351E+02  0.00000000000E+00 0.  1.
         25    1    1    2    0    0 -0.12485731770E+03 -0.34996919551E+02  0.62141643301E+03  0.64699112620E+03  0.12500000000E+03 0.  0.
         25    1    1    2    0    0  0.12485731770E+03  0.34996919551E+02  0.12003325737E+04  0.12137699212E+04  0.12500000000E+03 0.  0.
</event>
<event>
 4    0  0.2210826E-002  0.2264396E+03  0.7546771E-02  0.1129171E+00
         21   -1    0    0  502  501  0.00000000000E+00  0.00000000000E+00  0.17671357984E+03  0.17671357984E+03  0.00000000000E+00 0. -1.
         21   -1    0    0  501  502 -0.00000000000E+00 -0.00000000000E+00 -0.29015818913E+03  0.29015818913E+03  0.00000000000E+00 0. -1.
         25    1    1    2    0    0 -0.14737195906E+03  0.11001707007E+03 -0.12650499478E+02  0.22272692958E+03  0.12500000000E+03 0.  0.
         25    1    1    2    0    0  0.14737195906E+03 -0.11001707007E+03 -0.10079410981E+03  0.24414483938E+03  0.12500000000E+03 0.  0.
</event>
<event>
 4    0  0.2210826E-002  0.1942852E+03  0.7546771E-02  0.1154652E+00
         21   -1    0    0  502  501  0.00000000000E+00  0.00000000000E+00  0.22521101639E+03  0.22521101639E+03  0.00000000000E+00 0.  1.
         21   -1    0    0  501  502 -0.00000000000E+00 -0.00000000000E+00 -0.16760614889E+03  0.16760614889E+03  0.00000000000E+00 0.  1.
         25    1    1    2    0    0 -0.10214759839E+03 -0.67021214397E+02  0.11455744213E+03  0.20898416826E+03  0.12500000000E+03 0.  0.
         25    1    1    2    0    0  0.10214759839E+03  0.67021214397E+02 -0.56952574631E+02  0.18383299702E+03  0.12500000000E+03 0.  0.
</event>
<event>
 4    0  0.2210826E-002  0.1445976E+03  0.7546771E-02  0.1207273E+00
         21   -1    0    0  502  501  0.00000000000E+00  0.00000000000E+00  0.27932610490E+03  0.27932610490E+03  0.00000000000E+00 0. -1.
         21   -1    0    0  501  502 -0.00000000000E+00 -0.00000000000E+00 -0.74853254702E+02  0.74853254702E+02  0.00000000000E+00 0. -1.
         25    1    1    2    0    0  0.34412373482E+02  0.62260324538E+02  0.12052145068E+03  0.18764588867E+03  0.12500000000E+03 0.  0.
         25    1    1    2    0    0 -0.34412373482E+02 -0.62260324538E+02  0.83951399519E+02  0.16653347093E+03  0.12500000000E+03 0.  0.
</event>
<event>
 4    0  0.2210826E-002  0.2057489E+03  0.7546771E-02  0.1144977E+00
         21   -1    0    0  502  501  0.00000000000E+00  0.00000000000E+00  0.51178083763E+02  0.51178083763E+02  0.00000000000E+00 0. -1.
         21   -1    0    0  501  502 -0.00000000000E+00 -0.00000000000E+00 -0.82716299237E+03  0.82716299237E+03  0.00000000000E+00 0. -1.
         25    1    1    2    0    0  0.13490549166E+03  0.91188666420E+02 -0.41762680911E+03  0.46535149752E+03  0.12500000000E+03 0.  0.
         25    1    1    2    0    0 -0.13490549166E+03 -0.91188666420E+02 -0.35835809950E+03  0.41298957861E+03  0.12500000000E+03 0.  0.
</event>
<event>
 4    0  0.2210826E-002  0.4144024E+03  0.7546771E-02  0.1038904E+00
         21   -1    0    0  502  501  0.00000000000E+00  0.00000000000E+00  0.10294623090E+04  0.10294623090E+04  0.00000000000E+00 0.  1.
         21   -1    0    0  501  502 -0.00000000000E+00 -0.00000000000E+00 -0.16681457745E+03  0.16681457745E+03  0.00000000000E+00 0.  1.
         25    1    1    2    0    0  0.34318571971E+03  0.18981585106E+03  0.50051300419E+03  0.64803145208E+03  0.12500000000E+03 0.  0.
         25    1    1    2    0    0 -0.34318571971E+03 -0.18981585106E+03  0.36213472735E+03  0.54824543434E+03  0.12500000000E+03 0.  0.
</event>
<event>
 4    0  0.2210826E-002  0.2103415E+03  0.7546771E-02  0.1141296E+00
         21   -1    0    0  502  501  0.00000000000E+00  0.00000000000E+00  0.87992716006E+02  0.87992716006E+02  0.00000000000E+00 0. -1.
         21   -1    0    0  501  502 -0.00000000000E+00 -0.00000000000E+00 -0.50280901260E+03  0.50280901260E+03  0.00000000000E+00 0. -1.
         25    1    1    2    0    0 -0.34382403745E+02  0.73476700335E+02  0.10738603403E+01  0.14902056353E+03  0.12500000000E+03 0.  0.
         25    1    1    2    0    0  0.34382403745E+02 -0.73476700335E+02 -0.41589015693E+03  0.44178116507E+03  0.12500000000E+03 0.  0.
</event>
<event>
 4    0  0.2210826E-002  0.2129915E+03  0.7546771E-02  0.1139219E+00
         21   -1    0    0  502  501  0.00000000000E+00  0.00000000000E+00  0.12275877898E+03  0.12275877898E+03  0.00000000000E+00 0. -1.
         21   -1    0    0  501  502 -0.00000000000E+00 -0.00000000000E+00 -0.36954898333E+03  0.36954898333E+03  0.00000000000E+00 0. -1.
         25    1    1    2    0    0 -0.10665746776E+03  0.82811643383E+02 -0.24736654373E+03  0.30829983890E+03  0.12500000000E+03 0.  0.
         25    1    1    2    0    0  0.10665746776E+03 -0.82811643383E+02  0.57633938045E+00  0.18400792341E+03  0.12500000000E+03 0.  0.
</event>
<event>
 4    0  0.2210826E-002  0.1874967E+03  0.7546771E-02  0.1160739E+00
         21   -1    0    0  502  501  0.00000000000E+00  0.00000000000E+00  0.37534975357E+03  0.37534975357E+03  0.00000000000E+00 0.  1.
         21   -1    0    0  501  502 -0.00000000000E+00 -0.00000000000E+00 -0.93659339364E+02  0.93659339364E+02  0.00000000000E+00 0.  1.
         25    1    1    2    0    0  0.11416911383E+03 -0.48918781236E+02  0.60737297606E+02  0.18639112916E+03  0.12500000000E+03 0.  0.
         25    1    1    2    0    0 -0.11416911383E+03  0.48918781236E+02  0.22095311660E+03  0.28261796377E+03  0.12500000000E+03 0.  0.
</event>
<event>
 4    0  0.2210826E-002  0.2491151E+03  0.7546771E-02  0.1113865E+00
         21   -1    0    0  502  501  0.00000000000E+00  0.00000000000E+00  0.10547101593E+03  0.10547101593E+03  0.00000000000E+00 0.  1.
         21   -1    0    0  501  502 -0.00000000000E+00 -0.00000000000E+00 -0.58839210790E+03  0.58839210790E+03  0.00000000000E+00 0.  1.
         25    1    1    2    0    0  0.35352083891E+02 -0.54379639944E+02 -0.52763828439E+03  0.54610811588E+03  0.12500000000E+03 0.  0.
         25    1    1    2    0    0 -0.35352083891E+02  0.54379639944E+02  0.44717192420E+02  0.14775500795E+03  0.12500000000E+03 0.  0.
</event>
<event>
 4    0  0.2210826E-002  0.1851355E+03  0.7546771E-02  0.1162923E+00
         21   -1    0    0  502  501  0.00000000000E+00  0.00000000000E+00  0.39047591151E+02  0.39047591151E+02  0.00000000000E+00 0. -1.
         21   -1    0    0  501  502 -0.00000000000E+00 -0.00000000000E+00 -0.87777933317E+03  0.87777933317E+03  0.00000000000E+00 0. -1.
         25    1    1    2    0    0 -0.83694775673E+02 -0.37890630980E+01 -0.15232605648E+03  0.21412005968E+03  0.12500000000E+03 0.  0.
         25    1    1    2    0    0  0.83694775673E+02  0.37890630980E+01 -0.68640568555E+03  0.70270686465E+03  0.12500000000E+03 0.  0.
</event>
<event>
 4    0  0.2210826E-002  0.1789054E+03  0.7546771E-02  0.1168867E+00
         21   -1    0    0  502  501  0.00000000000E+00  0.00000000000E+00  0.97960070197E+03  0.97960070197E+03  0.00000000000E+00 0. -1.
         21   -1    0    0  501  502 -0.00000000000E+00 -0.00000000000E+00 -0.32673666248E+02  0.32673666248E+02  0.00000000000E+00 0. -1.
         25    1    1    2    0    0 -0.10674444145E+03 -0.67469423455E+02  0.41441453985E+03  0.45090011058E+03  0.12500000000E+03 0.  0.
         25    1    1    2    0    0  0.10674444145E+03  0.67469423455E+02  0.53251249587E+03  0.56137425764E+03  0.12500000000E+03 0.  0.
</event>
<event>
 4    0  0.2210826E-002  0.2668149E+03  0.7546771E-02  0.1103116E+00
         21   -1    0    0  502  501  0.00000000000E+00  0.00000000000E+00  0.91282488480E+03  0.91282488480E+03  0.00000000000E+00 0. -1.
         21   -1    0    0  501  502 -0.00000000000E+00 -0.00000000000E+00 -0.77988899201E+02  0.77988899201E+02  0.00000000000E+00 0. -1.
         25    1    1    2    0    0  0.35446638469E+02  0.17687657819E+03  0.69915041550E+03  0.73278788990E+03  0.12500000000E+03 0.  0.
         25    1    1    2    0    0 -0.35446638469E+02 -0.17687657819E+03  0.13568557010E+03  0.25802589410E+03  0.12500000000E+03 0.  0.
</event>
<event>
 4    0  0.2210826E-002  0.3465646E+03  0.7546771E-02  0.1064034E+00
         21   -1    0    0  502  501  0.00000000000E+00  0.00000000000E+00  0.39822862838E+03  0.39822862838E+03  0.00000000000E+00 0.  1.
         21   -1    0    0  501  502 -0.00000000000E+00 -0.00000000000E+00 -0.30160314050E+03  0.30160314050E+03  0.00000000000E+00 0.  1.
         25    1    1    2    0    0 -0.11361816085E+03 -0.11165390589E+03  0.33229100164E+03  0.38912464705E+03  0.12500000000E+03 0.  0.
         25    1    1    2    0    0  0.11361816085E+03  0.11165390589E+03 -0.23566551376E+03  0.31070712182E+03  0.12500000000E+03 0.  0.
</event>
<event>
 4    0  0.2210826E-002  0.1820480E+03  0.7546771E-02  0.1165836E+00
         21   -1    0    0  502  501  0.00000000000E+00  0.00000000000E+00  0.76494823930E+03  0.76494823930E+03  0.00000000000E+00 0. -1.
         21   -1    0    0  501  502 -0.00000000000E+00 -0.00000000000E+00 -0.43325140462E+02  0.43325140462E+02  0.00000000000E+00 0. -1.
         25    1    1    2    0    0  0.67078948549E+02  0.26740261677E+02  0.11458906539E+03  0.18431028414E+03  0.12500000000E+03 0.  0.
         25    1    1    2    0    0 -0.67078948549E+02 -0.26740261677E+02  0.60703403345E+03  0.62396309562E+03  0.12500000000E+03 0.  0.
</event>
<event>
 4    0  0.2210826E-002  0.2003841E+03  0.7546771E-02  0.1149415E+00
         21   -1    0    0  502  501  0.00000000000E+00  0.00000000000E+00  0.47579535714E+03  0.47579535714E+03  0.00000000000E+00 0. -1.
         21   -1    0    0  501  502 -0.00000000000E+00 -0.00000000000E+00 -0.84392948977E+02  0.84392948977E+02  0.00000000000E+00 0. -1.
         25    1    1    2    0    0 -0.75785456178E+02  0.12991566232E+03  0.25674557948E+03  0.32274573160E+03  0.12500000000E+03 0.  0.
         25    1    1    2    0    0  0.75785456178E+02 -0.12991566232E+03  0.13465682868E+03  0.23744257452E+03  0.12500000000E+03 0.  0.
</event>
<event>
 4    0  0.2210826E-002  0.2213347E+03  0.7546771E-02  0.1132892E+00
         21   -1    0    0  502  501  0.00000000000E+00  0.00000000000E+00  0.16448619042E+03  0.16448619042E+03  0.00000000000E+00 0. -1.
         21   -1    0    0  501  502 -0.00000000000E+00 -0.00000000000E+00 -0.29783087949E+03  0.29783087949E+03  0.00000000000E+00 0. -1.
         25    1    1    2    0    0 -0.65308566924E+02 -0.15340103185E+03  0.11251474716E+02  0.20868320768E+03  0.12500000000E+03 0.  0.
         25    1    1    2    0    0  0.65308566924E+02  0.15340103185E+03 -0.14459616379E+03  0.25363386222E+03  0.12500000000E+03 0.  0.
</event>
<event>
 4    0  0.2210826E-002  0.3452676E+03  0.7546771E-02  0.1064574E+00
         21   -1    0    0  502  501  0.00000000000E+00  0.00000000000E+00  0.26792103250E+04  0.26792103250E+04  0.00000000000E+00 0.  1.
         21   -1    0    0  501  502 -0.00000000000E+00 -0.00000000000E+00 -0.44494350691E+02  0.44494350691E+02  0.00000000000E+00 0.  1.
         25    1    1    2    0    0 -0.97451511970E+02  0.27646619252E+03  0.79327470765E+03  0.85489187304E+03  0.12500000000E+03 0.  0.
         25    1    1    2    0    0  0.97451511970E+02 -0.27646619252E+03  0.18414412667E+04  0.18688128027E+04  0.12500000000E+03 0.  0.
</event>
<event>
 4    0  0.2210826E-002  0.1789033E+03  0.7546771E-02  0.1168869E+00
         21   -1    0    0  502  501  0.00000000000E+00  0.00000000000E+00  0.83519553673E+02  0.83519553673E+02  0.00000000000E+00 0.  1.
         21   -1    0    0  501  502 -0.00000000000E+00 -0.00000000000E+00 -0.38322036517E+03  0.38322036517E+03  0.00000000000E+00 0.  1.
         25    1    1    2    0    0  0.32738988415E+02 -0.40838058901E+02 -0.30220743774E+03  0.33120073044E+03  0.12500000000E+03 0.  0.
         25    1    1    2    0    0 -0.32738988415E+02  0.40838058901E+02  0.25066262463E+01  0.13553918840E+03  0.12500000000E+03 0.  0.
</event>
<event>
 4    0  0.2210826E-002  0.3871540E+03  0.7546771E-02  0.1048321E+00
         21   -1    0    0  502  501  0.00000000000E+00  0.00000000000E+00  0.44638244890E+03  0.44638244890E+03  0.00000000000E+00 0. -1.
         21   -1    0    0  501  502 -0.00000000000E+00 -0.00000000000E+00 -0.33578431820E+03  0.33578431820E+03  0.00000000000E+00 0. -1.
         25    1    1    2    0    0  0.27959461698E+03  0.19036083667E+03  0.19762917922E+03  0.41120881613E+03  0.12500000000E+03 0.  0.
         25    1    1    2    0    0 -0.27959461698E+03 -0.19036083667E+03 -0.87031048512E+02  0.37095795097E+03  0.12500000000E+03 0.  0.
</event>
<event>
 4    0  0.2210826E-002  0.1963239E+03  0.7546771E-02  0.1152878E+00
         21   -1    0    0  502  501  0.00000000000E+00  0.00000000000E+00  0.22004998688E+04  0.22004998688E+04  0.00000000000E+00 0.  1.
         21   -1    0    0  501  502 -0.00000000000E+00 -0.00000000000E+00 -0.17515590316E+02  0.17515590316E+02  0.00000000000E+00 0.  1.
         25    1    1    2    0    0  0.90560461880E+02 -0.88876638708E+02  0.62506518512E+03  0.64994749004E+03  0.12500000000E+03 0.  0.
         25    1    1    2    0    0 -0.90560461880E+02  0.88876638708E+02  0.15579190933E+04  0.15680679690E+04  0.12500000000E+03 0.  0.
</event>
<event>
 4    0  0.2210826E-002  0.2226477E+03  0.7546771E-02  0.1131924E+00
         21   -1    0    0  502  501  0.00000000000E+00  0.00000000000E+00  0.28478985971E+03  0.28478985971E+03  0.00000000000E+00 0. -1.
         21   -1    0    0  501  502 -0.00000000000E+00 -0.00000000000E+00 -0.17406513649E+03  0.17406513649E+03  0.00000000000E+00 0. -1.
         25    1    1    2    0    0 -0.16339580164E+03  0.11577641125E+02 -0.31555156597E+02  0.20845373030E+03  0.12500000000E+03 0.  0.
         25    1    1    2    0    0  0.16339580164E+03 -0.11577641125E+02  0.14227987982E+03  0.25040126591E+03  0.12500000000E+03 0.  0.
</event>
<event>
 4    0  0.2210826E-002  0.2647138E+03  0.7546771E-02  0.1104344E+00
         21   -1    0    0  502  501  0.00000000000E+00  0.00000000000E+00  0.33173383409E+03  0.33173383409E+03  0.00000000000E+00 0.  1.
         21   -1    0    0  501  502 -0.00000000000E+00 -0.00000000000E+00 -0.21123383461E+03  0.21123383461E+03  0.00000000000E+00 0.  1.
         25    1    1    2    0    0 -0.18116184075E+03  0.13695127743E+03  0.11522257901E+03  0.28368381633E+03  0.12500000000E+03 0.  0.
         25    1    1    2    0    0  0.18116184075E+03 -0.13695127743E+03  0.52774204653E+01  0.25928385237E+03  0.12500000000E+03 0.  0.
</event>
<event>
 4    0  0.2210826E-002  0.2055200E+03  0.7546771E-02  0.1145164E+00
         21   -1    0    0  502  501  0.00000000000E+00  0.00000000000E+00  0.46018559980E+03  0.46018559980E+03  0.00000000000E+00 0. -1.
         21   -1    0    0  501  502 -0.00000000000E+00 -0.00000000000E+00 -0.91785706864E+02  0.91785706864E+02  0.00000000000E+00 0. -1.
         25    1    1    2    0    0  0.66217858742E+02 -0.13180472213E+03  0.27777917279E+03  0.33844284366E+03  0.12500000000E+03 0.  0.
         25    1    1    2    0    0 -0.66217858742E+02  0.13180472213E+03  0.90620720146E+02  0.21352846300E+03  0.12500000000E+03 0.  0.
</event>
<event>
 4    0  0.2210826E-002  0.1873810E+03  0.7546771E-02  0.1160845E+00
         21   -1    0    0  502  501  0.00000000000E+00  0.00000000000E+00  0.47063623057E+03  0.47063623057E+03  0.00000000000E+00 0.  1.
         21   -1    0    0  501  502 -0.00000000000E+00 -0.00000000000E+00 -0.74604663135E+02  0.74604663135E+02  0.00000000000E+00 0.  1.
         25    1    1    2    0    0 -0.20797898302E+02  0.10815686739E+03  0.73231631534E+02  0.18198442899E+03  0.12500000000E+03 0.  0.
         25    1    1    2    0    0  0.20797898302E+02 -0.10815686739E+03  0.32279993590E+03  0.36325646471E+03  0.12500000000E+03 0.  0.
</event>
<event>
 4    0  0.2210826E-002  0.2152607E+03  0.7546771E-02  0.1137466E+00
         21   -1    0    0  502  501  0.00000000000E+00  0.00000000000E+00  0.14249786997E+03  0.14249786997E+03  0.00000000000E+00 0.  1.
         21   -1    0    0  501  502 -0.00000000000E+00 -0.00000000000E+00 -0.32517812082E+03  0.32517812082E+03  0.00000000000E+00 0.  1.
         25    1    1    2    0    0 -0.10880738288E+03 -0.12586117737E+03 -0.15115683217E+03  0.25720316959E+03  0.12500000000E+03 0.  0.
         25    1    1    2    0    0  0.10880738288E+03  0.12586117737E+03 -0.31523418681E+02  0.21047282120E+03  0.12500000000E+03 0.  0.
</event>
<event>
 4    0  0.2210826E-002  0.2236507E+03  0.7546771E-02  0.1131190E+00
         21   -1    0    0  502  501  0.00000000000E+00  0.00000000000E+00  0.54896982328E+03  0.54896982328E+03  0.00000000000E+00 0. -1.
         21   -1    0    0  501  502 -0.00000000000E+00 -0.00000000000E+00 -0.91115419955E+02  0.91115419955E+02  0.00000000000E+00 0. -1.
         25    1    1    2    0    0 -0.29174791440E+02  0.28171206594E+02 -0.30038454425E+02  0.13480390974E+03  0.12500000000E+03 0.  0.
         25    1    1    2    0    0  0.29174791440E+02 -0.28171206594E+02  0.48789285775E+03  0.50528133350E+03  0.12500000000E+03 0.  0.
</event>
<event>
 4    0  0.2210826E-002  0.3334420E+03  0.7546771E-02  0.1069624E+00
         21   -1    0    0  502  501  0.00000000000E+00  0.00000000000E+00  0.14053061471E+03  0.14053061471E+03  0.00000000000E+00 0. -1.
         21   -1    0    0  501  502 -0.00000000000E+00 -0.00000000000E+00 -0.79116968312E+03  0.79116968312E+03  0.00000000000E+00 0. -1.
         25    1    1    2    0    0  0.17150415880E+03 -0.10117619148E+03  0.50225842656E+01  0.23516063565E+03  0.12500000000E+03 0.  0.
         25    1    1    2    0    0 -0.17150415880E+03  0.10117619148E+03 -0.65566165267E+03  0.69653966218E+03  0.12500000000E+03 0.  0.
</event>
<event>
 4    0  0.2210826E-002  0.1870771E+03  0.7546771E-02  0.1161124E+00
         21   -1    0    0  502  501  0.00000000000E+00  0.00000000000E+00  0.61156502907E+02  0.61156502907E+02  0.00000000000E+00 0.  1.
         21   -1    0    0  501  502 -0.00000000000E+00 -0.00000000000E+00 -0.57226694251E+03  0.57226694251E+03  0.00000000000E+00 0.  1.
         25    1    1    2    0    0 -0.76928063364E+01 -0.60735133020E+02 -0.46717304145E+03  0.48746649762E+03  0.12500000000E+03 0.  0.
         25    1    1    2    0    0  0.76928063364E+01  0.60735133020E+02 -0.43937398159E+02  0.14595694779E+03  0.12500000000E+03 0.  0.
</event>
<event>
 4    0  0.2210826E-002  0.1876106E+03  0.7546771E-02  0.1160634E+00
         21   -1    0    0  502  501  0.00000000000E+00  0.00000000000E+00  0.68981868760E+03  0.68981868760E+03  0.00000000000E+00 0. -1.
         21   -1    0    0  501  502 -0.00000000000E+00 -0.00000000000E+00 -0.51024636920E+02  0.51024636920E+02  0.00000000000E+00 0. -1.
         25    1    1    2    0    0  0.24115796009E+02  0.98572067752E+02  0.12925004523E+03  0.20646694251E+03  0.12500000000E+03 0.  0.
         25    1    1    2    0    0 -0.24115796009E+02 -0.98572067752E+02  0.50954400545E+03  0.53437638201E+03  0.12500000000E+03 0.  0.
</event>
<event>
 4    0  0.2210826E-002  0.1598287E+03  0.7546771E-02  0.1188890E+00
         21   -1    0    0  502  501  0.00000000000E+00  0.00000000000E+00  0.26623429095E+03  0.26623429095E+03  0.00000000000E+00 0. -1.
         21   -1    0    0  501  502 -0.00000000000E+00 -0.00000000000E+00 -0.95950133132E+02  0.95950133132E+02  0.00000000000E+00 0. -1.
         25    1    1    2    0    0 -0.60198399815E+02  0.33365538456E+02  0.16671390128E+03  0.21944391397E+03  0.12500000000E+03 0.  0.
         25    1    1    2    0    0  0.60198399815E+02 -0.33365538456E+02  0.35702565392E+01  0.14274051012E+03  0.12500000000E+03 0.  0.
</event>
<event>
 4    0  0.2210826E-002  0.1709613E+03  0.7546771E-02  0.1176849E+00
         21   -1    0    0  502  501  0.00000000000E+00  0.00000000000E+00  0.71669237046E+02  0.71669237046E+02  0.00000000000E+00 0.  1.
         21   -1    0    0  501  502 -0.00000000000E+00 -0.00000000000E+00 -0.40781490444E+03  0.40781490444E+03  0.00000000000E+00 0.  1.
         25    1    1    2    0    0 -0.10361952864E+03 -0.49453263264E+02 -0.13932871063E+03  0.21959080484E+03  0.12500000000E+03 0.  0.
         25    1    1    2    0    0  0.10361952864E+03  0.49453263264E+02 -0.19681695677E+03  0.25989333665E+03  0.12500000000E+03 0.  0.
</event>
<event>
 4    0  0.2210826E-002  0.1445794E+03  0.7546771E-02  0.1207297E+00
         21   -1    0    0  502  501  0.00000000000E+00  0.00000000000E+00  0.12840248872E+03  0.12840248872E+03  0.00000000000E+00 0. -1.
         21   -1    0    0  501  502 -0.00000000000E+00 -0.00000000000E+00 -0.16279439889E+03  0.16279439889E+03  0.00000000000E+00 0. -1.
         25    1    1    2    0    0 -0.47324533411E+01 -0.71073091380E+02 -0.31594475082E+02  0.14729898604E+03  0.12500000000E+03 0.  0.
         25    1    1    2    0    0  0.47324533411E+01  0.71073091380E+02 -0.27974350871E+01  0.14389790157E+03  0.12500000000E+03 0.  0.
</event>
<event>
 4    0  0.2210826E-002  0.2799324E+03  0.7546771E-02  0.1095726E+00
         21   -1    0    0  502  501  0.00000000000E+00  0.00000000000E+00  0.33039079943E+03  0.33039079943E+03  0.00000000000E+00 0. -1.
         21   -1    0    0  501  502 -0.00000000000E+00 -0.00000000000E+00 -0.23718019296E+03  0.23718019296E+03  0.00000000000E+00 0. -1.
         25    1    1    2    0    0  0.70005355659E+02  0.11541836280E+03  0.26049517927E+03  0.31891203601E+03  0.12500000000E+03 0.  0.
         25    1    1    2    0    0 -0.70005355659E+02 -0.11541836280E+03 -0.16728457279E+03  0.24865895638E+03  0.12500000000E+03 0.  0.
</event>
<event>
 4    0  0.2210826E-002  0.2299007E+03  0.7546771E-02  0.1126710E+00
         21   -1    0    0  502  501  0.00000000000E+00  0.00000000000E+00  0.41936443200E+03  0.41936443200E+03  0.00000000000E+00 0. -1.
         21   -1    0    0  501  502 -0.00000000000E+00 -0.00000000000E+00 -0.12603442178E+03  0.12603442178E+03  0.00000000000E+00 0. -1.
         25    1    1    2    0    0 -0.68767182778E+02  0.16146982933E+03  0.51565302758E+02  0.22155227748E+03  0.12500000000E+03 0.  0.
         25    1    1    2    0    0  0.68767182778E+02 -0.16146982933E+03  0.24176470745E+03  0.32384657630E+03  0.12500000000E+03 0.  0.
</event>
<event>
 4    0  0.2210826E-002  0.1736562E+03  0.7546771E-02  0.1174088E+00
         21   -1    0    0  502  501  0.00000000000E+00  0.00000000000E+00  0.47070903279E+03  0.47070903279E+03  0.00000000000E+00 0.  1.
         21   -1    0    0  501  502 -0.00000000000E+00 -0.00000000000E+00 -0.64066042158E+02  0.64066042158E+02  0.00000000000E+00 0.  1.
         25    1    1    2    0    0 -0.29930552205E+02  0.27044223694E+02  0.37823248976E+03  0.40038986538E+03  0.12500000000E+03 0.  0.
         25    1    1    2    0    0  0.29930552205E+02 -0.27044223694E+02  0.28410500873E+02  0.13438520957E+03  0.12500000000E+03 0.  0.
</event>
<event>
 4    0  0.2210826E-002  0.2313416E+03  0.7546771E-02  0.1125699E+00
         21   -1    0    0  502  501  0.00000000000E+00  0.00000000000E+00  0.13053362549E+03  0.13053362549E+03  0.00000000000E+00 0.  1.
         21   -1    0    0  501  502 -0.00000000000E+00 -0.00000000000E+00 -0.41000131432E+03  0.41000131432E+03  0.00000000000E+00 0.  1.
         25    1    1    2    0    0 -0.24691820859E+02  0.18172071493E+03 -0.63466394916E+02  0.23083562883E+03  0.12500000000E+03 0.  0.
         25    1    1    2    0    0  0.24691820859E+02 -0.18172071493E+03 -0.21600129391E+03  0.30969931098E+03  0.12500000000E+03 0.  0.
</event>
<event>
 4    0  0.2210826E-002  0.2005281E+03  0.7546771E-02  0.1149294E+00
         21   -1    0    0  502  501  0.00000000000E+00  0.00000000000E+00  0.29786924561E+03  0.29786924561E+03  0.00000000000E+00 0.  1.
         21   -1    0    0  501  502 -0.00000000000E+00 -0.00000000000E+00 -0.13499719347E+03  0.13499719347E+03  0.00000000000E+00 0.  1.
         25    1    1    2    0    0 -0.88234026861E+02  0.11910818287E+03  0.13662392060E+03  0.23719843677E+03  0.12500000000E+03 0.  0.
         25    1    1    2    0    0  0.88234026861E+02 -0.11910818287E+03  0.26248131536E+02  0.19566800232E+03  0.12500000000E+03 0.  0.
</event>
