<event>
 6    0  0.4390142E+002  0.1535887E+03  0.7546771E-02  0.1196131E+00
         21   -1    0    0  504  501  0.00000000000E+00  0.00000000000E+00  0.21675987542E+04  0.21675987542E+04  0.00000000000E+00 0. -1.
         21   -1    0    0  506  502 -0.00000000000E+00 -0.00000000000E+00 -0.10085968479E+03  0.10085968479E+03  0.00000000000E+00 0. -1.
         21    1    1    2  503  501  0.49013052083E+02 -0.20585970362E+03  0.78576896474E+03  0.81376493092E+03  0.00000000000E+00 0. -1.
         21    1    1    2  504  502  0.16438033756E+02  0.13946380542E+03  0.13020422031E+04  0.13095931660E+04  0.00000000000E+00 0. -1.
         21    1    1    2  505  503 -0.66785493348E+01  0.76605212493E+02 -0.33976883937E+02  0.84067771734E+02  0.00000000000E+00 0. -1.
         21    1    1    2  506  505 -0.58772536504E+02 -0.10209314298E+02  0.12904785517E+02  0.61032570279E+02  0.00000000000E+00 0. -1.
<scales pt_clust_3="14000.00000" pt_clust_4="153.58870" pt_clust_5="86.11660" pt_clust_6="59.65267"></scales>
<clustering>
<clus scale="   59.653">  2  6  1 -1</clus>
<clus scale="   86.117">  2  5  1 -1</clus>
<clus scale="  153.589">  1  4  2 -1</clus>
<clus scale="  153.589">  1  3  2 -1</clus>
</clustering>
</event>
<event>
 6    0  0.4390142E+002  0.1245384E+03  0.7546771E-02  0.1235792E+00
         21   -1    0    0  503  501  0.00000000000E+00  0.00000000000E+00  0.45636951184E+03  0.45636951184E+03  0.00000000000E+00 0. -1.
         21   -1    0    0  505  502 -0.00000000000E+00 -0.00000000000E+00 -0.10734104489E+03  0.10734104489E+03  0.00000000000E+00 0.  1.
         21    1    1    2  503  502  0.19795129317E+02  0.13172152769E+03  0.31814627438E+03  0.34490500128E+03  0.00000000000E+00 0. -1.
         21    1    1    2  504  506 -0.17094678987E+01 -0.81637986514E+02 -0.29415192438E+02  0.86792492006E+02  0.00000000000E+00 0. -1.
         21    1    1    2  505  504 -0.55279513819E+02 -0.50274301666E+02  0.20376282139E+02  0.77450131891E+02  0.00000000000E+00 0.  1.
         21    1    1    2  506  501  0.37193852402E+02  0.19076048745E+00  0.39921102869E+02  0.54562931559E+02  0.00000000000E+00 0.  1.
<scales pt_clust_3="124.53841" pt_clust_4="14000.00000" pt_clust_5="71.47858" pt_clust_6="37.19434"></scales>
<clustering>
<clus scale="   37.194">  1  6  2 -1</clus>
<clus scale="   71.479">  2  5  1 -1</clus>
<clus scale="  124.538">  1  3  2 -1</clus>
<clus scale="   37.194">  1  3  2 -1</clus>
</clustering>
</event>
<event>
 6    0  0.4390142E+002  0.2125011E+03  0.7546771E-02  0.1139601E+00
         21   -1    0    0  503  501  0.00000000000E+00  0.00000000000E+00  0.40428619219E+03  0.40428619219E+03  0.00000000000E+00 0.  1.
         21   -1    0    0  501  502 -0.00000000000E+00 -0.00000000000E+00 -0.14814937284E+03  0.14814937284E+03  0.00000000000E+00 0. -1.
         21    1    1    2  503  505 -0.19460469652E+03 -0.21519638456E+02  0.14076821071E+03  0.24114263807E+03  0.00000000000E+00 0. -1.
         21    1    1    2  504  506  0.54534346354E+02  0.37910528780E+02  0.36489984029E+02  0.75780749924E+02  0.00000000000E+00 0.  1.
         21    1    1    2  505  504  0.15648820726E+03  0.93422353126E+01  0.11031814776E+03  0.19169227970E+03  0.00000000000E+00 0.  1.
         21    1    1    2  506  502 -0.16417857091E+02 -0.25733125637E+02 -0.31439523143E+02  0.43819897330E+02  0.00000000000E+00 0. -1.
<scales pt_clust_3="204.77025" pt_clust_4="36.29768" pt_clust_5="36.29768" pt_clust_6="30.52441"></scales>
<clustering>
<clus scale="   30.524">  2  6  1 -1</clus>
<clus scale="   36.298">  4  5 -1 -1</clus>
<clus scale="  204.770">  1  3  2 -1</clus>
<clus scale="  204.770">  1  3  2 -1</clus>
</clustering>
</event>
<event>
 6    0  0.4390142E+002  0.8865578E+02  0.7546771E-02  0.1306140E+00
         21   -1    0    0  506  501  0.00000000000E+00  0.00000000000E+00  0.15471451684E+04  0.15471451684E+04  0.00000000000E+00 0. -1.
         21   -1    0    0  503  502 -0.00000000000E+00 -0.00000000000E+00 -0.48681051052E+02  0.48681051052E+02  0.00000000000E+00 0. -1.
         21    1    1    2  503  505  0.32736042840E+01  0.63415931237E+02  0.20329624425E+03  0.21298276866E+03  0.00000000000E+00 0. -1.
         21    1    1    2  504  502  0.11522830087E+02 -0.28697309198E+02 -0.30631120604E+02  0.43526735668E+02  0.00000000000E+00 0. -1.
         21    1    1    2  505  501 -0.32192221039E+02  0.72323336985E+02  0.66215292219E+03  0.66686842521E+03  0.00000000000E+00 0.  1.
         21    1    1    2  506  504  0.17395786668E+02 -0.10704195902E+03  0.66364607148E+03  0.67244828989E+03  0.00000000000E+00 0. -1.
<scales pt_clust_3="52.06770" pt_clust_4="30.92428" pt_clust_5="14000.00000" pt_clust_6="88.65578"></scales>
<clustering>
<clus scale="   30.924">  2  4  1 -1</clus>
<clus scale="   52.068">  2  3  1 -1</clus>
<clus scale="   88.656">  2  6  1 -1</clus>
<clus scale="   88.656">  1  3  2 -1</clus>
</clustering>
</event>
<event>
 6    0  0.4390142E+002  0.9195215E+02  0.7546771E-02  0.1298192E+00
         21   -1    0    0  506  501  0.00000000000E+00  0.00000000000E+00  0.22707607789E+03  0.22707607789E+03  0.00000000000E+00 0.  1.
         21   -1    0    0  505  502 -0.00000000000E+00 -0.00000000000E+00 -0.17042606993E+04  0.17042606993E+04  0.00000000000E+00 0.  1.
         21    1    1    2  503  501 -0.43817191122E+02  0.35285636534E+01  0.10429159663E+03  0.11317744531E+03  0.00000000000E+00 0.  1.
         21    1    1    2  504  503  0.11077996482E+03  0.13847481790E+03 -0.31379585477E+02  0.18008929503E+03  0.00000000000E+00 0.  1.
         21    1    1    2  505  504 -0.50313763820E+02 -0.75180438475E+02 -0.15649980985E+04  0.15676104815E+04  0.00000000000E+00 0.  1.
         21    1    1    2  506  502 -0.16649009877E+02 -0.66822943083E+02  0.14901466001E+02  0.70459555357E+02  0.00000000000E+00 0.  1.
<scales pt_clust_3="43.95904" pt_clust_4="14000.00000" pt_clust_5="91.95215" pt_clust_6="73.14352"></scales>
<clustering>
<clus scale="   43.959">  1  3  2 -1</clus>
<clus scale="   73.144">  1  6  2 -1</clus>
<clus scale="   91.952">  2  5  1 -1</clus>
<clus scale="   43.959">  1  3  2 -1</clus>
</clustering>
</event>
<event>
 6    0  0.4390142E+002  0.8322961E+02  0.7546771E-02  0.1320128E+00
         21   -1    0    0  505  501  0.00000000000E+00  0.00000000000E+00  0.27530172815E+04  0.27530172815E+04  0.00000000000E+00 0.  1.
         21   -1    0    0  503  502 -0.00000000000E+00 -0.00000000000E+00 -0.19417475004E+03  0.19417475004E+03  0.00000000000E+00 0. -1.
         21    1    1    2  503  501  0.98738589455E+01  0.44150774170E+02 -0.18404436457E+03  0.18952338135E+03  0.00000000000E+00 0. -1.
         21    1    1    2  504  506  0.15364863307E+02  0.61863771496E+02  0.16201997822E+04  0.16214532184E+04  0.00000000000E+00 0.  1.
         21    1    1    2  505  504  0.30569982766E+02  0.45193485650E+01  0.52119428888E+03  0.52210960067E+03  0.00000000000E+00 0.  1.
         21    1    1    2  506  502 -0.55808705019E+02 -0.11053389423E+03  0.60149282494E+03  0.61410583110E+03  0.00000000000E+00 0. -1.
<scales pt_clust_3="45.25502" pt_clust_4="14000.00000" pt_clust_5="30.90224" pt_clust_6="83.22961"></scales>
<clustering>
<clus scale="   30.902">  1  5  2 -1</clus>
<clus scale="   45.255">  2  3  1 -1</clus>
<clus scale="   83.230">  2  6  1 -1</clus>
<clus scale="   30.902">  1  3  2 -1</clus>
</clustering>
</event>
<event>
 6    0  0.4390142E+002  0.9055782E+02  0.7546771E-02  0.1301506E+00
         21   -1    0    0  504  501  0.00000000000E+00  0.00000000000E+00  0.21299888951E+03  0.21299888951E+03  0.00000000000E+00 0. -1.
         21   -1    0    0  506  502 -0.00000000000E+00 -0.00000000000E+00 -0.26000379393E+03  0.26000379393E+03  0.00000000000E+00 0. -1.
         21    1    1    2  503  502 -0.49234144782E+02  0.23798214469E+02 -0.10074300858E+02  0.55604384379E+02  0.00000000000E+00 0. -1.
         21    1    1    2  504  505  0.78768513250E+01  0.11033845391E+03  0.11882632446E+03  0.16234627986E+03  0.00000000000E+00 0. -1.
         21    1    1    2  505  503  0.18931514446E+01 -0.66140765734E+02  0.14305393212E+02  0.67696596585E+02  0.00000000000E+00 0. -1.
         21    1    1    2  506  501  0.39464142012E+02 -0.67995902649E+02 -0.17006232123E+03  0.18735542262E+03  0.00000000000E+00 0. -1.
<scales pt_clust_3="54.68415" pt_clust_4="90.55782" pt_clust_5="14000.00000" pt_clust_6="49.27943"></scales>
<clustering>
<clus scale="   54.684">  2  3  1 -1</clus>
<clus scale="   49.279">  2  6  1 -1</clus>
<clus scale="   90.558">  1  4  2 -1</clus>
<clus scale="   90.558">  1  3  2 -1</clus>
</clustering>
</event>
<event>
 6    0  0.4390142E+002  0.1110133E+03  0.7546771E-02  0.1258705E+00
         21   -1    0    0  504  501  0.00000000000E+00  0.00000000000E+00  0.59195073658E+03  0.59195073658E+03  0.00000000000E+00 0.  1.
         21   -1    0    0  505  502 -0.00000000000E+00 -0.00000000000E+00 -0.21240274566E+03  0.21240274566E+03  0.00000000000E+00 0.  1.
         21    1    1    2  503  502 -0.67934822428E+01  0.34543433317E+02 -0.83707960534E+02  0.90809816887E+02  0.00000000000E+00 0.  1.
         21    1    1    2  504  506 -0.10935793923E+02  0.40842028457E+02  0.67377487463E+02  0.79544884776E+02  0.00000000000E+00 0.  1.
         21    1    1    2  505  501 -0.88824485635E+02 -0.90225957785E+02 -0.77567812750E+02  0.14848325926E+03  0.00000000000E+00 0.  1.
         21    1    1    2  506  503  0.10655376180E+03  0.14840496011E+02  0.47344627674E+03  0.48551552131E+03  0.00000000000E+00 0.  1.
<scales pt_clust_3="35.20512" pt_clust_4="43.98847" pt_clust_5="111.01328" pt_clust_6="14000.00000"></scales>
<clustering>
<clus scale="   35.205">  2  3  1 -1</clus>
<clus scale="   43.988">  1  4  2 -1</clus>
<clus scale="  111.013">  2  5  1 -1</clus>
<clus scale="   43.988">  1  3  2 -1</clus>
</clustering>
</event>
<event>
 6    0  0.4390142E+002  0.5245234E+02  0.7546771E-02  0.1432546E+00
         21   -1    0    0  505  501  0.00000000000E+00  0.00000000000E+00  0.22727435584E+03  0.22727435584E+03  0.00000000000E+00 0.  1.
         21   -1    0    0  503  502 -0.00000000000E+00 -0.00000000000E+00 -0.10454597352E+04  0.10454597352E+04  0.00000000000E+00 0.  1.
         21    1    1    2  503  506 -0.46639869824E+02  0.22810557383E+02 -0.98838383956E+03  0.98974653992E+03  0.00000000000E+00 0.  1.
         21    1    1    2  504  501 -0.28046223946E+02  0.27213264609E+02  0.90853268356E+02  0.98901308481E+02  0.00000000000E+00 0.  1.
         21    1    1    2  505  502 -0.39479588978E+02  0.20659514343E+01  0.28275617146E+02  0.48604697574E+02  0.00000000000E+00 0.  1.
         21    1    1    2  506  504  0.11416568275E+03 -0.52089773426E+02  0.51069574649E+02  0.13548154512E+03  0.00000000000E+00 0.  1.
<scales pt_clust_3="52.45234" pt_clust_4="39.07880" pt_clust_5="48.65437" pt_clust_6="14000.00000"></scales>
<clustering>
<clus scale="   39.079">  1  4  2 -1</clus>
<clus scale="   48.654">  1  5  2 -1</clus>
<clus scale="   52.452">  2  3  1 -1</clus>
<clus scale="   39.079">  1  3  2 -1</clus>
</clustering>
</event>
<event>
 6    0  0.4390142E+002  0.1560355E+03  0.7546771E-02  0.1193247E+00
         21   -1    0    0  505  501  0.00000000000E+00  0.00000000000E+00  0.61051276950E+03  0.61051276950E+03  0.00000000000E+00 0.  1.
         21   -1    0    0  504  502 -0.00000000000E+00 -0.00000000000E+00 -0.14174353609E+03  0.14174353609E+03  0.00000000000E+00 0.  1.
         21    1    1    2  503  501 -0.23026692943E+02 -0.56342677165E+02  0.32556471655E+03  0.33120554119E+03  0.00000000000E+00 0.  1.
         21    1    1    2  504  503 -0.15488510709E+03 -0.45862525413E+02  0.45915012232E+02  0.16793140261E+03  0.00000000000E+00 0.  1.
         21    1    1    2  505  506  0.42827577770E+02  0.29980677814E+02  0.84554561173E+02  0.99410845862E+02  0.00000000000E+00 0.  1.
         21    1    1    2  506  502  0.13508422226E+03  0.72224524764E+02  0.12734943463E+02  0.15370851592E+03  0.00000000000E+00 0.  1.
<scales pt_clust_3="37.57980" pt_clust_4="14000.00000" pt_clust_5="52.27851" pt_clust_6="156.03552"></scales>
<clustering>
<clus scale="   52.279">  1  5  2 -1</clus>
<clus scale="   37.580">  1  3  2 -1</clus>
<clus scale="  156.036">  2  6  1 -1</clus>
<clus scale="   52.279">  1  3  2 -1</clus>
</clustering>
</event>
<event>
 6    0  0.4390142E+002  0.8879937E+02  0.7546771E-02  0.1305786E+00
         21   -1    0    0  504  501  0.00000000000E+00  0.00000000000E+00  0.17057550207E+04  0.17057550207E+04  0.00000000000E+00 0.  1.
         21   -1    0    0  503  502 -0.00000000000E+00 -0.00000000000E+00 -0.52531329513E+02  0.52531329513E+02  0.00000000000E+00 0.  1.
         21    1    1    2  503  501  0.51651120227E+02  0.11664346377E+03  0.14609259617E+03  0.19394994848E+03  0.00000000000E+00 0.  1.
         21    1    1    2  504  506  0.59742690502E+02 -0.42564839532E+02  0.12469010370E+04  0.12490569045E+04  0.00000000000E+00 0.  1.
         21    1    1    2  505  502 -0.62205637880E+02 -0.20814240019E+02  0.26817165203E+02  0.70865607464E+02  0.00000000000E+00 0.  1.
         21    1    1    2  506  505 -0.49188172849E+02 -0.53264384218E+02  0.23341289283E+03  0.24441388978E+03  0.00000000000E+00 0.  1.
<scales pt_clust_3="14000.00000" pt_clust_4="72.01604" pt_clust_5="65.59553" pt_clust_6="88.79937"></scales>
<clustering>
<clus scale="   65.596">  2  5  1 -1</clus>
<clus scale="   72.016">  1  4  2 -1</clus>
<clus scale="   88.799">  1  6  2 -1</clus>
<clus scale="   72.016">  1  3  2 -1</clus>
</clustering>
</event>
<event>
 6    0  0.4390142E+002  0.1219971E+03  0.7546771E-02  0.1239838E+00
         21   -1    0    0  505  501  0.00000000000E+00  0.00000000000E+00  0.67403897958E+03  0.67403897958E+03  0.00000000000E+00 0.  1.
         21   -1    0    0  506  502 -0.00000000000E+00 -0.00000000000E+00 -0.13934635061E+03  0.13934635061E+03  0.00000000000E+00 0.  1.
         21    1    1    2  503  504  0.88764121376E+02  0.36265061808E+02  0.65628557158E+02  0.11619522996E+03  0.00000000000E+00 0.  1.
         21    1    1    2  504  501 -0.13969274519E+02  0.32687104612E+02  0.17676264458E+03  0.18030146965E+03  0.00000000000E+00 0.  1.
         21    1    1    2  505  502 -0.12392238298E+03 -0.48182697899E+02  0.38644893807E+03  0.40868216393E+03  0.00000000000E+00 0.  1.
         21    1    1    2  506  503  0.49127536119E+02 -0.20769468520E+02 -0.94147510833E+02  0.10820646665E+03  0.00000000000E+00 0.  1.
<scales pt_clust_3="14000.00000" pt_clust_4="35.54698" pt_clust_5="121.99711" pt_clust_6="52.97552"></scales>
<clustering>
<clus scale="   35.547">  1  4  2 -1</clus>
<clus scale="   52.976">  2  6  1 -1</clus>
<clus scale="  121.997">  1  5  2 -1</clus>
<clus scale="   35.547">  1  3  2 -1</clus>
</clustering>
</event>
<event>
 6    0  0.4390142E+002  0.2358364E+03  0.7546771E-02  0.1122598E+00
         21   -1    0    0  504  501  0.00000000000E+00  0.00000000000E+00  0.11273825565E+03  0.11273825565E+03  0.00000000000E+00 0. -1.
         21   -1    0    0  503  502 -0.00000000000E+00 -0.00000000000E+00 -0.24146300462E+04  0.24146300462E+04  0.00000000000E+00 0. -1.
         21    1    1    2  503  506 -0.95135872741E+02 -0.23462494887E+03 -0.20938101431E+04  0.21090615488E+04  0.00000000000E+00 0. -1.
         21    1    1    2  504  502  0.36611339412E+02  0.21353522359E+01 -0.87498298014E+02  0.94873083950E+02  0.00000000000E+00 0. -1.
         21    1    1    2  505  501  0.64553490098E+02  0.18516480291E+02  0.16614917234E+02  0.69181418032E+02  0.00000000000E+00 0. -1.
         21    1    1    2  506  505 -0.60289567690E+01  0.21397311634E+03 -0.13719826665E+03  0.25425225114E+03  0.00000000000E+00 0. -1.
<scales pt_clust_3="235.83637" pt_clust_4="36.67356" pt_clust_5="67.56145" pt_clust_6="14000.00000"></scales>
<clustering>
<clus scale="   36.674">  2  4  1 -1</clus>
<clus scale="   67.561">  1  5  2 -1</clus>
<clus scale="  235.836">  2  3  1 -1</clus>
<clus scale="   67.561">  1  3  2 -1</clus>
</clustering>
</event>
<event>
 6    0  0.4390142E+002  0.1514286E+03  0.7546771E-02  0.1198728E+00
         21   -1    0    0  506  501  0.00000000000E+00  0.00000000000E+00  0.26872897173E+03  0.26872897173E+03  0.00000000000E+00 0.  1.
         21   -1    0    0  503  502 -0.00000000000E+00 -0.00000000000E+00 -0.21909056805E+03  0.21909056805E+03  0.00000000000E+00 0. -1.
         21    1    1    2  503  504 -0.34543186867E+02  0.44810243070E+01 -0.79576424785E+02  0.86866096489E+02  0.00000000000E+00 0. -1.
         21    1    1    2  504  505 -0.11491066536E+03  0.75686353052E+02 -0.44296243186E+02  0.14455117506E+03  0.00000000000E+00 0. -1.
         21    1    1    2  505  501  0.11039475615E+03 -0.94109469921E+02  0.11734408235E+03  0.18658303293E+03  0.00000000000E+00 0.  1.
         21    1    1    2  506  502  0.39059096075E+02  0.13942092562E+02  0.56166989302E+02  0.69819235304E+02  0.00000000000E+00 0.  1.
<scales pt_clust_3="34.83262" pt_clust_4="151.42864" pt_clust_5="14000.00000" pt_clust_6="39.92197"></scales>
<clustering>
<clus scale="   34.833">  2  3  1 -1</clus>
<clus scale="   39.922">  1  6  2 -1</clus>
<clus scale="  151.429">  2  4  1 -1</clus>
<clus scale="   39.922">  1  3  2 -1</clus>
</clustering>
</event>
<event>
 6    0  0.4390142E+002  0.1037019E+03  0.7546771E-02  0.1272698E+00
         21   -1    0    0  505  501  0.00000000000E+00  0.00000000000E+00  0.34339726367E+03  0.34339726367E+03  0.00000000000E+00 0.  1.
         21   -1    0    0  506  502 -0.00000000000E+00 -0.00000000000E+00 -0.20271818660E+03  0.20271818660E+03  0.00000000000E+00 0. -1.
         21    1    1    2  503  502  0.91065453818E+02 -0.48725786025E+02  0.10624633533E+02  0.10382678816E+03  0.00000000000E+00 0. -1.
         21    1    1    2  504  501 -0.86844992008E+02 -0.20179507663E+02  0.23708128978E+03  0.25329193262E+03  0.00000000000E+00 0.  1.
         21    1    1    2  505  503 -0.33011532116E+02 -0.96336051245E+01  0.17808799548E+02  0.38726230667E+02  0.00000000000E+00 0. -1.
         21    1    1    2  506  504  0.28791070306E+02  0.78538898813E+02 -0.12483564579E+03  0.15027049882E+03  0.00000000000E+00 0. -1.
<scales pt_clust_3="14000.00000" pt_clust_4="103.70191" pt_clust_5="34.38848" pt_clust_6="82.83375"></scales>
<clustering>
<clus scale="   34.388">  1  5  2 -1</clus>
<clus scale="   82.834">  2  6  1 -1</clus>
<clus scale="  103.702">  1  4  2 -1</clus>
<clus scale="   34.388">  1  3  2 -1</clus>
</clustering>
</event>
<event>
 6    0  0.4390142E+002  0.4725036E+03  0.7546771E-02  0.1021216E+00
         21   -1    0    0  505  501  0.00000000000E+00  0.00000000000E+00  0.15530088870E+04  0.15530088870E+04  0.00000000000E+00 0. -1.
         21   -1    0    0  506  502 -0.00000000000E+00 -0.00000000000E+00 -0.19614621899E+04  0.19614621899E+04  0.00000000000E+00 0.  1.
         21    1    1    2  503  502  0.18512023907E+03  0.84530922835E+02 -0.23718714870E+03  0.31252635623E+03  0.00000000000E+00 0.  1.
         21    1    1    2  504  501 -0.37114935367E+03 -0.20997096000E+03  0.13864956914E+04  0.14505895178E+04  0.00000000000E+00 0. -1.
         21    1    1    2  505  503  0.17335795019E+03  0.61803075308E+02  0.80293301622E+01  0.18422016489E+03  0.00000000000E+00 0.  1.
         21    1    1    2  506  504  0.12671164412E+02  0.63636961853E+02 -0.15657911758E+04  0.15671350381E+04  0.00000000000E+00 0.  1.
<scales pt_clust_3="191.12544" pt_clust_4="423.00840" pt_clust_5="191.12544" pt_clust_6="64.88622"></scales>
<clustering>
<clus scale="   64.886">  2  6  1 -1</clus>
<clus scale="  191.125">  3  5 -1 -1</clus>
<clus scale="  423.008">  1  4  2 -1</clus>
<clus scale="  423.008">  1  3  2 -1</clus>
</clustering>
</event>
<event>
 6    0  0.4390142E+002  0.1488235E+03  0.7546771E-02  0.1201926E+00
         21   -1    0    0  503  501  0.00000000000E+00  0.00000000000E+00  0.28029122225E+03  0.28029122225E+03  0.00000000000E+00 0. -1.
         21   -1    0    0  504  502 -0.00000000000E+00 -0.00000000000E+00 -0.33198490395E+03  0.33198490395E+03  0.00000000000E+00 0.  1.
         21    1    1    2  503  505  0.30894310254E+02 -0.66861770781E+02  0.14220208863E+03  0.16014489941E+03  0.00000000000E+00 0. -1.
         21    1    1    2  504  501 -0.94681889917E+02  0.98906167480E+02 -0.25263794666E+03  0.28735521979E+03  0.00000000000E+00 0.  1.
         21    1    1    2  505  506  0.12067284388E+02 -0.70225252444E+02  0.69568643651E+02  0.99584143380E+02  0.00000000000E+00 0. -1.
         21    1    1    2  506  502  0.51720295275E+02  0.38180855745E+02 -0.10826467311E+02  0.65191863627E+02  0.00000000000E+00 0. -1.
<scales pt_clust_3="43.69752" pt_clust_4="142.03753" pt_clust_5="43.69752" pt_clust_6="64.28660"></scales>
<clustering>
<clus scale="   43.698">  3  5 -1 -1</clus>
<clus scale="   64.287">  2  6  1 -1</clus>
<clus scale="  142.038">  2  4  1 -1</clus>
<clus scale="  148.824">  1  3  2 -1</clus>
</clustering>
</event>
<event>
 6    0  0.4390142E+002  0.1775630E+03  0.7546771E-02  0.1170183E+00
         21   -1    0    0  505  501  0.00000000000E+00  0.00000000000E+00  0.45608782396E+03  0.45608782396E+03  0.00000000000E+00 0. -1.
         21   -1    0    0  504  502 -0.00000000000E+00 -0.00000000000E+00 -0.81350189676E+03  0.81350189676E+03  0.00000000000E+00 0. -1.
         21    1    1    2  503  506 -0.11144063512E+03  0.46609293089E+02  0.24207211869E+03  0.27053715457E+03  0.00000000000E+00 0. -1.
         21    1    1    2  504  501 -0.87751862176E+01  0.38233578478E+02 -0.44479395442E+03  0.44652040525E+03  0.00000000000E+00 0. -1.
         21    1    1    2  505  503 -0.35455234597E+02  0.38041765474E+02  0.16683806279E+03  0.17475465309E+03  0.00000000000E+00 0. -1.
         21    1    1    2  506  502  0.15567105594E+03 -0.12288463704E+03 -0.32153029986E+03  0.37777750781E+03  0.00000000000E+00 0. -1.
<scales pt_clust_3="31.69203" pt_clust_4="39.22767" pt_clust_5="31.69203" pt_clust_6="170.86708"></scales>
<clustering>
<clus scale="   31.692">  3  5 -1 -1</clus>
<clus scale="   39.228">  2  4  1 -1</clus>
<clus scale="  170.867">  2  6  1 -1</clus>
<clus scale="  177.563">  1  3  2 -1</clus>
</clustering>
</event>
<event>
 6    0  0.4390142E+002  0.1302211E+03  0.7546771E-02  0.1227128E+00
         21   -1    0    0  506  501  0.00000000000E+00  0.00000000000E+00  0.34076453512E+03  0.34076453512E+03  0.00000000000E+00 0.  1.
         21   -1    0    0  504  502 -0.00000000000E+00 -0.00000000000E+00 -0.47583481685E+03  0.47583481685E+03  0.00000000000E+00 0. -1.
         21    1    1    2  503  505 -0.62767132202E+02  0.81994403292E+02 -0.21736739922E+03  0.24064783668E+03  0.00000000000E+00 0. -1.
         21    1    1    2  504  503 -0.13930663736E+02  0.28860983386E+02 -0.21298456259E+03  0.21538208759E+03  0.00000000000E+00 0. -1.
         21    1    1    2  505  501 -0.47314196736E+02 -0.44386507624E+02  0.11302390393E+03  0.13031959995E+03  0.00000000000E+00 0.  1.
         21    1    1    2  506  502  0.12401199267E+03 -0.66468879054E+02  0.18225777615E+03  0.23024982774E+03  0.00000000000E+00 0.  1.
<scales pt_clust_3="130.22113" pt_clust_4="32.04715" pt_clust_5="64.56630" pt_clust_6="14000.00000"></scales>
<clustering>
<clus scale="   32.047">  2  4  1 -1</clus>
<clus scale="   64.566">  1  5  2 -1</clus>
<clus scale="  130.221">  2  3  1 -1</clus>
<clus scale="   64.566">  1  3  2 -1</clus>
</clustering>
</event>
<event>
 6    0  0.4390142E+002  0.8074988E+02  0.7546771E-02  0.1326937E+00
         21   -1    0    0  505  501  0.00000000000E+00  0.00000000000E+00  0.97487085124E+03  0.97487085124E+03  0.00000000000E+00 0.  1.
         21   -1    0    0  504  502 -0.00000000000E+00 -0.00000000000E+00 -0.22764319218E+02  0.22764319218E+02  0.00000000000E+00 0.  1.
         21    1    1    2  503  501 -0.76731046297E+02  0.89147725485E+02  0.41248383796E+03  0.42892643542E+03  0.00000000000E+00 0.  1.
         21    1    1    2  504  503 -0.19621063756E+02 -0.40833659272E+02  0.69874199880E+02  0.83275312556E+02  0.00000000000E+00 0.  1.
         21    1    1    2  505  506  0.29953438633E+02 -0.37722142074E+02  0.28025791393E+03  0.28436713385E+03  0.00000000000E+00 0.  1.
         21    1    1    2  506  502  0.66398671419E+02 -0.10591924139E+02  0.18949058025E+03  0.20106628864E+03  0.00000000000E+00 0.  1.
<scales pt_clust_3="80.74988" pt_clust_4="45.30313" pt_clust_5="50.96498" pt_clust_6="14000.00000"></scales>
<clustering>
<clus scale="   45.303">  2  4  1 -1</clus>
<clus scale="   50.965">  1  5  2 -1</clus>
<clus scale="   80.750">  1  3  2 -1</clus>
<clus scale="   50.965">  1  3  2 -1</clus>
</clustering>
</event>
<event>
 6    0  0.4390142E+002  0.1396215E+03  0.7546771E-02  0.1213839E+00
         21   -1    0    0  503  501  0.00000000000E+00  0.00000000000E+00  0.84379137495E+03  0.84379137495E+03  0.00000000000E+00 0.  1.
         21   -1    0    0  506  502 -0.00000000000E+00 -0.00000000000E+00 -0.14001732328E+03  0.14001732328E+03  0.00000000000E+00 0.  1.
         21    1    1    2  503  505  0.61273519812E+02  0.17177854805E+02  0.29835647569E+03  0.30506738520E+03  0.00000000000E+00 0.  1.
         21    1    1    2  504  502 -0.48639913561E+02 -0.26289595652E+02  0.18439549491E+02  0.58283797202E+02  0.00000000000E+00 0. -1.
         21    1    1    2  505  504  0.32335599237E+02  0.69876241397E+02  0.48813772609E+03  0.49417276303E+03  0.00000000000E+00 0.  1.
         21    1    1    2  506  501 -0.44969205487E+02 -0.60764500549E+02 -0.10115969960E+03  0.12628475281E+03  0.00000000000E+00 0.  1.
<scales pt_clust_3="56.29317" pt_clust_4="55.29000" pt_clust_5="56.29317" pt_clust_6="124.99425"></scales>
<clustering>
<clus scale="   55.290">  2  4  1 -1</clus>
<clus scale="   56.293">  3  5 -1 -1</clus>
<clus scale="  124.994">  2  6  1 -1</clus>
<clus scale="  139.622">  1  3  2 -1</clus>
</clustering>
</event>
<event>
 6    0  0.4390142E+002  0.1801930E+03  0.7546771E-02  0.1167616E+00
         21   -1    0    0  506  501  0.00000000000E+00  0.00000000000E+00  0.37889923211E+03  0.37889923211E+03  0.00000000000E+00 0.  1.
         21   -1    0    0  503  502 -0.00000000000E+00 -0.00000000000E+00 -0.61480260534E+03  0.61480260534E+03  0.00000000000E+00 0. -1.
         21    1    1    2  503  501  0.40477427435E+02  0.13430872737E+03  0.30830021556E+02  0.14362362831E+03  0.00000000000E+00 0. -1.
         21    1    1    2  504  502  0.62877736022E+02 -0.18199315055E+03 -0.52832253746E+03  0.56231647684E+03  0.00000000000E+00 0. -1.
         21    1    1    2  505  504 -0.64034837608E+02  0.12179464775E+02  0.11956928885E+03  0.13618228456E+03  0.00000000000E+00 0.  1.
         21    1    1    2  506  505 -0.39320325849E+02  0.35504958413E+02  0.14201985383E+03  0.15157944775E+03  0.00000000000E+00 0.  1.
<scales pt_clust_3="180.19302" pt_clust_4="14000.00000" pt_clust_5="119.90803" pt_clust_6="33.99441"></scales>
<clustering>
<clus scale="   33.994">  5  6 -1 -1</clus>
<clus scale="  119.908">  1  5  2 -1</clus>
<clus scale="  180.193">  1  3  2 -1</clus>
<clus scale="  119.908">  1  3  2 -1</clus>
</clustering>
</event>
<event>
 6    0  0.4390142E+002  0.1062493E+03  0.7546771E-02  0.1267678E+00
         21   -1    0    0  506  501  0.00000000000E+00  0.00000000000E+00  0.80459387952E+03  0.80459387952E+03  0.00000000000E+00 0.  1.
         21   -1    0    0  504  502 -0.00000000000E+00 -0.00000000000E+00 -0.65359300123E+02  0.65359300123E+02  0.00000000000E+00 0.  1.
         21    1    1    2  503  501 -0.34048245601E+01 -0.35229106925E+02  0.16656239417E+03  0.17028127894E+03  0.00000000000E+00 0.  1.
         21    1    1    2  504  503 -0.67440833829E+02  0.22406779389E+02  0.34870227470E+03  0.35587020978E+03  0.00000000000E+00 0.  1.
         21    1    1    2  505  502  0.67472824766E+02 -0.90283605020E+02  0.18952938872E+02  0.11429315513E+03  0.00000000000E+00 0.  1.
         21    1    1    2  506  505  0.33728336231E+01  0.10310593256E+03  0.20501697165E+03  0.22950853579E+03  0.00000000000E+00 0.  1.
<scales pt_clust_3="35.39326" pt_clust_4="69.38685" pt_clust_5="14000.00000" pt_clust_6="106.24932"></scales>
<clustering>
<clus scale="   35.393">  1  3  2 -1</clus>
<clus scale="   69.387">  1  4  2 -1</clus>
<clus scale="  106.249">  1  6  2 -1</clus>
<clus scale="   35.393">  1  3  2 -1</clus>
</clustering>
</event>
<event>
 6    0  0.4390142E+002  0.1220903E+03  0.7546771E-02  0.1239688E+00
         21   -1    0    0  506  501  0.00000000000E+00  0.00000000000E+00  0.13100625835E+03  0.13100625835E+03  0.00000000000E+00 0. -1.
         21   -1    0    0  503  502 -0.00000000000E+00 -0.00000000000E+00 -0.12086868845E+04  0.12086868845E+04  0.00000000000E+00 0. -1.
         21    1    1    2  503  505 -0.25958479399E+02 -0.26123877943E+02 -0.15364467452E+03  0.15799679003E+03  0.00000000000E+00 0.  1.
         21    1    1    2  504  501  0.26991908185E+02 -0.23746774123E+02  0.10046963546E+02  0.37328459187E+02  0.00000000000E+00 0.  1.
         21    1    1    2  505  504 -0.64169007834E+02 -0.59120117821E+02 -0.99890604987E+03  0.10027094028E+04  0.00000000000E+00 0. -1.
         21    1    1    2  506  502  0.63135579049E+02  0.10899076989E+03  0.64823134655E+02  0.14165849092E+03  0.00000000000E+00 0. -1.
<scales pt_clust_3="36.79095" pt_clust_4="35.95097" pt_clust_5="122.09030" pt_clust_6="14000.00000"></scales>
<clustering>
<clus scale="   35.951">  1  4  2 -1</clus>
<clus scale="   36.791">  2  3  1 -1</clus>
<clus scale="  122.090">  2  5  1 -1</clus>
<clus scale="   35.951">  1  3  2 -1</clus>
</clustering>
</event>
<event>
 6    0  0.4390142E+002  0.1231533E+03  0.7546771E-02  0.1237984E+00
         21   -1    0    0  505  501  0.00000000000E+00  0.00000000000E+00  0.98444380914E+02  0.98444380914E+02  0.00000000000E+00 0. -1.
         21   -1    0    0  504  502 -0.00000000000E+00 -0.00000000000E+00 -0.16277364818E+04  0.16277364818E+04  0.00000000000E+00 0.  1.
         21    1    1    2  503  501 -0.10187895409E+02 -0.80312899807E+02  0.47477090897E+02  0.93851101476E+02  0.00000000000E+00 0. -1.
         21    1    1    2  504  506  0.61848610467E+02  0.48097841300E+02 -0.98580673532E+03  0.98891535146E+03  0.00000000000E+00 0.  1.
         21    1    1    2  505  502 -0.18693251864E+02  0.57870932495E+02 -0.59797175331E+03  0.60105632036E+03  0.00000000000E+00 0.  1.
         21    1    1    2  506  503 -0.32967463194E+02 -0.25655873988E+02  0.70092968140E+01  0.42358089444E+02  0.00000000000E+00 0. -1.
<scales pt_clust_3="35.86226" pt_clust_4="112.58026" pt_clust_5="60.81515" pt_clust_6="35.86226"></scales>
<clustering>
<clus scale="   35.862">  3  6 -1 -1</clus>
<clus scale="   60.815">  2  5  1 -1</clus>
<clus scale="  112.580">  2  4  1 -1</clus>
<clus scale="  123.153">  1  3  2 -1</clus>
</clustering>
</event>
<event>
 6    0  0.4390142E+002  0.1782760E+03  0.7546771E-02  0.1169482E+00
         21   -1    0    0  506  501  0.00000000000E+00  0.00000000000E+00  0.26842006280E+03  0.26842006280E+03  0.00000000000E+00 0.  1.
         21   -1    0    0  504  502 -0.00000000000E+00 -0.00000000000E+00 -0.55150783373E+03  0.55150783373E+03  0.00000000000E+00 0.  1.
         21    1    1    2  503  501 -0.12365914006E+03  0.87371412447E+02  0.15029409354E+03  0.21333930999E+03  0.00000000000E+00 0.  1.
         21    1    1    2  504  505  0.81673421446E+02  0.57976156865E+02 -0.25740008506E+03  0.27620026489E+03  0.00000000000E+00 0.  1.
         21    1    1    2  505  503  0.12646794634E+03 -0.93189234674E+02 -0.16918150731E+03  0.23086956777E+03  0.00000000000E+00 0.  1.
         21    1    1    2  506  502 -0.84482227724E+02 -0.52158334638E+02 -0.68002721008E+01  0.99518753881E+02  0.00000000000E+00 0. -1.
<scales pt_clust_3="14000.00000" pt_clust_4="95.96493" pt_clust_5="178.27599" pt_clust_6="99.28615"></scales>
<clustering>
<clus scale="   99.286">  1  6  2 -1</clus>
<clus scale="   95.965">  2  4  1 -1</clus>
<clus scale="  178.276">  2  5  1 -1</clus>
<clus scale="   99.286">  1  3  2 -1</clus>
</clustering>
</event>
<event>
 6    0  0.4390142E+002  0.5903963E+02  0.7546771E-02  0.1401907E+00
         21   -1    0    0  503  501  0.00000000000E+00  0.00000000000E+00  0.43106566735E+03  0.43106566735E+03  0.00000000000E+00 0.  1.
         21   -1    0    0  506  502 -0.00000000000E+00 -0.00000000000E+00 -0.37374913426E+03  0.37374913426E+03  0.00000000000E+00 0. -1.
         21    1    1    2  503  505 -0.41327402200E+02 -0.58462569614E+02  0.11531806304E+03  0.13573533763E+03  0.00000000000E+00 0.  1.
         21    1    1    2  504  501  0.15869597653E+02  0.49527722032E+02  0.29019025572E+03  0.29481388009E+03  0.00000000000E+00 0. -1.
         21    1    1    2  505  502 -0.16962491947E+02 -0.51799275570E+02 -0.21558589809E+03  0.22236944605E+03  0.00000000000E+00 0. -1.
         21    1    1    2  506  504  0.42420296493E+02  0.60734123152E+02 -0.13260588757E+03  0.15189613783E+03  0.00000000000E+00 0. -1.
<scales pt_clust_3="30.18556" pt_clust_4="52.00807" pt_clust_5="59.03963" pt_clust_6="14000.00000"></scales>
<clustering>
<clus scale="   52.008">  1  4  2 -1</clus>
<clus scale="   30.186">  1  3  2 -1</clus>
<clus scale="   59.040">  2  5  1 -1</clus>
<clus scale="   52.008">  1  3  2 -1</clus>
</clustering>
</event>
<event>
 6    0  0.4390142E+002  0.1749201E+03  0.7546771E-02  0.1172812E+00
         21   -1    0    0  505  501  0.00000000000E+00  0.00000000000E+00  0.14533189168E+04  0.14533189168E+04  0.00000000000E+00 0. -1.
         21   -1    0    0  506  502 -0.00000000000E+00 -0.00000000000E+00 -0.23841696437E+03  0.23841696437E+03  0.00000000000E+00 0. -1.
         21    1    1    2  503  501 -0.14704148297E+02  0.32761935432E+02  0.11771492821E+03  0.12307055177E+03  0.00000000000E+00 0. -1.
         21    1    1    2  504  502  0.14733635935E+03 -0.29078835253E+02 -0.16000795945E+03  0.21944504673E+03  0.00000000000E+00 0. -1.
         21    1    1    2  505  504 -0.16031120405E+03 -0.58399952506E+02  0.12742115339E+04  0.12855836300E+04  0.00000000000E+00 0. -1.
         21    1    1    2  506  503  0.27678993002E+02  0.54716852327E+02 -0.17016550227E+02  0.63636652676E+02  0.00000000000E+00 0. -1.
<scales pt_clust_3="35.91039" pt_clust_4="174.92008" pt_clust_5="14000.00000" pt_clust_6="61.71644"></scales>
<clustering>
<clus scale="   35.910">  1  3  2 -1</clus>
<clus scale="   61.716">  2  6  1 -1</clus>
<clus scale="  174.920">  2  4  1 -1</clus>
<clus scale="   35.910">  1  3  2 -1</clus>
</clustering>
</event>
<event>
 6    0  0.4390142E+002  0.2613665E+03  0.7546771E-02  0.1106325E+00
         21   -1    0    0  505  501  0.00000000000E+00  0.00000000000E+00  0.62810400483E+03  0.62810400483E+03  0.00000000000E+00 0. -1.
         21   -1    0    0  503  502 -0.00000000000E+00 -0.00000000000E+00 -0.29282767937E+03  0.29282767937E+03  0.00000000000E+00 0. -1.
         21    1    1    2  503  501 -0.28887754783E+02  0.90522595732E+01 -0.41830417967E+01  0.30560491136E+02  0.00000000000E+00 0. -1.
         21    1    1    2  504  502  0.12247989913E+03  0.21529134417E+03 -0.18189698820E+03  0.30730799352E+03  0.00000000000E+00 0. -1.
         21    1    1    2  505  506 -0.21810768985E+02 -0.57161615905E+02  0.24252319895E+03  0.25012129459E+03  0.00000000000E+00 0. -1.
         21    1    1    2  506  504 -0.71781375359E+02 -0.16718198784E+03  0.27883315651E+03  0.33294190495E+03  0.00000000000E+00 0. -1.
<scales pt_clust_3="30.27286" pt_clust_4="243.41686" pt_clust_5="55.16093" pt_clust_6="55.16093"></scales>
<clustering>
<clus scale="   30.273">  2  3  1 -1</clus>
<clus scale="   55.161">  5  6 -1 -1</clus>
<clus scale="  243.417">  2  4  1 -1</clus>
<clus scale="  261.367">  1  3  2 -1</clus>
</clustering>
</event>
<event>
 6    0  0.4390142E+002  0.8287149E+02  0.7546771E-02  0.1321095E+00
         21   -1    0    0  503  501  0.00000000000E+00  0.00000000000E+00  0.18415144373E+03  0.18415144373E+03  0.00000000000E+00 0.  1.
         21   -1    0    0  504  502 -0.00000000000E+00 -0.00000000000E+00 -0.18425300786E+03  0.18425300786E+03  0.00000000000E+00 0. -1.
         21    1    1    2  503  502  0.35227267714E+02  0.55262743511E+01 -0.48171722105E+01  0.35982012825E+02  0.00000000000E+00 0.  1.
         21    1    1    2  504  506  0.47723092422E+02 -0.41149130899E+01 -0.10770368013E+03  0.11787497094E+03  0.00000000000E+00 0. -1.
         21    1    1    2  505  501  0.43574738436E+02  0.25903192044E+01  0.67183958241E+02  0.80119609511E+02  0.00000000000E+00 0.  1.
         21    1    1    2  506  505 -0.12652509857E+03 -0.40016804656E+01  0.45235329971E+02  0.13442785832E+03  0.00000000000E+00 0.  1.
<scales pt_clust_3="35.65810" pt_clust_4="14000.00000" pt_clust_5="45.05289" pt_clust_6="82.87149"></scales>
<clustering>
<clus scale="   35.658">  2  3  1 -1</clus>
<clus scale="   45.053">  1  5  2 -1</clus>
<clus scale="   82.871">  1  6  2 -1</clus>
<clus scale="   45.053">  1  3  2 -1</clus>
</clustering>
</event>
<event>
 6    0  0.4390142E+002  0.1644273E+03  0.7546771E-02  0.1183787E+00
         21   -1    0    0  506  501  0.00000000000E+00  0.00000000000E+00  0.37261975122E+03  0.37261975122E+03  0.00000000000E+00 0.  1.
         21   -1    0    0  503  502 -0.00000000000E+00 -0.00000000000E+00 -0.48686253763E+03  0.48686253763E+03  0.00000000000E+00 0.  1.
         21    1    1    2  503  505  0.98908341538E+02 -0.87428544207E+02 -0.41156609911E+03  0.43221900040E+03  0.00000000000E+00 0.  1.
         21    1    1    2  504  501 -0.71274533923E+02  0.62601722151E+02  0.13710954056E+03  0.16672750497E+03  0.00000000000E+00 0.  1.
         21    1    1    2  505  504 -0.58388609999E+02  0.12010333932E+02  0.19996889178E+03  0.20866488822E+03  0.00000000000E+00 0.  1.
         21    1    1    2  506  502  0.30754802384E+02  0.12816488123E+02 -0.39755119634E+02  0.51870895255E+02  0.00000000000E+00 0.  1.
<scales pt_clust_3="148.72202" pt_clust_4="55.60821" pt_clust_5="55.60821" pt_clust_6="33.31847"></scales>
<clustering>
<clus scale="   33.318">  2  6  1 -1</clus>
<clus scale="   55.608">  4  5 -1 -1</clus>
<clus scale="  148.722">  2  3  1 -1</clus>
<clus scale="  164.427">  1  3  2 -1</clus>
</clustering>
</event>
<event>
 6    0  0.4390142E+002  0.7774228E+02  0.7546771E-02  0.1335583E+00
         21   -1    0    0  504  501  0.00000000000E+00  0.00000000000E+00  0.14318921897E+03  0.14318921897E+03  0.00000000000E+00 0. -1.
         21   -1    0    0  505  502 -0.00000000000E+00 -0.00000000000E+00 -0.40158740408E+03  0.40158740408E+03  0.00000000000E+00 0. -1.
         21    1    1    2  503  506  0.81029945760E+02 -0.19467544802E+01  0.21545792631E+02  0.83868129483E+02  0.00000000000E+00 0. -1.
         21    1    1    2  504  503 -0.42608649255E+02  0.63945929946E+02  0.29240026062E+02  0.82216531622E+02  0.00000000000E+00 0. -1.
         21    1    1    2  505  501  0.47977220647E+02  0.43624548890E+02 -0.38126572207E+02  0.75223337304E+02  0.00000000000E+00 0. -1.
         21    1    1    2  506  502 -0.86398517152E+02 -0.10562372436E+03 -0.27105743160E+03  0.30346862464E+03  0.00000000000E+00 0. -1.
<scales pt_clust_3="14000.00000" pt_clust_4="77.74228" pt_clust_5="64.84532" pt_clust_6="76.38197"></scales>
<clustering>
<clus scale="   64.845">  2  5  1 -1</clus>
<clus scale="   77.742">  1  4  2 -1</clus>
<clus scale="   76.382">  2  6  1 -1</clus>
<clus scale="   77.742">  1  3  2 -1</clus>
</clustering>
</event>
<event>
 6    0  0.4390142E+002  0.1192524E+03  0.7546771E-02  0.1244336E+00
         21   -1    0    0  505  501  0.00000000000E+00  0.00000000000E+00  0.24819276122E+03  0.24819276122E+03  0.00000000000E+00 0.  1.
         21   -1    0    0  504  502 -0.00000000000E+00 -0.00000000000E+00 -0.13971929952E+03  0.13971929952E+03  0.00000000000E+00 0.  1.
         21    1    1    2  503  506  0.20228227310E+02 -0.40536345135E+02  0.46918159911E+02  0.65220320349E+02  0.00000000000E+00 0.  1.
         21    1    1    2  504  503 -0.20611863524E+02 -0.40390419064E+02  0.79246151533E+01  0.46032970744E+02  0.00000000000E+00 0. -1.
         21    1    1    2  505  502  0.15174340160E+02  0.14608780272E+03 -0.48445822857E+02  0.15465737763E+03  0.00000000000E+00 0.  1.
         21    1    1    2  506  501 -0.14790703945E+02 -0.65161038520E+02  0.10207650949E+03  0.12200139202E+03  0.00000000000E+00 0.  1.
<scales pt_clust_3="33.45771" pt_clust_4="45.34573" pt_clust_5="112.11633" pt_clust_6="33.45771"></scales>
<clustering>
<clus scale="   33.458">  3  6 -1 -1</clus>
<clus scale="   45.346">  2  4  1 -1</clus>
<clus scale="  112.116">  2  5  1 -1</clus>
<clus scale="  119.252">  1  3  2 -1</clus>
</clustering>
</event>
<event>
 6    0  0.4390142E+002  0.8701666E+02  0.7546771E-02  0.1310241E+00
         21   -1    0    0  504  501  0.00000000000E+00  0.00000000000E+00  0.28161022609E+03  0.28161022609E+03  0.00000000000E+00 0.  1.
         21   -1    0    0  503  502 -0.00000000000E+00 -0.00000000000E+00 -0.18379604196E+04  0.18379604196E+04  0.00000000000E+00 0. -1.
         21    1    1    2  503  506 -0.12007023370E+03  0.68515461316E+01 -0.10001904767E+03  0.15642127285E+03  0.00000000000E+00 0.  1.
         21    1    1    2  504  505 -0.29784791973E+02 -0.22425658548E+02  0.34501579694E+02  0.50797667225E+02  0.00000000000E+00 0.  1.
         21    1    1    2  505  502  0.85454713658E+02  0.75094065351E+01 -0.16954852568E+04  0.16976540152E+04  0.00000000000E+00 0. -1.
         21    1    1    2  506  501  0.64400312015E+02  0.80647058809E+01  0.20465253132E+03  0.21469769036E+03  0.00000000000E+00 0.  1.
<scales pt_clust_3="87.01666" pt_clust_4="37.28329" pt_clust_5="14000.00000" pt_clust_6="39.98901"></scales>
<clustering>
<clus scale="   37.283">  1  4  2 -1</clus>
<clus scale="   39.989">  1  6  2 -1</clus>
<clus scale="   87.017">  1  3  2 -1</clus>
<clus scale="   37.283">  1  3  2 -1</clus>
</clustering>
</event>
<event>
 6    0  0.4390142E+002  0.9172542E+02  0.7546771E-02  0.1298726E+00
         21   -1    0    0  505  501  0.00000000000E+00  0.00000000000E+00  0.13548193737E+03  0.13548193737E+03  0.00000000000E+00 0. -1.
         21   -1    0    0  506  502 -0.00000000000E+00 -0.00000000000E+00 -0.53414901090E+03  0.53414901090E+03  0.00000000000E+00 0.  1.
         21    1    1    2  503  501 -0.29644485146E+02 -0.18040413792E+02  0.67156803776E+02  0.75592911855E+02  0.00000000000E+00 0. -1.
         21    1    1    2  504  503 -0.28984025976E+02 -0.34031483536E+02  0.24969979152E+02  0.51202690284E+02  0.00000000000E+00 0. -1.
         21    1    1    2  505  502 -0.33963973468E+02  0.86477965152E+02 -0.87515901008E+02  0.12763629139E+03  0.00000000000E+00 0. -1.
         21    1    1    2  506  504  0.92592484590E+02 -0.34406067824E+02 -0.40327795545E+03  0.41519905474E+03  0.00000000000E+00 0.  1.
<scales pt_clust_3="33.44646" pt_clust_4="87.11935" pt_clust_5="91.72542" pt_clust_6="14000.00000"></scales>
<clustering>
<clus scale="   33.446">  3  4 -1 -1</clus>
<clus scale="   87.119">  1  3  2 -1</clus>
<clus scale="   91.725">  1  5  2 -1</clus>
<clus scale="   87.119">  1  3  2 -1</clus>
</clustering>
</event>
<event>
 6    0  0.4390142E+002  0.1129723E+03  0.7546771E-02  0.1255163E+00
         21   -1    0    0  504  501  0.00000000000E+00  0.00000000000E+00  0.23562253166E+03  0.23562253166E+03  0.00000000000E+00 0. -1.
         21   -1    0    0  501  502 -0.00000000000E+00 -0.00000000000E+00 -0.73673724236E+03  0.73673724236E+03  0.00000000000E+00 0.  1.
         21    1    1    2  503  502  0.10687280579E+03  0.44403111581E+02 -0.69355140616E+03  0.70314080092E+03  0.00000000000E+00 0.  1.
         21    1    1    2  504  506  0.15332169905E+02 -0.35702129556E+02  0.44875254551E+02  0.59359127014E+02  0.00000000000E+00 0.  1.
         21    1    1    2  505  503 -0.82574468770E+02  0.29027169690E+02  0.58314661926E+02  0.10517470831E+03  0.00000000000E+00 0. -1.
         21    1    1    2  506  505 -0.39630506922E+02 -0.37728151715E+02  0.89246778990E+02  0.10468513777E+03  0.00000000000E+00 0. -1.
<scales pt_clust_3="14000.00000" pt_clust_4="38.85508" pt_clust_5="112.97232" pt_clust_6="64.78342"></scales>
<clustering>
<clus scale="   38.855">  1  4  2 -1</clus>
<clus scale="   64.783">  1  6  2 -1</clus>
<clus scale="  112.972">  1  5  2 -1</clus>
<clus scale="   38.855">  1  3  2 -1</clus>
</clustering>
</event>
<event>
 6    0  0.4390142E+002  0.1045064E+03  0.7546771E-02  0.1271095E+00
         21   -1    0    0  505  501  0.00000000000E+00  0.00000000000E+00  0.49514627963E+03  0.49514627963E+03  0.00000000000E+00 0.  1.
         21   -1    0    0  506  502 -0.00000000000E+00 -0.00000000000E+00 -0.29760038741E+03  0.29760038741E+03  0.00000000000E+00 0. -1.
         21    1    1    2  503  504 -0.15850245024E+02  0.95998823279E+02  0.11087323521E+03  0.14751229991E+03  0.00000000000E+00 0. -1.
         21    1    1    2  504  502  0.20265068405E+01 -0.36968917677E+02  0.23860827754E+01  0.37101226330E+02  0.00000000000E+00 0. -1.
         21    1    1    2  505  503 -0.22386700441E+02 -0.10792420077E+03  0.33368635725E+03  0.35141909806E+03  0.00000000000E+00 0.  1.
         21    1    1    2  506  501  0.36210438625E+02  0.48894295165E+02 -0.24939978302E+03  0.25671404273E+03  0.00000000000E+00 0. -1.
<scales pt_clust_3="104.50639" pt_clust_4="37.02442" pt_clust_5="14000.00000" pt_clust_6="41.08139"></scales>
<clustering>
<clus scale="   37.024">  2  4  1 -1</clus>
<clus scale="   41.081">  2  6  1 -1</clus>
<clus scale="  104.506">  2  3  1 -1</clus>
<clus scale="  104.506">  1  3  2 -1</clus>
</clustering>
</event>
<event>
 6    0  0.4390142E+002  0.2083669E+03  0.7546771E-02  0.1142866E+00
         21   -1    0    0  503  501  0.00000000000E+00  0.00000000000E+00  0.72080288634E+03  0.72080288634E+03  0.00000000000E+00 0. -1.
         21   -1    0    0  505  502 -0.00000000000E+00 -0.00000000000E+00 -0.90597761827E+02  0.90597761827E+02  0.00000000000E+00 0. -1.
         21    1    1    2  503  502  0.13406705743E+03 -0.14565576249E+03  0.15300287905E+03  0.25019883699E+03  0.00000000000E+00 0. -1.
         21    1    1    2  504  501 -0.88219622537E+02  0.12180864663E+03  0.28669095439E+03  0.32374643090E+03  0.00000000000E+00 0. -1.
         21    1    1    2  505  506 -0.58054025705E+02 -0.32118617239E+02  0.42614996355E+02  0.78853746824E+02  0.00000000000E+00 0. -1.
         21    1    1    2  506  504  0.12206590814E+02  0.55965733100E+02  0.14789629472E+03  0.15860163345E+03  0.00000000000E+00 0.  1.
<scales pt_clust_3="192.36656" pt_clust_4="49.41694" pt_clust_5="66.34663" pt_clust_6="49.41694"></scales>
<clustering>
<clus scale="   49.417">  4  6 -1 -1</clus>
<clus scale="   66.347">  2  5  1 -1</clus>
<clus scale="  192.367">  2  3  1 -1</clus>
<clus scale="  208.367">  1  3  2 -1</clus>
</clustering>
</event>
<event>
 6    0  0.4390142E+002  0.1083624E+03  0.7546771E-02  0.1263633E+00
         21   -1    0    0  505  501  0.00000000000E+00  0.00000000000E+00  0.36281380271E+03  0.36281380271E+03  0.00000000000E+00 0.  1.
         21   -1    0    0  506  502 -0.00000000000E+00 -0.00000000000E+00 -0.10004834435E+03  0.10004834435E+03  0.00000000000E+00 0.  1.
         21    1    1    2  503  502 -0.12740435299E+03  0.53383918440E+02  0.40939824276E+02  0.14407560904E+03  0.00000000000E+00 0.  1.
         21    1    1    2  504  503  0.76371911224E+02 -0.94873571732E+01  0.10782503061E+03  0.13247232162E+03  0.00000000000E+00 0.  1.
         21    1    1    2  505  504  0.11511879440E+02  0.44574871288E+02  0.59200623039E+02  0.74994375034E+02  0.00000000000E+00 0. -1.
         21    1    1    2  506  501  0.39520562328E+02 -0.88471432554E+02  0.54799980442E+02  0.11131984136E+03  0.00000000000E+00 0.  1.
<scales pt_clust_3="14000.00000" pt_clust_4="81.50660" pt_clust_5="46.03740" pt_clust_6="108.36238"></scales>
<clustering>
<clus scale="   46.037">  1  5  2 -1</clus>
<clus scale="   81.507">  1  4  2 -1</clus>
<clus scale="  108.362">  2  6  1 -1</clus>
<clus scale="   46.037">  1  3  2 -1</clus>
</clustering>
</event>
<event>
 6    0  0.4390142E+002  0.1223419E+03  0.7546771E-02  0.1239283E+00
         21   -1    0    0  506  501  0.00000000000E+00  0.00000000000E+00  0.14647343247E+03  0.14647343247E+03  0.00000000000E+00 0.  1.
         21   -1    0    0  503  502 -0.00000000000E+00 -0.00000000000E+00 -0.30803969553E+03  0.30803969553E+03  0.00000000000E+00 0.  1.
         21    1    1    2  503  501  0.52570422916E+01  0.10795840887E+03 -0.21535398891E+03  0.24095641739E+03  0.00000000000E+00 0.  1.
         21    1    1    2  504  502 -0.45791990300E+02  0.48515821844E+00 -0.37758555698E+02  0.59353603787E+02  0.00000000000E+00 0.  1.
         21    1    1    2  505  504 -0.29295221518E+01 -0.50919061790E+02  0.28493402741E+02  0.58422657877E+02  0.00000000000E+00 0.  1.
         21    1    1    2  506  505  0.43464470160E+02 -0.57524505301E+02  0.63052878807E+02  0.95780448956E+02  0.00000000000E+00 0.  1.
<scales pt_clust_3="113.89797" pt_clust_4="45.79456" pt_clust_5="37.56500" pt_clust_6="37.56500"></scales>
<clustering>
<clus scale="   37.565">  5  6 -1 -1</clus>
<clus scale="   45.795">  2  4  1 -1</clus>
<clus scale="  113.898">  2  3  1 -1</clus>
<clus scale="  122.342">  1  3  2 -1</clus>
</clustering>
</event>
<event>
 6    0  0.4390142E+002  0.8472246E+02  0.7546771E-02  0.1316160E+00
         21   -1    0    0  504  501  0.00000000000E+00  0.00000000000E+00  0.14430496006E+03  0.14430496006E+03  0.00000000000E+00 0. -1.
         21   -1    0    0  505  502 -0.00000000000E+00 -0.00000000000E+00 -0.27255563363E+03  0.27255563363E+03  0.00000000000E+00 0.  1.
         21    1    1    2  503  501 -0.15112554516E+02  0.27687937518E+02  0.28180687990E+02  0.42298491268E+02  0.00000000000E+00 0. -1.
         21    1    1    2  504  502  0.71179207292E+02 -0.37161106859E+01  0.55659605494E+02  0.90433847165E+02  0.00000000000E+00 0. -1.
         21    1    1    2  505  506 -0.52785826827E+02 -0.85828628829E+02 -0.19559853711E+03  0.22002655467E+03  0.00000000000E+00 0.  1.
         21    1    1    2  506  503 -0.32808259478E+01  0.61856801997E+02 -0.16492429950E+02  0.64101700585E+02  0.00000000000E+00 0. -1.
<scales pt_clust_3="31.54380" pt_clust_4="62.83225" pt_clust_5="14000.00000" pt_clust_6="84.72246"></scales>
<clustering>
<clus scale="   31.544">  1  3  2 -1</clus>
<clus scale="   62.832">  1  4  2 -1</clus>
<clus scale="   84.722">  1  6  2 -1</clus>
<clus scale="   31.544">  1  3  2 -1</clus>
</clustering>
</event>
<event>
 6    0  0.4390142E+002  0.1850568E+03  0.7546771E-02  0.1162997E+00
         21   -1    0    0  503  501  0.00000000000E+00  0.00000000000E+00  0.30888435134E+03  0.30888435134E+03  0.00000000000E+00 0.  1.
         21   -1    0    0  506  502 -0.00000000000E+00 -0.00000000000E+00 -0.43425731466E+03  0.43425731466E+03  0.00000000000E+00 0. -1.
         21    1    1    2  503  504  0.58334656437E+02 -0.16198393403E+03 -0.25215034872E+02  0.17400438216E+03  0.00000000000E+00 0. -1.
         21    1    1    2  504  502 -0.49819543190E+01 -0.31449503898E+02 -0.99079687301E+02  0.10407053185E+03  0.00000000000E+00 0. -1.
         21    1    1    2  505  501  0.62353684963E+01  0.19403457442E+03  0.18592060633E+03  0.26880246976E+03  0.00000000000E+00 0.  1.
         21    1    1    2  506  505 -0.59588070615E+02 -0.60113648618E+00 -0.18699884747E+03  0.19626428223E+03  0.00000000000E+00 0. -1.
<scales pt_clust_3="14000.00000" pt_clust_4="31.84166" pt_clust_5="185.05678" pt_clust_6="65.20190"></scales>
<clustering>
<clus scale="   31.842">  2  4  1 -1</clus>
<clus scale="   65.202">  2  6  1 -1</clus>
<clus scale="  185.057">  1  5  2 -1</clus>
<clus scale="  185.057">  1  3  2 -1</clus>
</clustering>
</event>
<event>
 6    0  0.4390142E+002  0.9987862E+02  0.7546771E-02  0.1280551E+00
         21   -1    0    0  503  501  0.00000000000E+00  0.00000000000E+00  0.18267148916E+04  0.18267148916E+04  0.00000000000E+00 0.  1.
         21   -1    0    0  504  502 -0.00000000000E+00 -0.00000000000E+00 -0.43851272703E+02  0.43851272703E+02  0.00000000000E+00 0. -1.
         21    1    1    2  503  505 -0.96103401336E+02 -0.54989607797E+02  0.32797515571E+03  0.34616097913E+03  0.00000000000E+00 0.  1.
         21    1    1    2  504  506  0.11639050112E+02 -0.36072226652E+02 -0.18502666748E+02  0.42178450658E+02  0.00000000000E+00 0. -1.
         21    1    1    2  505  502 -0.59599725828E+00  0.43024527065E+02  0.17679557853E+03  0.18195642810E+03  0.00000000000E+00 0.  1.
         21    1    1    2  506  501  0.85060348482E+02  0.48037307383E+02  0.12965955514E+04  0.13002703064E+04  0.00000000000E+00 0.  1.
<scales pt_clust_3="99.87862" pt_clust_4="37.90347" pt_clust_5="36.17166" pt_clust_6="14000.00000"></scales>
<clustering>
<clus scale="   37.903">  2  4  1 -1</clus>
<clus scale="   36.172">  2  5  1 -1</clus>
<clus scale="   99.879">  2  3  1 -1</clus>
<clus scale="   99.879">  1  3  2 -1</clus>
</clustering>
</event>
<event>
 6    0  0.4390142E+002  0.1698467E+03  0.7546771E-02  0.1178008E+00
         21   -1    0    0  504  501  0.00000000000E+00  0.00000000000E+00  0.16922112729E+03  0.16922112729E+03  0.00000000000E+00 0.  1.
         21   -1    0    0  505  502 -0.00000000000E+00 -0.00000000000E+00 -0.26076551010E+03  0.26076551010E+03  0.00000000000E+00 0.  1.
         21    1    1    2  503  506  0.34671228358E+02 -0.49422647443E+02  0.19383703369E+02  0.63406782858E+02  0.00000000000E+00 0.  1.
         21    1    1    2  504  503 -0.79804536233E+01 -0.10207061774E+03  0.28374193979E+02  0.10624120449E+03  0.00000000000E+00 0.  1.
         21    1    1    2  505  501 -0.52281108734E+02  0.17225211119E+03 -0.90570865455E+02  0.20151224730E+03  0.00000000000E+00 0.  1.
         21    1    1    2  506  502  0.25590333999E+02 -0.20758846008E+02 -0.48731414703E+02  0.58826402752E+02  0.00000000000E+00 0.  1.
<scales pt_clust_3="41.30161" pt_clust_4="41.30161" pt_clust_5="161.27889" pt_clust_6="32.95140"></scales>
<clustering>
<clus scale="   32.951">  2  6  1 -1</clus>
<clus scale="   41.302">  3  4 -1 -1</clus>
<clus scale="  161.279">  2  5  1 -1</clus>
<clus scale="  169.847">  1  3  2 -1</clus>
</clustering>
</event>
<event>
 6    0  0.4390142E+002  0.6523808E+02  0.7546771E-02  0.1377078E+00
         21   -1    0    0  503  501  0.00000000000E+00  0.00000000000E+00  0.21970454624E+03  0.21970454624E+03  0.00000000000E+00 0. -1.
         21   -1    0    0  505  502 -0.00000000000E+00 -0.00000000000E+00 -0.61131988648E+03  0.61131988648E+03  0.00000000000E+00 0. -1.
         21    1    1    2  503  504  0.22377859344E+02 -0.59018137874E+02  0.16695118456E+03  0.17848419317E+03  0.00000000000E+00 0. -1.
         21    1    1    2  504  502  0.44975068789E+02 -0.39544799965E+02 -0.26909942066E+03  0.27568287255E+03  0.00000000000E+00 0. -1.
         21    1    1    2  505  506 -0.13637644688E+02  0.85126608992E+02 -0.30692255642E+03  0.31880084779E+03  0.00000000000E+00 0. -1.
         21    1    1    2  506  501 -0.53715283445E+02  0.13436328847E+02  0.17455452275E+02  0.58056519208E+02  0.00000000000E+00 0. -1.
<scales pt_clust_3="54.39643" pt_clust_4="65.23808" pt_clust_5="14000.00000" pt_clust_6="55.37027"></scales>
<clustering>
<clus scale="   55.370">  1  6  2 -1</clus>
<clus scale="   54.396">  1  3  2 -1</clus>
<clus scale="   65.238">  2  4  1 -1</clus>
<clus scale="   55.370">  1  3  2 -1</clus>
</clustering>
</event>
<event>
 6    0  0.4390142E+002  0.1184897E+03  0.7546771E-02  0.1245610E+00
         21   -1    0    0  503  501  0.00000000000E+00  0.00000000000E+00  0.20414192298E+04  0.20414192298E+04  0.00000000000E+00 0.  1.
         21   -1    0    0  506  502 -0.00000000000E+00 -0.00000000000E+00 -0.78558780870E+02  0.78558780870E+02  0.00000000000E+00 0. -1.
         21    1    1    2  503  505  0.63495933897E+01  0.31533873104E+02  0.14455437639E+03  0.14809007469E+03  0.00000000000E+00 0.  1.
         21    1    1    2  504  502  0.79759264762E+01  0.32013748026E+02  0.40188324092E+02  0.51996123501E+02  0.00000000000E+00 0. -1.
         21    1    1    2  505  504 -0.11673961813E+03 -0.79231176460E+02  0.23531497715E+01  0.14110724673E+03  0.00000000000E+00 0. -1.
         21    1    1    2  506  501  0.10241409827E+03  0.15683555330E+02  0.17757645986E+04  0.17787845657E+04  0.00000000000E+00 0.  1.
<scales pt_clust_3="32.16679" pt_clust_4="33.77392" pt_clust_5="14000.00000" pt_clust_6="118.48968"></scales>
<clustering>
<clus scale="   32.167">  1  3  2 -1</clus>
<clus scale="   33.774">  2  4  1 -1</clus>
<clus scale="  118.490">  1  6  2 -1</clus>
<clus scale="   32.167">  1  3  2 -1</clus>
</clustering>
</event>
<event>
 6    0  0.4390142E+002  0.9659589E+02  0.7546771E-02  0.1287622E+00
         21   -1    0    0  506  501  0.00000000000E+00  0.00000000000E+00  0.81092557268E+02  0.81092557268E+02  0.00000000000E+00 0.  1.
         21   -1    0    0  505  502 -0.00000000000E+00 -0.00000000000E+00 -0.17920569719E+04  0.17920569719E+04  0.00000000000E+00 0.  1.
         21    1    1    2  503  502  0.39192309295E+02  0.80395273284E+01 -0.13671067957E+04  0.13676920933E+04  0.00000000000E+00 0.  1.
         21    1    1    2  504  503 -0.24739614209E+01  0.85759684745E+02 -0.33158161130E+03  0.34250139995E+03  0.00000000000E+00 0. -1.
         21    1    1    2  505  501  0.45052512118E+02 -0.16456563004E+02 -0.15349586407E+02  0.50360273201E+02  0.00000000000E+00 0.  1.
         21    1    1    2  506  504 -0.81770859992E+02 -0.77342649069E+02  0.30735787615E+01  0.11259576278E+03  0.00000000000E+00 0.  1.
<scales pt_clust_3="40.00839" pt_clust_4="14000.00000" pt_clust_5="50.62486" pt_clust_6="96.59589"></scales>
<clustering>
<clus scale="   40.008">  2  3  1 -1</clus>
<clus scale="   50.625">  1  5  2 -1</clus>
<clus scale="   96.596">  1  6  2 -1</clus>
<clus scale="   50.625">  1  3  2 -1</clus>
</clustering>
</event>
<event>
 6    0  0.4390142E+002  0.9051384E+02  0.7546771E-02  0.1301612E+00
         21   -1    0    0  506  501  0.00000000000E+00  0.00000000000E+00  0.12756114264E+03  0.12756114264E+03  0.00000000000E+00 0.  1.
         21   -1    0    0  503  502 -0.00000000000E+00 -0.00000000000E+00 -0.19148787388E+04  0.19148787388E+04  0.00000000000E+00 0. -1.
         21    1    1    2  503  505  0.11237364890E+03  0.79576364236E+02 -0.20425609895E+03  0.24633470861E+03  0.00000000000E+00 0. -1.
         21    1    1    2  504  502 -0.27463551467E+02 -0.50862647516E+02 -0.16546314516E+04  0.16556408114E+04  0.00000000000E+00 0. -1.
         21    1    1    2  505  501 -0.47343620501E+02 -0.23600083216E+02  0.85106554704E+02  0.10020732500E+03  0.00000000000E+00 0.  1.
         21    1    1    2  506  504 -0.37566476929E+02 -0.51136335049E+01 -0.13536600293E+02  0.40257036453E+02  0.00000000000E+00 0. -1.
<scales pt_clust_3="14000.00000" pt_clust_4="57.90251" pt_clust_5="90.51384" pt_clust_6="37.91292"></scales>
<clustering>
<clus scale="   37.913">  1  6  2 -1</clus>
<clus scale="   57.903">  2  4  1 -1</clus>
<clus scale="   90.514">  1  5  2 -1</clus>
<clus scale="   37.913">  1  3  2 -1</clus>
</clustering>
</event>
<event>
 6    0  0.4390142E+002  0.3115964E+03  0.7546771E-02  0.1079583E+00
         21   -1    0    0  504  501  0.00000000000E+00  0.00000000000E+00  0.97640428137E+02  0.97640428137E+02  0.00000000000E+00 0. -1.
         21   -1    0    0  503  502 -0.00000000000E+00 -0.00000000000E+00 -0.16752617258E+04  0.16752617258E+04  0.00000000000E+00 0. -1.
         21    1    1    2  503  505  0.29916785161E+03 -0.11724751547E+03 -0.11561702347E+04  0.11999908312E+04  0.00000000000E+00 0. -1.
         21    1    1    2  504  506 -0.10501761189E+03  0.10926883271E+03 -0.14404809861E+03  0.20908905118E+03  0.00000000000E+00 0. -1.
         21    1    1    2  505  501 -0.76737974624E+02 -0.60128711718E+02 -0.14072890648E+03  0.17119814205E+03  0.00000000000E+00 0.  1.
         21    1    1    2  506  502 -0.11741226510E+03  0.68107394478E+02 -0.13667405785E+03  0.19262412950E+03  0.00000000000E+00 0. -1.
<scales pt_clust_3="308.96789" pt_clust_4="38.22215" pt_clust_5="97.48938" pt_clust_6="38.22215"></scales>
<clustering>
<clus scale="   38.222">  4  6 -1 -1</clus>
<clus scale="   97.489">  1  5  2 -1</clus>
<clus scale="  308.968">  2  3  1 -1</clus>
<clus scale="   97.489">  1  3  2 -1</clus>
</clustering>
</event>
<event>
 6    0  0.4390142E+002  0.9041194E+02  0.7546771E-02  0.1301857E+00
         21   -1    0    0  506  501  0.00000000000E+00  0.00000000000E+00  0.18551553257E+04  0.18551553257E+04  0.00000000000E+00 0.  1.
         21   -1    0    0  503  502 -0.00000000000E+00 -0.00000000000E+00 -0.49604439619E+03  0.49604439619E+03  0.00000000000E+00 0.  1.
         21    1    1    2  503  505  0.59281602331E+02 -0.35904219202E+01 -0.30399352280E+02  0.66718214331E+02  0.00000000000E+00 0.  1.
         21    1    1    2  504  502 -0.96217804669E+02 -0.32046362814E+02 -0.44013561221E+03  0.45166823271E+03  0.00000000000E+00 0.  1.
         21    1    1    2  505  501  0.55949304103E+02 -0.22848813260E+01  0.13894994390E+04  0.13906272816E+04  0.00000000000E+00 0.  1.
         21    1    1    2  506  504 -0.19013101765E+02  0.37921666060E+02  0.44014645500E+03  0.44218599327E+03  0.00000000000E+00 0.  1.
<scales pt_clust_3="90.41194" pt_clust_4="14000.00000" pt_clust_5="51.11566" pt_clust_6="42.42111"></scales>
<clustering>
<clus scale="   42.421">  1  6  2 -1</clus>
<clus scale="   51.116">  1  5  2 -1</clus>
<clus scale="   90.412">  1  3  2 -1</clus>
<clus scale="   42.421">  1  3  2 -1</clus>
</clustering>
</event>
<event>
 6    0  0.4390142E+002  0.1226439E+03  0.7546771E-02  0.1238798E+00
         21   -1    0    0  506  501  0.00000000000E+00  0.00000000000E+00  0.32900169695E+03  0.32900169695E+03  0.00000000000E+00 0. -1.
         21   -1    0    0  505  502 -0.00000000000E+00 -0.00000000000E+00 -0.10053739104E+03  0.10053739104E+03  0.00000000000E+00 0. -1.
         21    1    1    2  503  504  0.23497374727E+02  0.55204811106E+02  0.37671441879E+02  0.70843738761E+02  0.00000000000E+00 0. -1.
         21    1    1    2  504  501 -0.24543796580E+02  0.86742906566E+02  0.87025530089E+02  0.12530032992E+03  0.00000000000E+00 0. -1.
         21    1    1    2  505  503  0.35475601421E+02  0.18826952572E+02  0.23878551683E+01  0.40232751479E+02  0.00000000000E+00 0. -1.
         21    1    1    2  506  502 -0.34429179568E+02 -0.16077467024E+03  0.10137947878E+03  0.19316226783E+03  0.00000000000E+00 0. -1.
<scales pt_clust_3="34.46719" pt_clust_4="90.14838" pt_clust_5="34.46719" pt_clust_6="115.18160"></scales>
<clustering>
<clus scale="   34.467">  3  5 -1 -1</clus>
<clus scale="   90.148">  1  4  2 -1</clus>
<clus scale="  115.182">  1  6  2 -1</clus>
<clus scale="   90.148">  1  3  2 -1</clus>
</clustering>
</event>
<event>
 6    0  0.4390142E+002  0.1945157E+03  0.7546771E-02  0.1154450E+00
         21   -1    0    0  505  501  0.00000000000E+00  0.00000000000E+00  0.85099503441E+03  0.85099503441E+03  0.00000000000E+00 0. -1.
         21   -1    0    0  504  502 -0.00000000000E+00 -0.00000000000E+00 -0.88492135763E+02  0.88492135763E+02  0.00000000000E+00 0. -1.
         21    1    1    2  503  502 -0.61428990657E+02 -0.19561427688E+03  0.11614772147E+03  0.23564541034E+03  0.00000000000E+00 0. -1.
         21    1    1    2  504  501  0.24940793706E+02  0.17129598266E+02  0.29321952840E+00  0.30258094870E+02  0.00000000000E+00 0.  1.
         21    1    1    2  505  506  0.25571501614E+02  0.13553713746E+03  0.38897113344E+03  0.41270178092E+03  0.00000000000E+00 0. -1.
         21    1    1    2  506  503  0.10916695337E+02  0.42947541156E+02  0.25709082420E+03  0.26088188403E+03  0.00000000000E+00 0. -1.
<scales pt_clust_3="186.29448" pt_clust_4="30.25667" pt_clust_5="31.52703" pt_clust_6="31.52703"></scales>
<clustering>
<clus scale="   30.257">  2  4  1 -1</clus>
<clus scale="   31.527">  5  6 -1 -1</clus>
<clus scale="  186.294">  2  3  1 -1</clus>
<clus scale="  194.516">  1  3  2 -1</clus>
</clustering>
</event>
<event>
 6    0  0.4390142E+002  0.1364830E+03  0.7546771E-02  0.1218141E+00
         21   -1    0    0  504  501  0.00000000000E+00  0.00000000000E+00  0.30667740380E+03  0.30667740380E+03  0.00000000000E+00 0. -1.
         21   -1    0    0  505  502 -0.00000000000E+00 -0.00000000000E+00 -0.29743964775E+03  0.29743964775E+03  0.00000000000E+00 0.  1.
         21    1    1    2  503  501 -0.20499028771E+01 -0.59547313380E+02  0.64833436031E+02  0.88053728258E+02  0.00000000000E+00 0. -1.
         21    1    1    2  504  502 -0.14462818870E+03  0.16589103390E+02  0.14757120535E+03  0.20729151446E+03  0.00000000000E+00 0. -1.
         21    1    1    2  505  506  0.38641037732E+02  0.99175616723E+02 -0.12445330652E+03  0.16376067371E+03  0.00000000000E+00 0.  1.
         21    1    1    2  506  503  0.10803705384E+03 -0.56217406733E+02 -0.78713578807E+02  0.14501113513E+03  0.00000000000E+00 0.  1.
<scales pt_clust_3="59.58259" pt_clust_4="14000.00000" pt_clust_5="101.65146" pt_clust_6="136.48303"></scales>
<clustering>
<clus scale="   59.583">  1  3  2 -1</clus>
<clus scale="  101.651">  2  5  1 -1</clus>
<clus scale="  136.483">  2  6  1 -1</clus>
<clus scale="   59.583">  1  3  2 -1</clus>
</clustering>
</event>
<event>
 6    0  0.4390142E+002  0.1140758E+03  0.7546771E-02  0.1253203E+00
         21   -1    0    0  505  501  0.00000000000E+00  0.00000000000E+00  0.26514909779E+03  0.26514909779E+03  0.00000000000E+00 0.  1.
         21   -1    0    0  503  502 -0.00000000000E+00 -0.00000000000E+00 -0.32354270132E+03  0.32354270132E+03  0.00000000000E+00 0.  1.
         21    1    1    2  503  506  0.41644420516E+01  0.33525582398E+02 -0.31208567174E+02  0.45992194097E+02  0.00000000000E+00 0. -1.
         21    1    1    2  504  501 -0.11037223207E+03  0.26452766503E+02  0.21165989175E+03  0.24017012354E+03  0.00000000000E+00 0.  1.
         21    1    1    2  505  502  0.12132239009E+03 -0.26805092661E+02 -0.23506221596E+03  0.26587944769E+03  0.00000000000E+00 0.  1.
         21    1    1    2  506  504 -0.15114600064E+02 -0.33173256240E+02 -0.37827121452E+01  0.36650033777E+02  0.00000000000E+00 0. -1.
<scales pt_clust_3="33.78324" pt_clust_4="14000.00000" pt_clust_5="114.07582" pt_clust_6="34.17480"></scales>
<clustering>
<clus scale="   33.783">  2  3  1 -1</clus>
<clus scale="   34.175">  2  6  1 -1</clus>
<clus scale="  114.076">  2  5  1 -1</clus>
<clus scale="  114.076">  1  3  2 -1</clus>
</clustering>
</event>
<event>
 6    0  0.4390142E+002  0.1713786E+03  0.7546771E-02  0.1176418E+00
         21   -1    0    0  504  501  0.00000000000E+00  0.00000000000E+00  0.82651429441E+03  0.82651429441E+03  0.00000000000E+00 0.  1.
         21   -1    0    0  506  502 -0.00000000000E+00 -0.00000000000E+00 -0.44781787513E+03  0.44781787513E+03  0.00000000000E+00 0.  1.
         21    1    1    2  503  505 -0.41165465040E+02  0.32476545839E+02  0.26518338309E+03  0.27031749519E+03  0.00000000000E+00 0.  1.
         21    1    1    2  504  503  0.79539364511E+02 -0.17771697598E+02  0.15861762211E+03  0.17833085483E+03  0.00000000000E+00 0.  1.
         21    1    1    2  505  502 -0.36231544435E+02  0.13696085303E+03  0.36334055816E+03  0.38998379617E+03  0.00000000000E+00 0.  1.
         21    1    1    2  506  501 -0.21423550357E+01 -0.15166570127E+03 -0.40844514407E+03  0.43570002334E+03  0.00000000000E+00 0.  1.
<scales pt_clust_3="48.11901" pt_clust_4="81.50058" pt_clust_5="48.11901" pt_clust_6="152.03454"></scales>
<clustering>
<clus scale="   48.119">  3  5 -1 -1</clus>
<clus scale="   81.501">  1  4  2 -1</clus>
<clus scale="  152.035">  2  6  1 -1</clus>
<clus scale="   81.501">  1  3  2 -1</clus>
</clustering>
</event>
<event>
 6    0  0.4390142E+002  0.1030757E+03  0.7546771E-02  0.1273958E+00
         21   -1    0    0  504  501  0.00000000000E+00  0.00000000000E+00  0.58578792223E+02  0.58578792223E+02  0.00000000000E+00 0. -1.
         21   -1    0    0  506  502 -0.00000000000E+00 -0.00000000000E+00 -0.21941895866E+04  0.21941895866E+04  0.00000000000E+00 0. -1.
         21    1    1    2  503  502 -0.95317670226E+02 -0.86966695784E+02 -0.14176040590E+04  0.14234640608E+04  0.00000000000E+00 0. -1.
         21    1    1    2  504  503  0.77272451679E+02  0.54931494589E+01 -0.60328972090E+02  0.98187531555E+02  0.00000000000E+00 0. -1.
         21    1    1    2  505  501  0.34954348438E+02 -0.65555489146E+01  0.24428737947E+02  0.43145624737E+02  0.00000000000E+00 0. -1.
         21    1    1    2  506  505 -0.16909129891E+02  0.88029095240E+02 -0.68210650125E+03  0.68797116170E+03  0.00000000000E+00 0. -1.
<scales pt_clust_3="14000.00000" pt_clust_4="103.07569" pt_clust_5="35.56377" pt_clust_6="88.18392"></scales>
<clustering>
<clus scale="   35.564">  1  5  2 -1</clus>
<clus scale="   88.184">  2  6  1 -1</clus>
<clus scale="  103.076">  1  4  2 -1</clus>
<clus scale="   35.564">  1  3  2 -1</clus>
</clustering>
</event>
<event>
 6    0  0.4390142E+002  0.1082864E+03  0.7546771E-02  0.1263776E+00
         21   -1    0    0  502  501  0.00000000000E+00  0.00000000000E+00  0.46576516088E+02  0.46576516088E+02  0.00000000000E+00 0. -1.
         21   -1    0    0  505  502 -0.00000000000E+00 -0.00000000000E+00 -0.54281134515E+03  0.54281134515E+03  0.00000000000E+00 0. -1.
         21    1    1    2  503  504 -0.24771415533E+01  0.35814002925E+02 -0.15090383075E+02  0.38942248229E+02  0.00000000000E+00 0. -1.
         21    1    1    2  504  501  0.47416975887E+02  0.19445922519E+02 -0.28973068277E+02  0.58872338073E+02  0.00000000000E+00 0. -1.
         21    1    1    2  505  506  0.62077898223E+01 -0.10048207304E+03 -0.37617640504E+03  0.38941478062E+03  0.00000000000E+00 0. -1.
         21    1    1    2  506  503 -0.51147624156E+02  0.45222147593E+02 -0.75994972671E+02  0.10215849432E+03  0.00000000000E+00 0. -1.
<scales pt_clust_3="33.78254" pt_clust_4="51.24952" pt_clust_5="97.75250" pt_clust_6="33.78254"></scales>
<clustering>
<clus scale="   33.783">  3  6 -1 -1</clus>
<clus scale="   51.250">  1  4  2 -1</clus>
<clus scale="   97.752">  2  5  1 -1</clus>
<clus scale="   51.250">  1  3  2 -1</clus>
</clustering>
</event>
<event>
 6    0  0.4390142E+002  0.1217817E+03  0.7546771E-02  0.1240186E+00
         21   -1    0    0  505  501  0.00000000000E+00  0.00000000000E+00  0.17946802745E+04  0.17946802745E+04  0.00000000000E+00 0.  1.
         21   -1    0    0  506  502 -0.00000000000E+00 -0.00000000000E+00 -0.12437068379E+03  0.12437068379E+03  0.00000000000E+00 0. -1.
         21    1    1    2  503  502  0.31410906523E+01  0.45319390241E+02 -0.73225761055E+02  0.86172650328E+02  0.00000000000E+00 0. -1.
         21    1    1    2  504  503  0.30289289285E+02 -0.16369170989E+03  0.12531321517E+03  0.20836462950E+03  0.00000000000E+00 0. -1.
         21    1    1    2  505  504 -0.95772626176E+01  0.31418031882E+02  0.90758622699E+03  0.90818036541E+03  0.00000000000E+00 0. -1.
         21    1    1    2  506  501 -0.23853117320E+02  0.86954287766E+02  0.71063590956E+03  0.71633331301E+03  0.00000000000E+00 0.  1.
<scales pt_clust_3="45.65216" pt_clust_4="121.78167" pt_clust_5="32.84534" pt_clust_6="14000.00000"></scales>
<clustering>
<clus scale="   32.845">  1  5  2 -1</clus>
<clus scale="   45.652">  2  3  1 -1</clus>
<clus scale="  121.782">  2  4  1 -1</clus>
<clus scale="   32.845">  1  3  2 -1</clus>
</clustering>
</event>
<event>
 6    0  0.4390142E+002  0.2013029E+03  0.7546771E-02  0.1148644E+00
         21   -1    0    0  503  501  0.00000000000E+00  0.00000000000E+00  0.81073930243E+02  0.81073930243E+02  0.00000000000E+00 0.  1.
         21   -1    0    0  506  502 -0.00000000000E+00 -0.00000000000E+00 -0.13087618476E+04  0.13087618476E+04  0.00000000000E+00 0.  1.
         21    1    1    2  503  502  0.47792685264E+02  0.24946097924E+02 -0.14420110386E+03  0.15394936480E+03  0.00000000000E+00 0.  1.
         21    1    1    2  504  501 -0.66535986942E+02 -0.46501908302E+02 -0.19042650147E+02  0.83379179408E+02  0.00000000000E+00 0.  1.
         21    1    1    2  505  504 -0.12479932448E+03  0.75641995989E+01 -0.61662074418E+02  0.13940695796E+03  0.00000000000E+00 0.  1.
         21    1    1    2  506  505  0.14354262616E+03  0.13991610779E+02 -0.10027820889E+04  0.10131002757E+04  0.00000000000E+00 0.  1.
<scales pt_clust_3="53.91149" pt_clust_4="57.02922" pt_clust_5="57.02922" pt_clust_6="188.48821"></scales>
<clustering>
<clus scale="   53.911">  2  3  1 -1</clus>
<clus scale="   57.029">  4  5 -1 -1</clus>
<clus scale="  188.488">  2  6  1 -1</clus>
<clus scale="  201.303">  1  3  2 -1</clus>
</clustering>
</event>
<event>
 6    0  0.4390142E+002  0.9969174E+02  0.7546771E-02  0.1280946E+00
         21   -1    0    0  504  501  0.00000000000E+00  0.00000000000E+00  0.95292501992E+03  0.95292501992E+03  0.00000000000E+00 0.  1.
         21   -1    0    0  505  502 -0.00000000000E+00 -0.00000000000E+00 -0.12250138122E+03  0.12250138122E+03  0.00000000000E+00 0. -1.
         21    1    1    2  503  501  0.20738524015E+02  0.35014504118E+02  0.28720201576E+03  0.29007085296E+03  0.00000000000E+00 0. -1.
         21    1    1    2  504  506 -0.38309884957E+02  0.31750908367E+02  0.55655834225E+03  0.55877809173E+03  0.00000000000E+00 0.  1.
         21    1    1    2  505  503  0.99261128070E+02 -0.94415917546E+02  0.96239352799E+01  0.13733083107E+03  0.00000000000E+00 0. -1.
         21    1    1    2  506  502 -0.81689767129E+02  0.27650505062E+02 -0.22960654592E+02  0.89246625387E+02  0.00000000000E+00 0. -1.
<scales pt_clust_3="40.69523" pt_clust_4="64.61871" pt_clust_5="99.69174" pt_clust_6="14000.00000"></scales>
<clustering>
<clus scale="   40.695">  1  3  2 -1</clus>
<clus scale="   64.619">  1  4  2 -1</clus>
<clus scale="   99.692">  1  5  2 -1</clus>
<clus scale="   40.695">  1  3  2 -1</clus>
</clustering>
</event>
<event>
 6    0  0.4390142E+002  0.7961372E+02  0.7546771E-02  0.1330151E+00
         21   -1    0    0  504  501  0.00000000000E+00  0.00000000000E+00  0.57518995355E+03  0.57518995355E+03  0.00000000000E+00 0.  1.
         21   -1    0    0  505  502 -0.00000000000E+00 -0.00000000000E+00 -0.19167893900E+03  0.19167893900E+03  0.00000000000E+00 0.  1.
         21    1    1    2  503  501  0.49542933192E+02 -0.36663531529E+01  0.92370926093E+02  0.10488246928E+03  0.00000000000E+00 0.  1.
         21    1    1    2  504  506  0.21308110157E+02 -0.43133492769E+02  0.42777424133E+03  0.43047106210E+03  0.00000000000E+00 0.  1.
         21    1    1    2  505  503  0.42720406135E+02 -0.20708807081E+02 -0.67149359960E+02  0.82237001003E+02  0.00000000000E+00 0.  1.
         21    1    1    2  506  502 -0.11357144948E+03  0.67508653003E+02 -0.69484792919E+02  0.14927836017E+03  0.00000000000E+00 0.  1.
<scales pt_clust_3="14000.00000" pt_clust_4="48.54286" pt_clust_5="47.47513" pt_clust_6="79.61372"></scales>
<clustering>
<clus scale="   47.475">  2  5  1 -1</clus>
<clus scale="   48.543">  1  4  2 -1</clus>
<clus scale="   79.614">  2  6  1 -1</clus>
<clus scale="   48.543">  1  3  2 -1</clus>
</clustering>
</event>
<event>
 6    0  0.4390142E+002  0.1035249E+03  0.7546771E-02  0.1273054E+00
         21   -1    0    0  503  501  0.00000000000E+00  0.00000000000E+00  0.18146587247E+03  0.18146587247E+03  0.00000000000E+00 0.  1.
         21   -1    0    0  506  502 -0.00000000000E+00 -0.00000000000E+00 -0.39047211743E+03  0.39047211743E+03  0.00000000000E+00 0.  1.
         21    1    1    2  503  502  0.40021730312E+02  0.12149140154E+03  0.46209319731E+02  0.13600441455E+03  0.00000000000E+00 0.  1.
         21    1    1    2  504  505  0.34547305205E+02 -0.26215516775E+02  0.19179982554E+01  0.43410233056E+02  0.00000000000E+00 0. -1.
         21    1    1    2  505  501 -0.51700765902E+02 -0.72781083849E+02  0.37005084038E+02  0.96640734712E+02  0.00000000000E+00 0.  1.
         21    1    1    2  506  504 -0.22868269616E+02 -0.22494800922E+02 -0.29413864698E+03  0.29588260759E+03  0.00000000000E+00 0.  1.
<scales pt_clust_3="103.52486" pt_clust_4="42.92199" pt_clust_5="14000.00000" pt_clust_6="32.07762"></scales>
<clustering>
<clus scale="   32.078">  2  6  1 -1</clus>
<clus scale="   42.922">  2  4  1 -1</clus>
<clus scale="  103.525">  2  3  1 -1</clus>
<clus scale="  103.525">  1  3  2 -1</clus>
</clustering>
</event>
<event>
 6    0  0.4390142E+002  0.1007908E+03  0.7546771E-02  0.1278642E+00
         21   -1    0    0  503  501  0.00000000000E+00  0.00000000000E+00  0.12462102945E+04  0.12462102945E+04  0.00000000000E+00 0. -1.
         21   -1    0    0  505  502 -0.00000000000E+00 -0.00000000000E+00 -0.20311521633E+02  0.20311521633E+02  0.00000000000E+00 0.  1.
         21    1    1    2  503  502  0.24362751041E+02 -0.43008028350E+02  0.14399216048E+03  0.15223986475E+03  0.00000000000E+00 0.  1.
         21    1    1    2  504  501 -0.19124162123E+02  0.33313969071E+02  0.16160706180E+03  0.16610959194E+03  0.00000000000E+00 0.  1.
         21    1    1    2  505  506 -0.95766463493E+02 -0.35130315008E+02  0.24542806560E+03  0.26578241091E+03  0.00000000000E+00 0.  1.
         21    1    1    2  506  504  0.90527874575E+02  0.44824374287E+02  0.67487148502E+03  0.68238994856E+03  0.00000000000E+00 0. -1.
<scales pt_clust_3="44.17250" pt_clust_4="38.41294" pt_clust_5="100.79077" pt_clust_6="14000.00000"></scales>
<clustering>
<clus scale="   38.413">  1  4  2 -1</clus>
<clus scale="   44.173">  2  3  1 -1</clus>
<clus scale="  100.791">  2  5  1 -1</clus>
<clus scale="   38.413">  1  3  2 -1</clus>
</clustering>
</event>
<event>
 6    0  0.4390142E+002  0.1976032E+03  0.7546771E-02  0.1151777E+00
         21   -1    0    0  506  501  0.00000000000E+00  0.00000000000E+00  0.16298838919E+04  0.16298838919E+04  0.00000000000E+00 0. -1.
         21   -1    0    0  505  502 -0.00000000000E+00 -0.00000000000E+00 -0.16302581735E+03  0.16302581735E+03  0.00000000000E+00 0. -1.
         21    1    1    2  503  502 -0.21615818005E+02  0.66858788631E+02 -0.73644388875E+02  0.10178819783E+03  0.00000000000E+00 0. -1.
         21    1    1    2  504  503 -0.36031283220E+02  0.10768222875E+03 -0.13843152542E+02  0.11439120871E+03  0.00000000000E+00 0. -1.
         21    1    1    2  505  501  0.48920182292E+02  0.13673074633E+02  0.12358195839E+03  0.13361376293E+03  0.00000000000E+00 0. -1.
         21    1    1    2  506  504  0.87269189330E+01 -0.18821409201E+03  0.14307636576E+04  0.14431165398E+04  0.00000000000E+00 0. -1.
<scales pt_clust_3="57.23506" pt_clust_4="57.23506" pt_clust_5="50.79505" pt_clust_6="183.72623"></scales>
<clustering>
<clus scale="   50.795">  1  5  2 -1</clus>
<clus scale="   57.235">  3  4 -1 -1</clus>
<clus scale="  183.726">  1  6  2 -1</clus>
<clus scale="   50.795">  1  3  2 -1</clus>
</clustering>
</event>
<event>
 6    0  0.4390142E+002  0.2436913E+03  0.7546771E-02  0.1117358E+00
         21   -1    0    0  503  501  0.00000000000E+00  0.00000000000E+00  0.11911664804E+04  0.11911664804E+04  0.00000000000E+00 0. -1.
         21   -1    0    0  505  502 -0.00000000000E+00 -0.00000000000E+00 -0.18892610533E+03  0.18892610533E+03  0.00000000000E+00 0. -1.
         21    1    1    2  503  504  0.12159070264E+03  0.30069040844E+02  0.21657491667E+03  0.25018621208E+03  0.00000000000E+00 0. -1.
         21    1    1    2  504  502  0.11350192559E+03 -0.42749621102E+02  0.19878144833E+03  0.23286107751E+03  0.00000000000E+00 0. -1.
         21    1    1    2  505  506 -0.61050274708E+01  0.56630987635E+02 -0.13067725435E+03  0.14255134136E+03  0.00000000000E+00 0. -1.
         21    1    1    2  506  501 -0.22898760076E+03 -0.43950407378E+02  0.71756126441E+03  0.75449395478E+03  0.00000000000E+00 0. -1.
<scales pt_clust_3="69.02085" pt_clust_4="69.02085" pt_clust_5="56.95911" pt_clust_6="232.38116"></scales>
<clustering>
<clus scale="   56.959">  2  5  1 -1</clus>
<clus scale="   69.021">  3  4 -1 -1</clus>
<clus scale="  232.381">  1  6  2 -1</clus>
<clus scale="  232.381">  1  3  2 -1</clus>
</clustering>
</event>
<event>
 6    0  0.4390142E+002  0.9033304E+02  0.7546771E-02  0.1302047E+00
         21   -1    0    0  504  501  0.00000000000E+00  0.00000000000E+00  0.29541322005E+03  0.29541322005E+03  0.00000000000E+00 0.  1.
         21   -1    0    0  506  502 -0.00000000000E+00 -0.00000000000E+00 -0.99553512007E+02  0.99553512007E+02  0.00000000000E+00 0. -1.
         21    1    1    2  503  502  0.88447285515E+02 -0.42966897804E+02  0.12822938935E+02  0.99164027676E+02  0.00000000000E+00 0. -1.
         21    1    1    2  504  503 -0.79309219665E+02  0.23531264362E+02  0.15503722934E+03  0.17572767343E+03  0.00000000000E+00 0.  1.
         21    1    1    2  505  501 -0.17552975793E+02 -0.37029673298E+02  0.44652847022E+02  0.60606768689E+02  0.00000000000E+00 0. -1.
         21    1    1    2  506  505  0.84149099419E+01  0.56465306740E+02 -0.16653307254E+02  0.59468262267E+02  0.00000000000E+00 0.  1.
<scales pt_clust_3="14000.00000" pt_clust_4="90.33304" pt_clust_5="40.97931" pt_clust_6="53.64159"></scales>
<clustering>
<clus scale="   40.979">  1  5  2 -1</clus>
<clus scale="   53.642">  2  6  1 -1</clus>
<clus scale="   90.333">  1  4  2 -1</clus>
<clus scale="   40.979">  1  3  2 -1</clus>
</clustering>
</event>
<event>
 6    0  0.4390142E+002  0.2204341E+03  0.7546771E-02  0.1133560E+00
         21   -1    0    0  505  501  0.00000000000E+00  0.00000000000E+00  0.13675524578E+03  0.13675524578E+03  0.00000000000E+00 0. -1.
         21   -1    0    0  503  502 -0.00000000000E+00 -0.00000000000E+00 -0.75641678761E+03  0.75641678761E+03  0.00000000000E+00 0. -1.
         21    1    1    2  503  504 -0.61798361490E+02  0.98241908490E+02 -0.10755801795E+03  0.15823791357E+03  0.00000000000E+00 0. -1.
         21    1    1    2  504  501  0.39147305273E+02  0.10181396484E+03 -0.55174791701E+02  0.12224096116E+03  0.00000000000E+00 0. -1.
         21    1    1    2  505  506 -0.13843310336E+03 -0.16568285296E+03 -0.14539252216E+03  0.26029505829E+03  0.00000000000E+00 0. -1.
         21    1    1    2  506  502  0.16108415957E+03 -0.34373020370E+02 -0.31153621002E+03  0.35239810037E+03  0.00000000000E+00 0. -1.
<scales pt_clust_3="104.64288" pt_clust_4="104.64288" pt_clust_5="192.19830" pt_clust_6="164.71069"></scales>
<clustering>
<clus scale="  104.643">  3  4 -1 -1</clus>
<clus scale="  164.711">  2  6  1 -1</clus>
<clus scale="  192.198">  2  5  1 -1</clus>
<clus scale="  220.434">  1  3  2 -1</clus>
</clustering>
</event>
<event>
 6    0  0.4390142E+002  0.8368359E+02  0.7546771E-02  0.1318911E+00
         21   -1    0    0  503  501  0.00000000000E+00  0.00000000000E+00  0.11000496031E+04  0.11000496031E+04  0.00000000000E+00 0.  1.
         21   -1    0    0  506  502 -0.00000000000E+00 -0.00000000000E+00 -0.15056422381E+03  0.15056422381E+03  0.00000000000E+00 0. -1.
         21    1    1    2  503  504  0.53077178119E+02 -0.55248791931E+02  0.70168226484E+03  0.70585240428E+03  0.00000000000E+00 0.  1.
         21    1    1    2  504  502 -0.76369052876E+02  0.41936561227E+02  0.53775086846E+02  0.10238489815E+03  0.00000000000E+00 0. -1.
         21    1    1    2  505  501  0.34609618953E+02  0.50490784712E+02  0.31211382126E+03  0.31806002969E+03  0.00000000000E+00 0.  1.
         21    1    1    2  506  505 -0.11317744196E+02 -0.37178554009E+02 -0.11808579365E+03  0.12431649478E+03  0.00000000000E+00 0. -1.
<scales pt_clust_3="14000.00000" pt_clust_4="83.68359" pt_clust_5="57.47319" pt_clust_6="38.86304"></scales>
<clustering>
<clus scale="   38.863">  2  6  1 -1</clus>
<clus scale="   57.473">  1  5  2 -1</clus>
<clus scale="   83.684">  2  4  1 -1</clus>
<clus scale="   57.473">  1  3  2 -1</clus>
</clustering>
</event>
<event>
 6    0  0.4390142E+002  0.1082348E+03  0.7546771E-02  0.1263874E+00
         21   -1    0    0  504  501  0.00000000000E+00  0.00000000000E+00  0.86972530875E+03  0.86972530875E+03  0.00000000000E+00 0.  1.
         21   -1    0    0  503  502 -0.00000000000E+00 -0.00000000000E+00 -0.64339988530E+02  0.64339988530E+02  0.00000000000E+00 0.  1.
         21    1    1    2  503  505 -0.34465426437E+02  0.16392002621E+02 -0.18987243517E+02  0.42627207108E+02  0.00000000000E+00 0.  1.
         21    1    1    2  504  502  0.12962572519E+03  0.13621121125E+02  0.57661744470E+03  0.59116498636E+03  0.00000000000E+00 0.  1.
         21    1    1    2  505  506 -0.60805551381E+02  0.90122874177E+01  0.17062247653E+02  0.63793860976E+02  0.00000000000E+00 0. -1.
         21    1    1    2  506  501 -0.34354747368E+02 -0.39025411164E+02  0.23069287139E+03  0.23647924284E+03  0.00000000000E+00 0.  1.
<scales pt_clust_3="31.51624" pt_clust_4="100.57317" pt_clust_5="31.51624" pt_clust_6="51.99261"></scales>
<clustering>
<clus scale="   31.516">  3  5 -1 -1</clus>
<clus scale="   51.993">  1  6  2 -1</clus>
<clus scale="  100.573">  1  4  2 -1</clus>
<clus scale="   51.993">  1  3  2 -1</clus>
</clustering>
</event>
<event>
 6    0  0.4390142E+002  0.8698666E+02  0.7546771E-02  0.1310317E+00
         21   -1    0    0  504  501  0.00000000000E+00  0.00000000000E+00  0.43039626479E+03  0.43039626479E+03  0.00000000000E+00 0. -1.
         21   -1    0    0  506  502 -0.00000000000E+00 -0.00000000000E+00 -0.19645012956E+03  0.19645012956E+03  0.00000000000E+00 0.  1.
         21    1    1    2  503  501  0.64902016238E+02  0.10658939897E+02 -0.81135736869E+02  0.10444564380E+03  0.00000000000E+00 0.  1.
         21    1    1    2  504  505 -0.52487811065E+02  0.57009288970E+02  0.11354862568E+03  0.13747115964E+03  0.00000000000E+00 0.  1.
         21    1    1    2  505  502 -0.19755750582E+02 -0.11868293975E+03  0.27211823846E+03  0.29753027673E+03  0.00000000000E+00 0. -1.
         21    1    1    2  506  503  0.73415454088E+01  0.51014710886E+02 -0.70584992043E+02  0.87399314171E+02  0.00000000000E+00 0.  1.
<scales pt_clust_3="14000.00000" pt_clust_4="80.91000" pt_clust_5="86.98666" pt_clust_6="51.54027"></scales>
<clustering>
<clus scale="   51.540">  2  6  1 -1</clus>
<clus scale="   80.910">  1  4  2 -1</clus>
<clus scale="   86.987">  1  5  2 -1</clus>
<clus scale="   80.910">  1  3  2 -1</clus>
</clustering>
</event>
<event>
 6    0  0.4390142E+002  0.1164002E+03  0.7546771E-02  0.1249157E+00
         21   -1    0    0  506  501  0.00000000000E+00  0.00000000000E+00  0.25412125051E+02  0.25412125051E+02  0.00000000000E+00 0.  1.
         21   -1    0    0  504  502 -0.00000000000E+00 -0.00000000000E+00 -0.22371075944E+04  0.22371075944E+04  0.00000000000E+00 0.  1.
         21    1    1    2  503  502  0.28188846563E+02  0.35690792283E+02 -0.11830933369E+04  0.11839671818E+04  0.00000000000E+00 0.  1.
         21    1    1    2  504  505 -0.10777412899E+03 -0.22574113377E+02 -0.15880052215E+03  0.19324197088E+03  0.00000000000E+00 0.  1.
         21    1    1    2  505  501 -0.76436384943E+01 -0.42699326128E+02 -0.88090752342E+02  0.98191844414E+02  0.00000000000E+00 0.  1.
         21    1    1    2  506  503  0.87228920922E+02  0.29582647221E+02 -0.78171085796E+03  0.78711872238E+03  0.00000000000E+00 0.  1.
<scales pt_clust_3="44.66161" pt_clust_4="116.40022" pt_clust_5="43.37808" pt_clust_6="14000.00000"></scales>
<clustering>
<clus scale="   43.378">  1  5  2 -1</clus>
<clus scale="   44.662">  2  3  1 -1</clus>
<clus scale="  116.400">  1  4  2 -1</clus>
<clus scale="   43.378">  1  3  2 -1</clus>
</clustering>
</event>
<event>
 6    0  0.4390142E+002  0.7593964E+02  0.7546771E-02  0.1340986E+00
         21   -1    0    0  505  501  0.00000000000E+00  0.00000000000E+00  0.13178216733E+04  0.13178216733E+04  0.00000000000E+00 0. -1.
         21   -1    0    0  506  502 -0.00000000000E+00 -0.00000000000E+00 -0.12632642362E+04  0.12632642362E+04  0.00000000000E+00 0. -1.
         21    1    1    2  503  502 -0.46114855026E+02 -0.63982194749E+02 -0.70846525939E+03  0.71284172497E+03  0.00000000000E+00 0. -1.
         21    1    1    2  504  501  0.39950964151E+02 -0.70866496679E+02  0.12745090176E+04  0.12771027272E+04  0.00000000000E+00 0. -1.
         21    1    1    2  505  503  0.16055938524E+02  0.50428449395E+02  0.17214227131E+02  0.55652055541E+02  0.00000000000E+00 0. -1.
         21    1    1    2  506  504 -0.98920476492E+01  0.84420242033E+02 -0.52870054819E+03  0.53548940188E+03  0.00000000000E+00 0. -1.
<scales pt_clust_3="14000.00000" pt_clust_4="59.62957" pt_clust_5="52.92279" pt_clust_6="75.93964"></scales>
<clustering>
<clus scale="   52.923">  1  5  2 -1</clus>
<clus scale="   59.630">  1  4  2 -1</clus>
<clus scale="   75.940">  1  6  2 -1</clus>
<clus scale="   52.923">  1  3  2 -1</clus>
</clustering>
</event>
<event>
 6    0  0.4390142E+002  0.9420007E+02  0.7546771E-02  0.1292988E+00
         21   -1    0    0  504  501  0.00000000000E+00  0.00000000000E+00  0.35028301186E+03  0.35028301186E+03  0.00000000000E+00 0. -1.
         21   -1    0    0  503  502 -0.00000000000E+00 -0.00000000000E+00 -0.61542182331E+02  0.61542182331E+02  0.00000000000E+00 0. -1.
         21    1    1    2  503  506 -0.66659240206E+01  0.65948762478E+02  0.11247040037E+03  0.13054985552E+03  0.00000000000E+00 0. -1.
         21    1    1    2  504  505 -0.67611287638E+02 -0.39511506101E+02  0.46409412798E+02  0.91029000471E+02  0.00000000000E+00 0. -1.
         21    1    1    2  505  502  0.50795972294E+02 -0.52955422878E+02  0.21830917809E+02  0.76557798988E+02  0.00000000000E+00 0. -1.
         21    1    1    2  506  501  0.23481239364E+02  0.26518166501E+02  0.10803009854E+03  0.11368853921E+03  0.00000000000E+00 0. -1.
<scales pt_clust_3="34.27946" pt_clust_4="81.69834" pt_clust_5="73.37920" pt_clust_6="34.27946"></scales>
<clustering>
<clus scale="   34.279">  3  6 -1 -1</clus>
<clus scale="   73.379">  2  5  1 -1</clus>
<clus scale="   81.698">  2  4  1 -1</clus>
<clus scale="   94.200">  1  3  2 -1</clus>
</clustering>
</event>
<event>
 6    0  0.4390142E+002  0.1490295E+03  0.7546771E-02  0.1201671E+00
         21   -1    0    0  505  501  0.00000000000E+00  0.00000000000E+00  0.20037844122E+03  0.20037844122E+03  0.00000000000E+00 0.  1.
         21   -1    0    0  506  502 -0.00000000000E+00 -0.00000000000E+00 -0.20715532294E+03  0.20715532294E+03  0.00000000000E+00 0.  1.
         21    1    1    2  503  502  0.36527785427E+02  0.13469155101E+03 -0.90958622633E+02  0.16658200399E+03  0.00000000000E+00 0.  1.
         21    1    1    2  504  501 -0.14555034872E+02 -0.10814361662E+03 -0.39107078289E+00  0.10911940154E+03  0.00000000000E+00 0.  1.
         21    1    1    2  505  503 -0.49534118223E+02  0.22017251969E+01  0.76550629857E+02  0.91205676323E+02  0.00000000000E+00 0.  1.
         21    1    1    2  506  504  0.27561367669E+02 -0.28749659590E+02  0.80221818446E+01  0.40626682314E+02  0.00000000000E+00 0.  1.
<scales pt_clust_3="136.94182" pt_clust_4="35.51977" pt_clust_5="49.58303" pt_clust_6="35.51977"></scales>
<clustering>
<clus scale="   35.520">  4  6 -1 -1</clus>
<clus scale="   49.583">  1  5  2 -1</clus>
<clus scale="  136.942">  2  3  1 -1</clus>
<clus scale="   49.583">  1  3  2 -1</clus>
</clustering>
</event>
<event>
 6    0  0.4390142E+002  0.1085601E+03  0.7546771E-02  0.1263260E+00
         21   -1    0    0  506  501  0.00000000000E+00  0.00000000000E+00  0.34657317124E+03  0.34657317124E+03  0.00000000000E+00 0.  1.
         21   -1    0    0  503  502 -0.00000000000E+00 -0.00000000000E+00 -0.13720392302E+04  0.13720392302E+04  0.00000000000E+00 0.  1.
         21    1    1    2  503  504 -0.83317171956E+01  0.44749122110E+02 -0.75569930363E+03  0.75706891295E+03  0.00000000000E+00 0.  1.
         21    1    1    2  504  505 -0.10197321657E+03 -0.42854186996E+02 -0.58638733683E+03  0.59672868796E+03  0.00000000000E+00 0.  1.
         21    1    1    2  505  501  0.58374337002E+02  0.64582200833E+02  0.21973681619E+03  0.23635289775E+03  0.00000000000E+00 0.  1.
         21    1    1    2  506  502  0.51930596760E+02 -0.66477135947E+02  0.96883765320E+02  0.12846190278E+03  0.00000000000E+00 0.  1.
<scales pt_clust_3="45.51814" pt_clust_4="108.56008" pt_clust_5="14000.00000" pt_clust_6="83.32217"></scales>
<clustering>
<clus scale="   45.518">  2  3  1 -1</clus>
<clus scale="   83.322">  1  6  2 -1</clus>
<clus scale="  108.560">  2  4  1 -1</clus>
<clus scale="   83.322">  1  3  2 -1</clus>
</clustering>
</event>
<event>
 6    0  0.4390142E+002  0.6141095E+02  0.7546771E-02  0.1392004E+00
         21   -1    0    0  504  501  0.00000000000E+00  0.00000000000E+00  0.18424183456E+04  0.18424183456E+04  0.00000000000E+00 0. -1.
         21   -1    0    0  506  502 -0.00000000000E+00 -0.00000000000E+00 -0.89447987750E+02  0.89447987750E+02  0.00000000000E+00 0. -1.
         21    1    1    2  503  505 -0.21492933504E+01 -0.96115786773E+02 -0.98328075080E+01  0.96641337079E+02  0.00000000000E+00 0. -1.
         21    1    1    2  504  502  0.41721870251E+02  0.16701013613E+02  0.43117491138E+03  0.43351060254E+03  0.00000000000E+00 0. -1.
         21    1    1    2  505  501 -0.68817571766E+02  0.37141245423E+02  0.13460550858E+04  0.13483247473E+04  0.00000000000E+00 0. -1.
         21    1    1    2  506  503  0.29244994865E+02  0.42273527737E+02 -0.14426831767E+02  0.53389646439E+02  0.00000000000E+00 0. -1.
<scales pt_clust_3="14000.00000" pt_clust_4="44.94039" pt_clust_5="61.41095" pt_clust_6="51.92234"></scales>
<clustering>
<clus scale="   44.940">  1  4  2 -1</clus>
<clus scale="   51.922">  2  6  1 -1</clus>
<clus scale="   61.411">  1  5  2 -1</clus>
<clus scale="   44.940">  1  3  2 -1</clus>
</clustering>
</event>
<event>
 6    0  0.4390142E+002  0.2122611E+03  0.7546771E-02  0.1139788E+00
         21   -1    0    0  504  501  0.00000000000E+00  0.00000000000E+00  0.13665703191E+04  0.13665703191E+04  0.00000000000E+00 0. -1.
         21   -1    0    0  505  502 -0.00000000000E+00 -0.00000000000E+00 -0.74823938674E+03  0.74823938674E+03  0.00000000000E+00 0.  1.
         21    1    1    2  503  501 -0.38090913478E+02  0.26167165653E+02  0.24611195809E+03  0.25041312697E+03  0.00000000000E+00 0. -1.
         21    1    1    2  504  502  0.17948296952E+01 -0.84455309215E+02  0.58011273726E+03  0.58623093453E+03  0.00000000000E+00 0.  1.
         21    1    1    2  505  506  0.19542366640E+03 -0.49059482356E+02 -0.71136238375E+03  0.73934679496E+03  0.00000000000E+00 0.  1.
         21    1    1    2  506  503 -0.15912758262E+03  0.10734762592E+03  0.50346862072E+03  0.53881884933E+03  0.00000000000E+00 0. -1.
<scales pt_clust_3="32.15549" pt_clust_4="84.47438" pt_clust_5="201.89120" pt_clust_6="32.15549"></scales>
<clustering>
<clus scale="   32.155">  3  6 -1 -1</clus>
<clus scale="   84.474">  1  4  2 -1</clus>
<clus scale="  201.891">  2  5  1 -1</clus>
<clus scale="   84.474">  1  3  2 -1</clus>
</clustering>
</event>
<event>
 6    0  0.4390142E+002  0.1653872E+03  0.7546771E-02  0.1182745E+00
         21   -1    0    0  505  501  0.00000000000E+00  0.00000000000E+00  0.67405997368E+03  0.67405997368E+03  0.00000000000E+00 0. -1.
         21   -1    0    0  506  502 -0.00000000000E+00 -0.00000000000E+00 -0.90301132817E+02  0.90301132817E+02  0.00000000000E+00 0. -1.
         21    1    1    2  503  504  0.83228523704E+02  0.67330657070E+02  0.28617929444E+03  0.30554703911E+03  0.00000000000E+00 0. -1.
         21    1    1    2  504  502  0.33988472270E+02  0.17167141779E+02  0.38261744030E+02  0.53980441461E+02  0.00000000000E+00 0. -1.
         21    1    1    2  505  503  0.49695417939E+02  0.78196842747E+01  0.19828268005E+03  0.20456491203E+03  0.00000000000E+00 0. -1.
         21    1    1    2  506  501 -0.16691241391E+03 -0.92317483124E+02  0.61035122345E+02  0.20026871390E+03  0.00000000000E+00 0. -1.
<scales pt_clust_3="32.11268" pt_clust_4="38.07791" pt_clust_5="32.11268" pt_clust_6="158.61422"></scales>
<clustering>
<clus scale="   32.113">  3  5 -1 -1</clus>
<clus scale="   38.078">  2  4  1 -1</clus>
<clus scale="  158.614">  2  6  1 -1</clus>
<clus scale="  165.387">  1  3  2 -1</clus>
</clustering>
</event>
<event>
 6    0  0.4390142E+002  0.9569603E+02  0.7546771E-02  0.1289616E+00
         21   -1    0    0  506  501  0.00000000000E+00  0.00000000000E+00  0.18765915229E+03  0.18765915229E+03  0.00000000000E+00 0.  1.
         21   -1    0    0  505  502 -0.00000000000E+00 -0.00000000000E+00 -0.37493539116E+03  0.37493539116E+03  0.00000000000E+00 0.  1.
         21    1    1    2  503  502 -0.14556039438E+02 -0.60272880636E+02 -0.18134890233E+03  0.19165626210E+03  0.00000000000E+00 0.  1.
         21    1    1    2  504  503  0.58903382490E+02  0.11697095646E+03 -0.94282332598E+02  0.16137215176E+03  0.00000000000E+00 0.  1.
         21    1    1    2  505  501 -0.10553568470E+02 -0.10146644817E+03 -0.33481240508E+01  0.10206874079E+03  0.00000000000E+00 0.  1.
         21    1    1    2  506  504 -0.33793774582E+02  0.44768372349E+02  0.91703120113E+02  0.10749738881E+03  0.00000000000E+00 0.  1.
<scales pt_clust_3="59.97677" pt_clust_4="95.69603" pt_clust_5="14000.00000" pt_clust_6="56.09123"></scales>
<clustering>
<clus scale="   56.091">  1  6  2 -1</clus>
<clus scale="   59.977">  2  3  1 -1</clus>
<clus scale="   95.696">  2  4  1 -1</clus>
<clus scale="   56.091">  1  3  2 -1</clus>
</clustering>
</event>
<event>
 6    0  0.4390142E+002  0.1042790E+03  0.7546771E-02  0.1271547E+00
         21   -1    0    0  506  501  0.00000000000E+00  0.00000000000E+00  0.21951579166E+02  0.21951579166E+02  0.00000000000E+00 0.  1.
         21   -1    0    0  504  502 -0.00000000000E+00 -0.00000000000E+00 -0.14643114444E+04  0.14643114444E+04  0.00000000000E+00 0.  1.
         21    1    1    2  503  502 -0.27174046409E+02  0.26411772540E+02 -0.22308073231E+03  0.22627643195E+03  0.00000000000E+00 0.  1.
         21    1    1    2  504  501 -0.56681846013E+02 -0.12285049833E+03 -0.78016205193E+03  0.79180673392E+03  0.00000000000E+00 0.  1.
         21    1    1    2  505  503  0.46465593825E+02  0.70867813162E+01 -0.26316281306E+03  0.26732740236E+03  0.00000000000E+00 0.  1.
         21    1    1    2  506  505  0.37390298598E+02  0.89351944477E+02 -0.17595426798E+03  0.20085245538E+03  0.00000000000E+00 0.  1.
<scales pt_clust_3="37.89473" pt_clust_4="14000.00000" pt_clust_5="42.60018" pt_clust_6="104.27896"></scales>
<clustering>
<clus scale="   37.895">  2  3  1 -1</clus>
<clus scale="   42.600">  2  5  1 -1</clus>
<clus scale="  104.279">  1  6  2 -1</clus>
<clus scale="  104.279">  1  3  2 -1</clus>
</clustering>
</event>
<event>
 6    0  0.4390142E+002  0.1295927E+03  0.7546771E-02  0.1228061E+00
         21   -1    0    0  503  501  0.00000000000E+00  0.00000000000E+00  0.23257412776E+03  0.23257412776E+03  0.00000000000E+00 0. -1.
         21   -1    0    0  504  502 -0.00000000000E+00 -0.00000000000E+00 -0.12490909115E+04  0.12490909115E+04  0.00000000000E+00 0.  1.
         21    1    1    2  503  502  0.54277974457E+02  0.95761309589E+01 -0.10613215437E+03  0.11959027965E+03  0.00000000000E+00 0. -1.
         21    1    1    2  504  506 -0.71888976845E+02 -0.13129617420E+03 -0.11122845628E+04  0.11223117477E+04  0.00000000000E+00 0.  1.
         21    1    1    2  505  501 -0.34292801825E+01  0.47382760362E+02  0.10922469581E+03  0.11910885826E+03  0.00000000000E+00 0. -1.
         21    1    1    2  506  505  0.21040282570E+02  0.74337282882E+02  0.92675237644E+02  0.12065415363E+03  0.00000000000E+00 0. -1.
<scales pt_clust_3="55.11625" pt_clust_4="123.27796" pt_clust_5="31.33521" pt_clust_6="31.33521"></scales>
<clustering>
<clus scale="   31.335">  5  6 -1 -1</clus>
<clus scale="   55.116">  2  3  1 -1</clus>
<clus scale="  123.278">  2  4  1 -1</clus>
<clus scale="  129.593">  1  3  2 -1</clus>
</clustering>
</event>
<event>
 6    0  0.4390142E+002  0.8736609E+02  0.7546771E-02  0.1309358E+00
         21   -1    0    0  506  501  0.00000000000E+00  0.00000000000E+00  0.12135349488E+03  0.12135349488E+03  0.00000000000E+00 0. -1.
         21   -1    0    0  504  502 -0.00000000000E+00 -0.00000000000E+00 -0.17266163999E+04  0.17266163999E+04  0.00000000000E+00 0.  1.
         21    1    1    2  503  501  0.33770730758E+02  0.45537877471E+02 -0.41740196654E+02  0.70401736891E+02  0.00000000000E+00 0. -1.
         21    1    1    2  504  505 -0.86807732318E+02  0.64979693924E+01 -0.15613823537E+04  0.15638071046E+04  0.00000000000E+00 0.  1.
         21    1    1    2  505  503 -0.49499688570E+02  0.40953210311E+02 -0.32576607236E+02  0.72032075788E+02  0.00000000000E+00 0. -1.
         21    1    1    2  506  502  0.10253669013E+03 -0.92989057175E+02  0.30436252604E+02  0.14172897745E+03  0.00000000000E+00 0. -1.
<scales pt_clust_3="56.69357" pt_clust_4="87.36609" pt_clust_5="65.63423" pt_clust_6="14000.00000"></scales>
<clustering>
<clus scale="   56.694">  1  3  2 -1</clus>
<clus scale="   65.634">  1  5  2 -1</clus>
<clus scale="   87.366">  2  4  1 -1</clus>
<clus scale="   56.694">  1  3  2 -1</clus>
</clustering>
</event>
<event>
 6    0  0.4390142E+002  0.1224906E+03  0.7546771E-02  0.1239044E+00
         21   -1    0    0  506  501  0.00000000000E+00  0.00000000000E+00  0.62702727686E+02  0.62702727686E+02  0.00000000000E+00 0. -1.
         21   -1    0    0  503  502 -0.00000000000E+00 -0.00000000000E+00 -0.97970538338E+03  0.97970538338E+03  0.00000000000E+00 0. -1.
         21    1    1    2  503  504 -0.99649866230E+02  0.20325535644E+02 -0.32205020944E+03  0.33772705050E+03  0.00000000000E+00 0.  1.
         21    1    1    2  504  501  0.10482263724E+03 -0.49351633702E+02 -0.22855503554E+02  0.11809209571E+03  0.00000000000E+00 0. -1.
         21    1    1    2  505  502 -0.12589446884E+02  0.66683877631E+02 -0.50292026653E+03  0.50747810612E+03  0.00000000000E+00 0. -1.
         21    1    1    2  506  505  0.74166758771E+01 -0.37657779573E+02 -0.69176676180E+02  0.79110858741E+02  0.00000000000E+00 0. -1.
<scales pt_clust_3="122.49060" pt_clust_4="14000.00000" pt_clust_5="66.34695" pt_clust_6="38.38119"></scales>
<clustering>
<clus scale="   38.381">  1  6  2 -1</clus>
<clus scale="   66.347">  2  5  1 -1</clus>
<clus scale="  122.491">  2  3  1 -1</clus>
<clus scale="   38.381">  1  3  2 -1</clus>
</clustering>
</event>
<event>
 6    0  0.4390142E+002  0.1282256E+03  0.7546771E-02  0.1230113E+00
         21   -1    0    0  503  501  0.00000000000E+00  0.00000000000E+00  0.21343344891E+03  0.21343344891E+03  0.00000000000E+00 0.  1.
         21   -1    0    0  506  502 -0.00000000000E+00 -0.00000000000E+00 -0.17787240090E+04  0.17787240090E+04  0.00000000000E+00 0. -1.
         21    1    1    2  503  504  0.53016016366E+02  0.28436041798E+01  0.73038617914E+02  0.90296311015E+02  0.00000000000E+00 0.  1.
         21    1    1    2  504  502 -0.68114523058E+02  0.95436494133E+02 -0.37068715385E+03  0.38878873272E+03  0.00000000000E+00 0.  1.
         21    1    1    2  505  501  0.25849040492E+02  0.42186406013E+02  0.11399656247E+03  0.12427019756E+03  0.00000000000E+00 0.  1.
         21    1    1    2  506  505 -0.10750533800E+02 -0.14046650433E+03 -0.13816385866E+04  0.13888022166E+04  0.00000000000E+00 0. -1.
<scales pt_clust_3="85.06574" pt_clust_4="128.22556" pt_clust_5="49.47591" pt_clust_6="14000.00000"></scales>
<clustering>
<clus scale="   49.476">  1  5  2 -1</clus>
<clus scale="   85.066">  1  3  2 -1</clus>
<clus scale="  128.226">  1  4  2 -1</clus>
<clus scale="   49.476">  1  3  2 -1</clus>
</clustering>
</event>
<event>
 6    0  0.4390142E+002  0.1177981E+03  0.7546771E-02  0.1246774E+00
         21   -1    0    0  503  501  0.00000000000E+00  0.00000000000E+00  0.55983192862E+02  0.55983192862E+02  0.00000000000E+00 0.  1.
         21   -1    0    0  505  502 -0.00000000000E+00 -0.00000000000E+00 -0.39696328301E+04  0.39696328301E+04  0.00000000000E+00 0. -1.
         21    1    1    2  503  506 -0.25697145887E+02 -0.34203599618E+02 -0.26724376635E+02  0.50442262441E+02  0.00000000000E+00 0.  1.
         21    1    1    2  504  501  0.44594521142E+02 -0.67731100440E+02 -0.40165629319E+03  0.40976084628E+03  0.00000000000E+00 0.  1.
         21    1    1    2  505  504  0.74714840613E+02  0.68076379868E+01 -0.34126458353E+04  0.34134704112E+04  0.00000000000E+00 0. -1.
         21    1    1    2  506  502 -0.93612215867E+02  0.95127062071E+02 -0.72623132127E+02  0.15194250300E+03  0.00000000000E+00 0.  1.
<scales pt_clust_3="42.78118" pt_clust_4="117.79811" pt_clust_5="74.75681" pt_clust_6="14000.00000"></scales>
<clustering>
<clus scale="   42.781">  1  3  2 -1</clus>
<clus scale="   74.757">  2  5  1 -1</clus>
<clus scale="  117.798">  2  4  1 -1</clus>
<clus scale="   42.781">  1  3  2 -1</clus>
</clustering>
</event>
<event>
 6    0  0.4390142E+002  0.1292265E+03  0.7546771E-02  0.1228608E+00
         21   -1    0    0  506  501  0.00000000000E+00  0.00000000000E+00  0.11555116616E+03  0.11555116616E+03  0.00000000000E+00 0.  1.
         21   -1    0    0  504  502 -0.00000000000E+00 -0.00000000000E+00 -0.27183246457E+03  0.27183246457E+03  0.00000000000E+00 0. -1.
         21    1    1    2  503  501 -0.11254516774E+03  0.47810804968E+02 -0.13247865233E+01  0.12228672419E+03  0.00000000000E+00 0.  1.
         21    1    1    2  504  505  0.30560531667E+02 -0.70945412344E+02 -0.98614958088E+02  0.12526814275E+03  0.00000000000E+00 0. -1.
         21    1    1    2  505  503 -0.11477914298E+02  0.31964210289E+02 -0.17824052956E+02  0.38355574821E+02  0.00000000000E+00 0. -1.
         21    1    1    2  506  502  0.93462550374E+02 -0.88296029136E+01 -0.38517500841E+02  0.10147318898E+03  0.00000000000E+00 0. -1.
<scales pt_clust_3="32.02887" pt_clust_4="77.24764" pt_clust_5="32.02887" pt_clust_6="114.04386"></scales>
<clustering>
<clus scale="   32.029">  3  5 -1 -1</clus>
<clus scale="   77.248">  2  4  1 -1</clus>
<clus scale="  114.044">  1  6  2 -1</clus>
<clus scale="  114.044">  1  3  2 -1</clus>
</clustering>
</event>
<event>
 6    0  0.4390142E+002  0.1164034E+03  0.7546771E-02  0.1249151E+00
         21   -1    0    0  504  501  0.00000000000E+00  0.00000000000E+00  0.79087109094E+03  0.79087109094E+03  0.00000000000E+00 0.  1.
         21   -1    0    0  503  502 -0.00000000000E+00 -0.00000000000E+00 -0.52225498220E+02  0.52225498220E+02  0.00000000000E+00 0.  1.
         21    1    1    2  503  505 -0.31697435113E+02  0.19349062105E+02 -0.16871580013E+00  0.37136801991E+02  0.00000000000E+00 0.  1.
         21    1    1    2  504  506  0.67967793326E+02  0.66760655982E+02  0.18442263698E+03  0.20757725104E+03  0.00000000000E+00 0. -1.
         21    1    1    2  505  501 -0.32944120036E+02 -0.13811047613E+03  0.51165844350E+03  0.53099357950E+03  0.00000000000E+00 0.  1.
         21    1    1    2  506  502 -0.33262381775E+01  0.52000758045E+02  0.42733228035E+02  0.67388956632E+02  0.00000000000E+00 0.  1.
<scales pt_clust_3="37.13642" pt_clust_4="14000.00000" pt_clust_5="116.40342" pt_clust_6="60.97090"></scales>
<clustering>
<clus scale="   37.136">  2  3  1 -1</clus>
<clus scale="   60.971">  2  6  1 -1</clus>
<clus scale="  116.403">  1  5  2 -1</clus>
<clus scale="  116.403">  1  3  2 -1</clus>
</clustering>
</event>
<event>
 6    0  0.4390142E+002  0.1147778E+03  0.7546771E-02  0.1251970E+00
         21   -1    0    0  505  501  0.00000000000E+00  0.00000000000E+00  0.41669608605E+03  0.41669608605E+03  0.00000000000E+00 0.  1.
         21   -1    0    0  506  502 -0.00000000000E+00 -0.00000000000E+00 -0.70012574954E+03  0.70012574954E+03  0.00000000000E+00 0. -1.
         21    1    1    2  503  502 -0.99121812635E+01  0.32221677976E+02 -0.43304931582E+03  0.43435952597E+03  0.00000000000E+00 0. -1.
         21    1    1    2  504  503  0.12312495987E+03 -0.11604430832E+02 -0.23893779672E+03  0.26904588690E+03  0.00000000000E+00 0.  1.
         21    1    1    2  505  504 -0.16279134471E+02  0.27805114597E+02  0.73678926546E+02  0.80415911571E+02  0.00000000000E+00 0.  1.
         21    1    1    2  506  501 -0.96933644139E+02 -0.48422361741E+02  0.31487852251E+03  0.33300051114E+03  0.00000000000E+00 0.  1.
<scales pt_clust_3="33.77233" pt_clust_4="114.77777" pt_clust_5="32.22010" pt_clust_6="14000.00000"></scales>
<clustering>
<clus scale="   32.220">  1  5  2 -1</clus>
<clus scale="   33.772">  2  3  1 -1</clus>
<clus scale="  114.778">  2  4  1 -1</clus>
<clus scale="   32.220">  1  3  2 -1</clus>
</clustering>
</event>
<event>
 6    0  0.4390142E+002  0.1654925E+03  0.7546771E-02  0.1182632E+00
         21   -1    0    0  505  501  0.00000000000E+00  0.00000000000E+00  0.24048365720E+03  0.24048365720E+03  0.00000000000E+00 0. -1.
         21   -1    0    0  506  502 -0.00000000000E+00 -0.00000000000E+00 -0.71120908717E+03  0.71120908717E+03  0.00000000000E+00 0. -1.
         21    1    1    2  503  501 -0.71703672452E+02  0.87635003990E+02 -0.98719785740E+02  0.15022285666E+03  0.00000000000E+00 0.  1.
         21    1    1    2  504  503 -0.48755598330E+02  0.27284342826E+02 -0.11967493067E+03  0.13207434559E+03  0.00000000000E+00 0.  1.
         21    1    1    2  505  502  0.69951633594E+02 -0.13415457236E+03  0.17918044174E+03  0.23451292295E+03  0.00000000000E+00 0. -1.
         21    1    1    2  506  504  0.50507637188E+02  0.19235225545E+02 -0.43151115530E+03  0.43488261918E+03  0.00000000000E+00 0. -1.
<scales pt_clust_3="45.94713" pt_clust_4="45.94713" pt_clust_5="152.01711" pt_clust_6="54.04642"></scales>
<clustering>
<clus scale="   45.947">  3  4 -1 -1</clus>
<clus scale="   54.046">  2  6  1 -1</clus>
<clus scale="  152.017">  1  5  2 -1</clus>
<clus scale="  152.017">  1  3  2 -1</clus>
</clustering>
</event>
<event>
 6    0  0.4390142E+002  0.9749421E+02  0.7546771E-02  0.1285655E+00
         21   -1    0    0  505  501  0.00000000000E+00  0.00000000000E+00  0.30576230695E+04  0.30576230695E+04  0.00000000000E+00 0.  1.
         21   -1    0    0  503  502 -0.00000000000E+00 -0.00000000000E+00 -0.97528411534E+01  0.97528411534E+01  0.00000000000E+00 0.  1.
         21    1    1    2  503  506 -0.25287110159E+01  0.31848628153E+02  0.70280923124E+02  0.77201927759E+02  0.00000000000E+00 0.  1.
         21    1    1    2  504  501 -0.86240879334E+02 -0.55081179959E+02  0.22165636184E+04  0.22189244467E+04  0.00000000000E+00 0.  1.
         21    1    1    2  505  502  0.26439725197E+02 -0.30603748792E+02  0.32568454218E+03  0.32818602883E+03  0.00000000000E+00 0.  1.
         21    1    1    2  506  504  0.62329865154E+02  0.53836300598E+02  0.43534114466E+03  0.44306350739E+03  0.00000000000E+00 0.  1.
<scales pt_clust_3="31.94886" pt_clust_4="97.49421" pt_clust_5="35.52347" pt_clust_6="14000.00000"></scales>
<clustering>
<clus scale="   31.949">  2  3  1 -1</clus>
<clus scale="   35.523">  2  5  1 -1</clus>
<clus scale="   97.494">  1  4  2 -1</clus>
<clus scale="   97.494">  1  3  2 -1</clus>
</clustering>
</event>
<event>
 6    0  0.4390142E+002  0.1693813E+03  0.7546771E-02  0.1178495E+00
         21   -1    0    0  505  501  0.00000000000E+00  0.00000000000E+00  0.69141437709E+03  0.69141437709E+03  0.00000000000E+00 0. -1.
         21   -1    0    0  506  502 -0.00000000000E+00 -0.00000000000E+00 -0.28495423704E+03  0.28495423704E+03  0.00000000000E+00 0. -1.
         21    1    1    2  503  504  0.13771674416E+03  0.13963362301E+03  0.60083536760E+02  0.20511821393E+03  0.00000000000E+00 0. -1.
         21    1    1    2  504  501  0.50908710844E+02  0.99554395937E+01  0.10368438687E+03  0.11593644681E+03  0.00000000000E+00 0.  1.
         21    1    1    2  505  502 -0.16094234250E+03 -0.11160079896E+03  0.42451429784E+03  0.46751424043E+03  0.00000000000E+00 0. -1.
         21    1    1    2  506  503 -0.27683112511E+02 -0.37988263639E+02 -0.18182208142E+03  0.18779971295E+03  0.00000000000E+00 0. -1.
<scales pt_clust_3="14000.00000" pt_clust_4="49.80345" pt_clust_5="169.38133" pt_clust_6="47.00492"></scales>
<clustering>
<clus scale="   47.005">  2  6  1 -1</clus>
<clus scale="   49.803">  1  4  2 -1</clus>
<clus scale="  169.381">  1  5  2 -1</clus>
<clus scale="   49.803">  1  3  2 -1</clus>
</clustering>
</event>
<event>
 6    0  0.4390142E+002  0.1057208E+03  0.7546771E-02  0.1268706E+00
         21   -1    0    0  504  501  0.00000000000E+00  0.00000000000E+00  0.16758989665E+03  0.16758989665E+03  0.00000000000E+00 0. -1.
         21   -1    0    0  503  502 -0.00000000000E+00 -0.00000000000E+00 -0.10566303107E+04  0.10566303107E+04  0.00000000000E+00 0.  1.
         21    1    1    2  503  501 -0.52838409669E+02 -0.51465099203E+02  0.11402612455E+03  0.13580320708E+03  0.00000000000E+00 0. -1.
         21    1    1    2  504  506 -0.45755954247E+02  0.66705443608E+01  0.20665173821E+02  0.50647338727E+02  0.00000000000E+00 0. -1.
         21    1    1    2  505  502 -0.13751581959E+02  0.55090317259E+02 -0.30556791575E+03  0.31079864896E+03  0.00000000000E+00 0.  1.
         21    1    1    2  506  505  0.11234594588E+03 -0.10295762417E+02 -0.71816379666E+03  0.72697101256E+03  0.00000000000E+00 0.  1.
<scales pt_clust_3="14000.00000" pt_clust_4="46.23963" pt_clust_5="57.13497" pt_clust_6="105.72081"></scales>
<clustering>
<clus scale="   46.240">  1  4  2 -1</clus>
<clus scale="   57.135">  2  5  1 -1</clus>
<clus scale="  105.721">  2  6  1 -1</clus>
<clus scale="   46.240">  1  3  2 -1</clus>
</clustering>
</event>
<event>
 6    0  0.4390142E+002  0.2934110E+03  0.7546771E-02  0.1088582E+00
         21   -1    0    0  504  501  0.00000000000E+00  0.00000000000E+00  0.10683385998E+03  0.10683385998E+03  0.00000000000E+00 0.  1.
         21   -1    0    0  505  502 -0.00000000000E+00 -0.00000000000E+00 -0.14248179324E+04  0.14248179324E+04  0.00000000000E+00 0.  1.
         21    1    1    2  503  506  0.72619072803E+02 -0.34357626507E+02 -0.21070848059E+03  0.22550396898E+03  0.00000000000E+00 0. -1.
         21    1    1    2  504  502 -0.21655214161E+03  0.20903023555E+03 -0.23922118276E+03  0.38446748067E+03  0.00000000000E+00 0.  1.
         21    1    1    2  505  503  0.45608394266E+02 -0.28609056867E+02 -0.59075447284E+03  0.59320270645E+03  0.00000000000E+00 0.  1.
         21    1    1    2  506  501  0.98324674538E+02 -0.14606355218E+03 -0.27729993620E+03  0.32847763624E+03  0.00000000000E+00 0.  1.
<scales pt_clust_3="58.20221" pt_clust_4="281.28314" pt_clust_5="53.83868" pt_clust_6="58.20221"></scales>
<clustering>
<clus scale="   53.839">  2  5  1 -1</clus>
<clus scale="   58.202">  3  6 -1 -1</clus>
<clus scale="  281.283">  1  4  2 -1</clus>
<clus scale="  281.283">  1  3  2 -1</clus>
</clustering>
</event>
<event>
 6    0  0.4390142E+002  0.1055346E+03  0.7546771E-02  0.1269070E+00
         21   -1    0    0  502  501  0.00000000000E+00  0.00000000000E+00  0.11582690354E+04  0.11582690354E+04  0.00000000000E+00 0. -1.
         21   -1    0    0  504  502 -0.00000000000E+00 -0.00000000000E+00 -0.14784693569E+03  0.14784693569E+03  0.00000000000E+00 0. -1.
         21    1    1    2  503  501 -0.24257485158E+02  0.25117858511E+02  0.73148708104E+03  0.73232006809E+03  0.00000000000E+00 0. -1.
         21    1    1    2  504  505  0.95312052338E+02  0.51276881534E+02 -0.11346557680E+03  0.15680606818E+03  0.00000000000E+00 0. -1.
         21    1    1    2  505  506 -0.55171112826E+02 -0.30467334346E+02  0.33891080896E+03  0.34472111421E+03  0.00000000000E+00 0. -1.
         21    1    1    2  506  503 -0.15883454354E+02 -0.45927405699E+02  0.53489786485E+02  0.72268720583E+02  0.00000000000E+00 0. -1.
<scales pt_clust_3="34.91894" pt_clust_4="14000.00000" pt_clust_5="105.53462" pt_clust_6="46.49210"></scales>
<clustering>
<clus scale="   34.919">  1  3  2 -1</clus>
<clus scale="   46.492">  1  6  2 -1</clus>
<clus scale="  105.535">  1  5  2 -1</clus>
<clus scale="   34.919">  1  3  2 -1</clus>
</clustering>
</event>
<event>
 6    0  0.4390142E+002  0.9676227E+02  0.7546771E-02  0.1287256E+00
         21   -1    0    0  505  501  0.00000000000E+00  0.00000000000E+00  0.40590305271E+03  0.40590305271E+03  0.00000000000E+00 0.  1.
         21   -1    0    0  506  502 -0.00000000000E+00 -0.00000000000E+00 -0.30509901167E+03  0.30509901167E+03  0.00000000000E+00 0.  1.
         21    1    1    2  503  504 -0.19359015065E+01 -0.11859780251E+03 -0.23538052667E+03  0.26357765234E+03  0.00000000000E+00 0.  1.
         21    1    1    2  504  501  0.12740566148E+02 -0.32501487900E+02  0.25582265261E+02  0.43279568359E+02  0.00000000000E+00 0.  1.
         21    1    1    2  505  502  0.24334227804E+02  0.11865575062E+03  0.33076276536E+03  0.35224330902E+03  0.00000000000E+00 0.  1.
         21    1    1    2  506  503 -0.35138892445E+02  0.32443539795E+02 -0.20160462907E+02  0.51901534672E+02  0.00000000000E+00 0. -1.
<scales pt_clust_3="96.76227" pt_clust_4="34.90944" pt_clust_5="14000.00000" pt_clust_6="46.48866"></scales>
<clustering>
<clus scale="   34.909">  1  4  2 -1</clus>
<clus scale="   46.489">  2  6  1 -1</clus>
<clus scale="   96.762">  2  3  1 -1</clus>
<clus scale="   34.909">  1  3  2 -1</clus>
</clustering>
</event>
<event>
 6    0  0.4390142E+002  0.1199943E+03  0.7546771E-02  0.1243106E+00
         21   -1    0    0  503  501  0.00000000000E+00  0.00000000000E+00  0.24941174625E+04  0.24941174625E+04  0.00000000000E+00 0. -1.
         21   -1    0    0  506  502 -0.00000000000E+00 -0.00000000000E+00 -0.22659611395E+02  0.22659611395E+02  0.00000000000E+00 0. -1.
         21    1    1    2  503  505 -0.21242479318E+02 -0.50590705309E+02  0.95899014254E+03  0.96055856452E+03  0.00000000000E+00 0. -1.
         21    1    1    2  504  502 -0.64148598802E+02  0.34485935478E+02  0.63752695593E+03  0.64167354785E+03  0.00000000000E+00 0. -1.
         21    1    1    2  505  504 -0.26771615584E+02  0.20300578427E+02  0.73215222926E+03  0.73292272423E+03  0.00000000000E+00 0. -1.
         21    1    1    2  506  501  0.11216269370E+03 -0.41958085954E+01  0.14278852336E+03  0.18162223727E+03  0.00000000000E+00 0. -1.
<scales pt_clust_3="54.86950" pt_clust_4="32.04368" pt_clust_5="32.04368" pt_clust_6="110.33059"></scales>
<clustering>
<clus scale="   32.044">  4  5 -1 -1</clus>
<clus scale="   54.870">  1  3  2 -1</clus>
<clus scale="  110.331">  2  6  1 -1</clus>
<clus scale="   54.870">  1  3  2 -1</clus>
</clustering>
</event>
<event>
 6    0  0.4390142E+002  0.1256375E+03  0.7546771E-02  0.1234076E+00
         21   -1    0    0  504  501  0.00000000000E+00  0.00000000000E+00  0.10512565581E+04  0.10512565581E+04  0.00000000000E+00 0. -1.
         21   -1    0    0  505  502 -0.00000000000E+00 -0.00000000000E+00 -0.10288094822E+03  0.10288094822E+03  0.00000000000E+00 0. -1.
         21    1    1    2  503  502 -0.43313943612E+01 -0.73886374663E+02 -0.41616204022E+02  0.84910928479E+02  0.00000000000E+00 0. -1.
         21    1    1    2  504  506 -0.40210996518E+02  0.17997569296E+03  0.48837137849E+03  0.52202947965E+03  0.00000000000E+00 0. -1.
         21    1    1    2  505  501  0.23004035311E+02 -0.70274866152E+02  0.49993205360E+03  0.50537095352E+03  0.00000000000E+00 0. -1.
         21    1    1    2  506  503  0.21538355568E+02 -0.35814452144E+02  0.16883817950E+01  0.41826144647E+02  0.00000000000E+00 0. -1.
<scales pt_clust_3="34.74289" pt_clust_4="116.82076" pt_clust_5="73.94418" pt_clust_6="34.74289"></scales>
<clustering>
<clus scale="   34.743">  3  6 -1 -1</clus>
<clus scale="   73.944">  1  5  2 -1</clus>
<clus scale="  116.821">  1  4  2 -1</clus>
<clus scale="   73.944">  1  3  2 -1</clus>
</clustering>
</event>
<event>
 6    0  0.4390142E+002  0.1441630E+03  0.7546771E-02  0.1207835E+00
         21   -1    0    0  505  501  0.00000000000E+00  0.00000000000E+00  0.50586591058E+03  0.50586591058E+03  0.00000000000E+00 0. -1.
         21   -1    0    0  503  502 -0.00000000000E+00 -0.00000000000E+00 -0.52553190385E+03  0.52553190385E+03  0.00000000000E+00 0.  1.
         21    1    1    2  503  506 -0.65326813979E+02  0.14590302693E+03 -0.40851510758E+03  0.43867969979E+03  0.00000000000E+00 0.  1.
         21    1    1    2  504  502  0.91255211534E+02 -0.52776526921E+01 -0.53999620974E+02  0.10616650279E+03  0.00000000000E+00 0.  1.
         21    1    1    2  505  504  0.35945791912E+02  0.11043314204E+02  0.76057638754E+02  0.84845855277E+02  0.00000000000E+00 0.  1.
         21    1    1    2  506  501 -0.61874189467E+02 -0.15166868844E+03  0.36679109652E+03  0.40170575657E+03  0.00000000000E+00 0. -1.
<scales pt_clust_3="144.16297" pt_clust_4="93.57232" pt_clust_5="37.60392" pt_clust_6="14000.00000"></scales>
<clustering>
<clus scale="   37.604">  1  5  2 -1</clus>
<clus scale="   93.572">  2  4  1 -1</clus>
<clus scale="  144.163">  2  3  1 -1</clus>
<clus scale="   37.604">  1  3  2 -1</clus>
</clustering>
</event>
<event>
 6    0  0.4390142E+002  0.2276877E+03  0.7546771E-02  0.1128278E+00
         21   -1    0    0  504  501  0.00000000000E+00  0.00000000000E+00  0.51843114951E+03  0.51843114951E+03  0.00000000000E+00 0. -1.
         21   -1    0    0  501  502 -0.00000000000E+00 -0.00000000000E+00 -0.11546697070E+03  0.11546697070E+03  0.00000000000E+00 0. -1.
         21    1    1    2  503  505 -0.41921205311E+02  0.61582637762E+02  0.31014137580E+02  0.80695015077E+02  0.00000000000E+00 0. -1.
         21    1    1    2  504  506  0.83261343687E+02 -0.20754586048E+03  0.20734985986E+03  0.30496180078E+03  0.00000000000E+00 0. -1.
         21    1    1    2  505  502  0.27994511932E+02  0.19971805036E+02  0.73824390692E+01  0.35171950491E+02  0.00000000000E+00 0.  1.
         21    1    1    2  506  503 -0.69334650309E+02  0.12599141768E+03  0.15721774230E+03  0.21306935386E+03  0.00000000000E+00 0. -1.
<scales pt_clust_3="41.35396" pt_clust_4="220.31183" pt_clust_5="34.38845" pt_clust_6="41.35396"></scales>
<clustering>
<clus scale="   34.388">  2  5  1 -1</clus>
<clus scale="   41.354">  3  6 -1 -1</clus>
<clus scale="  220.312">  1  4  2 -1</clus>
<clus scale="  220.312">  1  3  2 -1</clus>
</clustering>
</event>
<event>
 6    0  0.4390142E+002  0.8150617E+02  0.7546771E-02  0.1324831E+00
         21   -1    0    0  504  501  0.00000000000E+00  0.00000000000E+00  0.81437986381E+03  0.81437986381E+03  0.00000000000E+00 0. -1.
         21   -1    0    0  501  502 -0.00000000000E+00 -0.00000000000E+00 -0.24580728448E+03  0.24580728448E+03  0.00000000000E+00 0. -1.
         21    1    1    2  503  506 -0.75983529697E+02  0.52487719741E+02  0.37242098392E+03  0.38370020429E+03  0.00000000000E+00 0. -1.
         21    1    1    2  504  503  0.72240220852E+02  0.31471164086E+02  0.42255673004E+03  0.42984098662E+03  0.00000000000E+00 0. -1.
         21    1    1    2  505  502 -0.20501695973E+02 -0.29922696769E+02 -0.61153920370E+02  0.71101964082E+02  0.00000000000E+00 0.  1.
         21    1    1    2  506  505  0.24245004818E+02 -0.54036187058E+02 -0.16525121426E+03  0.17554399330E+03  0.00000000000E+00 0. -1.
<scales pt_clust_3="14000.00000" pt_clust_4="78.17548" pt_clust_5="36.27240" pt_clust_6="81.50617"></scales>
<clustering>
<clus scale="   36.272">  2  5  1 -1</clus>
<clus scale="   78.175">  1  4  2 -1</clus>
<clus scale="   81.506">  2  6  1 -1</clus>
<clus scale="   78.175">  1  3  2 -1</clus>
</clustering>
</event>
<event>
 6    0  0.4390142E+002  0.7159252E+02  0.7546771E-02  0.1354760E+00
         21   -1    0    0  504  501  0.00000000000E+00  0.00000000000E+00  0.85806374990E+02  0.85806374990E+02  0.00000000000E+00 0.  1.
         21   -1    0    0  505  502 -0.00000000000E+00 -0.00000000000E+00 -0.51938911659E+03  0.51938911659E+03  0.00000000000E+00 0.  1.
         21    1    1    2  503  506  0.67857414228E+02 -0.14403094489E+02 -0.15683823923E+03  0.17149434708E+03  0.00000000000E+00 0.  1.
         21    1    1    2  504  502  0.31390719063E+02  0.63167569482E+02  0.37237684960E+02  0.79763176082E+02  0.00000000000E+00 0.  1.
         21    1    1    2  505  503 -0.72977717359E+02 -0.24903138399E+02 -0.30854498855E+03  0.31803446904E+03  0.00000000000E+00 0.  1.
         21    1    1    2  506  501 -0.26270415932E+02 -0.23861336593E+02 -0.54371987778E+01  0.35903499381E+02  0.00000000000E+00 0. -1.
<scales pt_clust_3="71.59252" pt_clust_4="44.44058" pt_clust_5="14000.00000" pt_clust_6="35.48941"></scales>
<clustering>
<clus scale="   35.489">  1  6  2 -1</clus>
<clus scale="   44.441">  1  4  2 -1</clus>
<clus scale="   71.593">  1  3  2 -1</clus>
<clus scale="   35.489">  1  3  2 -1</clus>
</clustering>
</event>
<event>
 6    0  0.4390142E+002  0.1764068E+03  0.7546771E-02  0.1171327E+00
         21   -1    0    0  505  501  0.00000000000E+00  0.00000000000E+00  0.13996780844E+03  0.13996780844E+03  0.00000000000E+00 0. -1.
         21   -1    0    0  503  502 -0.00000000000E+00 -0.00000000000E+00 -0.85382527440E+03  0.85382527440E+03  0.00000000000E+00 0. -1.
         21    1    1    2  503  501  0.16815936515E+03  0.63329078139E+02 -0.56751833388E+03  0.59528581666E+03  0.00000000000E+00 0. -1.
         21    1    1    2  504  502  0.17587290811E+01 -0.94475415008E+02 -0.25737555296E+02  0.97934258161E+02  0.00000000000E+00 0. -1.
         21    1    1    2  505  506 -0.13011564918E+03  0.11825331350E+03 -0.54028420689E+02  0.18393748546E+03  0.00000000000E+00 0.  1.
         21    1    1    2  506  504 -0.39802445048E+02 -0.87106976634E+02 -0.66573156087E+02  0.11663552255E+03  0.00000000000E+00 0. -1.
<scales pt_clust_3="167.39158" pt_clust_4="55.29984" pt_clust_5="175.82357" pt_clust_6="55.29984"></scales>
<clustering>
<clus scale="   55.300">  4  6 -1 -1</clus>
<clus scale="  175.824">  1  5  2 -1</clus>
<clus scale="  167.392">  2  3  1 -1</clus>
<clus scale="  175.824">  1  3  2 -1</clus>
</clustering>
</event>
<event>
 6    0  0.4390142E+002  0.1902996E+03  0.7546771E-02  0.1158191E+00
         21   -1    0    0  503  501  0.00000000000E+00  0.00000000000E+00  0.17034113593E+03  0.17034113593E+03  0.00000000000E+00 0.  1.
         21   -1    0    0  506  502 -0.00000000000E+00 -0.00000000000E+00 -0.15807849234E+04  0.15807849234E+04  0.00000000000E+00 0. -1.
         21    1    1    2  503  505  0.17589576112E+03  0.13850713059E+03 -0.42589992725E+03  0.48115932084E+03  0.00000000000E+00 0. -1.
         21    1    1    2  504  501 -0.13973182305E+03 -0.12242825727E+03  0.78668300873E+02  0.20174826421E+03  0.00000000000E+00 0.  1.
         21    1    1    2  505  502 -0.30152313322E+02  0.17366713080E+02 -0.93289319537E+03  0.93354189980E+03  0.00000000000E+00 0. -1.
         21    1    1    2  506  504 -0.60116247431E+01 -0.33445586398E+02 -0.13031896569E+03  0.13467657443E+03  0.00000000000E+00 0. -1.
<scales pt_clust_3="190.29957" pt_clust_4="14000.00000" pt_clust_5="34.28227" pt_clust_6="33.98157"></scales>
<clustering>
<clus scale="   33.982">  2  6  1 -1</clus>
<clus scale="   34.282">  2  5  1 -1</clus>
<clus scale="  190.300">  2  3  1 -1</clus>
<clus scale="  190.300">  1  3  2 -1</clus>
</clustering>
</event>
<event>
 6    0  0.4390142E+002  0.1182731E+03  0.7546771E-02  0.1245973E+00
         21   -1    0    0  504  501  0.00000000000E+00  0.00000000000E+00  0.64659277672E+03  0.64659277672E+03  0.00000000000E+00 0. -1.
         21   -1    0    0  505  502 -0.00000000000E+00 -0.00000000000E+00 -0.11269131032E+03  0.11269131032E+03  0.00000000000E+00 0. -1.
         21    1    1    2  503  501  0.28277931647E+02 -0.37743479757E+02  0.10960420104E+03  0.11932012641E+03  0.00000000000E+00 0. -1.
         21    1    1    2  504  502  0.57884624116E+02 -0.11409833324E+01  0.35477332178E+03  0.35946632860E+03  0.00000000000E+00 0. -1.
         21    1    1    2  505  506 -0.66624182838E+02  0.89066101856E+02 -0.69672768172E+02  0.13124727374E+03  0.00000000000E+00 0. -1.
         21    1    1    2  506  503 -0.19538372925E+02 -0.50181638766E+02  0.13919671176E+03  0.14925035829E+03  0.00000000000E+00 0. -1.
<scales pt_clust_3="46.04627" pt_clust_4="57.89587" pt_clust_5="107.55242" pt_clust_6="46.04627"></scales>
<clustering>
<clus scale="   46.046">  3  6 -1 -1</clus>
<clus scale="   57.896">  1  4  2 -1</clus>
<clus scale="  107.552">  2  5  1 -1</clus>
<clus scale="   57.896">  1  3  2 -1</clus>
</clustering>
</event>
<event>
 6    0  0.4390142E+002  0.1822926E+03  0.7546771E-02  0.1165602E+00
         21   -1    0    0  502  501  0.00000000000E+00  0.00000000000E+00  0.43508913706E+03  0.43508913706E+03  0.00000000000E+00 0. -1.
         21   -1    0    0  503  502 -0.00000000000E+00 -0.00000000000E+00 -0.32755484507E+03  0.32755484507E+03  0.00000000000E+00 0. -1.
         21    1    1    2  503  506 -0.52237381214E+02 -0.69554739229E+02 -0.17688454482E+02  0.88766475470E+02  0.00000000000E+00 0. -1.
         21    1    1    2  504  505  0.86882694933E+02 -0.56023560246E+02 -0.15751147654E+03  0.18840676002E+03  0.00000000000E+00 0. -1.
         21    1    1    2  505  501 -0.43903469152E+02  0.17241822561E+03  0.35602078798E+03  0.39800296556E+03  0.00000000000E+00 0. -1.
         21    1    1    2  506  504  0.92581554337E+01 -0.46839926132E+02 -0.73286564967E+02  0.87467781078E+02  0.00000000000E+00 0. -1.
<scales pt_clust_3="86.98624" pt_clust_4="37.31652" pt_clust_5="173.82619" pt_clust_6="37.31652"></scales>
<clustering>
<clus scale="   37.317">  4  6 -1 -1</clus>
<clus scale="   86.986">  2  3  1 -1</clus>
<clus scale="  173.826">  1  5  2 -1</clus>
<clus scale="  173.826">  1  3  2 -1</clus>
</clustering>
</event>
<event>
 6    0  0.4390142E+002  0.1008216E+03  0.7546771E-02  0.1278578E+00
         21   -1    0    0  503  501  0.00000000000E+00  0.00000000000E+00  0.10738926229E+03  0.10738926229E+03  0.00000000000E+00 0.  1.
         21   -1    0    0  506  502 -0.00000000000E+00 -0.00000000000E+00 -0.23012097053E+03  0.23012097053E+03  0.00000000000E+00 0.  1.
         21    1    1    2  503  505  0.44894211063E+01 -0.49459493375E+02 -0.12802727030E+02  0.51286510957E+02  0.00000000000E+00 0.  1.
         21    1    1    2  504  501  0.83009195793E+02  0.22439520535E+02 -0.23543378890E+02  0.89153515677E+02  0.00000000000E+00 0.  1.
         21    1    1    2  505  502 -0.42734515511E+02 -0.53134839313E+02  0.39097411318E+01  0.68299604981E+02  0.00000000000E+00 0.  1.
         21    1    1    2  506  504 -0.44764101389E+02  0.80154812153E+02 -0.90295343455E+02  0.12877060120E+03  0.00000000000E+00 0.  1.
<scales pt_clust_3="40.33230" pt_clust_4="85.98871" pt_clust_5="40.33230" pt_clust_6="89.05911"></scales>
<clustering>
<clus scale="   40.332">  3  5 -1 -1</clus>
<clus scale="   85.989">  1  4  2 -1</clus>
<clus scale="   89.059">  2  6  1 -1</clus>
<clus scale="   85.989">  1  3  2 -1</clus>
</clustering>
</event>
<event>
 6    0  0.4390142E+002  0.2174406E+03  0.7546771E-02  0.1135806E+00
         21   -1    0    0  504  501  0.00000000000E+00  0.00000000000E+00  0.19903037958E+03  0.19903037958E+03  0.00000000000E+00 0. -1.
         21   -1    0    0  506  502 -0.00000000000E+00 -0.00000000000E+00 -0.39007550283E+03  0.39007550283E+03  0.00000000000E+00 0. -1.
         21    1    1    2  503  502  0.29763209665E+02  0.32176414949E+02 -0.73679753985E+02  0.85731420587E+02  0.00000000000E+00 0. -1.
         21    1    1    2  504  505  0.11348196194E+03 -0.15371013297E+02  0.58908474449E+02  0.12878133443E+03  0.00000000000E+00 0. -1.
         21    1    1    2  505  503  0.82500967807E+02 -0.36033247212E+02 -0.42570183830E+01  0.90127281104E+02  0.00000000000E+00 0. -1.
         21    1    1    2  506  501 -0.22574613941E+03  0.19227845560E+02 -0.17201682533E+03  0.28446584629E+03  0.00000000000E+00 0. -1.
<scales pt_clust_3="43.83116" pt_clust_4="55.28263" pt_clust_5="55.28263" pt_clust_6="208.32168"></scales>
<clustering>
<clus scale="   43.831">  2  3  1 -1</clus>
<clus scale="   55.283">  4  5 -1 -1</clus>
<clus scale="  208.322">  2  6  1 -1</clus>
<clus scale="  217.441">  1  3  2 -1</clus>
</clustering>
</event>
<event>
 6    0  0.4390142E+002  0.9252121E+02  0.7546771E-02  0.1296859E+00
         21   -1    0    0  504  501  0.00000000000E+00  0.00000000000E+00  0.76885049379E+02  0.76885049379E+02  0.00000000000E+00 0.  1.
         21   -1    0    0  503  502 -0.00000000000E+00 -0.00000000000E+00 -0.12422878218E+04  0.12422878218E+04  0.00000000000E+00 0. -1.
         21    1    1    2  503  506 -0.31131836356E+02  0.38064566274E+02 -0.44596261486E+03  0.44866552831E+03  0.00000000000E+00 0. -1.
         21    1    1    2  504  502  0.44297695353E+02 -0.22151014577E+02 -0.61749038905E+02  0.79157419527E+02  0.00000000000E+00 0.  1.
         21    1    1    2  505  501  0.28955133191E+02  0.80495447213E+02  0.33741563653E+02  0.91958740084E+02  0.00000000000E+00 0.  1.
         21    1    1    2  506  505 -0.42120992188E+02 -0.96408998910E+02 -0.69143268228E+03  0.69939118323E+03  0.00000000000E+00 0. -1.
<scales pt_clust_3="49.17421" pt_clust_4="45.58576" pt_clust_5="92.52121" pt_clust_6="14000.00000"></scales>
<clustering>
<clus scale="   49.174">  2  3  1 -1</clus>
<clus scale="   45.586">  1  4  2 -1</clus>
<clus scale="   92.521">  1  5  2 -1</clus>
<clus scale="   45.586">  1  3  2 -1</clus>
</clustering>
</event>
<event>
 6    0  0.4390142E+002  0.1447089E+03  0.7546771E-02  0.1207130E+00
         21   -1    0    0  506  501  0.00000000000E+00  0.00000000000E+00  0.42299872276E+03  0.42299872276E+03  0.00000000000E+00 0. -1.
         21   -1    0    0  504  502 -0.00000000000E+00 -0.00000000000E+00 -0.11068998584E+03  0.11068998584E+03  0.00000000000E+00 0.  1.
         21    1    1    2  503  501 -0.13503544858E+03 -0.30583111558E+01  0.12884794832E+03  0.18667008176E+03  0.00000000000E+00 0. -1.
         21    1    1    2  504  503  0.14504781142E+03  0.74622427309E+02  0.17933933900E+03  0.24242519004E+03  0.00000000000E+00 0. -1.
         21    1    1    2  505  502 -0.40865794063E+02 -0.25641649203E+02 -0.50723607419E+01  0.48510165344E+02  0.00000000000E+00 0.  1.
         21    1    1    2  506  505  0.30853431213E+02 -0.45922466950E+02  0.91938103505E+01  0.56083271455E+02  0.00000000000E+00 0.  1.
<scales pt_clust_3="144.70886" pt_clust_4="14000.00000" pt_clust_5="48.24425" pt_clust_6="56.53307"></scales>
<clustering>
<clus scale="   48.244">  2  5  1 -1</clus>
<clus scale="   56.533">  2  6  1 -1</clus>
<clus scale="  144.709">  1  3  2 -1</clus>
<clus scale="  144.709">  1  3  2 -1</clus>
</clustering>
</event>
<event>
 6    0  0.4390142E+002  0.2967341E+03  0.7546771E-02  0.1086885E+00
         21   -1    0    0  504  501  0.00000000000E+00  0.00000000000E+00  0.30703110419E+03  0.30703110419E+03  0.00000000000E+00 0. -1.
         21   -1    0    0  503  502 -0.00000000000E+00 -0.00000000000E+00 -0.97069225470E+03  0.97069225470E+03  0.00000000000E+00 0. -1.
         21    1    1    2  503  505 -0.25975316723E+02  0.15016935800E+03 -0.65795307039E+03  0.67537233878E+03  0.00000000000E+00 0. -1.
         21    1    1    2  504  502 -0.17026623557E+03  0.12183478106E+03 -0.10916573177E+03  0.23611747467E+03  0.00000000000E+00 0. -1.
         21    1    1    2  505  506  0.15188860761E+03 -0.12577912378E+03  0.73893210287E+02  0.21059616242E+03  0.00000000000E+00 0. -1.
         21    1    1    2  506  501  0.44352944684E+02 -0.14622501528E+03  0.29564441366E+02  0.15563738301E+03  0.00000000000E+00 0.  1.
<scales pt_clust_3="152.39932" pt_clust_4="277.71312" pt_clust_5="92.01250" pt_clust_6="92.01250"></scales>
<clustering>
<clus scale="   92.013">  5  6 -1 -1</clus>
<clus scale="  152.399">  2  3  1 -1</clus>
<clus scale="  277.713">  2  4  1 -1</clus>
<clus scale="  296.734">  1  3  2 -1</clus>
</clustering>
</event>
<event>
 6    0  0.4390142E+002  0.1865724E+03  0.7546771E-02  0.1161590E+00
         21   -1    0    0  502  501  0.00000000000E+00  0.00000000000E+00  0.26689169721E+03  0.26689169721E+03  0.00000000000E+00 0.  1.
         21   -1    0    0  504  502 -0.00000000000E+00 -0.00000000000E+00 -0.26081972055E+03  0.26081972055E+03  0.00000000000E+00 0.  1.
         21    1    1    2  503  501  0.18205156292E+03  0.26964139535E+02  0.15053654444E+03  0.23776267073E+03  0.00000000000E+00 0.  1.
         21    1    1    2  504  505 -0.28728359738E+02  0.14898686019E+02 -0.11207282163E+03  0.11665164742E+03  0.00000000000E+00 0.  1.
         21    1    1    2  505  506 -0.12939653837E+03 -0.16251640361E+02 -0.41904712539E+02  0.13698023540E+03  0.00000000000E+00 0.  1.
         21    1    1    2  506  503 -0.23926664815E+02 -0.25611185192E+02  0.95129663936E+01  0.36316864205E+02  0.00000000000E+00 0.  1.
<scales pt_clust_3="176.31533" pt_clust_4="32.36185" pt_clust_5="31.62812" pt_clust_6="31.62812"></scales>
<clustering>
<clus scale="   31.628">  5  6 -1 -1</clus>
<clus scale="   32.362">  2  4  1 -1</clus>
<clus scale="  176.315">  1  3  2 -1</clus>
<clus scale="  176.315">  1  3  2 -1</clus>
</clustering>
</event>
<event>
 6    0  0.4390142E+002  0.1268624E+03  0.7546771E-02  0.1232187E+00
         21   -1    0    0  503  501  0.00000000000E+00  0.00000000000E+00  0.13549215571E+04  0.13549215571E+04  0.00000000000E+00 0.  1.
         21   -1    0    0  504  502 -0.00000000000E+00 -0.00000000000E+00 -0.17680003127E+03  0.17680003127E+03  0.00000000000E+00 0.  1.
         21    1    1    2  503  505  0.23525113403E+02  0.31737554689E+02  0.15457998115E+03  0.15954834349E+03  0.00000000000E+00 0. -1.
         21    1    1    2  504  506 -0.10068795018E+03 -0.12158714360E+03 -0.10758066907E+03  0.19103689999E+03  0.00000000000E+00 0.  1.
         21    1    1    2  505  502  0.52029078911E+02  0.30057527699E+01  0.60821177955E+01  0.52469531720E+02  0.00000000000E+00 0. -1.
         21    1    1    2  506  501  0.25133757870E+02  0.86843836142E+02  0.11250400960E+04  0.11286668132E+04  0.00000000000E+00 0.  1.
<scales pt_clust_3="39.50574" pt_clust_4="14000.00000" pt_clust_5="52.73977" pt_clust_6="126.86239"></scales>
<clustering>
<clus scale="   39.506">  1  3  2 -1</clus>
<clus scale="   52.740">  2  5  1 -1</clus>
<clus scale="  126.862">  1  6  2 -1</clus>
<clus scale="   39.506">  1  3  2 -1</clus>
</clustering>
</event>
<event>
 6    0  0.4390142E+002  0.7920391E+02  0.7546771E-02  0.1331326E+00
         21   -1    0    0  505  501  0.00000000000E+00  0.00000000000E+00  0.11373560944E+04  0.11373560944E+04  0.00000000000E+00 0. -1.
         21   -1    0    0  506  502 -0.00000000000E+00 -0.00000000000E+00 -0.45977418644E+02  0.45977418644E+02  0.00000000000E+00 0. -1.
         21    1    1    2  503  501 -0.88405558497E+01  0.47749404677E+02  0.19776578029E+03  0.20364052870E+03  0.00000000000E+00 0. -1.
         21    1    1    2  504  503 -0.60594670997E+02  0.20564524040E+02  0.76275077471E+02  0.99561545013E+02  0.00000000000E+00 0. -1.
         21    1    1    2  505  502 -0.23049191774E+02 -0.61882562724E+02  0.77569448320E+03  0.77850025567E+03  0.00000000000E+00 0. -1.
         21    1    1    2  506  504  0.92484418621E+02 -0.64313659935E+01  0.41643334765E+02  0.10163118363E+03  0.00000000000E+00 0. -1.
<scales pt_clust_3="48.56090" pt_clust_4="14000.00000" pt_clust_5="37.66960" pt_clust_6="79.20391"></scales>
<clustering>
<clus scale="   48.561">  1  3  2 -1</clus>
<clus scale="   37.670">  1  5  2 -1</clus>
<clus scale="   79.204">  2  6  1 -1</clus>
<clus scale="   48.561">  1  3  2 -1</clus>
</clustering>
</event>
<event>
 6    0  0.4390142E+002  0.8263377E+02  0.7546771E-02  0.1321739E+00
         21   -1    0    0  505  501  0.00000000000E+00  0.00000000000E+00  0.23775975877E+03  0.23775975877E+03  0.00000000000E+00 0.  1.
         21   -1    0    0  503  502 -0.00000000000E+00 -0.00000000000E+00 -0.13723594855E+03  0.13723594855E+03  0.00000000000E+00 0.  1.
         21    1    1    2  503  506 -0.40502844969E+02 -0.28558642223E+02 -0.48064895943E+02  0.69038472740E+02  0.00000000000E+00 0.  1.
         21    1    1    2  504  501 -0.20165262050E+02 -0.28654286132E+02  0.16527480957E+02  0.38740980035E+02  0.00000000000E+00 0.  1.
         21    1    1    2  505  502 -0.35155852418E+01 -0.51746917668E+02  0.13084706682E+03  0.14075175922E+03  0.00000000000E+00 0.  1.
         21    1    1    2  506  504  0.64183692261E+02  0.10895984602E+03  0.12141583846E+01  0.12646449533E+03  0.00000000000E+00 0.  1.
<scales pt_clust_3="51.20878" pt_clust_4="35.03863" pt_clust_5="82.63377" pt_clust_6="14000.00000"></scales>
<clustering>
<clus scale="   35.039">  1  4  2 -1</clus>
<clus scale="   51.209">  2  3  1 -1</clus>
<clus scale="   82.634">  1  5  2 -1</clus>
<clus scale="   35.039">  1  3  2 -1</clus>
</clustering>
</event>
<event>
 6    0  0.4390142E+002  0.1548251E+03  0.7546771E-02  0.1194666E+00
         21   -1    0    0  503  501  0.00000000000E+00  0.00000000000E+00  0.18435528973E+03  0.18435528973E+03  0.00000000000E+00 0. -1.
         21   -1    0    0  505  502 -0.00000000000E+00 -0.00000000000E+00 -0.54663432094E+03  0.54663432094E+03  0.00000000000E+00 0.  1.
         21    1    1    2  503  502  0.15946383207E+03  0.13688964902E+03 -0.39015992377E+03  0.44316165884E+03  0.00000000000E+00 0.  1.
         21    1    1    2  504  506 -0.11453132765E+03 -0.93513595505E+02  0.76899819894E+02  0.16666073280E+03  0.00000000000E+00 0. -1.
         21    1    1    2  505  504 -0.67205770775E+02 -0.20635752839E+02 -0.54390171942E+02  0.88886110977E+02  0.00000000000E+00 0. -1.
         21    1    1    2  506  501  0.22273266354E+02 -0.22740300679E+02  0.53712446051E+01  0.32281108061E+02  0.00000000000E+00 0.  1.
<scales pt_clust_3="14000.00000" pt_clust_4="154.82511" pt_clust_5="68.84254" pt_clust_6="31.83111"></scales>
<clustering>
<clus scale="   31.831">  1  6  2 -1</clus>
<clus scale="   68.843">  2  5  1 -1</clus>
<clus scale="  154.825">  1  4  2 -1</clus>
<clus scale="   31.831">  1  3  2 -1</clus>
</clustering>
</event>
<event>
 6    0  0.4390142E+002  0.8317035E+02  0.7546771E-02  0.1320288E+00
         21   -1    0    0  502  501  0.00000000000E+00  0.00000000000E+00  0.93392302635E+03  0.93392302635E+03  0.00000000000E+00 0. -1.
         21   -1    0    0  505  502 -0.00000000000E+00 -0.00000000000E+00 -0.72990374576E+02  0.72990374576E+02  0.00000000000E+00 0. -1.
         21    1    1    2  503  504 -0.49482446105E+02 -0.10425065075E+03  0.95383343512E+02  0.14971537287E+03  0.00000000000E+00 0. -1.
         21    1    1    2  504  506 -0.37819712878E+02  0.57369394155E+02  0.30850007568E+03  0.31605992274E+03  0.00000000000E+00 0. -1.
         21    1    1    2  505  503  0.57390232101E+02  0.14804710490E+02 -0.19637769044E+02  0.62437650231E+02  0.00000000000E+00 0. -1.
         21    1    1    2  506  501  0.29911926882E+02  0.32076546105E+02  0.47668700163E+03  0.47870045509E+03  0.00000000000E+00 0. -1.
<scales pt_clust_3="83.17035" pt_clust_4="14000.00000" pt_clust_5="61.01347" pt_clust_6="43.85919"></scales>
<clustering>
<clus scale="   43.859">  1  6  2 -1</clus>
<clus scale="   61.013">  2  5  1 -1</clus>
<clus scale="   83.170">  2  3  1 -1</clus>
<clus scale="   43.859">  1  3  2 -1</clus>
</clustering>
</event>
<event>
 6    0  0.4390142E+002  0.7314207E+02  0.7546771E-02  0.1349723E+00
         21   -1    0    0  506  501  0.00000000000E+00  0.00000000000E+00  0.26027124234E+04  0.26027124234E+04  0.00000000000E+00 0. -1.
         21   -1    0    0  504  502 -0.00000000000E+00 -0.00000000000E+00 -0.14876680809E+02  0.14876680809E+02  0.00000000000E+00 0. -1.
         21    1    1    2  503  502  0.36141117593E+02  0.41144118686E+02  0.75443920390E+02  0.93224481801E+02  0.00000000000E+00 0. -1.
         21    1    1    2  504  505 -0.30369453465E+02  0.18874938894E+02  0.13842855443E+03  0.14297213611E+03  0.00000000000E+00 0. -1.
         21    1    1    2  505  501 -0.27558500564E+02 -0.11653479767E+03  0.12265744688E+04  0.12324060846E+04  0.00000000000E+00 0. -1.
         21    1    1    2  506  503  0.21786836436E+02  0.56515740092E+02  0.11473887990E+04  0.11489864017E+04  0.00000000000E+00 0. -1.
<scales pt_clust_3="56.41145" pt_clust_4="35.75706" pt_clust_5="73.14207" pt_clust_6="14000.00000"></scales>
<clustering>
<clus scale="   35.757">  2  4  1 -1</clus>
<clus scale="   56.411">  2  3  1 -1</clus>
<clus scale="   73.142">  2  5  1 -1</clus>
<clus scale="   73.142">  1  3  2 -1</clus>
</clustering>
</event>
<event>
 6    0  0.4390142E+002  0.1281815E+03  0.7546771E-02  0.1230179E+00
         21   -1    0    0  505  501  0.00000000000E+00  0.00000000000E+00  0.22584802285E+03  0.22584802285E+03  0.00000000000E+00 0. -1.
         21   -1    0    0  504  502 -0.00000000000E+00 -0.00000000000E+00 -0.13223551585E+04  0.13223551585E+04  0.00000000000E+00 0. -1.
         21    1    1    2  503  502 -0.29705437586E+02 -0.45150598714E+02 -0.64486547327E+03  0.64712631549E+03  0.00000000000E+00 0. -1.
         21    1    1    2  504  506  0.78547894261E+02 -0.80960051705E+02 -0.64440074294E+03  0.65419921978E+03  0.00000000000E+00 0. -1.
         21    1    1    2  505  503  0.47551846290E+01  0.68105183285E+02  0.12666997006E+03  0.14389652215E+03  0.00000000000E+00 0. -1.
         21    1    1    2  506  501 -0.53597641304E+02  0.58005467134E+02  0.66089110466E+02  0.10298112396E+03  0.00000000000E+00 0. -1.
<scales pt_clust_3="54.04618" pt_clust_4="128.18148" pt_clust_5="67.67189" pt_clust_6="14000.00000"></scales>
<clustering>
<clus scale="   54.046">  2  3  1 -1</clus>
<clus scale="   67.672">  1  5  2 -1</clus>
<clus scale="  128.181">  2  4  1 -1</clus>
<clus scale="   67.672">  1  3  2 -1</clus>
</clustering>
</event>
<event>
 6    0  0.4390142E+002  0.1967629E+03  0.7546771E-02  0.1152499E+00
         21   -1    0    0  505  501  0.00000000000E+00  0.00000000000E+00  0.57666651640E+03  0.57666651640E+03  0.00000000000E+00 0. -1.
         21   -1    0    0  506  502 -0.00000000000E+00 -0.00000000000E+00 -0.22711792362E+03  0.22711792362E+03  0.00000000000E+00 0. -1.
         21    1    1    2  503  504 -0.86713629669E+01  0.18014456955E+03  0.24337632627E+02  0.18198785354E+03  0.00000000000E+00 0. -1.
         21    1    1    2  504  502  0.24157984417E+02  0.31335069500E+02 -0.10050882697E+03  0.10801629085E+03  0.00000000000E+00 0. -1.
         21    1    1    2  505  503 -0.50054370825E+02 -0.19707558106E+03  0.43042649121E+03  0.47603696183E+03  0.00000000000E+00 0. -1.
         21    1    1    2  506  501  0.34567749375E+02 -0.14404057986E+02 -0.47067040948E+01  0.37743333806E+02  0.00000000000E+00 0. -1.
<scales pt_clust_3="196.76291" pt_clust_4="48.10155" pt_clust_5="14000.00000" pt_clust_6="37.44871"></scales>
<clustering>
<clus scale="   37.449">  2  6  1 -1</clus>
<clus scale="   48.102">  2  4  1 -1</clus>
<clus scale="  196.763">  2  3  1 -1</clus>
<clus scale="  196.763">  1  3  2 -1</clus>
</clustering>
</event>
<event>
 6    0  0.4390142E+002  0.9311586E+02  0.7546771E-02  0.1295477E+00
         21   -1    0    0  505  501  0.00000000000E+00  0.00000000000E+00  0.56958419167E+02  0.56958419167E+02  0.00000000000E+00 0.  1.
         21   -1    0    0  504  502 -0.00000000000E+00 -0.00000000000E+00 -0.81363476964E+03  0.81363476964E+03  0.00000000000E+00 0.  1.
         21    1    1    2  503  501 -0.87785986424E+01 -0.40556424991E+02 -0.21388727824E+02  0.46683670379E+02  0.00000000000E+00 0. -1.
         21    1    1    2  504  503 -0.60812616520E+01 -0.32594364208E+02 -0.43347118734E+03  0.43473744327E+03  0.00000000000E+00 0.  1.
         21    1    1    2  505  506  0.43425365685E+02  0.13159031121E+03 -0.84437958349E+02  0.16226996394E+03  0.00000000000E+00 0.  1.
         21    1    1    2  506  502 -0.28565505391E+02 -0.58439522006E+02 -0.21737847696E+03  0.22690211122E+03  0.00000000000E+00 0.  1.
<scales pt_clust_3="44.46798" pt_clust_4="33.15681" pt_clust_5="93.11586" pt_clust_6="14000.00000"></scales>
<clustering>
<clus scale="   33.157">  2  4  1 -1</clus>
<clus scale="   44.468">  1  3  2 -1</clus>
<clus scale="   93.116">  1  5  2 -1</clus>
<clus scale="   44.468">  1  3  2 -1</clus>
</clustering>
</event>
<event>
 6    0  0.4390142E+002  0.9309206E+02  0.7546771E-02  0.1295532E+00
         21   -1    0    0  505  501  0.00000000000E+00  0.00000000000E+00  0.27107187911E+02  0.27107187911E+02  0.00000000000E+00 0. -1.
         21   -1    0    0  503  502 -0.00000000000E+00 -0.00000000000E+00 -0.13924940676E+04  0.13924940676E+04  0.00000000000E+00 0. -1.
         21    1    1    2  503  501  0.27246455736E+02 -0.30014509256E+02 -0.19206787008E+03  0.19629902402E+03  0.00000000000E+00 0. -1.
         21    1    1    2  504  502 -0.45559114598E+02 -0.78322748726E+02 -0.99539656916E+03  0.99951208886E+03  0.00000000000E+00 0. -1.
         21    1    1    2  505  506 -0.26352134983E+02  0.50212526166E+02 -0.46617713939E+02  0.73409427562E+02  0.00000000000E+00 0. -1.
         21    1    1    2  506  504  0.44664793844E+02  0.58124731817E+02 -0.13130472652E+03  0.15038071507E+03  0.00000000000E+00 0.  1.
<scales pt_clust_3="40.53690" pt_clust_4="93.09206" pt_clust_5="54.74468" pt_clust_6="14000.00000"></scales>
<clustering>
<clus scale="   40.537">  2  3  1 -1</clus>
<clus scale="   54.745">  1  5  2 -1</clus>
<clus scale="   93.092">  2  4  1 -1</clus>
<clus scale="   54.745">  1  3  2 -1</clus>
</clustering>
</event>
<event>
 6    0  0.4390142E+002  0.8151510E+02  0.7546771E-02  0.1324806E+00
         21   -1    0    0  503  501  0.00000000000E+00  0.00000000000E+00  0.97601733100E+02  0.97601733100E+02  0.00000000000E+00 0. -1.
         21   -1    0    0  504  502 -0.00000000000E+00 -0.00000000000E+00 -0.45971238857E+03  0.45971238857E+03  0.00000000000E+00 0.  1.
         21    1    1    2  503  506 -0.55268246761E+02 -0.98166342630E+02 -0.65318944751E+02  0.13022201991E+03  0.00000000000E+00 0. -1.
         21    1    1    2  504  505 -0.13545875992E+02  0.36244043459E+02 -0.25168155822E+03  0.25463842638E+03  0.00000000000E+00 0.  1.
         21    1    1    2  505  501  0.85947432547E+02 -0.25205715069E+01  0.91706552372E+01  0.86472049586E+02  0.00000000000E+00 0. -1.
         21    1    1    2  506  502 -0.17133309794E+02  0.64442870678E+02 -0.54280807740E+02  0.85981625797E+02  0.00000000000E+00 0. -1.
<scales pt_clust_3="14000.00000" pt_clust_4="38.69265" pt_clust_5="81.51510" pt_clust_6="79.76652"></scales>
<clustering>
<clus scale="   38.693">  2  4  1 -1</clus>
<clus scale="   79.767">  2  6  1 -1</clus>
<clus scale="   81.515">  1  5  2 -1</clus>
<clus scale="   81.515">  1  3  2 -1</clus>
</clustering>
</event>
<event>
 6    0  0.4390142E+002  0.2149425E+03  0.7546771E-02  0.1137711E+00
         21   -1    0    0  506  501  0.00000000000E+00  0.00000000000E+00  0.43761494100E+03  0.43761494100E+03  0.00000000000E+00 0.  1.
         21   -1    0    0  504  502 -0.00000000000E+00 -0.00000000000E+00 -0.16892430731E+03  0.16892430731E+03  0.00000000000E+00 0.  1.
         21    1    1    2  503  501  0.10893214438E+03 -0.16730944210E+03  0.22646362975E+03  0.30190136981E+03  0.00000000000E+00 0.  1.
         21    1    1    2  504  503  0.30057504691E+02  0.13306595468E+02 -0.54820134185E+02  0.63919998304E+02  0.00000000000E+00 0.  1.
         21    1    1    2  505  502 -0.14117315260E+03  0.11937763461E+03  0.74416830943E+02  0.19929561808E+03  0.00000000000E+00 0.  1.
         21    1    1    2  506  505  0.21835035265E+01  0.34625212024E+02  0.22630307181E+02  0.41422262112E+02  0.00000000000E+00 0.  1.
<scales pt_clust_3="201.76304" pt_clust_4="32.87125" pt_clust_5="32.10293" pt_clust_6="32.10293"></scales>
<clustering>
<clus scale="   32.103">  5  6 -1 -1</clus>
<clus scale="   32.871">  2  4  1 -1</clus>
<clus scale="  201.763">  1  3  2 -1</clus>
<clus scale="  201.763">  1  3  2 -1</clus>
</clustering>
</event>
<event>
 6    0  0.4390142E+002  0.9906274E+02  0.7546771E-02  0.1282279E+00
         21   -1    0    0  503  501  0.00000000000E+00  0.00000000000E+00  0.55628554787E+03  0.55628554787E+03  0.00000000000E+00 0.  1.
         21   -1    0    0  506  502 -0.00000000000E+00 -0.00000000000E+00 -0.11512303529E+04  0.11512303529E+04  0.00000000000E+00 0.  1.
         21    1    1    2  503  504 -0.31760949080E+02 -0.81416646518E+02  0.51169434106E+03  0.51910358012E+03  0.00000000000E+00 0.  1.
         21    1    1    2  504  502 -0.64308076396E+02  0.44644361506E+02 -0.38676716603E+03  0.39461055285E+03  0.00000000000E+00 0.  1.
         21    1    1    2  505  501 -0.36038192040E+02  0.90674449471E+01  0.19667385144E+02  0.42044926945E+02  0.00000000000E+00 0. -1.
         21    1    1    2  506  505  0.13210721752E+03  0.27704840064E+02 -0.73953936524E+03  0.75175684089E+03  0.00000000000E+00 0.  1.
<scales pt_clust_3="14000.00000" pt_clust_4="78.54529" pt_clust_5="37.16140" pt_clust_6="99.06274"></scales>
<clustering>
<clus scale="   37.161">  1  5  2 -1</clus>
<clus scale="   78.545">  2  4  1 -1</clus>
<clus scale="   99.063">  2  6  1 -1</clus>
<clus scale="   37.161">  1  3  2 -1</clus>
</clustering>
</event>
<event>
 6    0  0.4390142E+002  0.5820309E+02  0.7546771E-02  0.1405531E+00
         21   -1    0    0  503  501  0.00000000000E+00  0.00000000000E+00  0.82487778778E+03  0.82487778778E+03  0.00000000000E+00 0. -1.
         21   -1    0    0  504  502 -0.00000000000E+00 -0.00000000000E+00 -0.23388418106E+03  0.23388418106E+03  0.00000000000E+00 0. -1.
         21    1    1    2  503  506  0.41779884976E+02 -0.30619547177E+02  0.66390283149E+03  0.66592047958E+03  0.00000000000E+00 0. -1.
         21    1    1    2  504  501  0.16266862879E+02 -0.34214812992E+02 -0.27939085827E+02  0.47072887875E+02  0.00000000000E+00 0. -1.
         21    1    1    2  505  502  0.28419135761E+02  0.68251160514E+02 -0.17477250633E+03  0.18976642790E+03  0.00000000000E+00 0. -1.
         21    1    1    2  506  505 -0.86465883616E+02 -0.34168003453E+01  0.12980236738E+03  0.15600217349E+03  0.00000000000E+00 0. -1.
<scales pt_clust_3="51.97018" pt_clust_4="37.88488" pt_clust_5="58.20309" pt_clust_6="14000.00000"></scales>
<clustering>
<clus scale="   37.885">  2  4  1 -1</clus>
<clus scale="   51.970">  1  3  2 -1</clus>
<clus scale="   58.203">  2  5  1 -1</clus>
<clus scale="   51.970">  1  3  2 -1</clus>
</clustering>
</event>
<event>
 6    0  0.4390142E+002  0.9098060E+02  0.7546771E-02  0.1300494E+00
         21   -1    0    0  505  501  0.00000000000E+00  0.00000000000E+00  0.60984233910E+03  0.60984233910E+03  0.00000000000E+00 0. -1.
         21   -1    0    0  503  502 -0.00000000000E+00 -0.00000000000E+00 -0.31011835238E+03  0.31011835238E+03  0.00000000000E+00 0.  1.
         21    1    1    2  503  504  0.27220784407E+02 -0.13052012477E+02 -0.37524331944E+02  0.48160166334E+02  0.00000000000E+00 0.  1.
         21    1    1    2  504  501  0.11170158657E+03 -0.84446216768E+00  0.32589726204E+03  0.34450977195E+03  0.00000000000E+00 0. -1.
         21    1    1    2  505  506 -0.78149520818E+02 -0.22957915457E+01  0.25964213808E+03  0.27115799478E+03  0.00000000000E+00 0. -1.
         21    1    1    2  506  502 -0.60772850163E+02  0.16192266191E+02 -0.24829108146E+03  0.25613275842E+03  0.00000000000E+00 0.  1.
<scales pt_clust_3="30.18818" pt_clust_4="14000.00000" pt_clust_5="90.98060" pt_clust_6="35.29971"></scales>
<clustering>
<clus scale="   30.188">  2  3  1 -1</clus>
<clus scale="   35.300">  2  6  1 -1</clus>
<clus scale="   90.981">  1  5  2 -1</clus>
<clus scale="   90.981">  1  3  2 -1</clus>
</clustering>
</event>
<event>
 6    0  0.4390142E+002  0.1203261E+03  0.7546771E-02  0.1242560E+00
         21   -1    0    0  503  501  0.00000000000E+00  0.00000000000E+00  0.55354446330E+02  0.55354446330E+02  0.00000000000E+00 0.  1.
         21   -1    0    0  504  502 -0.00000000000E+00 -0.00000000000E+00 -0.26470980738E+04  0.26470980738E+04  0.00000000000E+00 0. -1.
         21    1    1    2  503  506 -0.64256950205E+02 -0.14819797239E+02  0.40960306785E+00  0.65945051479E+02  0.00000000000E+00 0.  1.
         21    1    1    2  504  501  0.89562860864E+02  0.76805696742E+02 -0.59927601546E+03  0.61078012722E+03  0.00000000000E+00 0. -1.
         21    1    1    2  505  502  0.17310884770E+02 -0.33051514342E+02 -0.19682997483E+04  0.19686533388E+04  0.00000000000E+00 0. -1.
         21    1    1    2  506  505 -0.42616795429E+02 -0.28934385161E+02 -0.24577466737E+02  0.57074002563E+02  0.00000000000E+00 0. -1.
<scales pt_clust_3="30.78402" pt_clust_4="115.17459" pt_clust_5="37.31045" pt_clust_6="30.78402"></scales>
<clustering>
<clus scale="   30.784">  3  6 -1 -1</clus>
<clus scale="   37.310">  2  5  1 -1</clus>
<clus scale="  115.175">  2  4  1 -1</clus>
<clus scale="  120.326">  1  3  2 -1</clus>
</clustering>
</event>
<event>
 6    0  0.4390142E+002  0.1687820E+03  0.7546771E-02  0.1179124E+00
         21   -1    0    0  504  501  0.00000000000E+00  0.00000000000E+00  0.17610674553E+03  0.17610674553E+03  0.00000000000E+00 0. -1.
         21   -1    0    0  505  502 -0.00000000000E+00 -0.00000000000E+00 -0.56726956847E+03  0.56726956847E+03  0.00000000000E+00 0. -1.
         21    1    1    2  503  506 -0.18736944968E+02  0.72014976384E+02  0.36158533655E+02  0.82732517709E+02  0.00000000000E+00 0. -1.
         21    1    1    2  504  502 -0.24637109467E+02 -0.17482906871E+02 -0.16413216484E+03  0.16688920495E+03  0.00000000000E+00 0.  1.
         21    1    1    2  505  503  0.81069923833E+01 -0.14245544050E+03 -0.34197047332E+03  0.37054430298E+03  0.00000000000E+00 0. -1.
         21    1    1    2  506  501  0.35267062052E+02  0.87923370986E+02  0.78781281558E+02  0.12321028835E+03  0.00000000000E+00 0. -1.
<scales pt_clust_3="51.45368" pt_clust_4="30.20992" pt_clust_5="158.55475" pt_clust_6="51.45368"></scales>
<clustering>
<clus scale="   30.210">  2  4  1 -1</clus>
<clus scale="   51.454">  3  6 -1 -1</clus>
<clus scale="  158.555">  2  5  1 -1</clus>
<clus scale="  168.782">  1  3  2 -1</clus>
</clustering>
</event>
<event>
 6    0  0.4390142E+002  0.1051698E+03  0.7546771E-02  0.1269785E+00
         21   -1    0    0  504  501  0.00000000000E+00  0.00000000000E+00  0.26603113957E+03  0.26603113957E+03  0.00000000000E+00 0.  1.
         21   -1    0    0  506  502 -0.00000000000E+00 -0.00000000000E+00 -0.29807966911E+03  0.29807966911E+03  0.00000000000E+00 0.  1.
         21    1    1    2  503  502 -0.69979816560E+02  0.12487498817E+03 -0.16700333513E+03  0.21995693065E+03  0.00000000000E+00 0.  1.
         21    1    1    2  504  503  0.60493985665E+01 -0.76821345526E+02  0.70983115341E+02  0.10476982874E+03  0.00000000000E+00 0.  1.
         21    1    1    2  505  501 -0.27053421475E+02 -0.41163027435E+02  0.12178274497E+03  0.13136711695E+03  0.00000000000E+00 0.  1.
         21    1    1    2  506  505  0.90983839468E+02 -0.68906152110E+01 -0.57811054723E+02  0.10801693233E+03  0.00000000000E+00 0. -1.
<scales pt_clust_3="105.16984" pt_clust_4="14000.00000" pt_clust_5="49.25731" pt_clust_6="87.29334"></scales>
<clustering>
<clus scale="   49.257">  1  5  2 -1</clus>
<clus scale="   87.293">  2  6  1 -1</clus>
<clus scale="  105.170">  2  3  1 -1</clus>
<clus scale="   49.257">  1  3  2 -1</clus>
</clustering>
</event>
<event>
 6    0  0.4390142E+002  0.1053417E+03  0.7546771E-02  0.1269448E+00
         21   -1    0    0  503  501  0.00000000000E+00  0.00000000000E+00  0.15941929936E+03  0.15941929936E+03  0.00000000000E+00 0. -1.
         21   -1    0    0  506  502 -0.00000000000E+00 -0.00000000000E+00 -0.21785784889E+03  0.21785784889E+03  0.00000000000E+00 0. -1.
         21    1    1    2  503  504  0.34385526920E+02  0.81291397165E+02  0.24280033607E+02  0.91543299845E+02  0.00000000000E+00 0. -1.
         21    1    1    2  504  502  0.69999644356E+02 -0.43271751712E+02 -0.12950324960E+03  0.15343886849E+03  0.00000000000E+00 0. -1.
         21    1    1    2  505  501 -0.49688649377E+02 -0.17755044251E+02  0.51554643835E+02  0.73770487149E+02  0.00000000000E+00 0. -1.
         21    1    1    2  506  505 -0.54696521899E+02 -0.20264601202E+02 -0.47699773818E+01  0.58524492769E+02  0.00000000000E+00 0.  1.
<scales pt_clust_3="90.14140" pt_clust_4="82.29456" pt_clust_5="51.84544" pt_clust_6="51.84544"></scales>
<clustering>
<clus scale="   51.845">  5  6 -1 -1</clus>
<clus scale="   82.295">  2  4  1 -1</clus>
<clus scale="   90.141">  1  3  2 -1</clus>
<clus scale="   90.141">  1  3  2 -1</clus>
</clustering>
</event>
<event>
 6    0  0.4390142E+002  0.1064556E+03  0.7546771E-02  0.1267278E+00
         21   -1    0    0  505  501  0.00000000000E+00  0.00000000000E+00  0.48565544025E+03  0.48565544025E+03  0.00000000000E+00 0. -1.
         21   -1    0    0  503  502 -0.00000000000E+00 -0.00000000000E+00 -0.84358191472E+02  0.84358191472E+02  0.00000000000E+00 0. -1.
         21    1    1    2  503  506 -0.56734445957E+01  0.31355876862E+02  0.17951949018E+02  0.36573917768E+02  0.00000000000E+00 0.  1.
         21    1    1    2  504  501  0.63210220457E+02  0.45332968517E+02 -0.20220740471E+02  0.80370942199E+02  0.00000000000E+00 0. -1.
         21    1    1    2  505  502 -0.10527066072E+03 -0.37421776239E+02  0.36132574086E+03  0.37820443196E+03  0.00000000000E+00 0. -1.
         21    1    1    2  506  504  0.47733884858E+02 -0.39267069140E+02  0.42240299374E+02  0.74864339800E+02  0.00000000000E+00 0. -1.
<scales pt_clust_3="31.86501" pt_clust_4="106.45562" pt_clust_5="14000.00000" pt_clust_6="56.70474"></scales>
<clustering>
<clus scale="   31.865">  2  3  1 -1</clus>
<clus scale="   56.705">  2  6  1 -1</clus>
<clus scale="  106.456">  2  4  1 -1</clus>
<clus scale="  106.456">  1  3  2 -1</clus>
</clustering>
</event>
<event>
 6    0  0.4390142E+002  0.7952872E+02  0.7546771E-02  0.1330394E+00
         21   -1    0    0  504  501  0.00000000000E+00  0.00000000000E+00  0.70739422208E+03  0.70739422208E+03  0.00000000000E+00 0. -1.
         21   -1    0    0  505  502 -0.00000000000E+00 -0.00000000000E+00 -0.38087687329E+03  0.38087687329E+03  0.00000000000E+00 0. -1.
         21    1    1    2  503  501  0.20269182417E+02  0.46114272319E+02  0.20121995561E+03  0.20742911175E+03  0.00000000000E+00 0. -1.
         21    1    1    2  504  506 -0.75831109321E+02 -0.26548396894E+02  0.61534471026E+02  0.10120111483E+03  0.00000000000E+00 0. -1.
         21    1    1    2  505  503  0.13379521783E+03 -0.29913935153E+02  0.40594812198E+03  0.42847389835E+03  0.00000000000E+00 0. -1.
         21    1    1    2  506  502 -0.78233290926E+02  0.10348059728E+02 -0.34218519982E+03  0.35116697044E+03  0.00000000000E+00 0. -1.
<scales pt_clust_3="50.37227" pt_clust_4="75.02210" pt_clust_5="14000.00000" pt_clust_6="79.52872"></scales>
<clustering>
<clus scale="   50.372">  1  3  2 -1</clus>
<clus scale="   75.022">  1  4  2 -1</clus>
<clus scale="   79.529">  2  6  1 -1</clus>
<clus scale="   50.372">  1  3  2 -1</clus>
</clustering>
</event>
<event>
 6    0  0.4390142E+002  0.1338830E+03  0.7546771E-02  0.1221805E+00
         21   -1    0    0  503  501  0.00000000000E+00  0.00000000000E+00  0.15895239896E+04  0.15895239896E+04  0.00000000000E+00 0.  1.
         21   -1    0    0  506  502 -0.00000000000E+00 -0.00000000000E+00 -0.89949818589E+03  0.89949818589E+03  0.00000000000E+00 0.  1.
         21    1    1    2  503  505 -0.16812055572E+03 -0.10095151494E+02  0.38991264446E+03  0.42473321468E+03  0.00000000000E+00 0.  1.
         21    1    1    2  504  501  0.11304800243E+03 -0.67127276985E+02  0.11688188931E+04  0.11761902597E+04  0.00000000000E+00 0.  1.
         21    1    1    2  505  502  0.90983816806E+02  0.16154919862E+02 -0.27343831394E+03  0.28863046944E+03  0.00000000000E+00 0.  1.
         21    1    1    2  506  504 -0.35911263511E+02  0.61067508616E+02 -0.59526741996E+03  0.59946823162E+03  0.00000000000E+00 0.  1.
<scales pt_clust_3="133.88300" pt_clust_4="14000.00000" pt_clust_5="92.94296" pt_clust_6="70.84391"></scales>
<clustering>
<clus scale="   70.844">  2  6  1 -1</clus>
<clus scale="   92.943">  2  5  1 -1</clus>
<clus scale="  133.883">  2  3  1 -1</clus>
<clus scale="  133.883">  1  3  2 -1</clus>
</clustering>
</event>
<event>
 6    0  0.4390142E+002  0.7133145E+02  0.7546771E-02  0.1355623E+00
         21   -1    0    0  503  501  0.00000000000E+00  0.00000000000E+00  0.15972988736E+03  0.15972988736E+03  0.00000000000E+00 0. -1.
         21   -1    0    0  504  502 -0.00000000000E+00 -0.00000000000E+00 -0.24831108118E+03  0.24831108118E+03  0.00000000000E+00 0. -1.
         21    1    1    2  503  505  0.81974959915E+01 -0.70685813352E+02  0.91273186067E+02  0.11573451363E+03  0.00000000000E+00 0. -1.
         21    1    1    2  504  506  0.65154997462E+02  0.16775039055E+02  0.54154082122E+01  0.67497424215E+02  0.00000000000E+00 0. -1.
         21    1    1    2  505  502 -0.49140293449E+02 -0.16421456125E+02 -0.91133241328E+02  0.10483177160E+03  0.00000000000E+00 0. -1.
         21    1    1    2  506  501 -0.24212200004E+02  0.70332230422E+02 -0.94136546765E+02  0.11997725910E+03  0.00000000000E+00 0. -1.
<scales pt_clust_3="71.33145" pt_clust_4="56.61300" pt_clust_5="51.81151" pt_clust_6="14000.00000"></scales>
<clustering>
<clus scale="   51.812">  2  5  1 -1</clus>
<clus scale="   56.613">  2  4  1 -1</clus>
<clus scale="   71.331">  1  3  2 -1</clus>
<clus scale="   71.331">  1  3  2 -1</clus>
</clustering>
</event>
<event>
 6    0  0.4390142E+002  0.1649880E+03  0.7546771E-02  0.1183178E+00
         21   -1    0    0  503  501  0.00000000000E+00  0.00000000000E+00  0.93693107067E+03  0.93693107067E+03  0.00000000000E+00 0.  1.
         21   -1    0    0  504  502 -0.00000000000E+00 -0.00000000000E+00 -0.20729629760E+03  0.20729629760E+03  0.00000000000E+00 0. -1.
         21    1    1    2  503  506 -0.79665916434E+02 -0.28667743832E+02  0.56998075802E+03  0.57623481524E+03  0.00000000000E+00 0.  1.
         21    1    1    2  504  501  0.11674504197E+03  0.39863049005E+02 -0.15492081319E+03  0.19803768798E+03  0.00000000000E+00 0. -1.
         21    1    1    2  505  502  0.19793952594E+02  0.40724930745E+02 -0.82698620909E+00  0.45288016623E+02  0.00000000000E+00 0. -1.
         21    1    1    2  506  505 -0.56873078134E+02 -0.51920235918E+02  0.31540181445E+03  0.32466684843E+03  0.00000000000E+00 0.  1.
<scales pt_clust_3="48.30410" pt_clust_4="156.96131" pt_clust_5="45.28047" pt_clust_6="48.30410"></scales>
<clustering>
<clus scale="   45.280">  2  5  1 -1</clus>
<clus scale="   48.304">  3  6 -1 -1</clus>
<clus scale="  156.961">  2  4  1 -1</clus>
<clus scale="  164.988">  1  3  2 -1</clus>
</clustering>
</event>
<event>
 6    0  0.4390142E+002  0.1140832E+03  0.7546771E-02  0.1253190E+00
         21   -1    0    0  504  501  0.00000000000E+00  0.00000000000E+00  0.17041801050E+03  0.17041801050E+03  0.00000000000E+00 0.  1.
         21   -1    0    0  505  502 -0.00000000000E+00 -0.00000000000E+00 -0.36333319823E+03  0.36333319823E+03  0.00000000000E+00 0. -1.
         21    1    1    2  503  501 -0.70925844235E+02 -0.78879678491E+02 -0.11511193389E+03  0.15653509633E+03  0.00000000000E+00 0. -1.
         21    1    1    2  504  506  0.61618185160E+02 -0.26775662998E+02  0.14960067678E+02  0.68829793668E+02  0.00000000000E+00 0.  1.
         21    1    1    2  505  503 -0.65008450160E+02  0.49207655175E+02 -0.16915835480E+03  0.18778189720E+03  0.00000000000E+00 0. -1.
         21    1    1    2  506  502  0.74316109234E+02  0.56447686315E+02  0.76395033283E+02  0.12060442153E+03  0.00000000000E+00 0.  1.
<scales pt_clust_3="14000.00000" pt_clust_4="67.18435" pt_clust_5="76.81029" pt_clust_6="114.08318"></scales>
<clustering>
<clus scale="   67.184">  1  4  2 -1</clus>
<clus scale="   76.810">  2  5  1 -1</clus>
<clus scale="  114.083">  1  6  2 -1</clus>
<clus scale="   67.184">  1  3  2 -1</clus>
</clustering>
</event>
<event>
 6    0  0.4390142E+002  0.1480040E+03  0.7546771E-02  0.1202947E+00
         21   -1    0    0  505  501  0.00000000000E+00  0.00000000000E+00  0.23107729110E+03  0.23107729110E+03  0.00000000000E+00 0. -1.
         21   -1    0    0  506  502 -0.00000000000E+00 -0.00000000000E+00 -0.30588230951E+03  0.30588230951E+03  0.00000000000E+00 0. -1.
         21    1    1    2  503  504 -0.82053589188E+02 -0.84346593286E+02  0.67183090889E+02  0.13550168633E+03  0.00000000000E+00 0. -1.
         21    1    1    2  504  501 -0.43935750897E+02 -0.60986787644E+01  0.59501432629E+02  0.74215662595E+02  0.00000000000E+00 0. -1.
         21    1    1    2  505  502  0.11627364673E+03  0.24788853641E+01 -0.10535517913E+02  0.11677629441E+03  0.00000000000E+00 0. -1.
         21    1    1    2  506  503  0.97156933509E+01  0.87966386687E+02 -0.19095402401E+03  0.21046595727E+03  0.00000000000E+00 0. -1.
<scales pt_clust_3="38.23722" pt_clust_4="38.23722" pt_clust_5="134.26257" pt_clust_6="88.50130"></scales>
<clustering>
<clus scale="   38.237">  3  4 -1 -1</clus>
<clus scale="   88.501">  2  6  1 -1</clus>
<clus scale="  134.263">  2  5  1 -1</clus>
<clus scale="  148.004">  1  3  2 -1</clus>
</clustering>
</event>
<event>
 6    0  0.4390142E+002  0.1132415E+03  0.7546771E-02  0.1254682E+00
         21   -1    0    0  505  501  0.00000000000E+00  0.00000000000E+00  0.24338467261E+03  0.24338467261E+03  0.00000000000E+00 0. -1.
         21   -1    0    0  506  502 -0.00000000000E+00 -0.00000000000E+00 -0.19042153897E+03  0.19042153897E+03  0.00000000000E+00 0. -1.
         21    1    1    2  503  502  0.77601517353E+02 -0.99350907832E+02 -0.12886071583E+03  0.18027113598E+03  0.00000000000E+00 0. -1.
         21    1    1    2  504  503 -0.12191296151E+02  0.49908440081E+02  0.63591854906E+01  0.51767937309E+02  0.00000000000E+00 0.  1.
         21    1    1    2  505  504 -0.36269636034E+02 -0.51636603338E+01  0.80053103418E+02  0.88037771740E+02  0.00000000000E+00 0. -1.
         21    1    1    2  506  501 -0.29140585169E+02  0.54606128085E+02  0.95411560564E+02  0.11372936656E+03  0.00000000000E+00 0. -1.
<scales pt_clust_3="113.24147" pt_clust_4="52.45404" pt_clust_5="36.63536" pt_clust_6="14000.00000"></scales>
<clustering>
<clus scale="   36.635">  1  5  2 -1</clus>
<clus scale="   52.454">  1  4  2 -1</clus>
<clus scale="  113.241">  2  3  1 -1</clus>
<clus scale="   36.635">  1  3  2 -1</clus>
</clustering>
</event>
<event>
 6    0  0.4390142E+002  0.1251408E+03  0.7546771E-02  0.1234849E+00
         21   -1    0    0  503  501  0.00000000000E+00  0.00000000000E+00  0.28185561125E+02  0.28185561125E+02  0.00000000000E+00 0. -1.
         21   -1    0    0  506  502 -0.00000000000E+00 -0.00000000000E+00 -0.84554508073E+03  0.84554508073E+03  0.00000000000E+00 0.  1.
         21    1    1    2  503  505  0.10628532861E+02 -0.46715304234E+02 -0.12674468412E+03  0.13549723360E+03  0.00000000000E+00 0. -1.
         21    1    1    2  504  501 -0.30385657127E+02 -0.20113138311E+02 -0.81514098292E+02  0.89288155497E+02  0.00000000000E+00 0. -1.
         21    1    1    2  505  502  0.83075060900E+01 -0.64438403673E+02 -0.37253804183E+03  0.37816122902E+03  0.00000000000E+00 0.  1.
         21    1    1    2  506  504  0.11449618175E+02  0.13126684622E+03 -0.23656269536E+03  0.27078402373E+03  0.00000000000E+00 0. -1.
<scales pt_clust_3="37.37689" pt_clust_4="36.43935" pt_clust_5="37.37689" pt_clust_6="117.52522"></scales>
<clustering>
<clus scale="   36.439">  1  4  2 -1</clus>
<clus scale="   37.377">  3  5 -1 -1</clus>
<clus scale="  117.525">  1  6  2 -1</clus>
<clus scale="   36.439">  1  3  2 -1</clus>
</clustering>
</event>
<event>
 6    0  0.4390142E+002  0.1341556E+03  0.7546771E-02  0.1221417E+00
         21   -1    0    0  504  501  0.00000000000E+00  0.00000000000E+00  0.98473885093E+03  0.98473885093E+03  0.00000000000E+00 0. -1.
         21   -1    0    0  506  502 -0.00000000000E+00 -0.00000000000E+00 -0.79329461234E+02  0.79329461234E+02  0.00000000000E+00 0. -1.
         21    1    1    2  503  505 -0.11048331817E+02 -0.70879893495E+02  0.46650020068E+03  0.47198354015E+03  0.00000000000E+00 0. -1.
         21    1    1    2  504  503 -0.47584077540E+02 -0.38469920820E+02  0.35407007690E+03  0.35931851970E+03  0.00000000000E+00 0. -1.
         21    1    1    2  505  502  0.53342933866E+02 -0.37881197756E+02  0.60735208374E+01  0.65706479073E+02  0.00000000000E+00 0. -1.
         21    1    1    2  506  501  0.52894754904E+01  0.14723101207E+03  0.78765591282E+02  0.16705977324E+03  0.00000000000E+00 0. -1.
<scales pt_clust_3="44.60382" pt_clust_4="44.60382" pt_clust_5="65.42518" pt_clust_6="125.16127"></scales>
<clustering>
<clus scale="   44.604">  3  4 -1 -1</clus>
<clus scale="   65.425">  2  5  1 -1</clus>
<clus scale="  125.161">  2  6  1 -1</clus>
<clus scale="  134.156">  1  3  2 -1</clus>
</clustering>
</event>
<event>
 6    0  0.4390142E+002  0.1286391E+03  0.7546771E-02  0.1229489E+00
         21   -1    0    0  506  501  0.00000000000E+00  0.00000000000E+00  0.29968782127E+03  0.29968782127E+03  0.00000000000E+00 0. -1.
         21   -1    0    0  505  502 -0.00000000000E+00 -0.00000000000E+00 -0.19244286334E+03  0.19244286334E+03  0.00000000000E+00 0.  1.
         21    1    1    2  503  504  0.86056839482E+02 -0.26321778544E+02 -0.71682896456E+02  0.11505239368E+03  0.00000000000E+00 0.  1.
         21    1    1    2  504  501 -0.37552670988E+02  0.59668160454E+02  0.59591371950E+02  0.92312643128E+02  0.00000000000E+00 0.  1.
         21    1    1    2  505  503  0.17166125059E+02 -0.48972074999E+02 -0.68057128983E+02  0.85584535897E+02  0.00000000000E+00 0.  1.
         21    1    1    2  506  502 -0.65670293553E+02  0.15625693089E+02  0.18739361141E+03  0.19918111190E+03  0.00000000000E+00 0. -1.
<scales pt_clust_3="50.39248" pt_clust_4="110.20097" pt_clust_5="50.39248" pt_clust_6="67.50370"></scales>
<clustering>
<clus scale="   50.392">  3  5 -1 -1</clus>
<clus scale="   67.504">  1  6  2 -1</clus>
<clus scale="  110.201">  1  4  2 -1</clus>
<clus scale="   67.504">  1  3  2 -1</clus>
</clustering>
</event>
<event>
 6    0  0.4390142E+002  0.6355334E+02  0.7546771E-02  0.1383497E+00
         21   -1    0    0  503  501  0.00000000000E+00  0.00000000000E+00  0.11851059583E+04  0.11851059583E+04  0.00000000000E+00 0.  1.
         21   -1    0    0  505  502 -0.00000000000E+00 -0.00000000000E+00 -0.24669854002E+02  0.24669854002E+02  0.00000000000E+00 0.  1.
         21    1    1    2  503  504  0.14685528504E+02  0.47562652597E+02  0.41894980521E+03  0.42189668161E+03  0.00000000000E+00 0.  1.
         21    1    1    2  504  502  0.25664362365E+02  0.31464905499E+02  0.10353878555E+03  0.11121591561E+03  0.00000000000E+00 0.  1.
         21    1    1    2  505  506  0.29701133651E+02  0.27177417385E+02  0.18536862071E+02  0.44321378717E+02  0.00000000000E+00 0.  1.
         21    1    1    2  506  501 -0.70051024520E+02 -0.10620497548E+03  0.61941065142E+03  0.63234183631E+03  0.00000000000E+00 0.  1.
<scales pt_clust_3="14000.00000" pt_clust_4="53.62044" pt_clust_5="40.25878" pt_clust_6="63.55334"></scales>
<clustering>
<clus scale="   40.259">  2  5  1 -1</clus>
<clus scale="   53.620">  2  4  1 -1</clus>
<clus scale="   63.553">  2  6  1 -1</clus>
<clus scale="   63.553">  1  3  2 -1</clus>
</clustering>
</event>
<event>
 6    0  0.4390142E+002  0.8453090E+02  0.7546771E-02  0.1316664E+00
         21   -1    0    0  506  501  0.00000000000E+00  0.00000000000E+00  0.35274239913E+03  0.35274239913E+03  0.00000000000E+00 0. -1.
         21   -1    0    0  504  502 -0.00000000000E+00 -0.00000000000E+00 -0.12507344961E+03  0.12507344961E+03  0.00000000000E+00 0. -1.
         21    1    1    2  503  501 -0.68514379278E+02  0.31299092146E+02  0.20031722482E+03  0.21401131722E+03  0.00000000000E+00 0. -1.
         21    1    1    2  504  503  0.30568779807E+02  0.69537656058E+02 -0.38458637767E+02  0.85141075444E+02  0.00000000000E+00 0. -1.
         21    1    1    2  505  502  0.13404342574E+02 -0.12183183186E+03  0.22464690395E+02  0.12460872349E+03  0.00000000000E+00 0. -1.
         21    1    1    2  506  505  0.24541256896E+02  0.20995083660E+02  0.43345672062E+02  0.54054732581E+02  0.00000000000E+00 0. -1.
<scales pt_clust_3="69.00911" pt_clust_4="14000.00000" pt_clust_5="84.53090" pt_clust_6="32.29655"></scales>
<clustering>
<clus scale="   32.297">  1  6  2 -1</clus>
<clus scale="   69.009">  1  3  2 -1</clus>
<clus scale="   84.531">  1  5  2 -1</clus>
<clus scale="   32.297">  1  3  2 -1</clus>
</clustering>
</event>
<event>
 6    0  0.4390142E+002  0.8310215E+02  0.7546771E-02  0.1320472E+00
         21   -1    0    0  505  501  0.00000000000E+00  0.00000000000E+00  0.19591163564E+03  0.19591163564E+03  0.00000000000E+00 0.  1.
         21   -1    0    0  503  502 -0.00000000000E+00 -0.00000000000E+00 -0.56190148046E+03  0.56190148046E+03  0.00000000000E+00 0. -1.
         21    1    1    2  503  504  0.49949140144E+02 -0.10684329613E+03 -0.39217490662E+03  0.40952602348E+03  0.00000000000E+00 0. -1.
         21    1    1    2  504  501  0.24262871831E+02  0.50719176164E+02  0.14291474784E+03  0.15357651816E+03  0.00000000000E+00 0.  1.
         21    1    1    2  505  506 -0.33443874198E+01  0.32771669797E+02  0.20291665987E+02  0.38690037180E+02  0.00000000000E+00 0.  1.
         21    1    1    2  506  502 -0.70867624555E+02  0.23352450170E+02 -0.13702135203E+03  0.15602053727E+03  0.00000000000E+00 0. -1.
<scales pt_clust_3="83.10215" pt_clust_4="14000.00000" pt_clust_5="32.94188" pt_clust_6="75.40239"></scales>
<clustering>
<clus scale="   32.942">  1  5  2 -1</clus>
<clus scale="   75.402">  2  6  1 -1</clus>
<clus scale="   83.102">  2  3  1 -1</clus>
<clus scale="   32.942">  1  3  2 -1</clus>
</clustering>
</event>
<event>
 6    0  0.4390142E+002  0.1435603E+03  0.7546771E-02  0.1208617E+00
         21   -1    0    0  506  501  0.00000000000E+00  0.00000000000E+00  0.33052540566E+03  0.33052540566E+03  0.00000000000E+00 0.  1.
         21   -1    0    0  503  502 -0.00000000000E+00 -0.00000000000E+00 -0.29918656967E+03  0.29918656967E+03  0.00000000000E+00 0.  1.
         21    1    1    2  503  501  0.13442519244E+03  0.83117145558E+02 -0.17467002861E+03  0.23555935801E+03  0.00000000000E+00 0.  1.
         21    1    1    2  504  505 -0.44586911755E+02 -0.30784256162E+02  0.54209814427E+02  0.76644419937E+02  0.00000000000E+00 0.  1.
         21    1    1    2  505  502 -0.83498577564E+02 -0.91779774722E+02 -0.33038442167E+02  0.12840201776E+03  0.00000000000E+00 0.  1.
         21    1    1    2  506  504 -0.63397031253E+01  0.39446885326E+02  0.18483749234E+03  0.18910617963E+03  0.00000000000E+00 0.  1.
<scales pt_clust_3="143.56030" pt_clust_4="49.17304" pt_clust_5="14000.00000" pt_clust_6="39.95308"></scales>
<clustering>
<clus scale="   39.953">  1  6  2 -1</clus>
<clus scale="   49.173">  1  4  2 -1</clus>
<clus scale="  143.560">  2  3  1 -1</clus>
<clus scale="   39.953">  1  3  2 -1</clus>
</clustering>
</event>
<event>
 6    0  0.4390142E+002  0.9145568E+02  0.7546771E-02  0.1299364E+00
         21   -1    0    0  506  501  0.00000000000E+00  0.00000000000E+00  0.36045305016E+03  0.36045305016E+03  0.00000000000E+00 0.  1.
         21   -1    0    0  505  502 -0.00000000000E+00 -0.00000000000E+00 -0.33486685806E+03  0.33486685806E+03  0.00000000000E+00 0.  1.
         21    1    1    2  503  502 -0.72937164056E+02  0.18504306696E+02 -0.19486650395E+03  0.20889038663E+03  0.00000000000E+00 0.  1.
         21    1    1    2  504  503  0.40747820982E+02  0.17180481558E+02  0.16935900323E+03  0.17503721272E+03  0.00000000000E+00 0.  1.
         21    1    1    2  505  501  0.22634784912E+02 -0.83007187479E+02 -0.11204063098E+03  0.14126439626E+03  0.00000000000E+00 0.  1.
         21    1    1    2  506  504  0.95545581618E+01  0.47322399226E+02  0.16313432379E+03  0.17012791260E+03  0.00000000000E+00 0.  1.
<scales pt_clust_3="75.24785" pt_clust_4="41.67619" pt_clust_5="80.42351" pt_clust_6="41.67619"></scales>
<clustering>
<clus scale="   41.676">  4  6 -1 -1</clus>
<clus scale="   75.248">  2  3  1 -1</clus>
<clus scale="   80.424">  2  5  1 -1</clus>
<clus scale="   91.456">  1  3  2 -1</clus>
</clustering>
</event>
<event>
 6    0  0.4390142E+002  0.8181756E+02  0.7546771E-02  0.1323971E+00
         21   -1    0    0  506  501  0.00000000000E+00  0.00000000000E+00  0.22614758301E+03  0.22614758301E+03  0.00000000000E+00 0. -1.
         21   -1    0    0  505  502 -0.00000000000E+00 -0.00000000000E+00 -0.82262269989E+03  0.82262269989E+03  0.00000000000E+00 0.  1.
         21    1    1    2  503  501  0.89647542613E+02  0.61778280708E+02  0.15681219663E+03  0.19090129092E+03  0.00000000000E+00 0. -1.
         21    1    1    2  504  502 -0.11693173301E+03 -0.24247662754E+02 -0.11501581306E+03  0.16579992940E+03  0.00000000000E+00 0. -1.
         21    1    1    2  505  503  0.68692944088E+02 -0.30264344521E+02 -0.64512087166E+03  0.64947331752E+03  0.00000000000E+00 0.  1.
         21    1    1    2  506  504 -0.41408753694E+02 -0.72662734333E+01  0.68493712120E+01  0.42595745070E+02  0.00000000000E+00 0. -1.
<scales pt_clust_3="14000.00000" pt_clust_4="81.81756" pt_clust_5="74.68698" pt_clust_6="42.04145"></scales>
<clustering>
<clus scale="   42.041">  1  6  2 -1</clus>
<clus scale="   74.687">  2  5  1 -1</clus>
<clus scale="   81.818">  2  4  1 -1</clus>
<clus scale="   42.041">  1  3  2 -1</clus>
</clustering>
</event>
<event>
 6    0  0.4390142E+002  0.1852087E+03  0.7546771E-02  0.1162855E+00
         21   -1    0    0  504  501  0.00000000000E+00  0.00000000000E+00  0.30138690357E+03  0.30138690357E+03  0.00000000000E+00 0.  1.
         21   -1    0    0  506  502 -0.00000000000E+00 -0.00000000000E+00 -0.18254485747E+03  0.18254485747E+03  0.00000000000E+00 0.  1.
         21    1    1    2  503  502 -0.20323474493E+02 -0.31137832872E+02 -0.20690737506E+02  0.42552495461E+02  0.00000000000E+00 0.  1.
         21    1    1    2  504  505 -0.23482663245E+02 -0.28546750124E+02  0.30994201488E+02  0.48238915220E+02  0.00000000000E+00 0. -1.
         21    1    1    2  505  503 -0.16312212130E+03  0.49451626427E+02  0.55768760194E+02  0.17934448536E+03  0.00000000000E+00 0.  1.
         21    1    1    2  506  501  0.20692825904E+03  0.10232956569E+02  0.52769821925E+02  0.21379586501E+03  0.00000000000E+00 0.  1.
<scales pt_clust_3="38.71800" pt_clust_4="36.96420" pt_clust_5="185.20869" pt_clust_6="14000.00000"></scales>
<clustering>
<clus scale="   36.964">  1  4  2 -1</clus>
<clus scale="   38.718">  2  3  1 -1</clus>
<clus scale="  185.209">  1  5  2 -1</clus>
<clus scale="   36.964">  1  3  2 -1</clus>
</clustering>
</event>
<event>
 6    0  0.4390142E+002  0.1245817E+03  0.7546771E-02  0.1235724E+00
         21   -1    0    0  505  501  0.00000000000E+00  0.00000000000E+00  0.52656201364E+03  0.52656201364E+03  0.00000000000E+00 0. -1.
         21   -1    0    0  503  502 -0.00000000000E+00 -0.00000000000E+00 -0.16839494821E+03  0.16839494821E+03  0.00000000000E+00 0. -1.
         21    1    1    2  503  504 -0.73561714349E+02 -0.10617355697E+03 -0.74559732497E+01  0.12938215315E+03  0.00000000000E+00 0. -1.
         21    1    1    2  504  501 -0.25187586477E+00  0.32734018860E+02  0.18868506626E+03  0.19150361266E+03  0.00000000000E+00 0. -1.
         21    1    1    2  505  506 -0.39751386168E+02  0.15066838128E+02  0.23138584561E+03  0.23525856384E+03  0.00000000000E+00 0. -1.
         21    1    1    2  506  502  0.11356497638E+03  0.58372699983E+02 -0.54447873190E+02  0.13881263220E+03  0.00000000000E+00 0. -1.
<scales pt_clust_3="14000.00000" pt_clust_4="32.73499" pt_clust_5="54.95788" pt_clust_6="124.58168"></scales>
<clustering>
<clus scale="   32.735">  1  4  2 -1</clus>
<clus scale="   54.958">  1  5  2 -1</clus>
<clus scale="  124.582">  2  6  1 -1</clus>
<clus scale="   32.735">  1  3  2 -1</clus>
</clustering>
</event>
<event>
 6    0  0.4390142E+002  0.1412495E+03  0.7546771E-02  0.1211657E+00
         21   -1    0    0  506  501  0.00000000000E+00  0.00000000000E+00  0.18758844969E+03  0.18758844969E+03  0.00000000000E+00 0.  1.
         21   -1    0    0  504  502 -0.00000000000E+00 -0.00000000000E+00 -0.21865339892E+04  0.21865339892E+04  0.00000000000E+00 0. -1.
         21    1    1    2  503  502 -0.12317251099E+03 -0.12330466140E+03 -0.30782565109E+03  0.35374021323E+03  0.00000000000E+00 0. -1.
         21    1    1    2  504  505  0.84751110052E+02 -0.10362921899E+02 -0.17695181265E+04  0.17715768515E+04  0.00000000000E+00 0. -1.
         21    1    1    2  505  501  0.38344689350E+02 -0.28527610392E+01 -0.48857006114E+02  0.62172827612E+02  0.00000000000E+00 0. -1.
         21    1    1    2  506  503  0.76711585903E-01  0.13652034433E+03  0.12725524411E+03  0.18663254661E+03  0.00000000000E+00 0.  1.
<scales pt_clust_3="14000.00000" pt_clust_4="85.60083" pt_clust_5="38.45066" pt_clust_6="141.24952"></scales>
<clustering>
<clus scale="   38.451">  1  5  2 -1</clus>
<clus scale="   85.601">  2  4  1 -1</clus>
<clus scale="  141.250">  1  6  2 -1</clus>
<clus scale="   38.451">  1  3  2 -1</clus>
</clustering>
</event>
<event>
 6    0  0.4390142E+002  0.2097359E+03  0.7546771E-02  0.1141775E+00
         21   -1    0    0  506  501  0.00000000000E+00  0.00000000000E+00  0.86747894771E+03  0.86747894771E+03  0.00000000000E+00 0.  1.
         21   -1    0    0  505  502 -0.00000000000E+00 -0.00000000000E+00 -0.52152062120E+02  0.52152062120E+02  0.00000000000E+00 0.  1.
         21    1    1    2  503  502  0.27968700515E+02  0.85819082451E+02  0.23582382547E+03  0.25250750441E+03  0.00000000000E+00 0.  1.
         21    1    1    2  504  501 -0.79977254358E+02 -0.40131563328E+02  0.16428118050E+03  0.18707006670E+03  0.00000000000E+00 0.  1.
         21    1    1    2  505  504 -0.64276002941E+02 -0.72809360326E+02  0.85562810126E+02  0.12943570598E+03  0.00000000000E+00 0.  1.
         21    1    1    2  506  503  0.11628455678E+03  0.27121841203E+02  0.32965906950E+03  0.35061773275E+03  0.00000000000E+00 0.  1.
<scales pt_clust_3="88.77011" pt_clust_4="62.12627" pt_clust_5="194.30359" pt_clust_6="88.77011"></scales>
<clustering>
<clus scale="   62.126">  4  5 -1 -1</clus>
<clus scale="   88.770">  3  6 -1 -1</clus>
<clus scale="  194.304">  2  4  1 -1</clus>
<clus scale="  209.736">  1  3  2 -1</clus>
</clustering>
</event>
<event>
 6    0  0.4390142E+002  0.1839877E+03  0.7546771E-02  0.1163999E+00
         21   -1    0    0  506  501  0.00000000000E+00  0.00000000000E+00  0.41951410337E+03  0.41951410337E+03  0.00000000000E+00 0.  1.
         21   -1    0    0  504  502 -0.00000000000E+00 -0.00000000000E+00 -0.95914280256E+03  0.95914280256E+03  0.00000000000E+00 0.  1.
         21    1    1    2  503  505  0.23852806319E+02  0.23496075201E+03 -0.13641425077E+03  0.27273496140E+03  0.00000000000E+00 0.  1.
         21    1    1    2  504  503 -0.14116745100E+01 -0.57350638158E+02 -0.72499949529E+03  0.72726567133E+03  0.00000000000E+00 0.  1.
         21    1    1    2  505  501  0.24357289665E+02 -0.18229225168E+02  0.28989156148E+02  0.42023248140E+02  0.00000000000E+00 0.  1.
         21    1    1    2  506  502 -0.46798421474E+02 -0.15938088868E+03  0.29279589073E+03  0.33663302505E+03  0.00000000000E+00 0.  1.
<scales pt_clust_3="14000.00000" pt_clust_4="57.42006" pt_clust_5="30.42338" pt_clust_6="183.98769"></scales>
<clustering>
<clus scale="   30.423">  1  5  2 -1</clus>
<clus scale="   57.420">  2  4  1 -1</clus>
<clus scale="  183.988">  1  6  2 -1</clus>
<clus scale="   30.423">  1  3  2 -1</clus>
</clustering>
</event>
<event>
 6    0  0.4390142E+002  0.9281263E+02  0.7546771E-02  0.1296180E+00
         21   -1    0    0  505  501  0.00000000000E+00  0.00000000000E+00  0.27303376805E+03  0.27303376805E+03  0.00000000000E+00 0. -1.
         21   -1    0    0  504  502 -0.00000000000E+00 -0.00000000000E+00 -0.35227545559E+03  0.35227545559E+03  0.00000000000E+00 0. -1.
         21    1    1    2  503  506  0.36365623873E+02 -0.82807954888E+02  0.18087824415E+03  0.20222896726E+03  0.00000000000E+00 0. -1.
         21    1    1    2  504  503 -0.78733195950E+02 -0.48230562469E+01 -0.27863992599E+03  0.28959003155E+03  0.00000000000E+00 0. -1.
         21    1    1    2  505  502 -0.53243773587E+01  0.55857156059E+02 -0.25102190157E+02  0.61469430028E+02  0.00000000000E+00 0.  1.
         21    1    1    2  506  501  0.47691949435E+02  0.31773855076E+02  0.43622184461E+02  0.72020794806E+02  0.00000000000E+00 0. -1.
<scales pt_clust_3="92.81263" pt_clust_4="14000.00000" pt_clust_5="56.11035" pt_clust_6="58.57071"></scales>
<clustering>
<clus scale="   56.110">  2  5  1 -1</clus>
<clus scale="   58.571">  1  6  2 -1</clus>
<clus scale="   92.813">  1  3  2 -1</clus>
<clus scale="   58.571">  1  3  2 -1</clus>
</clustering>
</event>
<event>
 6    0  0.4390142E+002  0.1072747E+03  0.7546771E-02  0.1265702E+00
         21   -1    0    0  503  501  0.00000000000E+00  0.00000000000E+00  0.16872125738E+03  0.16872125738E+03  0.00000000000E+00 0.  1.
         21   -1    0    0  506  502 -0.00000000000E+00 -0.00000000000E+00 -0.33860730101E+03  0.33860730101E+03  0.00000000000E+00 0.  1.
         21    1    1    2  503  504  0.37571611376E+02 -0.38651050332E+02  0.96469800650E+02  0.11050770159E+03  0.00000000000E+00 0.  1.
         21    1    1    2  504  505  0.40379844200E+02 -0.22337562017E+02  0.29809382992E+02  0.54937216973E+02  0.00000000000E+00 0.  1.
         21    1    1    2  505  502 -0.10931100659E+03  0.30021791788E+02 -0.26404094637E+03  0.28734617712E+03  0.00000000000E+00 0.  1.
         21    1    1    2  506  501  0.31359551017E+02  0.30966820560E+02 -0.32124280892E+02  0.54537462706E+02  0.00000000000E+00 0.  1.
<scales pt_clust_3="37.35052" pt_clust_4="37.35052" pt_clust_5="99.38973" pt_clust_6="44.07227"></scales>
<clustering>
<clus scale="   37.351">  3  4 -1 -1</clus>
<clus scale="   44.072">  2  6  1 -1</clus>
<clus scale="   99.390">  2  5  1 -1</clus>
<clus scale="  107.275">  1  3  2 -1</clus>
</clustering>
</event>
<event>
 6    0  0.4390142E+002  0.1116288E+03  0.7546771E-02  0.1257583E+00
         21   -1    0    0  504  501  0.00000000000E+00  0.00000000000E+00  0.19355519396E+04  0.19355519396E+04  0.00000000000E+00 0.  1.
         21   -1    0    0  503  502 -0.00000000000E+00 -0.00000000000E+00 -0.15697531347E+03  0.15697531347E+03  0.00000000000E+00 0.  1.
         21    1    1    2  503  505 -0.23192263785E+02  0.24114270527E+02  0.37023483136E+02  0.49901076602E+02  0.00000000000E+00 0.  1.
         21    1    1    2  504  506 -0.28443723738E+02 -0.98193005332E+02  0.73504120302E+03  0.74211621857E+03  0.00000000000E+00 0.  1.
         21    1    1    2  505  501 -0.18310626564E+02  0.12462830652E+03  0.11370595278E+04  0.11440156746E+04  0.00000000000E+00 0.  1.
         21    1    1    2  506  502  0.69946614086E+02 -0.50549571717E+02 -0.13054758785E+03  0.15649428333E+03  0.00000000000E+00 0.  1.
<scales pt_clust_3="33.45712" pt_clust_4="111.62885" pt_clust_5="14000.00000" pt_clust_6="55.20608"></scales>
<clustering>
<clus scale="   33.457">  2  3  1 -1</clus>
<clus scale="   55.206">  2  6  1 -1</clus>
<clus scale="  111.629">  2  4  1 -1</clus>
<clus scale="  111.629">  1  3  2 -1</clus>
</clustering>
</event>
<event>
 6    0  0.4390142E+002  0.1742437E+03  0.7546771E-02  0.1173493E+00
         21   -1    0    0  506  501  0.00000000000E+00  0.00000000000E+00  0.52928990149E+03  0.52928990149E+03  0.00000000000E+00 0.  1.
         21   -1    0    0  504  502 -0.00000000000E+00 -0.00000000000E+00 -0.27428296299E+03  0.27428296299E+03  0.00000000000E+00 0.  1.
         21    1    1    2  503  501  0.61270487200E+02  0.21404765982E+02  0.51411684397E+02  0.82797330277E+02  0.00000000000E+00 0.  1.
         21    1    1    2  504  503 -0.51319919879E+02  0.10931153548E+03  0.11633507453E+03  0.16768003916E+03  0.00000000000E+00 0. -1.
         21    1    1    2  505  502  0.95991068479E+02 -0.16353102651E+03 -0.18141629385E+03  0.26242818738E+03  0.00000000000E+00 0.  1.
         21    1    1    2  506  505 -0.10594163580E+03  0.32814725045E+02  0.26867647342E+03  0.29066730767E+03  0.00000000000E+00 0.  1.
<scales pt_clust_3="64.90175" pt_clust_4="174.24368" pt_clust_5="14000.00000" pt_clust_6="82.68731"></scales>
<clustering>
<clus scale="   64.902">  1  3  2 -1</clus>
<clus scale="   82.687">  1  6  2 -1</clus>
<clus scale="  174.244">  1  4  2 -1</clus>
<clus scale="   64.902">  1  3  2 -1</clus>
</clustering>
</event>
<event>
 6    0  0.4390142E+002  0.1430282E+03  0.7546771E-02  0.1209311E+00
         21   -1    0    0  503  501  0.00000000000E+00  0.00000000000E+00  0.12866321001E+04  0.12866321001E+04  0.00000000000E+00 0.  1.
         21   -1    0    0  506  502 -0.00000000000E+00 -0.00000000000E+00 -0.45138795275E+02  0.45138795275E+02  0.00000000000E+00 0. -1.
         21    1    1    2  503  502 -0.12480561846E+03 -0.81935035921E+02  0.13730771070E+03  0.20283786611E+03  0.00000000000E+00 0. -1.
         21    1    1    2  504  505  0.32201265055E+02  0.40266995093E+02  0.44706630485E+03  0.45002959158E+03  0.00000000000E+00 0. -1.
         21    1    1    2  505  501  0.88542275258E+02  0.78118921973E+01  0.62741749592E+03  0.63368247124E+03  0.00000000000E+00 0.  1.
         21    1    1    2  506  504  0.40620781516E+01  0.33856148630E+02  0.29701793399E+02  0.45220966488E+02  0.00000000000E+00 0. -1.
<scales pt_clust_3="132.02747" pt_clust_4="42.21071" pt_clust_5="42.21071" pt_clust_6="34.09896"></scales>
<clustering>
<clus scale="   34.099">  2  6  1 -1</clus>
<clus scale="   42.211">  4  5 -1 -1</clus>
<clus scale="  132.027">  2  3  1 -1</clus>
<clus scale="  143.028">  1  3  2 -1</clus>
</clustering>
</event>
<event>
 6    0  0.4390142E+002  0.1285227E+03  0.7546771E-02  0.1229664E+00
         21   -1    0    0  505  501  0.00000000000E+00  0.00000000000E+00  0.20110882119E+03  0.20110882119E+03  0.00000000000E+00 0.  1.
         21   -1    0    0  506  502 -0.00000000000E+00 -0.00000000000E+00 -0.40325537544E+03  0.40325537544E+03  0.00000000000E+00 0.  1.
         21    1    1    2  503  502  0.29456795114E+02  0.77862457613E+02 -0.18886144363E+03  0.20639503379E+03  0.00000000000E+00 0.  1.
         21    1    1    2  504  501  0.35521927030E+02 -0.54912200054E+02  0.10285445493E+03  0.12188599556E+03  0.00000000000E+00 0.  1.
         21    1    1    2  505  503 -0.76655332884E+02  0.42119381388E+02 -0.16975669418E+03  0.19096444059E+03  0.00000000000E+00 0.  1.
         21    1    1    2  506  504  0.11676610740E+02 -0.65069638946E+02  0.53617128625E+02  0.85118726688E+02  0.00000000000E+00 0.  1.
<scales pt_clust_3="83.24821" pt_clust_4="41.53971" pt_clust_5="121.54762" pt_clust_6="41.53971"></scales>
<clustering>
<clus scale="   41.540">  4  6 -1 -1</clus>
<clus scale="   83.248">  2  3  1 -1</clus>
<clus scale="  121.548">  2  5  1 -1</clus>
<clus scale="  128.523">  1  3  2 -1</clus>
</clustering>
</event>
<event>
 6    0  0.4390142E+002  0.9077248E+02  0.7546771E-02  0.1300992E+00
         21   -1    0    0  504  501  0.00000000000E+00  0.00000000000E+00  0.46077133338E+02  0.46077133338E+02  0.00000000000E+00 0. -1.
         21   -1    0    0  505  502 -0.00000000000E+00 -0.00000000000E+00 -0.93131740701E+03  0.93131740701E+03  0.00000000000E+00 0. -1.
         21    1    1    2  503  502 -0.10004132978E+03  0.61741158432E+02 -0.65255973950E+03  0.66306444025E+03  0.00000000000E+00 0. -1.
         21    1    1    2  504  506 -0.15072640732E+02 -0.34425672498E+02 -0.65662556264E+01  0.38150060793E+02  0.00000000000E+00 0. -1.
         21    1    1    2  505  501  0.46863637043E+02 -0.22874306926E+02 -0.14999131292E+02  0.54262402580E+02  0.00000000000E+00 0. -1.
         21    1    1    2  506  503  0.68250333465E+02 -0.44411790078E+01 -0.21111514726E+03  0.22191763673E+03  0.00000000000E+00 0. -1.
<scales pt_clust_3="90.77248" pt_clust_4="37.58073" pt_clust_5="58.46391" pt_clust_6="14000.00000"></scales>
<clustering>
<clus scale="   37.581">  1  4  2 -1</clus>
<clus scale="   58.464">  1  5  2 -1</clus>
<clus scale="   90.772">  2  3  1 -1</clus>
<clus scale="   37.581">  1  3  2 -1</clus>
</clustering>
</event>
<event>
 6    0  0.4390142E+002  0.9220267E+02  0.7546771E-02  0.1297604E+00
         21   -1    0    0  505  501  0.00000000000E+00  0.00000000000E+00  0.13519691080E+04  0.13519691080E+04  0.00000000000E+00 0.  1.
         21   -1    0    0  503  502 -0.00000000000E+00 -0.00000000000E+00 -0.21217119231E+02  0.21217119231E+02  0.00000000000E+00 0.  1.
         21    1    1    2  503  504 -0.42438927591E+02  0.82565853977E+01  0.12694757354E+03  0.13410786780E+03  0.00000000000E+00 0.  1.
         21    1    1    2  504  501  0.61972660404E+02 -0.18658035591E+02  0.37380757424E+03  0.37936899648E+03  0.00000000000E+00 0.  1.
         21    1    1    2  505  506 -0.75318812591E+02 -0.69521031597E+02  0.61720579268E+03  0.62565892296E+03  0.00000000000E+00 0.  1.
         21    1    1    2  506  502  0.55785079778E+02  0.79922481790E+02  0.21279104832E+03  0.23405044001E+03  0.00000000000E+00 0.  1.
<scales pt_clust_3="43.23464" pt_clust_4="57.94215" pt_clust_5="92.20267" pt_clust_6="14000.00000"></scales>
<clustering>
<clus scale="   43.235">  2  3  1 -1</clus>
<clus scale="   57.942">  1  4  2 -1</clus>
<clus scale="   92.203">  1  5  2 -1</clus>
<clus scale="   57.942">  1  3  2 -1</clus>
</clustering>
</event>
<event>
 6    0  0.4390142E+002  0.8769590E+02  0.7546771E-02  0.1308529E+00
         21   -1    0    0  506  501  0.00000000000E+00  0.00000000000E+00  0.47175722526E+02  0.47175722526E+02  0.00000000000E+00 0.  1.
         21   -1    0    0  503  502 -0.00000000000E+00 -0.00000000000E+00 -0.10092085750E+04  0.10092085750E+04  0.00000000000E+00 0. -1.
         21    1    1    2  503  505  0.11182106327E+03  0.39100491221E+02 -0.20027533059E+03  0.23268649864E+03  0.00000000000E+00 0.  1.
         21    1    1    2  504  501 -0.37073237390E+02 -0.63562875276E+01 -0.28775641697E+02  0.47358894379E+02  0.00000000000E+00 0.  1.
         21    1    1    2  505  504 -0.25415051961E+02 -0.69528508191E+02 -0.47185766361E+02  0.87787441383E+02  0.00000000000E+00 0.  1.
         21    1    1    2  506  502 -0.49332773917E+02  0.36784304498E+02 -0.68579611380E+03  0.68855146311E+03  0.00000000000E+00 0. -1.
<scales pt_clust_3="14000.00000" pt_clust_4="37.61419" pt_clust_5="87.69590" pt_clust_6="62.48754"></scales>
<clustering>
<clus scale="   37.614">  1  4  2 -1</clus>
<clus scale="   62.488">  2  6  1 -1</clus>
<clus scale="   87.696">  1  5  2 -1</clus>
<clus scale="   37.614">  1  3  2 -1</clus>
</clustering>
</event>
<event>
 6    0  0.4390142E+002  0.1162377E+03  0.7546771E-02  0.1249436E+00
         21   -1    0    0  505  501  0.00000000000E+00  0.00000000000E+00  0.11475311104E+03  0.11475311104E+03  0.00000000000E+00 0.  1.
         21   -1    0    0  503  502 -0.00000000000E+00 -0.00000000000E+00 -0.12924062618E+04  0.12924062618E+04  0.00000000000E+00 0.  1.
         21    1    1    2  503  501  0.29744927318E+02 -0.54867171188E+01 -0.64240565569E+02  0.71005035248E+02  0.00000000000E+00 0.  1.
         21    1    1    2  504  502 -0.22122507255E+02 -0.10492586236E+03 -0.11912799262E+04  0.11960964445E+04  0.00000000000E+00 0.  1.
         21    1    1    2  505  506 -0.21857790508E+02  0.56266668657E+02  0.38007529935E+02  0.71332133989E+02  0.00000000000E+00 0.  1.
         21    1    1    2  506  504  0.14235370446E+02  0.54145910821E+02  0.39859811068E+02  0.68725759135E+02  0.00000000000E+00 0.  1.
<scales pt_clust_3="30.24673" pt_clust_4="110.48690" pt_clust_5="34.84581" pt_clust_6="34.84581"></scales>
<clustering>
<clus scale="   30.247">  2  3  1 -1</clus>
<clus scale="   34.846">  5  6 -1 -1</clus>
<clus scale="  110.487">  2  4  1 -1</clus>
<clus scale="  116.238">  1  3  2 -1</clus>
</clustering>
</event>
<event>
 6    0  0.4390142E+002  0.1769341E+03  0.7546771E-02  0.1170804E+00
         21   -1    0    0  506  501  0.00000000000E+00  0.00000000000E+00  0.14389253659E+03  0.14389253659E+03  0.00000000000E+00 0.  1.
         21   -1    0    0  504  502 -0.00000000000E+00 -0.00000000000E+00 -0.29645106930E+03  0.29645106930E+03  0.00000000000E+00 0.  1.
         21    1    1    2  503  505  0.18427419406E+02  0.31963353262E+02 -0.11116253076E+02  0.38533061391E+02  0.00000000000E+00 0. -1.
         21    1    1    2  504  501 -0.10524520143E+03 -0.11882709857E+03 -0.20174019500E+03  0.25670126228E+03  0.00000000000E+00 0.  1.
         21    1    1    2  505  502  0.28876337767E+02  0.59328521488E+02  0.42678557235E+02  0.78582285488E+02  0.00000000000E+00 0.  1.
         21    1    1    2  506  503  0.57941444254E+02  0.27535223817E+02  0.17619358130E+02  0.66526996729E+02  0.00000000000E+00 0.  1.
<scales pt_clust_3="30.55233" pt_clust_4="158.73384" pt_clust_5="45.42385" pt_clust_6="45.42385"></scales>
<clustering>
<clus scale="   30.552">  3  6 -1 -1</clus>
<clus scale="   45.424">  3  5 -1 -1</clus>
<clus scale="  158.734">  2  4  1 -1</clus>
<clus scale="  176.934">  1  3  2 -1</clus>
</clustering>
</event>
<event>
 6    0  0.5602792E+002  0.1083543E+03  0.7546771E-02  0.1263648E+00
         21   -1    0    0  504  501  0.00000000000E+00  0.00000000000E+00  0.32431899986E+03  0.32431899986E+03  0.00000000000E+00 0. -1.
         21   -1    0    0  501  502 -0.00000000000E+00 -0.00000000000E+00 -0.13304964886E+04  0.13304964886E+04  0.00000000000E+00 0. -1.
         21    1    1    2  503  506 -0.19889364278E+02 -0.55447490444E+02 -0.13083794255E+03  0.14348720576E+03  0.00000000000E+00 0.  1.
         21    1    1    2  504  505  0.10695909785E+03 -0.19913271121E+02  0.29925361406E+03  0.31841719883E+03  0.00000000000E+00 0. -1.
         21    1    1    2  505  503 -0.42958539088E+02  0.78163189872E+02 -0.11157870210E+04  0.11193460576E+04  0.00000000000E+00 0. -1.
         21    1    1    2  506  502 -0.44111194482E+02 -0.28024283068E+01 -0.58806139230E+02  0.73565026298E+02  0.00000000000E+00 0.  1.
<scales pt_clust_3="60.96788" pt_clust_4="14000.00000" pt_clust_5="108.35435" pt_clust_6="44.20013"></scales>
<clustering>
<clus scale="   44.200">  2  6  1 -1</clus>
<clus scale="   60.968">  2  3  1 -1</clus>
<clus scale="  108.354">  2  5  1 -1</clus>
<clus scale="  108.354">  1  3  2 -1</clus>
</clustering>
</event>
<event>
 6    0  0.4390142E+002  0.2073332E+03  0.7546771E-02  0.1143695E+00
         21   -1    0    0  504  501  0.00000000000E+00  0.00000000000E+00  0.37853620542E+03  0.37853620542E+03  0.00000000000E+00 0. -1.
         21   -1    0    0  506  502 -0.00000000000E+00 -0.00000000000E+00 -0.43501517306E+03  0.43501517306E+03  0.00000000000E+00 0. -1.
         21    1    1    2  503  501  0.11100564143E+03 -0.65213169391E+02  0.46979969311E+02  0.13704790187E+03  0.00000000000E+00 0. -1.
         21    1    1    2  504  505 -0.16777746308E+03  0.24366618707E+03  0.12980486549E+03  0.32306623306E+03  0.00000000000E+00 0. -1.
         21    1    1    2  505  502 -0.65037168075E+02 -0.28190320383E+02 -0.78014241644E+02  0.10540753908E+03  0.00000000000E+00 0. -1.
         21    1    1    2  506  503  0.12180898973E+03 -0.15026269730E+03 -0.15524956079E+03  0.24802970448E+03  0.00000000000E+00 0. -1.
<scales pt_clust_3="123.48969" pt_clust_4="207.33316" pt_clust_5="70.88390" pt_clust_6="14000.00000"></scales>
<clustering>
<clus scale="   70.884">  2  5  1 -1</clus>
<clus scale="  123.490">  1  3  2 -1</clus>
<clus scale="  207.333">  1  4  2 -1</clus>
<clus scale="  123.490">  1  3  2 -1</clus>
</clustering>
</event>
<event>
 6    0  0.4390142E+002  0.7690556E+02  0.7546771E-02  0.1338070E+00
         21   -1    0    0  506  501  0.00000000000E+00  0.00000000000E+00  0.16644305247E+03  0.16644305247E+03  0.00000000000E+00 0.  1.
         21   -1    0    0  505  502 -0.00000000000E+00 -0.00000000000E+00 -0.72454349287E+03  0.72454349287E+03  0.00000000000E+00 0.  1.
         21    1    1    2  503  504 -0.14582096089E+02 -0.11768373709E+03 -0.39933773976E+03  0.41657259859E+03  0.00000000000E+00 0.  1.
         21    1    1    2  504  501 -0.28840907531E+02  0.31543033289E+02  0.69391658518E+02  0.81498240276E+02  0.00000000000E+00 0.  1.
         21    1    1    2  505  503  0.17480427167E+02  0.59527298143E+02 -0.30303413704E+03  0.30931982279E+03  0.00000000000E+00 0. -1.
         21    1    1    2  506  502  0.25942576453E+02  0.26613405658E+02  0.74879777883E+02  0.83595883687E+02  0.00000000000E+00 0.  1.
<scales pt_clust_3="76.90556" pt_clust_4="54.94109" pt_clust_5="14000.00000" pt_clust_6="37.16572"></scales>
<clustering>
<clus scale="   37.166">  1  6  2 -1</clus>
<clus scale="   54.941">  1  4  2 -1</clus>
<clus scale="   76.906">  1  3  2 -1</clus>
<clus scale="   37.166">  1  3  2 -1</clus>
</clustering>
</event>
<event>
 6    0  0.4683340E+002  0.1169409E+03  0.7546771E-02  0.1248231E+00
         21   -1    0    0  503  501  0.00000000000E+00  0.00000000000E+00  0.94608029949E+03  0.94608029949E+03  0.00000000000E+00 0. -1.
         21   -1    0    0  504  502 -0.00000000000E+00 -0.00000000000E+00 -0.26883643352E+03  0.26883643352E+03  0.00000000000E+00 0.  1.
         21    1    1    2  503  506 -0.53335996656E+02  0.10542208220E+03  0.89876814605E+03  0.90650026161E+03  0.00000000000E+00 0. -1.
         21    1    1    2  504  505  0.20807751505E+02 -0.33102158339E+02  0.14210366591E+02  0.41601080852E+02  0.00000000000E+00 0. -1.
         21    1    1    2  505  501  0.42466709409E+02 -0.85458449370E+01 -0.34181649299E+02  0.55180050947E+02  0.00000000000E+00 0.  1.
         21    1    1    2  506  502 -0.99384642580E+01 -0.63774078922E+02 -0.20155299737E+03  0.21163533959E+03  0.00000000000E+00 0.  1.
<scales pt_clust_3="116.94095" pt_clust_4="39.09879" pt_clust_5="48.28978" pt_clust_6="14000.00000"></scales>
<clustering>
<clus scale="   39.099">  2  4  1 -1</clus>
<clus scale="   48.290">  2  5  1 -1</clus>
<clus scale="  116.941">  1  3  2 -1</clus>
<clus scale="  116.941">  1  3  2 -1</clus>
</clustering>
</event>
<event>
 6    0  0.4390142E+002  0.9402915E+02  0.7546771E-02  0.1293378E+00
         21   -1    0    0  504  501  0.00000000000E+00  0.00000000000E+00  0.41968817274E+03  0.41968817274E+03  0.00000000000E+00 0.  1.
         21   -1    0    0  506  502 -0.00000000000E+00 -0.00000000000E+00 -0.65002315815E+02  0.65002315815E+02  0.00000000000E+00 0.  1.
         21    1    1    2  503  505  0.36098311672E+02 -0.66277170818E+02  0.18442918704E+03  0.19927337130E+03  0.00000000000E+00 0.  1.
         21    1    1    2  504  502 -0.59275046558E+02  0.21641450716E+02  0.91393251427E+02  0.11106128911E+03  0.00000000000E+00 0.  1.
         21    1    1    2  505  501  0.39879053612E+02 -0.35211173209E+02  0.75950349201E+02  0.92728750555E+02  0.00000000000E+00 0.  1.
         21    1    1    2  506  503 -0.16702318726E+02  0.79846893311E+02  0.29130692565E+01  0.81627077583E+02  0.00000000000E+00 0.  1.
<scales pt_clust_3="31.36157" pt_clust_4="63.10217" pt_clust_5="31.36157" pt_clust_6="86.29130"></scales>
<clustering>
<clus scale="   31.362">  3  5 -1 -1</clus>
<clus scale="   63.102">  1  4  2 -1</clus>
<clus scale="   86.291">  2  6  1 -1</clus>
<clus scale="   63.102">  1  3  2 -1</clus>
</clustering>
</event>
<event>
 6    0  0.4390142E+002  0.1460748E+03  0.7546771E-02  0.1205381E+00
         21   -1    0    0  502  501  0.00000000000E+00  0.00000000000E+00  0.49131965588E+03  0.49131965588E+03  0.00000000000E+00 0.  1.
         21   -1    0    0  504  502 -0.00000000000E+00 -0.00000000000E+00 -0.30454482780E+03  0.30454482780E+03  0.00000000000E+00 0.  1.
         21    1    1    2  503  506  0.10362665588E+02  0.12560361019E+03  0.18517295679E+03  0.22399257947E+03  0.00000000000E+00 0.  1.
         21    1    1    2  504  505  0.13263996319E+02  0.59398286057E+02 -0.21701129154E+03  0.22538409581E+03  0.00000000000E+00 0.  1.
         21    1    1    2  505  503  0.19824689092E+02 -0.19032108984E+03  0.91605726282E+02  0.21214793099E+03  0.00000000000E+00 0.  1.
         21    1    1    2  506  501 -0.43451350999E+02  0.53191935958E+01  0.12700743655E+03  0.13433987741E+03  0.00000000000E+00 0.  1.
<scales pt_clust_3="146.07483" pt_clust_4="60.81367" pt_clust_5="14000.00000" pt_clust_6="43.77572"></scales>
<clustering>
<clus scale="   43.776">  1  6  2 -1</clus>
<clus scale="   60.814">  2  4  1 -1</clus>
<clus scale="  146.075">  1  3  2 -1</clus>
<clus scale="   43.776">  1  3  2 -1</clus>
</clustering>
</event>
<event>
 6    0  0.4390142E+002  0.6911377E+02  0.7546771E-02  0.1363133E+00
         21   -1    0    0  505  501  0.00000000000E+00  0.00000000000E+00  0.85040547488E+02  0.85040547488E+02  0.00000000000E+00 0.  1.
         21   -1    0    0  504  502 -0.00000000000E+00 -0.00000000000E+00 -0.62042345935E+03  0.62042345935E+03  0.00000000000E+00 0. -1.
         21    1    1    2  503  502  0.56108407756E+02 -0.24767300867E+01 -0.12345588359E+03  0.13563053788E+03  0.00000000000E+00 0.  1.
         21    1    1    2  504  506 -0.66153561334E+02 -0.52176888611E+02 -0.43198570605E+03  0.44012540442E+03  0.00000000000E+00 0. -1.
         21    1    1    2  505  503  0.50290153880E+02  0.72193157999E+00 -0.16743849706E+02  0.53009218684E+02  0.00000000000E+00 0.  1.
         21    1    1    2  506  501 -0.40245000302E+02  0.53931687118E+02  0.36802527491E+02  0.76698845848E+02  0.00000000000E+00 0.  1.
<scales pt_clust_3="14000.00000" pt_clust_4="69.11377" pt_clust_5="50.29534" pt_clust_6="54.59727"></scales>
<clustering>
<clus scale="   50.295">  1  5  2 -1</clus>
<clus scale="   54.597">  1  6  2 -1</clus>
<clus scale="   69.114">  2  4  1 -1</clus>
<clus scale="   50.295">  1  3  2 -1</clus>
</clustering>
</event>
<event>
 6    0  0.4390142E+002  0.1059260E+03  0.7546771E-02  0.1268306E+00
         21   -1    0    0  506  501  0.00000000000E+00  0.00000000000E+00  0.62976180090E+03  0.62976180090E+03  0.00000000000E+00 0.  1.
         21   -1    0    0  503  502 -0.00000000000E+00 -0.00000000000E+00 -0.65804611717E+02  0.65804611717E+02  0.00000000000E+00 0.  1.
         21    1    1    2  503  501 -0.32973612307E+02  0.14646168095E+02  0.21876242755E+03  0.22171776892E+03  0.00000000000E+00 0. -1.
         21    1    1    2  504  502  0.82122512743E+02  0.20471109681E+02  0.32761001260E+02  0.90754926227E+02  0.00000000000E+00 0.  1.
         21    1    1    2  505  504  0.38599334913E+02 -0.94074355053E+02  0.85916751924E+02  0.13312242935E+03  0.00000000000E+00 0.  1.
         21    1    1    2  506  505 -0.87748235348E+02  0.58957077277E+02  0.22651700845E+03  0.24997128812E+03  0.00000000000E+00 0.  1.
<scales pt_clust_3="36.08004" pt_clust_4="80.41446" pt_clust_5="14000.00000" pt_clust_6="105.92601"></scales>
<clustering>
<clus scale="   36.080">  1  3  2 -1</clus>
<clus scale="   80.414">  2  4  1 -1</clus>
<clus scale="  105.926">  1  6  2 -1</clus>
<clus scale="   36.080">  1  3  2 -1</clus>
</clustering>
</event>
<event>
 6    0  0.4390142E+002  0.9159568E+02  0.7546771E-02  0.1299033E+00
         21   -1    0    0  504  501  0.00000000000E+00  0.00000000000E+00  0.10278203602E+04  0.10278203602E+04  0.00000000000E+00 0.  1.
         21   -1    0    0  506  502 -0.00000000000E+00 -0.00000000000E+00 -0.41659798553E+02  0.41659798553E+02  0.00000000000E+00 0. -1.
         21    1    1    2  503  501 -0.12297914454E+02 -0.10921200465E+03  0.19760829668E+03  0.22611399686E+03  0.00000000000E+00 0. -1.
         21    1    1    2  504  505  0.48616500503E+02  0.17807027171E+02  0.39529971353E+03  0.39867595595E+03  0.00000000000E+00 0.  1.
         21    1    1    2  505  502  0.17237983365E+02  0.35671850167E+02  0.35721827103E+03  0.35940857269E+03  0.00000000000E+00 0.  1.
         21    1    1    2  506  503 -0.53556569414E+02  0.55733127310E+02  0.36034280422E+02  0.85281633267E+02  0.00000000000E+00 0.  1.
<scales pt_clust_3="84.72152" pt_clust_4="30.45412" pt_clust_5="30.45412" pt_clust_6="77.29481"></scales>
<clustering>
<clus scale="   30.454">  4  5 -1 -1</clus>
<clus scale="   77.295">  2  6  1 -1</clus>
<clus scale="   84.722">  2  3  1 -1</clus>
<clus scale="   91.596">  1  3  2 -1</clus>
</clustering>
</event>
<event>
 6    0  0.4390142E+002  0.1487785E+03  0.7546771E-02  0.1201982E+00
         21   -1    0    0  504  501  0.00000000000E+00  0.00000000000E+00  0.10811626950E+03  0.10811626950E+03  0.00000000000E+00 0.  1.
         21   -1    0    0  503  502 -0.00000000000E+00 -0.00000000000E+00 -0.94978848410E+03  0.94978848410E+03  0.00000000000E+00 0.  1.
         21    1    1    2  503  506 -0.22495141028E+02 -0.30323774532E+02 -0.25201646858E+03  0.25482908607E+03  0.00000000000E+00 0.  1.
         21    1    1    2  504  502  0.16223605113E+03  0.60440132569E+02 -0.62816120136E+03  0.65158271985E+03  0.00000000000E+00 0.  1.
         21    1    1    2  505  501 -0.73306059904E+02 -0.86928404224E+01  0.34745787213E+02  0.81588072795E+02  0.00000000000E+00 0.  1.
         21    1    1    2  506  505 -0.66434850193E+02 -0.21423517615E+02  0.37596681278E+01  0.69904874877E+02  0.00000000000E+00 0.  1.
<scales pt_clust_3="37.75662" pt_clust_4="145.26568" pt_clust_5="31.25272" pt_clust_6="31.25272"></scales>
<clustering>
<clus scale="   31.253">  5  6 -1 -1</clus>
<clus scale="   37.757">  2  3  1 -1</clus>
<clus scale="  145.266">  2  4  1 -1</clus>
<clus scale="  148.779">  1  3  2 -1</clus>
</clustering>
</event>
<event>
 6    0  0.4390142E+002  0.5634507E+02  0.7546771E-02  0.1413843E+00
         21   -1    0    0  504  501  0.00000000000E+00  0.00000000000E+00  0.62413038301E+02  0.62413038301E+02  0.00000000000E+00 0.  1.
         21   -1    0    0  503  502 -0.00000000000E+00 -0.00000000000E+00 -0.15391299121E+04  0.15391299121E+04  0.00000000000E+00 0.  1.
         21    1    1    2  503  501  0.19610013451E+02 -0.83647355556E+02 -0.59675442416E+02  0.10460684082E+03  0.00000000000E+00 0.  1.
         21    1    1    2  504  505 -0.14179874274E+02  0.47864834217E+02  0.16882680546E+02  0.52698539747E+02  0.00000000000E+00 0.  1.
         21    1    1    2  505  506  0.30516311369E+02  0.65953448784E+02 -0.27737841492E+03  0.28674010485E+03  0.00000000000E+00 0.  1.
         21    1    1    2  506  502 -0.35946450546E+02 -0.30170927445E+02 -0.11565456970E+04  0.11574974650E+04  0.00000000000E+00 0.  1.
<scales pt_clust_3="14000.00000" pt_clust_4="56.34507" pt_clust_5="43.86341" pt_clust_6="46.93008"></scales>
<clustering>
<clus scale="   46.930">  2  6  1 -1</clus>
<clus scale="   43.863">  2  5  1 -1</clus>
<clus scale="   56.345">  1  4  2 -1</clus>
<clus scale="   56.345">  1  3  2 -1</clus>
</clustering>
</event>
<event>
 6    0  0.4390142E+002  0.2641479E+03  0.7546771E-02  0.1104676E+00
         21   -1    0    0  505  501  0.00000000000E+00  0.00000000000E+00  0.24565377255E+04  0.24565377255E+04  0.00000000000E+00 0. -1.
         21   -1    0    0  504  502 -0.00000000000E+00 -0.00000000000E+00 -0.14541781634E+04  0.14541781634E+04  0.00000000000E+00 0. -1.
         21    1    1    2  503  501 -0.57304042340E+02  0.25504638880E+03  0.23081921630E+04  0.23229471529E+04  0.00000000000E+00 0. -1.
         21    1    1    2  504  503 -0.34274084583E+02 -0.11195420195E+03 -0.13800017280E+04  0.13849596477E+04  0.00000000000E+00 0. -1.
         21    1    1    2  505  506 -0.83442684551E+01 -0.54045219486E+02  0.26116362456E+02  0.60601790017E+02  0.00000000000E+00 0.  1.
         21    1    1    2  506  502  0.99922395379E+02 -0.89046967358E+02  0.48052764627E+02  0.14220729827E+03  0.00000000000E+00 0.  1.
<scales pt_clust_3="251.00911" pt_clust_4="117.08312" pt_clust_5="52.58800" pt_clust_6="52.58800"></scales>
<clustering>
<clus scale="   52.588">  5  6 -1 -1</clus>
<clus scale="  117.083">  2  4  1 -1</clus>
<clus scale="  251.009">  1  3  2 -1</clus>
<clus scale="  251.009">  1  3  2 -1</clus>
</clustering>
</event>
<event>
 6    0  0.4390142E+002  0.9723236E+02  0.7546771E-02  0.1286226E+00
         21   -1    0    0  503  501  0.00000000000E+00  0.00000000000E+00  0.18089381985E+03  0.18089381985E+03  0.00000000000E+00 0. -1.
         21   -1    0    0  505  502 -0.00000000000E+00 -0.00000000000E+00 -0.36463294546E+03  0.36463294546E+03  0.00000000000E+00 0.  1.
         21    1    1    2  503  504 -0.74693380533E+02  0.47751859073E+02  0.13613836906E+03  0.16245921541E+03  0.00000000000E+00 0. -1.
         21    1    1    2  504  502  0.10309455164E+03 -0.54955897706E+02 -0.28351557619E+03  0.30664265720E+03  0.00000000000E+00 0.  1.
         21    1    1    2  505  506 -0.89811059881E+01  0.32838628963E+02 -0.25297862047E+02  0.42414828080E+02  0.00000000000E+00 0. -1.
         21    1    1    2  506  501 -0.19420065121E+02 -0.25634590330E+02 -0.11064056436E+02  0.34010064621E+02  0.00000000000E+00 0. -1.
<scales pt_clust_3="97.23236" pt_clust_4="14000.00000" pt_clust_5="33.07941" pt_clust_6="32.16009"></scales>
<clustering>
<clus scale="   32.160">  1  6  2 -1</clus>
<clus scale="   33.079">  2  5  1 -1</clus>
<clus scale="   97.232">  1  3  2 -1</clus>
<clus scale="   32.160">  1  3  2 -1</clus>
</clustering>
</event>
<event>
 6    0  0.4390142E+002  0.9048399E+02  0.7546771E-02  0.1301684E+00
         21   -1    0    0  504  501  0.00000000000E+00  0.00000000000E+00  0.68712331120E+03  0.68712331120E+03  0.00000000000E+00 0. -1.
         21   -1    0    0  506  502 -0.00000000000E+00 -0.00000000000E+00 -0.11946830214E+03  0.11946830214E+03  0.00000000000E+00 0.  1.
         21    1    1    2  503  505 -0.61150325378E+02 -0.24086058612E+02  0.45988983078E+03  0.46456232840E+03  0.00000000000E+00 0. -1.
         21    1    1    2  504  503 -0.27094029901E+02 -0.20852549317E+02  0.91068062141E+02  0.97274391344E+02  0.00000000000E+00 0. -1.
         21    1    1    2  505  502  0.46007062018E+02 -0.63259096319E+02 -0.65860184395E+02  0.10225422686E+03  0.00000000000E+00 0.  1.
         21    1    1    2  506  501  0.42237293261E+02  0.10819770425E+03  0.82557300532E+02  0.14250066673E+03  0.00000000000E+00 0.  1.
<scales pt_clust_3="90.48399" pt_clust_4="34.18940" pt_clust_5="78.25548" pt_clust_6="14000.00000"></scales>
<clustering>
<clus scale="   34.189">  1  4  2 -1</clus>
<clus scale="   78.255">  2  5  1 -1</clus>
<clus scale="   90.484">  1  3  2 -1</clus>
<clus scale="   34.189">  1  3  2 -1</clus>
</clustering>
</event>
<event>
 6    0  0.4390142E+002  0.1006055E+03  0.7546771E-02  0.1279028E+00
         21   -1    0    0  503  501  0.00000000000E+00  0.00000000000E+00  0.11273683024E+04  0.11273683024E+04  0.00000000000E+00 0.  1.
         21   -1    0    0  504  502 -0.00000000000E+00 -0.00000000000E+00 -0.14936862363E+03  0.14936862363E+03  0.00000000000E+00 0.  1.
         21    1    1    2  503  505  0.64141331697E+02  0.37506929645E+02  0.90049314550E+03  0.90355342138E+03  0.00000000000E+00 0.  1.
         21    1    1    2  504  501  0.36817164212E+02 -0.10872283942E+02  0.16848033883E+03  0.17279853793E+03  0.00000000000E+00 0.  1.
         21    1    1    2  505  506 -0.67209206270E+02 -0.69045815789E+02 -0.22094103528E+01  0.96380929542E+02  0.00000000000E+00 0.  1.
         21    1    1    2  506  502 -0.33749289639E+02  0.42411170086E+02 -0.88764395191E+02  0.10400403719E+03  0.00000000000E+00 0.  1.
<scales pt_clust_3="14000.00000" pt_clust_4="38.38893" pt_clust_5="100.60548" pt_clust_6="53.95070"></scales>
<clustering>
<clus scale="   38.389">  1  4  2 -1</clus>
<clus scale="   53.951">  2  6  1 -1</clus>
<clus scale="  100.605">  2  5  1 -1</clus>
<clus scale="   38.389">  1  3  2 -1</clus>
</clustering>
</event>
<event>
 6    0  0.4390142E+002  0.1040065E+03  0.7546771E-02  0.1272090E+00
         21   -1    0    0  506  501  0.00000000000E+00  0.00000000000E+00  0.16805948045E+03  0.16805948045E+03  0.00000000000E+00 0.  1.
         21   -1    0    0  504  502 -0.00000000000E+00 -0.00000000000E+00 -0.10173565592E+04  0.10173565592E+04  0.00000000000E+00 0.  1.
         21    1    1    2  503  505 -0.14948985549E+03  0.24012548705E+01  0.32235092451E+02  0.15294470931E+03  0.00000000000E+00 0.  1.
         21    1    1    2  504  501  0.24179985987E+02 -0.54074650508E+02 -0.39708920651E+02  0.71312957653E+02  0.00000000000E+00 0.  1.
         21    1    1    2  505  502  0.56410368199E+02  0.21026512305E+02 -0.87621305743E+03  0.87827875180E+03  0.00000000000E+00 0.  1.
         21    1    1    2  506  503  0.68899501305E+02  0.30646883333E+02  0.34389806897E+02  0.82879620876E+02  0.00000000000E+00 0.  1.
<scales pt_clust_3="14000.00000" pt_clust_4="59.23461" pt_clust_5="60.22861" pt_clust_6="104.00648"></scales>
<clustering>
<clus scale="   59.235">  1  4  2 -1</clus>
<clus scale="   60.229">  2  5  1 -1</clus>
<clus scale="  104.006">  1  6  2 -1</clus>
<clus scale="   59.235">  1  3  2 -1</clus>
</clustering>
</event>
<event>
 6    0  0.4390142E+002  0.3172746E+03  0.7546771E-02  0.1076910E+00
         21   -1    0    0  504  501  0.00000000000E+00  0.00000000000E+00  0.12709042388E+04  0.12709042388E+04  0.00000000000E+00 0.  1.
         21   -1    0    0  505  502 -0.00000000000E+00 -0.00000000000E+00 -0.33421001243E+03  0.33421001243E+03  0.00000000000E+00 0. -1.
         21    1    1    2  503  502 -0.13371422933E+03 -0.30669370513E+03 -0.12178370732E+03  0.35605027069E+03  0.00000000000E+00 0. -1.
         21    1    1    2  504  503 -0.10426470955E+03  0.32036086120E+02  0.14112062353E+03  0.17836050812E+03  0.00000000000E+00 0. -1.
         21    1    1    2  505  506 -0.10891077637E+02  0.28198544872E+03  0.33935494159E+03  0.44135720821E+03  0.00000000000E+00 0.  1.
         21    1    1    2  506  501  0.24887001651E+03 -0.73278297099E+01  0.57800236861E+03  0.62934626425E+03  0.00000000000E+00 0. -1.
<scales pt_clust_3="14000.00000" pt_clust_4="109.07539" pt_clust_5="317.27461" pt_clust_6="192.48890"></scales>
<clustering>
<clus scale="  109.075">  1  4  2 -1</clus>
<clus scale="  192.489">  1  6  2 -1</clus>
<clus scale="  317.275">  1  5  2 -1</clus>
<clus scale="  109.075">  1  3  2 -1</clus>
</clustering>
</event>
<event>
 6    0  0.4390142E+002  0.2039924E+03  0.7546771E-02  0.1146414E+00
         21   -1    0    0  506  501  0.00000000000E+00  0.00000000000E+00  0.11714405740E+03  0.11714405740E+03  0.00000000000E+00 0.  1.
         21   -1    0    0  504  502 -0.00000000000E+00 -0.00000000000E+00 -0.94139662804E+03  0.94139662804E+03  0.00000000000E+00 0. -1.
         21    1    1    2  503  501 -0.41487466510E+02  0.19046590922E+03 -0.46338152409E+01  0.19498703725E+03  0.00000000000E+00 0.  1.
         21    1    1    2  504  503 -0.27915134316E+02 -0.18646302812E+02 -0.38436614308E+03  0.38582932921E+03  0.00000000000E+00 0. -1.
         21    1    1    2  505  502  0.53773512463E+02 -0.97854057015E+02 -0.18287099418E+03  0.21426340712E+03  0.00000000000E+00 0. -1.
         21    1    1    2  506  505  0.15629088363E+02 -0.73965549393E+02 -0.25238161814E+03  0.26346091185E+03  0.00000000000E+00 0. -1.
<scales pt_clust_3="192.81059" pt_clust_4="33.56992" pt_clust_5="56.88828" pt_clust_6="56.88828"></scales>
<clustering>
<clus scale="   33.570">  2  4  1 -1</clus>
<clus scale="   56.888">  5  6 -1 -1</clus>
<clus scale="  192.811">  1  3  2 -1</clus>
<clus scale="  192.811">  1  3  2 -1</clus>
</clustering>
</event>
<event>
 6    0  0.4390142E+002  0.2169032E+03  0.7546771E-02  0.1136213E+00
         21   -1    0    0  503  501  0.00000000000E+00  0.00000000000E+00  0.44506803627E+03  0.44506803627E+03  0.00000000000E+00 0.  1.
         21   -1    0    0  504  502 -0.00000000000E+00 -0.00000000000E+00 -0.72588986843E+03  0.72588986843E+03  0.00000000000E+00 0.  1.
         21    1    1    2  503  505  0.97542038760E+00 -0.52440834432E+02  0.28539696221E+03  0.29017653006E+03  0.00000000000E+00 0.  1.
         21    1    1    2  504  506  0.16518077381E+03 -0.13921157209E+03 -0.43835715877E+03  0.48869371644E+03  0.00000000000E+00 0.  1.
         21    1    1    2  505  502  0.20025159615E+02  0.74361836378E+02  0.64007729550E+02  0.10013830021E+03  0.00000000000E+00 0.  1.
         21    1    1    2  506  501 -0.18618135381E+03  0.11729057014E+03 -0.19186936514E+03  0.29194935799E+03  0.00000000000E+00 0.  1.
<scales pt_clust_3="52.44991" pt_clust_4="216.90322" pt_clust_5="51.28713" pt_clust_6="14000.00000"></scales>
<clustering>
<clus scale="   52.450">  1  3  2 -1</clus>
<clus scale="   51.287">  1  5  2 -1</clus>
<clus scale="  216.903">  2  4  1 -1</clus>
<clus scale="   52.450">  1  3  2 -1</clus>
</clustering>
</event>
<event>
 6    0  0.4390142E+002  0.1549323E+03  0.7546771E-02  0.1194540E+00
         21   -1    0    0  505  501  0.00000000000E+00  0.00000000000E+00  0.31216634764E+03  0.31216634764E+03  0.00000000000E+00 0.  1.
         21   -1    0    0  504  502 -0.00000000000E+00 -0.00000000000E+00 -0.10122882638E+04  0.10122882638E+04  0.00000000000E+00 0. -1.
         21    1    1    2  503  501 -0.57579156684E+02  0.62682755824E+02  0.21200400695E+03  0.22845171508E+03  0.00000000000E+00 0.  1.
         21    1    1    2  504  506 -0.14639113074E+03 -0.23320232142E+02 -0.74394034993E+03  0.75856538324E+03  0.00000000000E+00 0. -1.
         21    1    1    2  505  502 -0.18826392652E+02  0.43502333126E+02 -0.20848121306E+01  0.47447154702E+02  0.00000000000E+00 0. -1.
         21    1    1    2  506  503  0.22279668008E+03 -0.82864856808E+02 -0.16610076102E+03  0.28999035839E+03  0.00000000000E+00 0. -1.
<scales pt_clust_3="119.76286" pt_clust_4="14000.00000" pt_clust_5="47.40133" pt_clust_6="154.93229"></scales>
<clustering>
<clus scale="   47.401">  1  5  2 -1</clus>
<clus scale="  119.763">  1  3  2 -1</clus>
<clus scale="  154.932">  1  6  2 -1</clus>
<clus scale="   47.401">  1  3  2 -1</clus>
</clustering>
</event>
<event>
 6    0  0.4390142E+002  0.1846022E+03  0.7546771E-02  0.1163422E+00
         21   -1    0    0  506  501  0.00000000000E+00  0.00000000000E+00  0.81334681171E+02  0.81334681171E+02  0.00000000000E+00 0.  1.
         21   -1    0    0  503  502 -0.00000000000E+00 -0.00000000000E+00 -0.15076022673E+04  0.15076022673E+04  0.00000000000E+00 0. -1.
         21    1    1    2  503  505 -0.11258129321E+03 -0.38319851633E+02 -0.89760571623E+02  0.14899637186E+03  0.00000000000E+00 0.  1.
         21    1    1    2  504  502 -0.39192806507E+02  0.12060164687E+02 -0.10084630507E+04  0.10092964125E+04  0.00000000000E+00 0.  1.
         21    1    1    2  505  501 -0.36079994915E+02 -0.34309882731E+02 -0.23920619826E+01  0.49846324304E+02  0.00000000000E+00 0.  1.
         21    1    1    2  506  504  0.18785409463E+03  0.60569569676E+02 -0.32565190184E+03  0.38079783982E+03  0.00000000000E+00 0. -1.
<scales pt_clust_3="39.20365" pt_clust_4="41.00639" pt_clust_5="39.20365" pt_clust_6="174.37579"></scales>
<clustering>
<clus scale="   39.204">  3  5 -1 -1</clus>
<clus scale="   41.006">  2  4  1 -1</clus>
<clus scale="  174.376">  2  6  1 -1</clus>
<clus scale="  184.602">  1  3  2 -1</clus>
</clustering>
</event>
<event>
 6    0  0.4390142E+002  0.1357170E+03  0.7546771E-02  0.1219211E+00
         21   -1    0    0  506  501  0.00000000000E+00  0.00000000000E+00  0.14509786225E+03  0.14509786225E+03  0.00000000000E+00 0.  1.
         21   -1    0    0  503  502 -0.00000000000E+00 -0.00000000000E+00 -0.13723620164E+04  0.13723620164E+04  0.00000000000E+00 0.  1.
         21    1    1    2  503  504  0.17701686616E+02 -0.43536902152E+02 -0.83237624779E+03  0.83370200278E+03  0.00000000000E+00 0.  1.
         21    1    1    2  504  501  0.10988919820E+03  0.13537489096E+03  0.48387244950E+02  0.18095116041E+03  0.00000000000E+00 0.  1.
         21    1    1    2  505  502 -0.92690842711E+02 -0.70209465396E+02 -0.44671838267E+03  0.46160402378E+03  0.00000000000E+00 0.  1.
         21    1    1    2  506  505 -0.34900042101E+02 -0.21628523408E+02  0.34432313088E+01  0.41202691724E+02  0.00000000000E+00 0.  1.
<scales pt_clust_3="47.03571" pt_clust_4="14000.00000" pt_clust_5="135.71698" pt_clust_6="41.05857"></scales>
<clustering>
<clus scale="   41.059">  1  6  2 -1</clus>
<clus scale="   47.036">  2  3  1 -1</clus>
<clus scale="  135.717">  2  5  1 -1</clus>
<clus scale="   41.059">  1  3  2 -1</clus>
</clustering>
</event>
<event>
 6    0  0.4390142E+002  0.1359004E+03  0.7546771E-02  0.1218954E+00
         21   -1    0    0  506  501  0.00000000000E+00  0.00000000000E+00  0.13589207922E+04  0.13589207922E+04  0.00000000000E+00 0. -1.
         21   -1    0    0  505  502 -0.00000000000E+00 -0.00000000000E+00 -0.10188611270E+03  0.10188611270E+03  0.00000000000E+00 0. -1.
         21    1    1    2  503  504 -0.38148324170E+02 -0.46470596938E+02  0.42071479102E+03  0.42498911328E+03  0.00000000000E+00 0. -1.
         21    1    1    2  504  502 -0.22119472011E+02  0.46685484333E+02  0.17766132306E+00  0.51660788351E+02  0.00000000000E+00 0. -1.
         21    1    1    2  505  501  0.10448125047E+03  0.56873362162E+02 -0.23693874654E+02  0.12129431445E+03  0.00000000000E+00 0. -1.
         21    1    1    2  506  503 -0.44213454284E+02 -0.57088249558E+02  0.85983610176E+03  0.86286268877E+03  0.00000000000E+00 0. -1.
<scales pt_clust_3="32.18120" pt_clust_4="51.66048" pt_clust_5="131.24461" pt_clust_6="32.18120"></scales>
<clustering>
<clus scale="   32.181">  3  6 -1 -1</clus>
<clus scale="   51.660">  2  4  1 -1</clus>
<clus scale="  131.245">  2  5  1 -1</clus>
<clus scale="  135.900">  1  3  2 -1</clus>
</clustering>
</event>
<event>
 6    0  0.4390142E+002  0.7972801E+02  0.7546771E-02  0.1329825E+00
         21   -1    0    0  503  501  0.00000000000E+00  0.00000000000E+00  0.54165939519E+02  0.54165939519E+02  0.00000000000E+00 0. -1.
         21   -1    0    0  505  502 -0.00000000000E+00 -0.00000000000E+00 -0.22760193604E+04  0.22760193604E+04  0.00000000000E+00 0.  1.
         21    1    1    2  503  504 -0.54661686910E+02 -0.33052563797E+01  0.15654662159E+02  0.56955185742E+02  0.00000000000E+00 0. -1.
         21    1    1    2  504  506  0.50557533378E+02  0.38440707757E+02 -0.54066906591E+02  0.83408528235E+02  0.00000000000E+00 0. -1.
         21    1    1    2  505  501  0.28923907831E+02 -0.88704436130E+02 -0.17355386838E+04  0.17380447613E+04  0.00000000000E+00 0.  1.
         21    1    1    2  506  502 -0.24819754299E+02  0.53568984753E+02 -0.44790249261E+03  0.45177682457E+03  0.00000000000E+00 0. -1.
<scales pt_clust_3="54.76153" pt_clust_4="36.17125" pt_clust_5="79.72801" pt_clust_6="14000.00000"></scales>
<clustering>
<clus scale="   54.762">  1  3  2 -1</clus>
<clus scale="   36.171">  1  4  2 -1</clus>
<clus scale="   79.728">  2  5  1 -1</clus>
<clus scale="   54.762">  1  3  2 -1</clus>
</clustering>
</event>
<event>
 6    0  0.4390142E+002  0.9252973E+02  0.7546771E-02  0.1296839E+00
         21   -1    0    0  503  501  0.00000000000E+00  0.00000000000E+00  0.14539753366E+04  0.14539753366E+04  0.00000000000E+00 0. -1.
         21   -1    0    0  505  502 -0.00000000000E+00 -0.00000000000E+00 -0.49325160366E+02  0.49325160366E+02  0.00000000000E+00 0. -1.
         21    1    1    2  503  504  0.12746652439E+03 -0.51869280497E+02  0.58928343643E+03  0.60513891426E+03  0.00000000000E+00 0. -1.
         21    1    1    2  504  502 -0.92860219597E+01  0.67670526766E+02  0.55130277796E+02  0.87777434039E+02  0.00000000000E+00 0. -1.
         21    1    1    2  505  506 -0.35672100424E+02 -0.13848020480E+01 -0.88261999043E+01  0.36773879726E+02  0.00000000000E+00 0.  1.
         21    1    1    2  506  501 -0.82508402004E+02 -0.14416444220E+02  0.76906266187E+03  0.77361026890E+03  0.00000000000E+00 0. -1.
<scales pt_clust_3="92.52973" pt_clust_4="73.76003" pt_clust_5="35.69897" pt_clust_6="14000.00000"></scales>
<clustering>
<clus scale="   35.699">  2  5  1 -1</clus>
<clus scale="   73.760">  2  4  1 -1</clus>
<clus scale="   92.530">  2  3  1 -1</clus>
<clus scale="   92.530">  1  3  2 -1</clus>
</clustering>
</event>
<event>
 6    0  0.4390142E+002  0.1575436E+03  0.7546771E-02  0.1191498E+00
         21   -1    0    0  506  501  0.00000000000E+00  0.00000000000E+00  0.12036345158E+03  0.12036345158E+03  0.00000000000E+00 0. -1.
         21   -1    0    0  501  502 -0.00000000000E+00 -0.00000000000E+00 -0.29750913160E+03  0.29750913160E+03  0.00000000000E+00 0. -1.
         21    1    1    2  503  502  0.11292206105E+02 -0.38979088957E+02 -0.25935473951E+02  0.48161520986E+02  0.00000000000E+00 0. -1.
         21    1    1    2  504  503  0.84066680117E+02 -0.70610212126E+02 -0.18483550975E+03  0.21498180022E+03  0.00000000000E+00 0. -1.
         21    1    1    2  505  504 -0.43537667872E+02  0.58659212239E+02 -0.35009102024E+01  0.73134725518E+02  0.00000000000E+00 0. -1.
         21    1    1    2  506  505 -0.51821218350E+02  0.50930088843E+02  0.37126213888E+02  0.81594536450E+02  0.00000000000E+00 0. -1.
<scales pt_clust_3="37.06640" pt_clust_4="37.06640" pt_clust_5="151.03140" pt_clust_6="41.20909"></scales>
<clustering>
<clus scale="   37.066">  3  4 -1 -1</clus>
<clus scale="   41.209">  5  6 -1 -1</clus>
<clus scale="  151.031">  1  5  2 -1</clus>
<clus scale="  151.031">  1  3  2 -1</clus>
</clustering>
</event>
<event>
 6    0  0.4390142E+002  0.1378591E+03  0.7546771E-02  0.1216239E+00
         21   -1    0    0  503  501  0.00000000000E+00  0.00000000000E+00  0.14716216903E+03  0.14716216903E+03  0.00000000000E+00 0. -1.
         21   -1    0    0  504  502 -0.00000000000E+00 -0.00000000000E+00 -0.26897210428E+03  0.26897210428E+03  0.00000000000E+00 0.  1.
         21    1    1    2  503  505 -0.67222510186E+02 -0.78880476022E+01  0.30709392025E+02  0.74324652231E+02  0.00000000000E+00 0. -1.
         21    1    1    2  504  506  0.12177638734E+03  0.64902999370E+02 -0.14017695229E+03  0.19670146363E+03  0.00000000000E+00 0.  1.
         21    1    1    2  505  502 -0.64985431177E+02  0.18163223126E+02  0.35281933389E+01  0.67568166231E+02  0.00000000000E+00 0. -1.
         21    1    1    2  506  501  0.10431554020E+02 -0.75178174894E+02 -0.15870568324E+02  0.77539991221E+02  0.00000000000E+00 0. -1.
<scales pt_clust_3="37.04882" pt_clust_4="132.77155" pt_clust_5="37.04882" pt_clust_6="75.89845"></scales>
<clustering>
<clus scale="   37.049">  3  5 -1 -1</clus>
<clus scale="   75.898">  1  6  2 -1</clus>
<clus scale="  132.772">  2  4  1 -1</clus>
<clus scale="   75.898">  1  3  2 -1</clus>
</clustering>
</event>
<event>
 6    0  0.4390142E+002  0.1301559E+03  0.7546771E-02  0.1227225E+00
         21   -1    0    0  505  501  0.00000000000E+00  0.00000000000E+00  0.16733820221E+03  0.16733820221E+03  0.00000000000E+00 0.  1.
         21   -1    0    0  506  502 -0.00000000000E+00 -0.00000000000E+00 -0.22051684407E+03  0.22051684407E+03  0.00000000000E+00 0.  1.
         21    1    1    2  503  504  0.24208435978E+02  0.33491823821E+02 -0.17294076168E+02  0.44797719873E+02  0.00000000000E+00 0.  1.
         21    1    1    2  504  502 -0.21734487202E+01  0.74893235144E+02 -0.97098614000E+02  0.12264526648E+03  0.00000000000E+00 0.  1.
         21    1    1    2  505  503 -0.52185086375E+02 -0.10966556259E+03  0.10946561420E+03  0.16350088548E+03  0.00000000000E+00 0.  1.
         21    1    1    2  506  501  0.30150099117E+02  0.12805036295E+01 -0.48251565893E+02  0.56911174452E+02  0.00000000000E+00 0.  1.
<scales pt_clust_3="39.66794" pt_clust_4="39.66794" pt_clust_5="119.25582" pt_clust_6="30.17728"></scales>
<clustering>
<clus scale="   30.177">  2  6  1 -1</clus>
<clus scale="   39.668">  3  4 -1 -1</clus>
<clus scale="  119.256">  1  5  2 -1</clus>
<clus scale="  119.256">  1  3  2 -1</clus>
</clustering>
</event>
<event>
 6    0  0.4390142E+002  0.2801833E+03  0.7546771E-02  0.1095589E+00
         21   -1    0    0  504  501  0.00000000000E+00  0.00000000000E+00  0.95786432026E+03  0.95786432026E+03  0.00000000000E+00 0.  1.
         21   -1    0    0  506  502 -0.00000000000E+00 -0.00000000000E+00 -0.15091333829E+04  0.15091333829E+04  0.00000000000E+00 0.  1.
         21    1    1    2  503  502 -0.24781210191E+03 -0.15979228105E+03 -0.91615518290E+03  0.96243687070E+03  0.00000000000E+00 0.  1.
         21    1    1    2  504  505  0.72477584203E+02  0.92060136692E+01  0.89350035270E+03  0.89648236524E+03  0.00000000000E+00 0.  1.
         21    1    1    2  505  503  0.20522294135E+03  0.15493796414E+03 -0.51354076770E+03  0.57432251260E+03  0.00000000000E+00 0.  1.
         21    1    1    2  506  501 -0.29888423640E+02 -0.43516967641E+01 -0.15073464709E+02  0.33755954597E+02  0.00000000000E+00 0. -1.
<scales pt_clust_3="14000.00000" pt_clust_4="73.02959" pt_clust_5="280.18328" pt_clust_6="30.20356"></scales>
<clustering>
<clus scale="   30.204">  2  6  1 -1</clus>
<clus scale="   73.030">  1  4  2 -1</clus>
<clus scale="  280.183">  1  5  2 -1</clus>
<clus scale="   73.030">  1  3  2 -1</clus>
</clustering>
</event>
<event>
 6    0  0.4390142E+002  0.1300568E+03  0.7546771E-02  0.1227371E+00
         21   -1    0    0  505  501  0.00000000000E+00  0.00000000000E+00  0.98551634932E+03  0.98551634932E+03  0.00000000000E+00 0. -1.
         21   -1    0    0  506  502 -0.00000000000E+00 -0.00000000000E+00 -0.45679768135E+02  0.45679768135E+02  0.00000000000E+00 0. -1.
         21    1    1    2  503  501  0.94572083350E+01  0.78515676322E+02  0.38311158457E+03  0.39118874786E+03  0.00000000000E+00 0. -1.
         21    1    1    2  504  503 -0.18211289807E+02  0.37871464120E+02  0.43494192520E+03  0.43696724954E+03  0.00000000000E+00 0. -1.
         21    1    1    2  505  502  0.38931989230E+02 -0.12329599136E+03  0.83971473738E+02  0.15417136464E+03  0.00000000000E+00 0. -1.
         21    1    1    2  506  504 -0.30177907758E+02  0.69088509229E+01  0.37811597670E+02  0.48868755418E+02  0.00000000000E+00 0. -1.
<scales pt_clust_3="40.11590" pt_clust_4="40.11590" pt_clust_5="117.92608" pt_clust_6="30.95866"></scales>
<clustering>
<clus scale="   30.959">  2  6  1 -1</clus>
<clus scale="   40.116">  3  4 -1 -1</clus>
<clus scale="  117.926">  2  5  1 -1</clus>
<clus scale="  130.057">  1  3  2 -1</clus>
</clustering>
</event>
<event>
 6    0  0.4390142E+002  0.1134630E+03  0.7546771E-02  0.1254288E+00
         21   -1    0    0  503  501  0.00000000000E+00  0.00000000000E+00  0.71394798426E+02  0.71394798426E+02  0.00000000000E+00 0. -1.
         21   -1    0    0  506  502 -0.00000000000E+00 -0.00000000000E+00 -0.34553954559E+03  0.34553954559E+03  0.00000000000E+00 0. -1.
         21    1    1    2  503  504 -0.63253458691E+02 -0.85612101415E+01  0.12575597523E+02  0.65057205662E+02  0.00000000000E+00 0. -1.
         21    1    1    2  504  505 -0.31728652570E+02 -0.16329355445E+02 -0.25754417991E+02  0.44007332221E+02  0.00000000000E+00 0. -1.
         21    1    1    2  505  502 -0.29618582196E+02  0.21151568547E+02 -0.82576039110E+02  0.90241074342E+02  0.00000000000E+00 0. -1.
         21    1    1    2  506  501  0.12460069346E+03  0.37389970399E+01 -0.17838988759E+03  0.21762873180E+03  0.00000000000E+00 0. -1.
<scales pt_clust_3="34.10218" pt_clust_4="34.10218" pt_clust_5="36.39573" pt_clust_6="103.89227"></scales>
<clustering>
<clus scale="   34.102">  3  4 -1 -1</clus>
<clus scale="   36.396">  2  5  1 -1</clus>
<clus scale="  103.892">  2  6  1 -1</clus>
<clus scale="  113.463">  1  3  2 -1</clus>
</clustering>
</event>
<event>
 6    0  0.4390142E+002  0.1554827E+03  0.7546771E-02  0.1193893E+00
         21   -1    0    0  506  501  0.00000000000E+00  0.00000000000E+00  0.13677939426E+04  0.13677939426E+04  0.00000000000E+00 0.  1.
         21   -1    0    0  504  502 -0.00000000000E+00 -0.00000000000E+00 -0.19133723073E+04  0.19133723073E+04  0.00000000000E+00 0. -1.
         21    1    1    2  503  502 -0.38352115725E+02  0.31202242222E+02 -0.19170347078E+03  0.19797647691E+03  0.00000000000E+00 0. -1.
         21    1    1    2  504  505 -0.19780822069E+02  0.39838089612E+02 -0.16417445999E+04  0.16423470052E+04  0.00000000000E+00 0. -1.
         21    1    1    2  505  501 -0.14243029539E+03  0.48718752300E+02  0.11691631336E+04  0.11788139543E+04  0.00000000000E+00 0.  1.
         21    1    1    2  506  503  0.20056323319E+03 -0.11975908413E+03  0.11870657230E+03  0.26202881339E+03  0.00000000000E+00 0. -1.
<scales pt_clust_3="79.62068" pt_clust_4="44.47869" pt_clust_5="155.48270" pt_clust_6="14000.00000"></scales>
<clustering>
<clus scale="   44.479">  2  4  1 -1</clus>
<clus scale="   79.621">  2  3  1 -1</clus>
<clus scale="  155.483">  1  5  2 -1</clus>
<clus scale="  155.483">  1  3  2 -1</clus>
</clustering>
</event>
<event>
 6    0  0.4390142E+002  0.1335136E+03  0.7546771E-02  0.1222333E+00
         21   -1    0    0  503  501  0.00000000000E+00  0.00000000000E+00  0.34575369368E+03  0.34575369368E+03  0.00000000000E+00 0. -1.
         21   -1    0    0  505  502 -0.00000000000E+00 -0.00000000000E+00 -0.10295860556E+04  0.10295860556E+04  0.00000000000E+00 0.  1.
         21    1    1    2  503  506 -0.59027778437E+02 -0.39054265544E+02  0.28791586814E+02  0.76409879960E+02  0.00000000000E+00 0. -1.
         21    1    1    2  504  501  0.10662520553E+03  0.75079112260E+02  0.22087019084E+03  0.25649453942E+03  0.00000000000E+00 0. -1.
         21    1    1    2  505  504  0.14159029688E+02 -0.31092740988E+02 -0.96995031285E+03  0.97055182554E+03  0.00000000000E+00 0.  1.
         21    1    1    2  506  502 -0.61756456784E+02 -0.49321057283E+01  0.36456173316E+02  0.71883504326E+02  0.00000000000E+00 0. -1.
<scales pt_clust_3="32.54467" pt_clust_4="128.90248" pt_clust_5="34.16485" pt_clust_6="32.54467"></scales>
<clustering>
<clus scale="   32.545">  3  6 -1 -1</clus>
<clus scale="   34.165">  2  5  1 -1</clus>
<clus scale="  128.902">  1  4  2 -1</clus>
<clus scale="  128.902">  1  3  2 -1</clus>
</clustering>
</event>
<event>
 6    0  0.4390142E+002  0.8235299E+02  0.7546771E-02  0.1322504E+00
         21   -1    0    0  504  501  0.00000000000E+00  0.00000000000E+00  0.87613861588E+03  0.87613861588E+03  0.00000000000E+00 0. -1.
         21   -1    0    0  505  502 -0.00000000000E+00 -0.00000000000E+00 -0.33673747117E+02  0.33673747117E+02  0.00000000000E+00 0. -1.
         21    1    1    2  503  501 -0.68630944670E+01  0.33707657482E+02  0.10522008658E+03  0.11070038328E+03  0.00000000000E+00 0. -1.
         21    1    1    2  504  506  0.29608877311E+02 -0.91113132758E+02  0.40562670969E+03  0.41678689542E+03  0.00000000000E+00 0. -1.
         21    1    1    2  505  503 -0.65639505286E+02 -0.16096690357E+02  0.26713554591E+03  0.27555225999E+03  0.00000000000E+00 0. -1.
         21    1    1    2  506  502  0.42893722442E+02  0.73502165634E+02  0.64482526585E+02  0.10677282432E+03  0.00000000000E+00 0. -1.
<scales pt_clust_3="34.39925" pt_clust_4="82.35299" pt_clust_5="68.19261" pt_clust_6="14000.00000"></scales>
<clustering>
<clus scale="   34.399">  1  3  2 -1</clus>
<clus scale="   68.193">  1  5  2 -1</clus>
<clus scale="   82.353">  1  4  2 -1</clus>
<clus scale="   34.399">  1  3  2 -1</clus>
</clustering>
</event>
<event>
 6    0  0.4390142E+002  0.1300071E+03  0.7546771E-02  0.1227445E+00
         21   -1    0    0  506  501  0.00000000000E+00  0.00000000000E+00  0.22316426623E+03  0.22316426623E+03  0.00000000000E+00 0.  1.
         21   -1    0    0  505  502 -0.00000000000E+00 -0.00000000000E+00 -0.19815422715E+03  0.19815422715E+03  0.00000000000E+00 0.  1.
         21    1    1    2  503  501 -0.12388588576E+03  0.31295431547E+02 -0.69339114569E+02  0.14537891710E+03  0.00000000000E+00 0.  1.
         21    1    1    2  504  502  0.39415726425E+02  0.65608439677E+01 -0.43194471570E+01  0.40190817196E+02  0.00000000000E+00 0.  1.
         21    1    1    2  505  503 -0.18707009156E+02  0.46459519700E+02 -0.23180774674E+02  0.55188653515E+02  0.00000000000E+00 0.  1.
         21    1    1    2  506  504  0.10317716849E+03 -0.84315795214E+02  0.12184937548E+03  0.18056010558E+03  0.00000000000E+00 0.  1.
<scales pt_clust_3="14000.00000" pt_clust_4="39.95803" pt_clust_5="48.93836" pt_clust_6="130.00707"></scales>
<clustering>
<clus scale="   39.958">  2  4  1 -1</clus>
<clus scale="   48.938">  2  5  1 -1</clus>
<clus scale="  130.007">  1  6  2 -1</clus>
<clus scale="  130.007">  1  3  2 -1</clus>
</clustering>
</event>
<event>
 6    0  0.4390142E+002  0.1021669E+03  0.7546771E-02  0.1275804E+00
         21   -1    0    0  503  501  0.00000000000E+00  0.00000000000E+00  0.86791194717E+02  0.86791194717E+02  0.00000000000E+00 0. -1.
         21   -1    0    0  505  502 -0.00000000000E+00 -0.00000000000E+00 -0.17466863546E+04  0.17466863546E+04  0.00000000000E+00 0. -1.
         21    1    1    2  503  502 -0.32233531455E+02 -0.12944483337E+02 -0.12717674910E+02  0.36990531951E+02  0.00000000000E+00 0. -1.
         21    1    1    2  504  506 -0.55977073373E+01 -0.92988567175E+02 -0.78211829650E+03  0.78764664519E+03  0.00000000000E+00 0. -1.
         21    1    1    2  505  504  0.30727635008E+02 -0.68790514041E+01 -0.89206743859E+03  0.89262300211E+03  0.00000000000E+00 0. -1.
         21    1    1    2  506  501  0.71036037833E+01  0.11281210192E+03  0.27008250140E+02  0.11621737005E+03  0.00000000000E+00 0. -1.
<scales pt_clust_3="33.98459" pt_clust_4="102.16693" pt_clust_5="31.48823" pt_clust_6="14000.00000"></scales>
<clustering>
<clus scale="   31.488">  2  5  1 -1</clus>
<clus scale="   33.985">  1  3  2 -1</clus>
<clus scale="  102.167">  2  4  1 -1</clus>
<clus scale="   33.985">  1  3  2 -1</clus>
</clustering>
</event>
<event>
 6    0  0.4390142E+002  0.1783816E+03  0.7546771E-02  0.1169379E+00
         21   -1    0    0  503  501  0.00000000000E+00  0.00000000000E+00  0.84592150424E+02  0.84592150424E+02  0.00000000000E+00 0.  1.
         21   -1    0    0  501  502 -0.00000000000E+00 -0.00000000000E+00 -0.13734359973E+04  0.13734359973E+04  0.00000000000E+00 0.  1.
         21    1    1    2  503  504 -0.10712760929E+02 -0.11537903955E+03 -0.85698021503E+01  0.11619177046E+03  0.00000000000E+00 0.  1.
         21    1    1    2  504  505 -0.55128455547E+02 -0.28611452158E+02 -0.13374792807E+02  0.63534611734E+02  0.00000000000E+00 0.  1.
         21    1    1    2  505  506  0.98209744148E+01  0.60930119324E+02 -0.30378879950E+03  0.30999446073E+03  0.00000000000E+00 0.  1.
         21    1    1    2  506  502  0.56020242061E+02  0.83060372381E+02 -0.96311045242E+03  0.96830730481E+03  0.00000000000E+00 0.  1.
<scales pt_clust_3="60.15813" pt_clust_4="60.15813" pt_clust_5="49.34918" pt_clust_6="170.35753"></scales>
<clustering>
<clus scale="   49.349">  5  6 -1 -1</clus>
<clus scale="   60.158">  3  4 -1 -1</clus>
<clus scale="  170.358">  2  5  1 -1</clus>
<clus scale="  178.382">  1  3  2 -1</clus>
</clustering>
</event>
<event>
 6    0  0.4390142E+002  0.9190678E+02  0.7546771E-02  0.1298299E+00
         21   -1    0    0  503  501  0.00000000000E+00  0.00000000000E+00  0.20684746285E+03  0.20684746285E+03  0.00000000000E+00 0.  1.
         21   -1    0    0  506  502 -0.00000000000E+00 -0.00000000000E+00 -0.95612166909E+03  0.95612166909E+03  0.00000000000E+00 0. -1.
         21    1    1    2  503  502 -0.52406809745E+02  0.50640227153E+02 -0.29103831735E+03  0.30002367987E+03  0.00000000000E+00 0.  1.
         21    1    1    2  504  501 -0.21577642273E+02  0.58771653508E+02  0.12624034928E+03  0.14091248238E+03  0.00000000000E+00 0.  1.
         21    1    1    2  505  504 -0.45143629414E+02 -0.73402721095E+02  0.32898176342E+02  0.92239886966E+02  0.00000000000E+00 0.  1.
         21    1    1    2  506  505  0.11912808143E+03 -0.36009159567E+02 -0.61737441451E+03  0.62979308273E+03  0.00000000000E+00 0. -1.
<scales pt_clust_3="91.90678" pt_clust_4="62.60752" pt_clust_5="67.67605" pt_clust_6="14000.00000"></scales>
<clustering>
<clus scale="   62.608">  1  4  2 -1</clus>
<clus scale="   67.676">  1  5  2 -1</clus>
<clus scale="   91.907">  2  3  1 -1</clus>
<clus scale="   62.608">  1  3  2 -1</clus>
</clustering>
</event>
<event>
 6    0  0.4390142E+002  0.1820871E+03  0.7546771E-02  0.1165798E+00
         21   -1    0    0  504  501  0.00000000000E+00  0.00000000000E+00  0.18949016797E+04  0.18949016797E+04  0.00000000000E+00 0.  1.
         21   -1    0    0  505  502 -0.00000000000E+00 -0.00000000000E+00 -0.16080820258E+03  0.16080820258E+03  0.00000000000E+00 0. -1.
         21    1    1    2  503  501  0.79153408204E+02  0.52868881732E+02  0.13074669803E+04  0.13109272617E+04  0.00000000000E+00 0.  1.
         21    1    1    2  504  502 -0.10082673900E+03 -0.14943833086E+03 -0.93338677965E+02  0.20300235179E+03  0.00000000000E+00 0. -1.
         21    1    1    2  505  506 -0.14510592732E+02  0.30777529402E+02  0.27852788530E+02  0.43972621555E+02  0.00000000000E+00 0.  1.
         21    1    1    2  506  503  0.36183923526E+02  0.65791919727E+02  0.49211238624E+03  0.49780764731E+03  0.00000000000E+00 0.  1.
<scales pt_clust_3="66.92349" pt_clust_4="165.83942" pt_clust_5="34.02666" pt_clust_6="66.92349"></scales>
<clustering>
<clus scale="   34.027">  2  5  1 -1</clus>
<clus scale="   66.923">  3  6 -1 -1</clus>
<clus scale="  165.839">  2  4  1 -1</clus>
<clus scale="  182.087">  1  3  2 -1</clus>
</clustering>
</event>
<event>
 6    0  0.4390142E+002  0.8450284E+02  0.7546771E-02  0.1316738E+00
         21   -1    0    0  503  501  0.00000000000E+00  0.00000000000E+00  0.17295675472E+03  0.17295675472E+03  0.00000000000E+00 0.  1.
         21   -1    0    0  505  502 -0.00000000000E+00 -0.00000000000E+00 -0.11237235567E+04  0.11237235567E+04  0.00000000000E+00 0. -1.
         21    1    1    2  503  506  0.50990206624E+02 -0.50403164816E+01  0.10818949365E+03  0.11970953387E+03  0.00000000000E+00 0.  1.
         21    1    1    2  504  502 -0.16556615868E+02  0.82311692884E+02 -0.10306251610E+04  0.10340394378E+04  0.00000000000E+00 0. -1.
         21    1    1    2  505  501 -0.29753169651E+02  0.23940994614E+02 -0.13635722574E+02  0.40550650518E+02  0.00000000000E+00 0.  1.
         21    1    1    2  506  504 -0.46804211054E+01 -0.10121237102E+03 -0.14695411968E+02  0.10238068920E+03  0.00000000000E+00 0.  1.
<scales pt_clust_3="32.08797" pt_clust_4="14000.00000" pt_clust_5="38.18930" pt_clust_6="84.50284"></scales>
<clustering>
<clus scale="   38.189">  1  5  2 -1</clus>
<clus scale="   32.088">  1  3  2 -1</clus>
<clus scale="   84.503">  1  6  2 -1</clus>
<clus scale="   38.189">  1  3  2 -1</clus>
</clustering>
</event>
<event>
 6    0  0.4390142E+002  0.1160892E+03  0.7546771E-02  0.1249692E+00
         21   -1    0    0  506  501  0.00000000000E+00  0.00000000000E+00  0.27882317569E+03  0.27882317569E+03  0.00000000000E+00 0.  1.
         21   -1    0    0  504  502 -0.00000000000E+00 -0.00000000000E+00 -0.44832510445E+03  0.44832510445E+03  0.00000000000E+00 0. -1.
         21    1    1    2  503  501  0.42590466344E+02 -0.35501742931E+02  0.12354339274E+03  0.13541525565E+03  0.00000000000E+00 0.  1.
         21    1    1    2  504  503  0.89039413130E+02  0.67851148802E+02  0.96937027208E+02  0.14808302647E+03  0.00000000000E+00 0.  1.
         21    1    1    2  505  502 -0.58017084973E+02  0.26432453955E+02 -0.32002074529E+03  0.32630956802E+03  0.00000000000E+00 0. -1.
         21    1    1    2  506  505 -0.73612794501E+02 -0.58781859827E+02 -0.69961603412E+02  0.11734042999E+03  0.00000000000E+00 0. -1.
<scales pt_clust_3="55.44657" pt_clust_4="116.08916" pt_clust_5="62.62948" pt_clust_6="14000.00000"></scales>
<clustering>
<clus scale="   55.447">  1  3  2 -1</clus>
<clus scale="   62.629">  2  5  1 -1</clus>
<clus scale="  116.089">  1  4  2 -1</clus>
<clus scale="   55.447">  1  3  2 -1</clus>
</clustering>
</event>
<event>
 6    0  0.4390142E+002  0.8769004E+02  0.7546771E-02  0.1308544E+00
         21   -1    0    0  506  501  0.00000000000E+00  0.00000000000E+00  0.52118390255E+03  0.52118390255E+03  0.00000000000E+00 0. -1.
         21   -1    0    0  504  502 -0.00000000000E+00 -0.00000000000E+00 -0.87436448598E+03  0.87436448598E+03  0.00000000000E+00 0. -1.
         21    1    1    2  503  501  0.11199602331E+02  0.47696945108E+02  0.60137830531E+02  0.77569248585E+02  0.00000000000E+00 0.  1.
         21    1    1    2  504  503 -0.11153070470E+03 -0.10626284217E+03 -0.77408408065E+03  0.78926361479E+03  0.00000000000E+00 0. -1.
         21    1    1    2  505  502  0.38037661578E+02  0.57348942007E+02 -0.67231403782E+02  0.96207206082E+02  0.00000000000E+00 0.  1.
         21    1    1    2  506  505  0.62293440794E+02  0.12169550591E+01  0.42799707047E+03  0.43250831908E+03  0.00000000000E+00 0. -1.
<scales pt_clust_3="48.99418" pt_clust_4="87.69004" pt_clust_5="70.29041" pt_clust_6="14000.00000"></scales>
<clustering>
<clus scale="   48.994">  1  3  2 -1</clus>
<clus scale="   70.290">  2  5  1 -1</clus>
<clus scale="   87.690">  2  4  1 -1</clus>
<clus scale="   48.994">  1  3  2 -1</clus>
</clustering>
</event>
<event>
 6    0  0.4390142E+002  0.8134037E+02  0.7546771E-02  0.1325290E+00
         21   -1    0    0  503  501  0.00000000000E+00  0.00000000000E+00  0.93277932188E+03  0.93277932188E+03  0.00000000000E+00 0. -1.
         21   -1    0    0  506  502 -0.00000000000E+00 -0.00000000000E+00 -0.84701486836E+02  0.84701486836E+02  0.00000000000E+00 0.  1.
         21    1    1    2  503  505  0.29647942229E+02  0.28201219587E+02  0.12308348813E+03  0.12970680135E+03  0.00000000000E+00 0. -1.
         21    1    1    2  504  501 -0.21740419734E+02 -0.66661793253E+02  0.71094315701E+03  0.71439247828E+03  0.00000000000E+00 0. -1.
         21    1    1    2  505  502 -0.83509202079E+02  0.45302525622E+02  0.20517206252E+02  0.97195994835E+02  0.00000000000E+00 0. -1.
         21    1    1    2  506  504  0.75601679584E+02 -0.68419519560E+01 -0.64660163446E+01  0.76185534256E+02  0.00000000000E+00 0.  1.
<scales pt_clust_3="40.91832" pt_clust_4="41.97588" pt_clust_5="81.34037" pt_clust_6="14000.00000"></scales>
<clustering>
<clus scale="   40.918">  1  3  2 -1</clus>
<clus scale="   41.976">  1  4  2 -1</clus>
<clus scale="   81.340">  1  5  2 -1</clus>
<clus scale="   40.918">  1  3  2 -1</clus>
</clustering>
</event>
<event>
 6    0  0.4390142E+002  0.1566291E+03  0.7546771E-02  0.1192556E+00
         21   -1    0    0  504  501  0.00000000000E+00  0.00000000000E+00  0.97428294324E+03  0.97428294324E+03  0.00000000000E+00 0. -1.
         21   -1    0    0  506  502 -0.00000000000E+00 -0.00000000000E+00 -0.61716319224E+02  0.61716319224E+02  0.00000000000E+00 0.  1.
         21    1    1    2  503  505  0.58661058055E+02 -0.15067463187E+03  0.11957839678E+03  0.20110434456E+03  0.00000000000E+00 0.  1.
         21    1    1    2  504  503  0.26538319252E+02  0.21468946466E+02  0.12686028074E+03  0.13137248144E+03  0.00000000000E+00 0. -1.
         21    1    1    2  505  502 -0.30898134588E+02 -0.67408357628E+01  0.13004716515E+02  0.34194389005E+02  0.00000000000E+00 0. -1.
         21    1    1    2  506  501 -0.54301242719E+02  0.13594652117E+03  0.65312322998E+03  0.66932804746E+03  0.00000000000E+00 0. -1.
<scales pt_clust_3="14000.00000" pt_clust_4="32.89372" pt_clust_5="31.62489" pt_clust_6="156.62915"></scales>
<clustering>
<clus scale="   31.625">  2  5  1 -1</clus>
<clus scale="   32.894">  1  4  2 -1</clus>
<clus scale="  156.629">  1  6  2 -1</clus>
<clus scale="   32.894">  1  3  2 -1</clus>
</clustering>
</event>
<event>
 6    0  0.4390142E+002  0.1359765E+03  0.7546771E-02  0.1218848E+00
         21   -1    0    0  503  501  0.00000000000E+00  0.00000000000E+00  0.29290046262E+03  0.29290046262E+03  0.00000000000E+00 0. -1.
         21   -1    0    0  505  502 -0.00000000000E+00 -0.00000000000E+00 -0.75356531716E+03  0.75356531716E+03  0.00000000000E+00 0. -1.
         21    1    1    2  503  504  0.40106573725E+02  0.80836810804E+01  0.74634651807E+02  0.85112950872E+02  0.00000000000E+00 0. -1.
         21    1    1    2  504  506  0.71975258919E+02 -0.58651789593E+02  0.17660838740E+03  0.19952692254E+03  0.00000000000E+00 0.  1.
         21    1    1    2  505  501 -0.16038737255E+03  0.55114201705E+02 -0.28111834656E+03  0.32831266999E+03  0.00000000000E+00 0. -1.
         21    1    1    2  506  502  0.48305539907E+02 -0.45460931921E+01 -0.43078954719E+03  0.43351323638E+03  0.00000000000E+00 0. -1.
<scales pt_clust_3="34.98337" pt_clust_4="34.98337" pt_clust_5="125.34862" pt_clust_6="48.51899"></scales>
<clustering>
<clus scale="   34.983">  3  4 -1 -1</clus>
<clus scale="   48.519">  2  6  1 -1</clus>
<clus scale="  125.349">  2  5  1 -1</clus>
<clus scale="  135.976">  1  3  2 -1</clus>
</clustering>
</event>
<event>
 6    0  0.4390142E+002  0.1362031E+03  0.7546771E-02  0.1218531E+00
         21   -1    0    0  506  501  0.00000000000E+00  0.00000000000E+00  0.15485135613E+03  0.15485135613E+03  0.00000000000E+00 0.  1.
         21   -1    0    0  503  502 -0.00000000000E+00 -0.00000000000E+00 -0.63377687903E+03  0.63377687903E+03  0.00000000000E+00 0. -1.
         21    1    1    2  503  501  0.40204985899E+02  0.28360107502E+02 -0.27183541042E+03  0.27625210758E+03  0.00000000000E+00 0. -1.
         21    1    1    2  504  505 -0.11564126287E+03  0.13156819316E+03  0.63687627454E+01  0.17528163700E+03  0.00000000000E+00 0.  1.
         21    1    1    2  505  502  0.42209413550E+01 -0.14546635363E+03 -0.22038297219E+03  0.26409644226E+03  0.00000000000E+00 0. -1.
         21    1    1    2  506  504  0.71215335616E+02 -0.14461947036E+02  0.69240969599E+01  0.72998048314E+02  0.00000000000E+00 0. -1.
<scales pt_clust_3="49.20098" pt_clust_4="14000.00000" pt_clust_5="136.20309" pt_clust_6="75.84033"></scales>
<clustering>
<clus scale="   49.201">  2  3  1 -1</clus>
<clus scale="   75.840">  1  6  2 -1</clus>
<clus scale="  136.203">  2  5  1 -1</clus>
<clus scale="   75.840">  1  3  2 -1</clus>
</clustering>
</event>
<event>
 6    0  0.4390142E+002  0.1388530E+03  0.7546771E-02  0.1214881E+00
         21   -1    0    0  505  501  0.00000000000E+00  0.00000000000E+00  0.64494728859E+03  0.64494728859E+03  0.00000000000E+00 0.  1.
         21   -1    0    0  503  502 -0.00000000000E+00 -0.00000000000E+00 -0.37191411245E+03  0.37191411245E+03  0.00000000000E+00 0. -1.
         21    1    1    2  503  501 -0.72650089573E+02 -0.27616967369E+02  0.52861128047E+03  0.53429450516E+03  0.00000000000E+00 0.  1.
         21    1    1    2  504  502 -0.84312204300E+02 -0.68798597506E+02 -0.11746056437E+03  0.16012113850E+03  0.00000000000E+00 0. -1.
         21    1    1    2  505  506 -0.32769540016E+02  0.27269822486E+00  0.35184936304E+02  0.48082188593E+02  0.00000000000E+00 0. -1.
         21    1    1    2  506  504  0.18973183389E+03  0.96142866651E+02 -0.17330247626E+03  0.27436356879E+03  0.00000000000E+00 0. -1.
<scales pt_clust_3="105.14311" pt_clust_4="138.85297" pt_clust_5="32.77067" pt_clust_6="14000.00000"></scales>
<clustering>
<clus scale="   32.771">  1  5  2 -1</clus>
<clus scale="  105.143">  1  3  2 -1</clus>
<clus scale="  138.853">  2  4  1 -1</clus>
<clus scale="   32.771">  1  3  2 -1</clus>
</clustering>
</event>
<event>
 6    0  0.4390142E+002  0.1149656E+03  0.7546771E-02  0.1251641E+00
         21   -1    0    0  504  501  0.00000000000E+00  0.00000000000E+00  0.20622730212E+03  0.20622730212E+03  0.00000000000E+00 0.  1.
         21   -1    0    0  503  502 -0.00000000000E+00 -0.00000000000E+00 -0.13001041977E+03  0.13001041977E+03  0.00000000000E+00 0.  1.
         21    1    1    2  503  505  0.83599514822E+02  0.63693831765E+02 -0.56266484016E+02  0.11921283617E+03  0.00000000000E+00 0.  1.
         21    1    1    2  504  502 -0.33706562117E+02  0.35339353029E+02  0.23005623617E+02  0.53983895008E+02  0.00000000000E+00 0.  1.
         21    1    1    2  505  506 -0.33655189328E+01 -0.47178649215E+02  0.64991799890E+02  0.80380879022E+02  0.00000000000E+00 0.  1.
         21    1    1    2  506  501 -0.46527433773E+02 -0.51854535580E+02  0.44485942859E+02  0.82660111697E+02  0.00000000000E+00 0.  1.
<scales pt_clust_3="104.48440" pt_clust_4="48.83648" pt_clust_5="39.51664" pt_clust_6="39.51664"></scales>
<clustering>
<clus scale="   39.517">  5  6 -1 -1</clus>
<clus scale="   48.836">  1  4  2 -1</clus>
<clus scale="  104.484">  2  3  1 -1</clus>
<clus scale="   48.836">  1  3  2 -1</clus>
</clustering>
</event>
<event>
 6    0  0.4390142E+002  0.9355320E+02  0.7546771E-02  0.1294468E+00
         21   -1    0    0  503  501  0.00000000000E+00  0.00000000000E+00  0.18923899602E+03  0.18923899602E+03  0.00000000000E+00 0. -1.
         21   -1    0    0  505  502 -0.00000000000E+00 -0.00000000000E+00 -0.19720735521E+03  0.19720735521E+03  0.00000000000E+00 0. -1.
         21    1    1    2  503  506  0.16871212246E+02  0.36384223339E+02  0.24885124316E+02  0.47198717386E+02  0.00000000000E+00 0.  1.
         21    1    1    2  504  501  0.78153480617E+02 -0.67623218503E+02  0.91409534518E+02  0.13797307424E+03  0.00000000000E+00 0. -1.
         21    1    1    2  505  504 -0.87989044398E+02 -0.16792523130E+02 -0.12369939825E+03  0.15272721399E+03  0.00000000000E+00 0. -1.
         21    1    1    2  506  502 -0.70356484651E+01  0.48031518294E+02 -0.56361977428E+00  0.48547345614E+02  0.00000000000E+00 0. -1.
<scales pt_clust_3="33.43377" pt_clust_4="86.01851" pt_clust_5="89.57712" pt_clust_6="33.43377"></scales>
<clustering>
<clus scale="   33.434">  3  6 -1 -1</clus>
<clus scale="   89.577">  2  5  1 -1</clus>
<clus scale="   86.019">  1  4  2 -1</clus>
<clus scale="   86.019">  1  3  2 -1</clus>
</clustering>
</event>
<event>
 6    0  0.4826160E+002  0.1585884E+03  0.7546771E-02  0.1190300E+00
         21   -1    0    0  504  501  0.00000000000E+00  0.00000000000E+00  0.17188500979E+04  0.17188500979E+04  0.00000000000E+00 0. -1.
         21   -1    0    0  505  502 -0.00000000000E+00 -0.00000000000E+00 -0.49102855909E+03  0.49102855909E+03  0.00000000000E+00 0. -1.
         21    1    1    2  503  502 -0.14389616372E+03 -0.57319606478E+02 -0.45723439807E+03  0.48275763899E+03  0.00000000000E+00 0. -1.
         21    1    1    2  504  506  0.45678151119E+02  0.79107570997E+02  0.10270027516E+04  0.10310572986E+04  0.00000000000E+00 0. -1.
         21    1    1    2  505  501  0.51927327788E+02 -0.76661533743E+02  0.11203131713E+03  0.14534254073E+03  0.00000000000E+00 0. -1.
         21    1    1    2  506  503  0.46290684810E+02  0.54873569225E+02  0.54602186818E+03  0.55072117867E+03  0.00000000000E+00 0. -1.
<scales pt_clust_3="154.73459" pt_clust_4="30.80530" pt_clust_5="92.59286" pt_clust_6="30.80530"></scales>
<clustering>
<clus scale="   30.805">  4  6 -1 -1</clus>
<clus scale="   92.593">  1  5  2 -1</clus>
<clus scale="  154.735">  2  3  1 -1</clus>
<clus scale="   92.593">  1  3  2 -1</clus>
</clustering>
</event>
<event>
 6    0  0.4390142E+002  0.1822028E+03  0.7546771E-02  0.1165688E+00
         21   -1    0    0  503  501  0.00000000000E+00  0.00000000000E+00  0.14793700674E+03  0.14793700674E+03  0.00000000000E+00 0. -1.
         21   -1    0    0  504  502 -0.00000000000E+00 -0.00000000000E+00 -0.19685956958E+04  0.19685956958E+04  0.00000000000E+00 0. -1.
         21    1    1    2  503  506  0.19307528531E+02  0.23210145719E+02 -0.96438384293E+01  0.31693771343E+02  0.00000000000E+00 0. -1.
         21    1    1    2  504  505 -0.27829629294E+02 -0.13270959962E+02 -0.65969722555E+03  0.66041731961E+03  0.00000000000E+00 0. -1.
         21    1    1    2  505  501  0.16511499205E+03 -0.32831833634E+02  0.77588802347E+02  0.18536696617E+03  0.00000000000E+00 0. -1.
         21    1    1    2  506  502 -0.15659289129E+03  0.22892647878E+02 -0.12289064274E+04  0.12390546454E+04  0.00000000000E+00 0. -1.
<scales pt_clust_3="30.19092" pt_clust_4="30.75983" pt_clust_5="14000.00000" pt_clust_6="182.20277"></scales>
<clustering>
<clus scale="   30.191">  1  3  2 -1</clus>
<clus scale="   30.760">  2  4  1 -1</clus>
<clus scale="  182.203">  2  6  1 -1</clus>
<clus scale="   30.191">  1  3  2 -1</clus>
</clustering>
</event>
<event>
 6    0  0.4390142E+002  0.5702643E+03  0.7546771E-02  0.9969094E-01
         21   -1    0    0  503  501  0.00000000000E+00  0.00000000000E+00  0.13584467893E+04  0.13584467893E+04  0.00000000000E+00 0. -1.
         21   -1    0    0  506  502 -0.00000000000E+00 -0.00000000000E+00 -0.48061442527E+03  0.48061442527E+03  0.00000000000E+00 0. -1.
         21    1    1    2  503  505  0.33832450571E+03 -0.10338833257E+03  0.55619021195E+03  0.65916626912E+03  0.00000000000E+00 0. -1.
         21    1    1    2  504  502  0.97187068739E+02 -0.79517615193E+02 -0.96954365615E+01  0.12594593660E+03  0.00000000000E+00 0. -1.
         21    1    1    2  505  504  0.16775018697E+03 -0.96868325103E+02  0.33727243114E+03  0.38894252846E+03  0.00000000000E+00 0. -1.
         21    1    1    2  506  501 -0.60326176142E+03  0.27977427287E+03 -0.59348425400E+01  0.66500648034E+03  0.00000000000E+00 0. -1.
<scales pt_clust_3="47.04645" pt_clust_4="125.57220" pt_clust_5="47.04645" pt_clust_6="566.70905"></scales>
<clustering>
<clus scale="   47.046">  3  5 -1 -1</clus>
<clus scale="  125.572">  2  4  1 -1</clus>
<clus scale="  566.709">  2  6  1 -1</clus>
<clus scale="  570.264">  1  3  2 -1</clus>
</clustering>
</event>
<event>
 6    0  0.4390142E+002  0.1106271E+03  0.7546771E-02  0.1259413E+00
         21   -1    0    0  506  501  0.00000000000E+00  0.00000000000E+00  0.10438420816E+04  0.10438420816E+04  0.00000000000E+00 0. -1.
         21   -1    0    0  503  502 -0.00000000000E+00 -0.00000000000E+00 -0.30061294213E+03  0.30061294213E+03  0.00000000000E+00 0.  1.
         21    1    1    2  503  504 -0.51681656015E+02 -0.99728933471E+02 -0.22641843640E+03  0.25274920787E+03  0.00000000000E+00 0.  1.
         21    1    1    2  504  505 -0.61374964876E+02  0.13399937483E+03  0.42764978508E+02  0.15346518223E+03  0.00000000000E+00 0.  1.
         21    1    1    2  505  501  0.43500775967E+02 -0.53858152031E+02  0.56399953649E+03  0.56823278260E+03  0.00000000000E+00 0. -1.
         21    1    1    2  506  502  0.69555844924E+02  0.19587710669E+02  0.36288306084E+03  0.37000785102E+03  0.00000000000E+00 0.  1.
<scales pt_clust_3="14000.00000" pt_clust_4="110.62710" pt_clust_5="69.23163" pt_clust_6="105.19147"></scales>
<clustering>
<clus scale="   69.232">  1  5  2 -1</clus>
<clus scale="  105.191">  1  6  2 -1</clus>
<clus scale="  110.627">  1  4  2 -1</clus>
<clus scale="   69.232">  1  3  2 -1</clus>
</clustering>
</event>
<event>
 6    0  0.4390142E+002  0.1060550E+03  0.7546771E-02  0.1268055E+00
         21   -1    0    0  506  501  0.00000000000E+00  0.00000000000E+00  0.79995749116E+02  0.79995749116E+02  0.00000000000E+00 0. -1.
         21   -1    0    0  505  502 -0.00000000000E+00 -0.00000000000E+00 -0.11678955713E+04  0.11678955713E+04  0.00000000000E+00 0.  1.
         21    1    1    2  503  501 -0.53368353520E+02 -0.42431700482E+02  0.38210537825E+02  0.78158016633E+02  0.00000000000E+00 0. -1.
         21    1    1    2  504  502  0.15183262715E+03  0.10487376876E+02 -0.88657684567E+03  0.89954523789E+03  0.00000000000E+00 0.  1.
         21    1    1    2  505  503 -0.55516756925E+02  0.43747005612E+02 -0.19407902796E+03  0.20654921906E+03  0.00000000000E+00 0. -1.
         21    1    1    2  506  504 -0.42947516704E+02 -0.11802682006E+02 -0.45454486367E+02  0.63638846819E+02  0.00000000000E+00 0. -1.
<scales pt_clust_3="106.05495" pt_clust_4="14000.00000" pt_clust_5="73.07381" pt_clust_6="44.53979"></scales>
<clustering>
<clus scale="   44.540">  1  6  2 -1</clus>
<clus scale="   73.074">  2  5  1 -1</clus>
<clus scale="  106.055">  1  3  2 -1</clus>
<clus scale="   44.540">  1  3  2 -1</clus>
</clustering>
</event>
<event>
 6    0  0.4390142E+002  0.1026601E+03  0.7546771E-02  0.1274800E+00
         21   -1    0    0  506  501  0.00000000000E+00  0.00000000000E+00  0.18620637012E+04  0.18620637012E+04  0.00000000000E+00 0. -1.
         21   -1    0    0  504  502 -0.00000000000E+00 -0.00000000000E+00 -0.14629884209E+03  0.14629884209E+03  0.00000000000E+00 0.  1.
         21    1    1    2  503  501 -0.89522944738E+02  0.44547808159E+02  0.10266222582E+04  0.10314805504E+04  0.00000000000E+00 0. -1.
         21    1    1    2  504  503 -0.21274662348E+02  0.39672218676E+02  0.72336422069E+02  0.85200083042E+02  0.00000000000E+00 0. -1.
         21    1    1    2  505  502  0.31469367045E+02 -0.77837741709E+01 -0.13143554481E+03  0.13537433524E+03  0.00000000000E+00 0.  1.
         21    1    1    2  506  505  0.79328240041E+02 -0.76436252664E+02  0.74824172363E+03  0.75630757458E+03  0.00000000000E+00 0.  1.
<scales pt_clust_3="102.66007" pt_clust_4="36.22136" pt_clust_5="32.41771" pt_clust_6="14000.00000"></scales>
<clustering>
<clus scale="   32.418">  2  5  1 -1</clus>
<clus scale="   36.221">  2  4  1 -1</clus>
<clus scale="  102.660">  1  3  2 -1</clus>
<clus scale="  102.660">  1  3  2 -1</clus>
</clustering>
</event>
<event>
 6    0  0.4390142E+002  0.1442917E+03  0.7546771E-02  0.1207668E+00
         21   -1    0    0  503  501  0.00000000000E+00  0.00000000000E+00  0.52313274364E+03  0.52313274364E+03  0.00000000000E+00 0.  1.
         21   -1    0    0  506  502 -0.00000000000E+00 -0.00000000000E+00 -0.78214010817E+03  0.78214010817E+03  0.00000000000E+00 0.  1.
         21    1    1    2  503  502  0.16679933267E+03 -0.90038244247E+02 -0.54388626241E+02  0.19719793475E+03  0.00000000000E+00 0.  1.
         21    1    1    2  504  505 -0.62025730156E+02  0.18241768664E+01  0.24886200018E+03  0.25648160549E+03  0.00000000000E+00 0.  1.
         21    1    1    2  505  501 -0.73695488631E+02 -0.21649575875E+02  0.18640048822E+03  0.20160573204E+03  0.00000000000E+00 0.  1.
         21    1    1    2  506  504 -0.31078113880E+02  0.10986364326E+03 -0.63988122669E+03  0.64998757953E+03  0.00000000000E+00 0.  1.
<scales pt_clust_3="138.71852" pt_clust_4="35.69654" pt_clust_5="35.69654" pt_clust_6="114.17473"></scales>
<clustering>
<clus scale="   35.697">  4  5 -1 -1</clus>
<clus scale="  114.175">  2  6  1 -1</clus>
<clus scale="  138.719">  2  3  1 -1</clus>
<clus scale="  144.292">  1  3  2 -1</clus>
</clustering>
</event>
<event>
 6    0  0.4390142E+002  0.8356643E+02  0.7546771E-02  0.1319225E+00
         21   -1    0    0  506  501  0.00000000000E+00  0.00000000000E+00  0.19239720599E+03  0.19239720599E+03  0.00000000000E+00 0. -1.
         21   -1    0    0  504  502 -0.00000000000E+00 -0.00000000000E+00 -0.14586008952E+04  0.14586008952E+04  0.00000000000E+00 0.  1.
         21    1    1    2  503  502  0.32782632904E+02  0.31643012546E+02 -0.72022637501E+03  0.72166613646E+03  0.00000000000E+00 0.  1.
         21    1    1    2  504  505 -0.38102876896E+02  0.33975764100E+02 -0.68425924067E+03  0.68616097981E+03  0.00000000000E+00 0.  1.
         21    1    1    2  505  501  0.11798042400E+02 -0.13128635910E+03  0.74569677749E+02  0.15144615786E+03  0.00000000000E+00 0.  1.
         21    1    1    2  506  503 -0.64777984090E+01  0.65667582456E+02  0.63712248727E+02  0.91724827041E+02  0.00000000000E+00 0. -1.
<scales pt_clust_3="45.56294" pt_clust_4="63.82928" pt_clust_5="83.56643" pt_clust_6="14000.00000"></scales>
<clustering>
<clus scale="   45.563">  2  3  1 -1</clus>
<clus scale="   63.829">  2  4  1 -1</clus>
<clus scale="   83.566">  2  5  1 -1</clus>
<clus scale="   83.566">  1  3  2 -1</clus>
</clustering>
</event>
<event>
 6    0  0.4390142E+002  0.1638130E+03  0.7546771E-02  0.1184458E+00
         21   -1    0    0  504  501  0.00000000000E+00  0.00000000000E+00  0.16428657363E+04  0.16428657363E+04  0.00000000000E+00 0. -1.
         21   -1    0    0  506  502 -0.00000000000E+00 -0.00000000000E+00 -0.30550763515E+02  0.30550763515E+02  0.00000000000E+00 0.  1.
         21    1    1    2  503  505  0.63854456314E+02  0.27227104702E+02  0.67133118031E+03  0.67491055739E+03  0.00000000000E+00 0. -1.
         21    1    1    2  504  502 -0.10178949704E+03 -0.11670723266E+03  0.23086560551E+03  0.27799389862E+03  0.00000000000E+00 0.  1.
         21    1    1    2  505  501 -0.16524067594E+02  0.35548900670E+02  0.35852878127E+03  0.36066557383E+03  0.00000000000E+00 0.  1.
         21    1    1    2  506  503  0.54459108318E+02  0.53931227286E+02  0.35158940574E+03  0.35984647002E+03  0.00000000000E+00 0. -1.
<scales pt_clust_3="57.80987" pt_clust_4="151.86805" pt_clust_5="39.20165" pt_clust_6="57.80987"></scales>
<clustering>
<clus scale="   39.202">  1  5  2 -1</clus>
<clus scale="   57.810">  3  6 -1 -1</clus>
<clus scale="  151.868">  2  4  1 -1</clus>
<clus scale="   39.202">  1  3  2 -1</clus>
</clustering>
</event>
<event>
 6    0  0.4390142E+002  0.1253558E+03  0.7546771E-02  0.1234514E+00
         21   -1    0    0  506  501  0.00000000000E+00  0.00000000000E+00  0.25321279012E+03  0.25321279012E+03  0.00000000000E+00 0.  1.
         21   -1    0    0  505  502 -0.00000000000E+00 -0.00000000000E+00 -0.20356689741E+03  0.20356689741E+03  0.00000000000E+00 0.  1.
         21    1    1    2  503  504  0.69376065769E+02 -0.51787114453E+02  0.14527761233E+03  0.16911690740E+03  0.00000000000E+00 0.  1.
         21    1    1    2  504  501  0.43442321680E+02  0.13024612714E+02  0.64109769068E+02  0.78529856355E+02  0.00000000000E+00 0.  1.
         21    1    1    2  505  503 -0.76538320836E+02  0.25930595870E+02 -0.55552363487E+02  0.98064139458E+02  0.00000000000E+00 0.  1.
         21    1    1    2  506  502 -0.36280066613E+02  0.12831905869E+02 -0.10418912520E+03  0.11106878432E+03  0.00000000000E+00 0.  1.
<scales pt_clust_3="41.33652" pt_clust_4="41.33652" pt_clust_5="111.61880" pt_clust_6="38.48248"></scales>
<clustering>
<clus scale="   38.482">  2  6  1 -1</clus>
<clus scale="   41.337">  3  4 -1 -1</clus>
<clus scale="  111.619">  2  5  1 -1</clus>
<clus scale="  125.356">  1  3  2 -1</clus>
</clustering>
</event>
<event>
 6    0  0.4390142E+002  0.8304747E+02  0.7546771E-02  0.1320619E+00
         21   -1    0    0  503  501  0.00000000000E+00  0.00000000000E+00  0.13630056962E+03  0.13630056962E+03  0.00000000000E+00 0.  1.
         21   -1    0    0  504  502 -0.00000000000E+00 -0.00000000000E+00 -0.21884544029E+03  0.21884544029E+03  0.00000000000E+00 0.  1.
         21    1    1    2  503  505  0.29127544015E+02  0.49856703091E+02  0.33693364398E+02  0.66853178443E+02  0.00000000000E+00 0.  1.
         21    1    1    2  504  506 -0.30224626087E+02 -0.45427942973E+02 -0.60569149906E+02  0.81522070295E+02  0.00000000000E+00 0.  1.
         21    1    1    2  505  502  0.69299112752E+02 -0.18508760196E+02  0.44767838455E+02  0.84552354148E+02  0.00000000000E+00 0.  1.
         21    1    1    2  506  501 -0.68202030680E+02  0.14080000077E+02 -0.10043692362E+03  0.12221840703E+03  0.00000000000E+00 0.  1.
<scales pt_clust_3="51.63247" pt_clust_4="54.56396" pt_clust_5="83.04747" pt_clust_6="14000.00000"></scales>
<clustering>
<clus scale="   54.564">  2  4  1 -1</clus>
<clus scale="   51.632">  1  3  2 -1</clus>
<clus scale="   83.047">  1  5  2 -1</clus>
<clus scale="   51.632">  1  3  2 -1</clus>
</clustering>
</event>
<event>
 6    0  0.4390142E+002  0.1223261E+03  0.7546771E-02  0.1239308E+00
         21   -1    0    0  505  501  0.00000000000E+00  0.00000000000E+00  0.16379202748E+03  0.16379202748E+03  0.00000000000E+00 0. -1.
         21   -1    0    0  504  502 -0.00000000000E+00 -0.00000000000E+00 -0.22112531208E+03  0.22112531208E+03  0.00000000000E+00 0. -1.
         21    1    1    2  503  501  0.50306494967E+02  0.10061224019E+02  0.53150352598E+02  0.73871047414E+02  0.00000000000E+00 0. -1.
         21    1    1    2  504  506 -0.13040610812E+03 -0.44510825815E+02 -0.10296387086E+02  0.13817735790E+03  0.00000000000E+00 0. -1.
         21    1    1    2  505  502  0.28700837646E+02  0.13872417913E+02 -0.11183732337E+03  0.11629174071E+03  0.00000000000E+00 0. -1.
         21    1    1    2  506  503  0.51398775509E+02  0.20577183883E+02  0.11650073250E+02  0.56577193525E+02  0.00000000000E+00 0. -1.
<scales pt_clust_3="36.65204" pt_clust_4="115.88231" pt_clust_5="31.87761" pt_clust_6="36.65204"></scales>
<clustering>
<clus scale="   31.878">  2  5  1 -1</clus>
<clus scale="   36.652">  3  6 -1 -1</clus>
<clus scale="  115.882">  2  4  1 -1</clus>
<clus scale="  122.326">  1  3  2 -1</clus>
</clustering>
</event>
<event>
 6    0  0.4390142E+002  0.1448882E+03  0.7546771E-02  0.1206899E+00
         21   -1    0    0  506  501  0.00000000000E+00  0.00000000000E+00  0.68327130044E+03  0.68327130044E+03  0.00000000000E+00 0.  1.
         21   -1    0    0  503  502 -0.00000000000E+00 -0.00000000000E+00 -0.50776977552E+02  0.50776977552E+02  0.00000000000E+00 0.  1.
         21    1    1    2  503  504  0.29086391203E+02  0.16317589094E+02 -0.67775324221E+01  0.34032584574E+02  0.00000000000E+00 0.  1.
         21    1    1    2  504  505  0.42208661978E+02 -0.84103937944E+01  0.73547214469E+02  0.85214427334E+02  0.00000000000E+00 0.  1.
         21    1    1    2  505  501  0.59711654133E+02 -0.70228363318E+02  0.27213294433E+03  0.28732184749E+03  0.00000000000E+00 0.  1.
         21    1    1    2  506  502 -0.13100670731E+03  0.62321168019E+02  0.29359169652E+03  0.32747941860E+03  0.00000000000E+00 0.  1.
<scales pt_clust_3="33.35089" pt_clust_4="37.25112" pt_clust_5="37.25112" pt_clust_6="135.18838"></scales>
<clustering>
<clus scale="   33.351">  2  3  1 -1</clus>
<clus scale="   37.251">  4  5 -1 -1</clus>
<clus scale="  135.188">  2  6  1 -1</clus>
<clus scale="  144.888">  1  3  2 -1</clus>
</clustering>
</event>
<event>
 6    0  0.4390142E+002  0.1080964E+03  0.7546771E-02  0.1264136E+00
         21   -1    0    0  505  501  0.00000000000E+00  0.00000000000E+00  0.32575803490E+03  0.32575803490E+03  0.00000000000E+00 0.  1.
         21   -1    0    0  503  502 -0.00000000000E+00 -0.00000000000E+00 -0.10343847606E+03  0.10343847606E+03  0.00000000000E+00 0. -1.
         21    1    1    2  503  506  0.23024488545E+02 -0.24468824633E+02  0.96462141338E+01  0.34955684785E+02  0.00000000000E+00 0. -1.
         21    1    1    2  504  501  0.32304725658E+02 -0.14091257694E+02  0.79179190803E+02  0.86668928108E+02  0.00000000000E+00 0.  1.
         21    1    1    2  505  502 -0.11625196978E+03  0.21999930051E+01 -0.37721495671E+02  0.12223858508E+03  0.00000000000E+00 0. -1.
         21    1    1    2  506  504  0.60922755580E+02  0.36360089323E+02  0.17121564957E+03  0.18533331298E+03  0.00000000000E+00 0.  1.
<scales pt_clust_3="33.59837" pt_clust_4="32.30149" pt_clust_5="97.90022" pt_clust_6="32.30149"></scales>
<clustering>
<clus scale="   32.301">  4  6 -1 -1</clus>
<clus scale="   33.598">  2  3  1 -1</clus>
<clus scale="   97.900">  2  5  1 -1</clus>
<clus scale="  108.096">  1  3  2 -1</clus>
</clustering>
</event>
<event>
 6    0  0.4390142E+002  0.7940465E+02  0.7546771E-02  0.1330749E+00
         21   -1    0    0  505  501  0.00000000000E+00  0.00000000000E+00  0.55638981757E+03  0.55638981757E+03  0.00000000000E+00 0.  1.
         21   -1    0    0  504  502 -0.00000000000E+00 -0.00000000000E+00 -0.13037631826E+03  0.13037631826E+03  0.00000000000E+00 0.  1.
         21    1    1    2  503  501  0.91987900329E+02  0.59786501353E+01  0.30136933526E+03  0.31515233507E+03  0.00000000000E+00 0.  1.
         21    1    1    2  504  503  0.32744930029E+02 -0.86705269032E+01 -0.19960951357E+02  0.39317274301E+02  0.00000000000E+00 0.  1.
         21    1    1    2  505  506 -0.64304943221E+02  0.38552809761E+02  0.21809278453E+03  0.23062070056E+03  0.00000000000E+00 0.  1.
         21    1    1    2  506  502 -0.60427887137E+02 -0.35860932993E+02 -0.73487669120E+02  0.10167582590E+03  0.00000000000E+00 0.  1.
<scales pt_clust_3="14000.00000" pt_clust_4="33.87342" pt_clust_5="79.40465" pt_clust_6="53.89690"></scales>
<clustering>
<clus scale="   33.873">  2  4  1 -1</clus>
<clus scale="   53.897">  2  6  1 -1</clus>
<clus scale="   79.405">  1  5  2 -1</clus>
<clus scale="   79.405">  1  3  2 -1</clus>
</clustering>
</event>
<event>
 6    0  0.4390142E+002  0.1037410E+03  0.7546771E-02  0.1272620E+00
         21   -1    0    0  505  501  0.00000000000E+00  0.00000000000E+00  0.67645423548E+03  0.67645423548E+03  0.00000000000E+00 0. -1.
         21   -1    0    0  503  502 -0.00000000000E+00 -0.00000000000E+00 -0.52571653564E+03  0.52571653564E+03  0.00000000000E+00 0.  1.
         21    1    1    2  503  506 -0.37159228638E+02  0.65132567794E+01 -0.40824053815E+03  0.40997996021E+03  0.00000000000E+00 0.  1.
         21    1    1    2  504  502 -0.68830768890E+02 -0.16082639295E+02 -0.87493403666E+02  0.11247853892E+03  0.00000000000E+00 0. -1.
         21    1    1    2  505  504 -0.46126246828E+02 -0.14567356036E+02  0.88306693418E+02  0.10068719189E+03  0.00000000000E+00 0. -1.
         21    1    1    2  506  501  0.15211624436E+03  0.24136738551E+02  0.55816494824E+03  0.57902508010E+03  0.00000000000E+00 0. -1.
<scales pt_clust_3="37.72573" pt_clust_4="103.74097" pt_clust_5="50.15734" pt_clust_6="14000.00000"></scales>
<clustering>
<clus scale="   37.726">  2  3  1 -1</clus>
<clus scale="   50.157">  1  5  2 -1</clus>
<clus scale="  103.741">  2  4  1 -1</clus>
<clus scale="   50.157">  1  3  2 -1</clus>
</clustering>
</event>
<event>
 6    0  0.4390142E+002  0.8741566E+02  0.7546771E-02  0.1309234E+00
         21   -1    0    0  503  501  0.00000000000E+00  0.00000000000E+00  0.24165671652E+04  0.24165671652E+04  0.00000000000E+00 0.  1.
         21   -1    0    0  505  502 -0.00000000000E+00 -0.00000000000E+00 -0.10020132021E+03  0.10020132021E+03  0.00000000000E+00 0.  1.
         21    1    1    2  503  502 -0.40493417677E+02 -0.17042617847E+02  0.13016457199E+03  0.13737897765E+03  0.00000000000E+00 0. -1.
         21    1    1    2  504  506 -0.11138741594E+03 -0.43485121183E+02  0.90957895519E+02  0.15023798105E+03  0.00000000000E+00 0.  1.
         21    1    1    2  505  504  0.80517610799E+02 -0.27303715921E+02 -0.37844797530E+02  0.93063458199E+02  0.00000000000E+00 0.  1.
         21    1    1    2  506  501  0.71363222815E+02  0.87831454951E+02  0.21330881750E+04  0.21360880685E+04  0.00000000000E+00 0.  1.
<scales pt_clust_3="43.93367" pt_clust_4="87.41566" pt_clust_5="14000.00000" pt_clust_6="79.31648"></scales>
<clustering>
<clus scale="   43.934">  1  3  2 -1</clus>
<clus scale="   79.316">  1  6  2 -1</clus>
<clus scale="   87.416">  1  4  2 -1</clus>
<clus scale="   43.934">  1  3  2 -1</clus>
</clustering>
</event>
<event>
 6    0  0.4390142E+002  0.9678922E+02  0.7546771E-02  0.1287196E+00
         21   -1    0    0  504  501  0.00000000000E+00  0.00000000000E+00  0.13127986362E+03  0.13127986362E+03  0.00000000000E+00 0. -1.
         21   -1    0    0  503  502 -0.00000000000E+00 -0.00000000000E+00 -0.73714144371E+03  0.73714144371E+03  0.00000000000E+00 0.  1.
         21    1    1    2  503  505  0.85403765565E+02 -0.20182865910E+00 -0.22783877044E+03  0.24331943865E+03  0.00000000000E+00 0.  1.
         21    1    1    2  504  506  0.23402919752E+02 -0.27028108631E+02 -0.32651773406E+02  0.48418525541E+02  0.00000000000E+00 0.  1.
         21    1    1    2  505  501 -0.86049236035E+02  0.48389411663E+02  0.93940113482E+02  0.13627454313E+03  0.00000000000E+00 0. -1.
         21    1    1    2  506  502 -0.22757449281E+02 -0.21159474373E+02 -0.43931114972E+03  0.44040880001E+03  0.00000000000E+00 0.  1.
<scales pt_clust_3="14000.00000" pt_clust_4="36.15091" pt_clust_5="96.78922" pt_clust_6="31.07450"></scales>
<clustering>
<clus scale="   31.075">  2  6  1 -1</clus>
<clus scale="   36.151">  2  4  1 -1</clus>
<clus scale="   96.789">  1  5  2 -1</clus>
<clus scale="   96.789">  1  3  2 -1</clus>
</clustering>
</event>
<event>
 6    0  0.4390142E+002  0.1037119E+03  0.7546771E-02  0.1272679E+00
         21   -1    0    0  502  501  0.00000000000E+00  0.00000000000E+00  0.78359533629E+03  0.78359533629E+03  0.00000000000E+00 0. -1.
         21   -1    0    0  503  502 -0.00000000000E+00 -0.00000000000E+00 -0.55583767462E+02  0.55583767462E+02  0.00000000000E+00 0. -1.
         21    1    1    2  503  504 -0.51343190014E+02 -0.89917048278E+02  0.10630920495E+02  0.10408753625E+03  0.00000000000E+00 0. -1.
         21    1    1    2  504  506  0.40814503888E+02 -0.35874287096E+01  0.14076128598E+03  0.14660297747E+03  0.00000000000E+00 0. -1.
         21    1    1    2  505  501 -0.21071200761E+02  0.61033234020E+02  0.43585927633E+03  0.44061588705E+03  0.00000000000E+00 0. -1.
         21    1    1    2  506  505  0.31599886887E+02  0.32471242968E+02  0.14076008602E+03  0.14787270299E+03  0.00000000000E+00 0. -1.
<scales pt_clust_3="96.81232" pt_clust_4="35.37061" pt_clust_5="64.56819" pt_clust_6="35.37061"></scales>
<clustering>
<clus scale="   35.371">  4  6 -1 -1</clus>
<clus scale="   64.568">  1  5  2 -1</clus>
<clus scale="   96.812">  2  3  1 -1</clus>
<clus scale="   64.568">  1  3  2 -1</clus>
</clustering>
</event>
<event>
 6    0  0.4390142E+002  0.1381224E+03  0.7546771E-02  0.1215878E+00
         21   -1    0    0  503  501  0.00000000000E+00  0.00000000000E+00  0.50364462218E+02  0.50364462218E+02  0.00000000000E+00 0.  1.
         21   -1    0    0  506  502 -0.00000000000E+00 -0.00000000000E+00 -0.84626579610E+03  0.84626579610E+03  0.00000000000E+00 0. -1.
         21    1    1    2  503  504  0.10019671574E+03 -0.76914040568E+02 -0.18749091820E+03  0.22607077628E+03  0.00000000000E+00 0.  1.
         21    1    1    2  504  502 -0.35224267928E+01 -0.35262700550E+02 -0.42159538714E+02  0.55075332456E+02  0.00000000000E+00 0. -1.
         21    1    1    2  505  501 -0.36939526414E+02  0.10388478897E+03 -0.11170161929E+03  0.15695167965E+03  0.00000000000E+00 0. -1.
         21    1    1    2  506  505 -0.59734762536E+02  0.82919521450E+01 -0.45454925768E+03  0.45853246993E+03  0.00000000000E+00 0. -1.
<scales pt_clust_3="35.03184" pt_clust_4="35.03184" pt_clust_5="121.25811" pt_clust_6="60.30753"></scales>
<clustering>
<clus scale="   35.032">  3  4 -1 -1</clus>
<clus scale="   60.308">  2  6  1 -1</clus>
<clus scale="  121.258">  1  5  2 -1</clus>
<clus scale="  121.258">  1  3  2 -1</clus>
</clustering>
</event>
<event>
 6    0  0.4390142E+002  0.7526147E+02  0.7546771E-02  0.1343063E+00
         21   -1    0    0  505  501  0.00000000000E+00  0.00000000000E+00  0.85963687381E+02  0.85963687381E+02  0.00000000000E+00 0. -1.
         21   -1    0    0  504  502 -0.00000000000E+00 -0.00000000000E+00 -0.40351003757E+03  0.40351003757E+03  0.00000000000E+00 0. -1.
         21    1    1    2  503  502  0.64681229461E+02  0.11287511907E+02  0.17370720347E+02  0.67917680283E+02  0.00000000000E+00 0. -1.
         21    1    1    2  504  506 -0.53812794913E+02  0.73176314730E+02 -0.28016548451E+03  0.29452213609E+03  0.00000000000E+00 0. -1.
         21    1    1    2  505  503 -0.28469962911E+02 -0.32635394444E+02  0.77033101725E+01  0.43988052312E+02  0.00000000000E+00 0.  1.
         21    1    1    2  506  501  0.17601528362E+02 -0.51828432193E+02 -0.62454896191E+02  0.83045856263E+02  0.00000000000E+00 0. -1.
<scales pt_clust_3="46.04065" pt_clust_4="14000.00000" pt_clust_5="43.30829" pt_clust_6="75.26147"></scales>
<clustering>
<clus scale="   43.308">  1  5  2 -1</clus>
<clus scale="   46.041">  1  3  2 -1</clus>
<clus scale="   75.261">  1  6  2 -1</clus>
<clus scale="   43.308">  1  3  2 -1</clus>
</clustering>
</event>
<event>
 6    0  0.4390142E+002  0.1448861E+03  0.7546771E-02  0.1206902E+00
         21   -1    0    0  504  501  0.00000000000E+00  0.00000000000E+00  0.31473704110E+04  0.31473704110E+04  0.00000000000E+00 0. -1.
         21   -1    0    0  501  502 -0.00000000000E+00 -0.00000000000E+00 -0.17108700007E+03  0.17108700007E+03  0.00000000000E+00 0. -1.
         21    1    1    2  503  506 -0.45209184474E+02  0.94804440731E+02 -0.10260230536E+03  0.14682978379E+03  0.00000000000E+00 0. -1.
         21    1    1    2  504  505 -0.24385161506E+01 -0.35856783457E+02  0.14331857757E+04  0.14336363287E+04  0.00000000000E+00 0. -1.
         21    1    1    2  505  503 -0.17046563267E+02 -0.11069089840E+03  0.16511752128E+04  0.16549690763E+04  0.00000000000E+00 0. -1.
         21    1    1    2  506  502  0.64694263891E+02  0.51743241125E+02 -0.54752721977E+01  0.83022222255E+02  0.00000000000E+00 0. -1.
<scales pt_clust_3="14000.00000" pt_clust_4="35.93961" pt_clust_5="144.88608" pt_clust_6="82.29393"></scales>
<clustering>
<clus scale="   35.940">  1  4  2 -1</clus>
<clus scale="   82.294">  2  6  1 -1</clus>
<clus scale="  144.886">  1  5  2 -1</clus>
<clus scale="   35.940">  1  3  2 -1</clus>
</clustering>
</event>
<event>
 6    0  0.4390142E+002  0.1194298E+03  0.7546771E-02  0.1244041E+00
         21   -1    0    0  506  501  0.00000000000E+00  0.00000000000E+00  0.29314992208E+03  0.29314992208E+03  0.00000000000E+00 0.  1.
         21   -1    0    0  505  502 -0.00000000000E+00 -0.00000000000E+00 -0.12467544151E+03  0.12467544151E+03  0.00000000000E+00 0.  1.
         21    1    1    2  503  504 -0.53726970129E+02 -0.18895670887E+02  0.64250998227E+02  0.85859329549E+02  0.00000000000E+00 0.  1.
         21    1    1    2  504  502  0.10615743270E+03 -0.56076655731E+02 -0.56925562518E+02  0.13287028074E+03  0.00000000000E+00 0.  1.
         21    1    1    2  505  501 -0.74934790386E+01  0.66483606670E+02  0.68375775806E+02  0.95663310109E+02  0.00000000000E+00 0.  1.
         21    1    1    2  506  503 -0.44936983531E+02  0.84887199478E+01  0.92773269054E+02  0.10343244320E+03  0.00000000000E+00 0.  1.
<scales pt_clust_3="32.70261" pt_clust_4="113.71718" pt_clust_5="66.90458" pt_clust_6="32.70261"></scales>
<clustering>
<clus scale="   32.703">  3  6 -1 -1</clus>
<clus scale="   66.905">  1  5  2 -1</clus>
<clus scale="  113.717">  2  4  1 -1</clus>
<clus scale="   66.905">  1  3  2 -1</clus>
</clustering>
</event>
<event>
 6    0  0.4390142E+002  0.1642988E+03  0.7546771E-02  0.1183927E+00
         21   -1    0    0  506  501  0.00000000000E+00  0.00000000000E+00  0.13291515922E+03  0.13291515922E+03  0.00000000000E+00 0.  1.
         21   -1    0    0  505  502 -0.00000000000E+00 -0.00000000000E+00 -0.42207749045E+03  0.42207749045E+03  0.00000000000E+00 0.  1.
         21    1    1    2  503  502 -0.92453401052E+02 -0.70335600185E+02 -0.16968711725E+03  0.20564154682E+03  0.00000000000E+00 0.  1.
         21    1    1    2  504  503  0.16030489281E+03  0.34802064118E+02 -0.48496453915E+02  0.17105773402E+03  0.00000000000E+00 0.  1.
         21    1    1    2  505  501 -0.97478489954E+02  0.64061182229E+02 -0.72136891599E+02  0.13714817608E+03  0.00000000000E+00 0.  1.
         21    1    1    2  506  504  0.29626998194E+02 -0.28527646162E+02  0.11581315360E+01  0.41145192747E+02  0.00000000000E+00 0.  1.
<scales pt_clust_3="116.16681" pt_clust_4="40.91168" pt_clust_5="142.54268" pt_clust_6="40.91168"></scales>
<clustering>
<clus scale="   40.912">  4  6 -1 -1</clus>
<clus scale="  116.167">  2  3  1 -1</clus>
<clus scale="  142.543">  1  5  2 -1</clus>
<clus scale="  142.543">  1  3  2 -1</clus>
</clustering>
</event>
<event>
 6    0  0.4390142E+002  0.9477001E+02  0.7546771E-02  0.1291695E+00
         21   -1    0    0  504  501  0.00000000000E+00  0.00000000000E+00  0.59042518105E+03  0.59042518105E+03  0.00000000000E+00 0. -1.
         21   -1    0    0  505  502 -0.00000000000E+00 -0.00000000000E+00 -0.74770594494E+02  0.74770594494E+02  0.00000000000E+00 0.  1.
         21    1    1    2  503  501  0.24434625010E+02  0.12611939007E+03  0.35136266485E+03  0.37411077732E+03  0.00000000000E+00 0. -1.
         21    1    1    2  504  502 -0.45755818413E+02 -0.60604984993E+02  0.17762604371E+03  0.19317756218E+03  0.00000000000E+00 0. -1.
         21    1    1    2  505  506  0.40196949682E+02 -0.16487522177E+02  0.97751766981E+00  0.43457895624E+02  0.00000000000E+00 0.  1.
         21    1    1    2  506  503 -0.18875756279E+02 -0.49026882900E+02 -0.14311639681E+02  0.54449540424E+02  0.00000000000E+00 0.  1.
<scales pt_clust_3="94.77001" pt_clust_4="14000.00000" pt_clust_5="43.44690" pt_clust_6="60.01894"></scales>
<clustering>
<clus scale="   43.447">  2  5  1 -1</clus>
<clus scale="   60.019">  2  6  1 -1</clus>
<clus scale="   94.770">  2  3  1 -1</clus>
<clus scale="   94.770">  1  3  2 -1</clus>
</clustering>
</event>
<event>
 6    0  0.4390142E+002  0.9303474E+02  0.7546771E-02  0.1295665E+00
         21   -1    0    0  505  501  0.00000000000E+00  0.00000000000E+00  0.56105718446E+02  0.56105718446E+02  0.00000000000E+00 0. -1.
         21   -1    0    0  504  502 -0.00000000000E+00 -0.00000000000E+00 -0.41929873867E+03  0.41929873867E+03  0.00000000000E+00 0. -1.
         21    1    1    2  503  502  0.26346151373E+02 -0.42872996532E+02 -0.62097283121E+02  0.79926754562E+02  0.00000000000E+00 0. -1.
         21    1    1    2  504  506  0.57086899174E+02 -0.35431214811E+02 -0.21667288738E+03  0.22685110792E+03  0.00000000000E+00 0. -1.
         21    1    1    2  505  503 -0.46020301016E+02  0.91185093420E+02 -0.41501361257E+02  0.11024950047E+03  0.00000000000E+00 0. -1.
         21    1    1    2  506  501 -0.37412749531E+02 -0.12880882077E+02 -0.42921488467E+02  0.58377094162E+02  0.00000000000E+00 0. -1.
<scales pt_clust_3="49.25073" pt_clust_4="14000.00000" pt_clust_5="93.03474" pt_clust_6="39.56805"></scales>
<clustering>
<clus scale="   39.568">  1  6  2 -1</clus>
<clus scale="   49.251">  2  3  1 -1</clus>
<clus scale="   93.035">  1  5  2 -1</clus>
<clus scale="   39.568">  1  3  2 -1</clus>
</clustering>
</event>
<event>
 6    0  0.4390142E+002  0.9186322E+02  0.7546771E-02  0.1298401E+00
         21   -1    0    0  503  501  0.00000000000E+00  0.00000000000E+00  0.87824866812E+03  0.87824866812E+03  0.00000000000E+00 0. -1.
         21   -1    0    0  506  502 -0.00000000000E+00 -0.00000000000E+00 -0.97975800537E+02  0.97975800537E+02  0.00000000000E+00 0.  1.
         21    1    1    2  503  502 -0.53195829613E+02  0.20837385762E+01  0.45899362494E+02  0.70291462725E+02  0.00000000000E+00 0. -1.
         21    1    1    2  504  501  0.64046004662E+02 -0.27178907646E+01  0.52014657167E+03  0.52408180054E+03  0.00000000000E+00 0. -1.
         21    1    1    2  505  504  0.18014784156E+02 -0.64843622018E+02  0.27798136496E+03  0.28601200504E+03  0.00000000000E+00 0. -1.
         21    1    1    2  506  505 -0.28864959205E+02  0.65477774206E+02 -0.63754431528E+02  0.95839200353E+02  0.00000000000E+00 0.  1.
<scales pt_clust_3="53.23663" pt_clust_4="62.88251" pt_clust_5="91.86322" pt_clust_6="14000.00000"></scales>
<clustering>
<clus scale="   53.237">  2  3  1 -1</clus>
<clus scale="   62.883">  1  4  2 -1</clus>
<clus scale="   91.863">  1  5  2 -1</clus>
<clus scale="   62.883">  1  3  2 -1</clus>
</clustering>
</event>
<event>
 6    0  0.4390142E+002  0.1438833E+03  0.7546771E-02  0.1208197E+00
         21   -1    0    0  502  501  0.00000000000E+00  0.00000000000E+00  0.34311665367E+03  0.34311665367E+03  0.00000000000E+00 0. -1.
         21   -1    0    0  505  502 -0.00000000000E+00 -0.00000000000E+00 -0.11065754797E+03  0.11065754797E+03  0.00000000000E+00 0. -1.
         21    1    1    2  503  501 -0.25319452419E+02 -0.36173709259E+02  0.54210178089E+02  0.69916774245E+02  0.00000000000E+00 0. -1.
         21    1    1    2  504  506  0.11344134383E+03  0.25676894127E+02  0.13798679844E+02  0.11712661929E+03  0.00000000000E+00 0. -1.
         21    1    1    2  505  504  0.14360380882E+02  0.27964878358E+02 -0.31755932126E+02  0.44684384139E+02  0.00000000000E+00 0. -1.
         21    1    1    2  506  503 -0.10248227229E+03 -0.17468063227E+02  0.19620617989E+03  0.22204642397E+03  0.00000000000E+00 0. -1.
<scales pt_clust_3="36.68688" pt_clust_4="131.82936" pt_clust_5="31.43652" pt_clust_6="36.68688"></scales>
<clustering>
<clus scale="   31.437">  2  5  1 -1</clus>
<clus scale="   36.687">  3  6 -1 -1</clus>
<clus scale="  131.829">  2  4  1 -1</clus>
<clus scale="  143.883">  1  3  2 -1</clus>
</clustering>
</event>
<event>
 6    0  0.4390142E+002  0.1251824E+03  0.7546771E-02  0.1234785E+00
         21   -1    0    0  506  501  0.00000000000E+00  0.00000000000E+00  0.46657158674E+03  0.46657158674E+03  0.00000000000E+00 0.  1.
         21   -1    0    0  505  502 -0.00000000000E+00 -0.00000000000E+00 -0.66456681938E+03  0.66456681938E+03  0.00000000000E+00 0.  1.
         21    1    1    2  503  502 -0.11642299746E+03  0.47576855539E+02 -0.62476983790E+03  0.63730308478E+03  0.00000000000E+00 0.  1.
         21    1    1    2  504  501  0.53637870965E+02  0.57396680949E+02  0.13612953241E+03  0.15717076630E+03  0.00000000000E+00 0.  1.
         21    1    1    2  505  504  0.86945823765E+02 -0.77266406961E+02  0.14208745337E+03  0.18362602844E+03  0.00000000000E+00 0.  1.
         21    1    1    2  506  503 -0.24160697266E+02 -0.27707129527E+02  0.14855761948E+03  0.15303852660E+03  0.00000000000E+00 0.  1.
<scales pt_clust_3="14000.00000" pt_clust_4="61.49847" pt_clust_5="125.18239" pt_clust_6="36.76172"></scales>
<clustering>
<clus scale="   36.762">  1  6  2 -1</clus>
<clus scale="   61.498">  1  4  2 -1</clus>
<clus scale="  125.182">  1  5  2 -1</clus>
<clus scale="   36.762">  1  3  2 -1</clus>
</clustering>
</event>
<event>
 6    0  0.4390142E+002  0.6969794E+02  0.7546771E-02  0.1361123E+00
         21   -1    0    0  506  501  0.00000000000E+00  0.00000000000E+00  0.44913543081E+03  0.44913543081E+03  0.00000000000E+00 0.  1.
         21   -1    0    0  505  502 -0.00000000000E+00 -0.00000000000E+00 -0.46197162075E+03  0.46197162075E+03  0.00000000000E+00 0. -1.
         21    1    1    2  503  502 -0.47606224578E+02  0.43735164446E+02 -0.26480939676E+03  0.27258601182E+03  0.00000000000E+00 0. -1.
         21    1    1    2  504  501 -0.27663162407E+02 -0.54407770280E+02  0.26655860734E+03  0.27345739552E+03  0.00000000000E+00 0.  1.
         21    1    1    2  505  504  0.10212276827E+03 -0.98278154660E+01 -0.17406213209E+03  0.20204769630E+03  0.00000000000E+00 0.  1.
         21    1    1    2  506  503 -0.26853381282E+02  0.20500421300E+02  0.15947673158E+03  0.16301594791E+03  0.00000000000E+00 0.  1.
<scales pt_clust_3="14000.00000" pt_clust_4="63.48747" pt_clust_5="69.69794" pt_clust_6="33.78419"></scales>
<clustering>
<clus scale="   33.784">  1  6  2 -1</clus>
<clus scale="   63.487">  1  4  2 -1</clus>
<clus scale="   69.698">  1  5  2 -1</clus>
<clus scale="   33.784">  1  3  2 -1</clus>
</clustering>
</event>
<event>
 6    0  0.4390142E+002  0.6997575E+02  0.7546771E-02  0.1360176E+00
         21   -1    0    0  505  501  0.00000000000E+00  0.00000000000E+00  0.63295547292E+02  0.63295547292E+02  0.00000000000E+00 0.  1.
         21   -1    0    0  504  502 -0.00000000000E+00 -0.00000000000E+00 -0.20756841021E+04  0.20756841021E+04  0.00000000000E+00 0.  1.
         21    1    1    2  503  502 -0.67306729686E+02 -0.16449540553E+02 -0.16661716410E+04  0.16676116816E+04  0.00000000000E+00 0.  1.
         21    1    1    2  504  506  0.80372439708E+02 -0.19387878258E+02 -0.33606134382E+03  0.34608213722E+03  0.00000000000E+00 0.  1.
         21    1    1    2  505  503  0.97665052447E+01  0.69829620455E+02  0.21293270097E+02  0.73654354040E+02  0.00000000000E+00 0.  1.
         21    1    1    2  506  501 -0.22832215267E+02 -0.33992201644E+02 -0.31448840008E+02  0.51631476489E+02  0.00000000000E+00 0. -1.
<scales pt_clust_3="14000.00000" pt_clust_4="69.97575" pt_clust_5="40.89788" pt_clust_6="40.94850"></scales>
<clustering>
<clus scale="   40.949">  1  6  2 -1</clus>
<clus scale="   40.898">  1  5  2 -1</clus>
<clus scale="   69.976">  1  4  2 -1</clus>
<clus scale="   40.949">  1  3  2 -1</clus>
</clustering>
</event>
<event>
 6    0  0.4390142E+002  0.5955950E+02  0.7546771E-02  0.1399690E+00
         21   -1    0    0  503  501  0.00000000000E+00  0.00000000000E+00  0.45154525958E+03  0.45154525958E+03  0.00000000000E+00 0. -1.
         21   -1    0    0  506  502 -0.00000000000E+00 -0.00000000000E+00 -0.17269385573E+03  0.17269385573E+03  0.00000000000E+00 0.  1.
         21    1    1    2  503  505 -0.48743258518E+02 -0.31254071829E+01  0.99915698594E+02  0.11121519791E+03  0.00000000000E+00 0. -1.
         21    1    1    2  504  501  0.39144037386E+02  0.58889857414E+02  0.30422589103E+03  0.31233581886E+03  0.00000000000E+00 0. -1.
         21    1    1    2  505  502  0.20428211014E+02 -0.10270324676E+03 -0.10539044455E+03  0.14856787843E+03  0.00000000000E+00 0.  1.
         21    1    1    2  506  504 -0.10828989882E+02  0.46938796529E+02 -0.19899741233E+02  0.52120220093E+02  0.00000000000E+00 0.  1.
<scales pt_clust_3="49.20515" pt_clust_4="14000.00000" pt_clust_5="59.55950" pt_clust_6="48.17175"></scales>
<clustering>
<clus scale="   48.172">  2  6  1 -1</clus>
<clus scale="   49.205">  1  3  2 -1</clus>
<clus scale="   59.560">  2  5  1 -1</clus>
<clus scale="   49.205">  1  3  2 -1</clus>
</clustering>
</event>
<event>
 6    0  0.4390142E+002  0.1589711E+03  0.7546771E-02  0.1189863E+00
         21   -1    0    0  502  501  0.00000000000E+00  0.00000000000E+00  0.72548091412E+02  0.72548091412E+02  0.00000000000E+00 0. -1.
         21   -1    0    0  506  502 -0.00000000000E+00 -0.00000000000E+00 -0.62672376792E+03  0.62672376792E+03  0.00000000000E+00 0. -1.
         21    1    1    2  503  504 -0.48318618204E+02  0.47493348469E+02 -0.41925129212E+02  0.79674484457E+02  0.00000000000E+00 0. -1.
         21    1    1    2  504  501  0.11522895410E+02 -0.12068005356E+03 -0.12945578128E+03  0.17735628478E+03  0.00000000000E+00 0. -1.
         21    1    1    2  505  503  0.53412934333E+01  0.11280631170E+03 -0.88089432127E+02  0.14322549154E+03  0.00000000000E+00 0. -1.
         21    1    1    2  506  505  0.31454429361E+02 -0.39619606607E+02 -0.29470533390E+03  0.29901559856E+03  0.00000000000E+00 0. -1.
<scales pt_clust_3="55.28576" pt_clust_4="141.54231" pt_clust_5="55.28576" pt_clust_6="50.58749"></scales>
<clustering>
<clus scale="   50.587">  2  6  1 -1</clus>
<clus scale="   55.286">  3  5 -1 -1</clus>
<clus scale="  141.542">  1  4  2 -1</clus>
<clus scale="  141.542">  1  3  2 -1</clus>
</clustering>
</event>
<event>
 6    0  0.4390142E+002  0.2126235E+03  0.7546771E-02  0.1139505E+00
         21   -1    0    0  506  501  0.00000000000E+00  0.00000000000E+00  0.11934091790E+03  0.11934091790E+03  0.00000000000E+00 0. -1.
         21   -1    0    0  501  502 -0.00000000000E+00 -0.00000000000E+00 -0.64920097469E+03  0.64920097469E+03  0.00000000000E+00 0. -1.
         21    1    1    2  503  505  0.24814202634E+02 -0.67470396407E+02 -0.32447490735E+02  0.78872293606E+02  0.00000000000E+00 0. -1.
         21    1    1    2  504  502  0.55121319497E+02  0.40381075727E+01 -0.23184226214E+03  0.23833904567E+03  0.00000000000E+00 0. -1.
         21    1    1    2  505  504 -0.43365566298E+02  0.20042181485E+03 -0.22375606761E+03  0.30350659630E+03  0.00000000000E+00 0. -1.
         21    1    1    2  506  503 -0.36569955834E+02 -0.13698952601E+03 -0.41814236312E+02  0.14782395701E+03  0.00000000000E+00 0. -1.
<scales pt_clust_3="44.66301" pt_clust_4="55.26903" pt_clust_5="203.16112" pt_clust_6="44.66301"></scales>
<clustering>
<clus scale="   44.663">  3  6 -1 -1</clus>
<clus scale="   55.269">  2  4  1 -1</clus>
<clus scale="  203.161">  2  5  1 -1</clus>
<clus scale="  212.624">  1  3  2 -1</clus>
</clustering>
</event>
<event>
 6    0  0.4390142E+002  0.1011236E+03  0.7546771E-02  0.1277951E+00
         21   -1    0    0  504  501  0.00000000000E+00  0.00000000000E+00  0.17076235217E+03  0.17076235217E+03  0.00000000000E+00 0. -1.
         21   -1    0    0  506  502 -0.00000000000E+00 -0.00000000000E+00 -0.32473107882E+03  0.32473107882E+03  0.00000000000E+00 0.  1.
         21    1    1    2  503  502 -0.38370916080E+02 -0.19569861270E+02 -0.56987399758E+02  0.71434378293E+02  0.00000000000E+00 0.  1.
         21    1    1    2  504  505  0.71177513810E+02  0.59690851736E+02  0.11070124399E+03  0.14451298099E+03  0.00000000000E+00 0. -1.
         21    1    1    2  505  503 -0.12364416025E+02 -0.75909455989E+02 -0.22275717866E+03  0.23566052902E+03  0.00000000000E+00 0.  1.
         21    1    1    2  506  501 -0.20442181705E+02  0.35788465524E+02  0.15074607781E+02  0.43885542690E+02  0.00000000000E+00 0. -1.
<scales pt_clust_3="43.22427" pt_clust_4="101.12360" pt_clust_5="14000.00000" pt_clust_6="41.21525"></scales>
<clustering>
<clus scale="   41.215">  1  6  2 -1</clus>
<clus scale="   43.224">  2  3  1 -1</clus>
<clus scale="  101.124">  1  4  2 -1</clus>
<clus scale="   41.215">  1  3  2 -1</clus>
</clustering>
</event>
<event>
 6    0  0.4390142E+002  0.1076853E+03  0.7546771E-02  0.1264917E+00
         21   -1    0    0  504  501  0.00000000000E+00  0.00000000000E+00  0.19955162816E+03  0.19955162816E+03  0.00000000000E+00 0. -1.
         21   -1    0    0  506  502 -0.00000000000E+00 -0.00000000000E+00 -0.80456178537E+03  0.80456178537E+03  0.00000000000E+00 0. -1.
         21    1    1    2  503  502 -0.84070065664E+01  0.44583698326E+02 -0.14645557199E+03  0.15332194390E+03  0.00000000000E+00 0. -1.
         21    1    1    2  504  503 -0.28553357521E+02  0.29746547438E+02  0.28567710440E+02  0.50162390194E+02  0.00000000000E+00 0.  1.
         21    1    1    2  505  501 -0.75133754178E+02  0.39745523118E+01  0.13991193115E+03  0.15885914063E+03  0.00000000000E+00 0. -1.
         21    1    1    2  506  505  0.11209411827E+03 -0.78304798076E+02 -0.62703422681E+03  0.64176993880E+03  0.00000000000E+00 0. -1.
<scales pt_clust_3="46.11185" pt_clust_4="41.23289" pt_clust_5="107.68531" pt_clust_6="14000.00000"></scales>
<clustering>
<clus scale="   41.233">  1  4  2 -1</clus>
<clus scale="   46.112">  2  3  1 -1</clus>
<clus scale="  107.685">  1  5  2 -1</clus>
<clus scale="   41.233">  1  3  2 -1</clus>
</clustering>
</event>
<event>
 6    0  0.4390142E+002  0.6630791E+02  0.7546771E-02  0.1373118E+00
         21   -1    0    0  506  501  0.00000000000E+00  0.00000000000E+00  0.58138925366E+03  0.58138925366E+03  0.00000000000E+00 0.  1.
         21   -1    0    0  504  502 -0.00000000000E+00 -0.00000000000E+00 -0.17337335105E+03  0.17337335105E+03  0.00000000000E+00 0.  1.
         21    1    1    2  503  505 -0.74290330877E+02 -0.15056359313E+00  0.38957882137E+03  0.39659895863E+03  0.00000000000E+00 0.  1.
         21    1    1    2  504  501 -0.38787243819E+02  0.42903349047E+02 -0.33656241355E+02  0.66917039868E+02  0.00000000000E+00 0.  1.
         21    1    1    2  505  502  0.67824506030E+02 -0.31075239456E+02 -0.10417811748E+03  0.12813631135E+03  0.00000000000E+00 0.  1.
         21    1    1    2  506  503  0.45253068666E+02 -0.11677545998E+02  0.15627144008E+03  0.16311029486E+03  0.00000000000E+00 0.  1.
<scales pt_clust_3="33.95106" pt_clust_4="14000.00000" pt_clust_5="66.30791" pt_clust_6="46.73548"></scales>
<clustering>
<clus scale="   46.735">  1  6  2 -1</clus>
<clus scale="   33.951">  1  3  2 -1</clus>
<clus scale="   66.308">  2  5  1 -1</clus>
<clus scale="   46.735">  1  3  2 -1</clus>
</clustering>
</event>
<event>
 6    0  0.4390142E+002  0.1359146E+03  0.7546771E-02  0.1218934E+00
         21   -1    0    0  504  501  0.00000000000E+00  0.00000000000E+00  0.15681288413E+03  0.15681288413E+03  0.00000000000E+00 0. -1.
         21   -1    0    0  503  502 -0.00000000000E+00 -0.00000000000E+00 -0.29015762258E+03  0.29015762258E+03  0.00000000000E+00 0. -1.
         21    1    1    2  503  506 -0.55686999828E+02 -0.29752459278E+02 -0.94989687942E+02  0.11405828159E+03  0.00000000000E+00 0. -1.
         21    1    1    2  504  502  0.16997811910E+02  0.30496748184E+02  0.68000551544E+00  0.34920476329E+02  0.00000000000E+00 0.  1.
         21    1    1    2  505  501  0.45986426392E+02  0.75282139516E+02  0.10367622833E+03  0.13612829340E+03  0.00000000000E+00 0. -1.
         21    1    1    2  506  505 -0.72972384738E+01 -0.76026428422E+02 -0.14271128436E+03  0.16186345539E+03  0.00000000000E+00 0. -1.
<scales pt_clust_3="60.72954" pt_clust_4="34.91385" pt_clust_5="118.31282" pt_clust_6="60.72954"></scales>
<clustering>
<clus scale="   34.914">  1  4  2 -1</clus>
<clus scale="   60.730">  3  6 -1 -1</clus>
<clus scale="  118.313">  1  5  2 -1</clus>
<clus scale="   34.914">  1  3  2 -1</clus>
</clustering>
</event>
<event>
 6    0  0.4390142E+002  0.2003869E+03  0.7546771E-02  0.1149413E+00
         21   -1    0    0  506  501  0.00000000000E+00  0.00000000000E+00  0.25860057233E+03  0.25860057233E+03  0.00000000000E+00 0.  1.
         21   -1    0    0  503  502 -0.00000000000E+00 -0.00000000000E+00 -0.36516584024E+03  0.36516584024E+03  0.00000000000E+00 0.  1.
         21    1    1    2  503  501 -0.24138272816E+02  0.90253003969E+02  0.13157071998E+03  0.16136640077E+03  0.00000000000E+00 0.  1.
         21    1    1    2  504  502 -0.16599519030E+03 -0.94268240928E+02 -0.11933623591E+03  0.22512672354E+03  0.00000000000E+00 0.  1.
         21    1    1    2  505  504  0.14501225883E+03  0.20895705159E+02 -0.53169462181E+02  0.15585947970E+03  0.00000000000E+00 0.  1.
         21    1    1    2  506  505  0.45121204293E+02 -0.16880468200E+02 -0.65630289808E+02  0.81413808557E+02  0.00000000000E+00 0.  1.
<scales pt_clust_3="93.42516" pt_clust_4="184.76077" pt_clust_5="44.48554" pt_clust_6="44.48554"></scales>
<clustering>
<clus scale="   44.486">  5  6 -1 -1</clus>
<clus scale="   93.425">  1  3  2 -1</clus>
<clus scale="  184.761">  2  4  1 -1</clus>
<clus scale="   93.425">  1  3  2 -1</clus>
</clustering>
</event>
<event>
 6    0  0.4390142E+002  0.1371967E+03  0.7546771E-02  0.1217152E+00
         21   -1    0    0  502  501  0.00000000000E+00  0.00000000000E+00  0.26483040632E+03  0.26483040632E+03  0.00000000000E+00 0. -1.
         21   -1    0    0  506  502 -0.00000000000E+00 -0.00000000000E+00 -0.12314875528E+03  0.12314875528E+03  0.00000000000E+00 0. -1.
         21    1    1    2  503  501  0.39057075216E+02 -0.50351203695E+02  0.86066343306E+02  0.10708928185E+03  0.00000000000E+00 0. -1.
         21    1    1    2  504  503  0.78203597446E+02 -0.22398493525E+02  0.51193499638E+02  0.96115917365E+02  0.00000000000E+00 0. -1.
         21    1    1    2  505  504 -0.11035120007E+03  0.20994889288E+02  0.42551227106E+02  0.12011985540E+03  0.00000000000E+00 0. -1.
         21    1    1    2  506  505 -0.69094725968E+01  0.51754807932E+02 -0.38129419017E+02  0.64654106986E+02  0.00000000000E+00 0. -1.
<scales pt_clust_3="51.67999" pt_clust_4="51.67999" pt_clust_5="124.15084" pt_clust_6="52.21399"></scales>
<clustering>
<clus scale="   51.680">  3  4 -1 -1</clus>
<clus scale="   52.214">  2  6  1 -1</clus>
<clus scale="  124.151">  2  5  1 -1</clus>
<clus scale="  137.197">  1  3  2 -1</clus>
</clustering>
</event>
<event>
 6    0  0.4390142E+002  0.1348656E+03  0.7546771E-02  0.1220410E+00
         21   -1    0    0  504  501  0.00000000000E+00  0.00000000000E+00  0.15177851811E+04  0.15177851811E+04  0.00000000000E+00 0. -1.
         21   -1    0    0  501  502 -0.00000000000E+00 -0.00000000000E+00 -0.40945182023E+02  0.40945182023E+02  0.00000000000E+00 0.  1.
         21    1    1    2  503  505 -0.92480066742E+02  0.68969840810E-01  0.93036625458E+03  0.93495130096E+03  0.00000000000E+00 0. -1.
         21    1    1    2  504  503 -0.56707884479E+02 -0.48969322043E+02  0.34218111113E+03  0.35028801218E+03  0.00000000000E+00 0. -1.
         21    1    1    2  505  506  0.11434806954E+03  0.70310113826E+02  0.18421762918E+03  0.22793667545E+03  0.00000000000E+00 0.  1.
         21    1    1    2  506  502  0.34839881681E+02 -0.21409761624E+02  0.20075004229E+02  0.45554374577E+02  0.00000000000E+00 0. -1.
<scales pt_clust_3="134.86559" pt_clust_4="73.36072" pt_clust_5="14000.00000" pt_clust_6="40.89248"></scales>
<clustering>
<clus scale="   40.892">  2  6  1 -1</clus>
<clus scale="   73.361">  1  4  2 -1</clus>
<clus scale="  134.866">  1  3  2 -1</clus>
<clus scale="   73.361">  1  3  2 -1</clus>
</clustering>
</event>
<event>
 6    0  0.4390142E+002  0.1198114E+03  0.7546771E-02  0.1243409E+00
         21   -1    0    0  506  501  0.00000000000E+00  0.00000000000E+00  0.22939689807E+02  0.22939689807E+02  0.00000000000E+00 0. -1.
         21   -1    0    0  503  502 -0.00000000000E+00 -0.00000000000E+00 -0.10084580407E+04  0.10084580407E+04  0.00000000000E+00 0. -1.
         21    1    1    2  503  501 -0.32137322598E+02 -0.41738190900E+02 -0.15955230173E+03  0.16802327538E+03  0.00000000000E+00 0.  1.
         21    1    1    2  504  502  0.12212592610E+03  0.90184513626E+01 -0.62322527140E+03  0.63514235664E+03  0.00000000000E+00 0. -1.
         21    1    1    2  505  504 -0.34651973367E+02 -0.21494231166E+01 -0.40745852776E+02  0.53531334715E+02  0.00000000000E+00 0. -1.
         21    1    1    2  506  505 -0.55336630135E+02  0.34869162654E+02 -0.16199492501E+03  0.17470076378E+03  0.00000000000E+00 0. -1.
<scales pt_clust_3="52.67717" pt_clust_4="111.96979" pt_clust_5="31.06078" pt_clust_6="31.06078"></scales>
<clustering>
<clus scale="   31.061">  5  6 -1 -1</clus>
<clus scale="   52.677">  1  3  2 -1</clus>
<clus scale="  111.970">  2  4  1 -1</clus>
<clus scale="   52.677">  1  3  2 -1</clus>
</clustering>
</event>
<event>
 6    0  0.4390142E+002  0.1349021E+03  0.7546771E-02  0.1220358E+00
         21   -1    0    0  505  501  0.00000000000E+00  0.00000000000E+00  0.21547395856E+03  0.21547395856E+03  0.00000000000E+00 0.  1.
         21   -1    0    0  506  502 -0.00000000000E+00 -0.00000000000E+00 -0.78781758056E+03  0.78781758056E+03  0.00000000000E+00 0.  1.
         21    1    1    2  503  502  0.76088863883E+02 -0.26174244927E+02 -0.58405724071E+03  0.58957397054E+03  0.00000000000E+00 0.  1.
         21    1    1    2  504  501  0.47700937807E+02  0.47167473075E+02  0.68504276442E+02  0.95880059839E+02  0.00000000000E+00 0.  1.
         21    1    1    2  505  503 -0.11433593398E+03 -0.87062257342E+02 -0.14703050240E+03  0.20559793552E+03  0.00000000000E+00 0. -1.
         21    1    1    2  506  504 -0.94538677080E+01  0.66069029194E+02  0.90239844669E+02  0.11223957323E+03  0.00000000000E+00 0.  1.
<scales pt_clust_3="80.46494" pt_clust_4="61.71928" pt_clust_5="119.87420" pt_clust_6="61.71928"></scales>
<clustering>
<clus scale="   61.719">  4  6 -1 -1</clus>
<clus scale="   80.465">  2  3  1 -1</clus>
<clus scale="  119.874">  2  5  1 -1</clus>
<clus scale="  134.902">  1  3  2 -1</clus>
</clustering>
</event>
<event>
 6    0  0.4390142E+002  0.9580747E+02  0.7546771E-02  0.1289368E+00
         21   -1    0    0  505  501  0.00000000000E+00  0.00000000000E+00  0.12811799002E+03  0.12811799002E+03  0.00000000000E+00 0.  1.
         21   -1    0    0  504  502 -0.00000000000E+00 -0.00000000000E+00 -0.84644222908E+03  0.84644222908E+03  0.00000000000E+00 0. -1.
         21    1    1    2  503  506  0.63188205335E+02  0.62698314366E+02 -0.10102416439E+03  0.13464661046E+03  0.00000000000E+00 0. -1.
         21    1    1    2  504  503 -0.57219865521E+02  0.76943720998E+01 -0.56451922056E+03  0.56746389027E+03  0.00000000000E+00 0. -1.
         21    1    1    2  505  502  0.33172848390E+02  0.19596919365E+02 -0.13750611852E+03  0.14280199491E+03  0.00000000000E+00 0. -1.
         21    1    1    2  506  501 -0.39141188205E+02 -0.89989605831E+02  0.84725264407E+02  0.12964772347E+03  0.00000000000E+00 0.  1.
<scales pt_clust_3="14000.00000" pt_clust_4="38.54978" pt_clust_5="38.52891" pt_clust_6="95.80747"></scales>
<clustering>
<clus scale="   38.529">  2  5  1 -1</clus>
<clus scale="   38.550">  2  4  1 -1</clus>
<clus scale="   95.807">  1  6  2 -1</clus>
<clus scale="   95.807">  1  3  2 -1</clus>
</clustering>
</event>
<event>
 6    0  0.4390142E+002  0.6870913E+02  0.7546771E-02  0.1364539E+00
         21   -1    0    0  504  501  0.00000000000E+00  0.00000000000E+00  0.24212783428E+03  0.24212783428E+03  0.00000000000E+00 0. -1.
         21   -1    0    0  506  502 -0.00000000000E+00 -0.00000000000E+00 -0.15821244123E+03  0.15821244123E+03  0.00000000000E+00 0.  1.
         21    1    1    2  503  505  0.14474330437E+02 -0.76135030756E+02  0.69701309567E+00  0.77501838540E+02  0.00000000000E+00 0.  1.
         21    1    1    2  504  502  0.65101179287E+02  0.33418514598E+02  0.51080244418E+02  0.89242097870E+02  0.00000000000E+00 0. -1.
         21    1    1    2  505  501 -0.15211338905E+02  0.64716377167E+02  0.11104152640E+03  0.12942107591E+03  0.00000000000E+00 0. -1.
         21    1    1    2  506  503 -0.64364170819E+02 -0.21999861008E+02 -0.78903390871E+02  0.10417526319E+03  0.00000000000E+00 0.  1.
<scales pt_clust_3="56.20179" pt_clust_4="14000.00000" pt_clust_5="66.48003" pt_clust_6="68.70913"></scales>
<clustering>
<clus scale="   66.480">  1  5  2 -1</clus>
<clus scale="   56.202">  1  3  2 -1</clus>
<clus scale="   68.709">  2  6  1 -1</clus>
<clus scale="   66.480">  1  3  2 -1</clus>
</clustering>
</event>
<event>
 6    0  0.4390142E+002  0.1389193E+03  0.7546771E-02  0.1214791E+00
         21   -1    0    0  504  501  0.00000000000E+00  0.00000000000E+00  0.10810124548E+04  0.10810124548E+04  0.00000000000E+00 0.  1.
         21   -1    0    0  505  502 -0.00000000000E+00 -0.00000000000E+00 -0.21472456681E+02  0.21472456681E+02  0.00000000000E+00 0. -1.
         21    1    1    2  503  506  0.37117866425E+02  0.79412465320E+01  0.82730015514E+02  0.91022276786E+02  0.00000000000E+00 0. -1.
         21    1    1    2  504  502 -0.13035004987E+03 -0.50241589776E+01  0.45830274100E+03  0.47650580278E+03  0.00000000000E+00 0. -1.
         21    1    1    2  505  503  0.79275691982E+01  0.33725997984E+02  0.88468422162E+02  0.95010267936E+02  0.00000000000E+00 0. -1.
         21    1    1    2  506  501  0.85304614245E+02 -0.36643085538E+02  0.43003881945E+03  0.43994656399E+03  0.00000000000E+00 0.  1.
<scales pt_clust_3="38.17318" pt_clust_4="126.93934" pt_clust_5="34.64519" pt_clust_6="38.17318"></scales>
<clustering>
<clus scale="   34.645">  2  5  1 -1</clus>
<clus scale="   38.173">  3  6 -1 -1</clus>
<clus scale="  126.939">  2  4  1 -1</clus>
<clus scale="  138.919">  1  3  2 -1</clus>
</clustering>
</event>
<event>
 6    0  0.4390142E+002  0.1402126E+03  0.7546771E-02  0.1213043E+00
         21   -1    0    0  503  501  0.00000000000E+00  0.00000000000E+00  0.12071712450E+03  0.12071712450E+03  0.00000000000E+00 0. -1.
         21   -1    0    0  505  502 -0.00000000000E+00 -0.00000000000E+00 -0.11608892937E+04  0.11608892937E+04  0.00000000000E+00 0. -1.
         21    1    1    2  503  502  0.16121540345E+03  0.74640505994E+00 -0.33882122444E+02  0.16473907142E+03  0.00000000000E+00 0. -1.
         21    1    1    2  504  501 -0.74537957561E+02  0.14564479529E+03 -0.14582803833E+03  0.21916690051E+03  0.00000000000E+00 0. -1.
         21    1    1    2  505  506 -0.70243428079E+02 -0.26894747884E+02 -0.65609114397E+03  0.66038856430E+03  0.00000000000E+00 0. -1.
         21    1    1    2  506  504 -0.16434017812E+02 -0.11949645247E+03 -0.20437086447E+03  0.23731188200E+03  0.00000000000E+00 0. -1.
<scales pt_clust_3="14000.00000" pt_clust_4="140.21260" pt_clust_5="75.21613" pt_clust_6="139.57055"></scales>
<clustering>
<clus scale="   75.216">  2  5  1 -1</clus>
<clus scale="  139.571">  2  6  1 -1</clus>
<clus scale="  140.213">  2  4  1 -1</clus>
<clus scale="  140.213">  1  3  2 -1</clus>
</clustering>
</event>
<event>
 6    0  0.4390142E+002  0.1065767E+03  0.7546771E-02  0.1267044E+00
         21   -1    0    0  503  501  0.00000000000E+00  0.00000000000E+00  0.10825762380E+03  0.10825762380E+03  0.00000000000E+00 0.  1.
         21   -1    0    0  505  502 -0.00000000000E+00 -0.00000000000E+00 -0.97922141787E+03  0.97922141787E+03  0.00000000000E+00 0.  1.
         21    1    1    2  503  506  0.53853731452E+02 -0.63290050498E+01 -0.14770648475E+02  0.56200113457E+02  0.00000000000E+00 0.  1.
         21    1    1    2  504  502  0.60309846428E+01 -0.83390357364E+02 -0.61189467599E+03  0.61758029355E+03  0.00000000000E+00 0.  1.
         21    1    1    2  505  501 -0.11606255820E+03  0.11154139866E+03 -0.29426232790E+03  0.33541365305E+03  0.00000000000E+00 0.  1.
         21    1    1    2  506  504  0.56177842106E+02 -0.21822036245E+02  0.49963858297E+02  0.78284981609E+02  0.00000000000E+00 0.  1.
<scales pt_clust_3="54.22436" pt_clust_4="83.95711" pt_clust_5="106.57669" pt_clust_6="14000.00000"></scales>
<clustering>
<clus scale="   54.224">  1  3  2 -1</clus>
<clus scale="   83.957">  2  4  1 -1</clus>
<clus scale="  106.577">  2  5  1 -1</clus>
<clus scale="   54.224">  1  3  2 -1</clus>
</clustering>
</event>
<event>
 6    0  0.4390142E+002  0.9596863E+02  0.7546771E-02  0.1289009E+00
         21   -1    0    0  506  501  0.00000000000E+00  0.00000000000E+00  0.70873796705E+02  0.70873796705E+02  0.00000000000E+00 0. -1.
         21   -1    0    0  503  502 -0.00000000000E+00 -0.00000000000E+00 -0.17944570779E+04  0.17944570779E+04  0.00000000000E+00 0.  1.
         21    1    1    2  503  504  0.75646381508E+02 -0.63143189664E+02 -0.16769789408E+04  0.16798713658E+04  0.00000000000E+00 0.  1.
         21    1    1    2  504  501 -0.18907106020E+02  0.28071205748E+02  0.18992207900E+02  0.38809473214E+02  0.00000000000E+00 0. -1.
         21    1    1    2  505  502 -0.99174497240E+01  0.71054723493E+02 -0.30509189907E+02  0.77961145505E+02  0.00000000000E+00 0. -1.
         21    1    1    2  506  505 -0.46821825764E+02 -0.35982739577E+02 -0.35087358388E+02  0.68688890178E+02  0.00000000000E+00 0.  1.
<scales pt_clust_3="14000.00000" pt_clust_4="33.84481" pt_clust_5="95.96863" pt_clust_6="59.75491"></scales>
<clustering>
<clus scale="   33.845">  1  4  2 -1</clus>
<clus scale="   59.755">  1  6  2 -1</clus>
<clus scale="   95.969">  1  5  2 -1</clus>
<clus scale="   33.845">  1  3  2 -1</clus>
</clustering>
</event>
<event>
 6    0  0.4390142E+002  0.9518130E+02  0.7546771E-02  0.1290768E+00
         21   -1    0    0  503  501  0.00000000000E+00  0.00000000000E+00  0.23255670267E+03  0.23255670267E+03  0.00000000000E+00 0.  1.
         21   -1    0    0  504  502 -0.00000000000E+00 -0.00000000000E+00 -0.16698083900E+03  0.16698083900E+03  0.00000000000E+00 0.  1.
         21    1    1    2  503  502 -0.26172884736E+02 -0.19696254538E+02  0.37471007768E+01  0.32969730094E+02  0.00000000000E+00 0.  1.
         21    1    1    2  504  505  0.32907071221E+02 -0.22610215237E+02 -0.30507989591E+02  0.50247732270E+02  0.00000000000E+00 0.  1.
         21    1    1    2  505  506  0.28985117130E+02  0.12601541919E+03 -0.57098576290E+02  0.14135158401E+03  0.00000000000E+00 0.  1.
         21    1    1    2  506  501 -0.35719303614E+02 -0.83708949412E+02  0.14943532877E+03  0.17496849530E+03  0.00000000000E+00 0.  1.
<scales pt_clust_3="32.75610" pt_clust_4="38.06573" pt_clust_5="95.18130" pt_clust_6="14000.00000"></scales>
<clustering>
<clus scale="   32.756">  2  3  1 -1</clus>
<clus scale="   38.066">  2  4  1 -1</clus>
<clus scale="   95.181">  2  5  1 -1</clus>
<clus scale="   95.181">  1  3  2 -1</clus>
</clustering>
</event>
<event>
 6    0  0.4390142E+002  0.1901119E+03  0.7546771E-02  0.1158360E+00
         21   -1    0    0  503  501  0.00000000000E+00  0.00000000000E+00  0.10654038008E+04  0.10654038008E+04  0.00000000000E+00 0.  1.
         21   -1    0    0  501  502 -0.00000000000E+00 -0.00000000000E+00 -0.44907214291E+03  0.44907214291E+03  0.00000000000E+00 0.  1.
         21    1    1    2  503  505  0.51020372966E+02  0.41690409940E+02  0.91281387253E+02  0.11257646467E+03  0.00000000000E+00 0.  1.
         21    1    1    2  504  506 -0.15268144128E+03 -0.43390310586E+02  0.77288768047E+03  0.78901819256E+03  0.00000000000E+00 0.  1.
         21    1    1    2  505  504 -0.88399401140E+02  0.23648548751E+02  0.14755813678E+03  0.17362923633E+03  0.00000000000E+00 0.  1.
         21    1    1    2  506  502  0.19006046945E+03 -0.21948648104E+02 -0.39539554665E+03  0.43925205010E+03  0.00000000000E+00 0.  1.
<scales pt_clust_3="65.88755" pt_clust_4="190.11195" pt_clust_5="85.55385" pt_clust_6="14000.00000"></scales>
<clustering>
<clus scale="   65.888">  1  3  2 -1</clus>
<clus scale="   85.554">  1  5  2 -1</clus>
<clus scale="  190.112">  1  4  2 -1</clus>
<clus scale="   65.888">  1  3  2 -1</clus>
</clustering>
</event>
<event>
 6    0  0.4390142E+002  0.1796865E+03  0.7546771E-02  0.1168107E+00
         21   -1    0    0  504  501  0.00000000000E+00  0.00000000000E+00  0.33657649221E+03  0.33657649221E+03  0.00000000000E+00 0. -1.
         21   -1    0    0  505  502 -0.00000000000E+00 -0.00000000000E+00 -0.18760857604E+03  0.18760857604E+03  0.00000000000E+00 0.  1.
         21    1    1    2  503  501 -0.10558757662E+03 -0.71722428593E+02  0.15853780760E+03  0.20353643295E+03  0.00000000000E+00 0. -1.
         21    1    1    2  504  502  0.18819625230E+03  0.83531916971E+02 -0.53832382857E+02  0.21282231080E+03  0.00000000000E+00 0.  1.
         21    1    1    2  505  506 -0.40951906698E+02 -0.23347949476E+02  0.17109501221E+01  0.47171100870E+02  0.00000000000E+00 0.  1.
         21    1    1    2  506  503 -0.41656768980E+02  0.11538461099E+02  0.42551541307E+02  0.60655223634E+02  0.00000000000E+00 0. -1.
<scales pt_clust_3="37.06705" pt_clust_4="168.01770" pt_clust_5="47.14006" pt_clust_6="37.06705"></scales>
<clustering>
<clus scale="   37.067">  3  6 -1 -1</clus>
<clus scale="   47.140">  2  5  1 -1</clus>
<clus scale="  168.018">  2  4  1 -1</clus>
<clus scale="  179.687">  1  3  2 -1</clus>
</clustering>
</event>
<event>
 6    0  0.4390142E+002  0.8429515E+02  0.7546771E-02  0.1317286E+00
         21   -1    0    0  504  501  0.00000000000E+00  0.00000000000E+00  0.96901989966E+03  0.96901989966E+03  0.00000000000E+00 0.  1.
         21   -1    0    0  506  502 -0.00000000000E+00 -0.00000000000E+00 -0.10380996375E+03  0.10380996375E+03  0.00000000000E+00 0.  1.
         21    1    1    2  503  502 -0.80232135127E+02 -0.56219439693E+01  0.10842170200E+02  0.81156357827E+02  0.00000000000E+00 0.  1.
         21    1    1    2  504  503  0.11905175448E+01  0.83119954295E+02  0.56362757575E+03  0.56972483558E+03  0.00000000000E+00 0.  1.
         21    1    1    2  505  501 -0.32085949067E+01 -0.36001500705E+02  0.32248746238E+03  0.32450665098E+03  0.00000000000E+00 0.  1.
         21    1    1    2  506  505  0.82250212489E+02 -0.41496509621E+02 -0.31747272426E+02  0.97442019025E+02  0.00000000000E+00 0.  1.
<scales pt_clust_3="84.29515" pt_clust_4="51.54147" pt_clust_5="36.14420" pt_clust_6="14000.00000"></scales>
<clustering>
<clus scale="   36.144">  1  5  2 -1</clus>
<clus scale="   51.541">  1  4  2 -1</clus>
<clus scale="   84.295">  1  3  2 -1</clus>
<clus scale="   36.144">  1  3  2 -1</clus>
</clustering>
</event>
<event>
 6    0  0.4390142E+002  0.7290266E+02  0.7546771E-02  0.1350492E+00
         21   -1    0    0  504  501  0.00000000000E+00  0.00000000000E+00  0.66345724866E+03  0.66345724866E+03  0.00000000000E+00 0.  1.
         21   -1    0    0  506  502 -0.00000000000E+00 -0.00000000000E+00 -0.56035103440E+03  0.56035103440E+03  0.00000000000E+00 0.  1.
         21    1    1    2  503  501  0.35886211530E+02 -0.10116536414E+03  0.40256263269E+03  0.41662804073E+03  0.00000000000E+00 0.  1.
         21    1    1    2  504  505 -0.75554673155E+01  0.33061682802E+02  0.22273985143E+03  0.22530690485E+03  0.00000000000E+00 0.  1.
         21    1    1    2  505  502  0.37755158395E+02  0.49221757304E+02 -0.50789675481E+03  0.51167113161E+03  0.00000000000E+00 0.  1.
         21    1    1    2  506  503 -0.66085902610E+02  0.18881924035E+02 -0.14299515052E+02  0.70202205875E+02  0.00000000000E+00 0.  1.
<scales pt_clust_3="14000.00000" pt_clust_4="33.91401" pt_clust_5="62.12714" pt_clust_6="72.90266"></scales>
<clustering>
<clus scale="   33.914">  1  4  2 -1</clus>
<clus scale="   62.127">  2  5  1 -1</clus>
<clus scale="   72.903">  2  6  1 -1</clus>
<clus scale="   33.914">  1  3  2 -1</clus>
</clustering>
</event>
<event>
 6    0  0.4390142E+002  0.1095504E+03  0.7546771E-02  0.1261405E+00
         21   -1    0    0  506  501  0.00000000000E+00  0.00000000000E+00  0.45813234128E+03  0.45813234128E+03  0.00000000000E+00 0.  1.
         21   -1    0    0  504  502 -0.00000000000E+00 -0.00000000000E+00 -0.15902211919E+03  0.15902211919E+03  0.00000000000E+00 0.  1.
         21    1    1    2  503  501  0.81526208152E+02  0.41884164214E+02  0.13402662385E+03  0.16236976852E+03  0.00000000000E+00 0. -1.
         21    1    1    2  504  503 -0.21412758973E+02  0.39239003544E+02 -0.10766329806E+03  0.11657440283E+03  0.00000000000E+00 0.  1.
         21    1    1    2  505  502 -0.62448624887E+02 -0.12917643690E+03  0.15605246171E+03  0.21198762560E+03  0.00000000000E+00 0.  1.
         21    1    1    2  506  505  0.23351757090E+01  0.48053269145E+02  0.11669443459E+03  0.12622266352E+03  0.00000000000E+00 0.  1.
<scales pt_clust_3="14000.00000" pt_clust_4="44.70129" pt_clust_5="109.55037" pt_clust_6="52.03915"></scales>
<clustering>
<clus scale="   44.701">  2  4  1 -1</clus>
<clus scale="   52.039">  1  6  2 -1</clus>
<clus scale="  109.550">  2  5  1 -1</clus>
<clus scale="   52.039">  1  3  2 -1</clus>
</clustering>
</event>
<event>
 6    0  0.4390142E+002  0.8092954E+02  0.7546771E-02  0.1326434E+00
         21   -1    0    0  506  501  0.00000000000E+00  0.00000000000E+00  0.20655902688E+02  0.20655902688E+02  0.00000000000E+00 0.  1.
         21   -1    0    0  505  502 -0.00000000000E+00 -0.00000000000E+00 -0.14742470557E+04  0.14742470557E+04  0.00000000000E+00 0.  1.
         21    1    1    2  503  502  0.16416256225E+02  0.29335935044E+02 -0.60601987944E+03  0.60695155064E+03  0.00000000000E+00 0.  1.
         21    1    1    2  504  503  0.12623997542E+02 -0.33745693041E+02 -0.14578743553E+03  0.15017361110E+03  0.00000000000E+00 0. -1.
         21    1    1    2  505  501 -0.89642124876E+02  0.51954033102E+02 -0.60634525796E+03  0.61513372852E+03  0.00000000000E+00 0.  1.
         21    1    1    2  506  504  0.60601871109E+02 -0.47544275105E+02 -0.95438580056E+02  0.12264406810E+03  0.00000000000E+00 0.  1.
<scales pt_clust_3="33.61682" pt_clust_4="32.61968" pt_clust_5="14000.00000" pt_clust_6="80.92954"></scales>
<clustering>
<clus scale="   33.617">  2  3  1 -1</clus>
<clus scale="   32.620">  2  4  1 -1</clus>
<clus scale="   80.930">  1  6  2 -1</clus>
<clus scale="   80.930">  1  3  2 -1</clus>
</clustering>
</event>
<event>
 6    0  0.4390142E+002  0.6320373E+02  0.7546771E-02  0.1384859E+00
         21   -1    0    0  504  501  0.00000000000E+00  0.00000000000E+00  0.54232627079E+03  0.54232627079E+03  0.00000000000E+00 0. -1.
         21   -1    0    0  505  502 -0.00000000000E+00 -0.00000000000E+00 -0.87744721342E+03  0.87744721342E+03  0.00000000000E+00 0.  1.
         21    1    1    2  503  501  0.14994022446E+02  0.38491894203E+02  0.20979352292E+03  0.21382181574E+03  0.00000000000E+00 0. -1.
         21    1    1    2  504  506  0.34125851571E+02 -0.39188468602E+02  0.31788845500E+03  0.32210771434E+03  0.00000000000E+00 0. -1.
         21    1    1    2  505  503  0.56559360362E+02  0.24184175991E+01 -0.56523396236E+03  0.56806182955E+03  0.00000000000E+00 0.  1.
         21    1    1    2  506  502 -0.10567923438E+03 -0.17218432001E+01 -0.29756895820E+03  0.31578212458E+03  0.00000000000E+00 0. -1.
<scales pt_clust_3="41.30916" pt_clust_4="48.68056" pt_clust_5="63.20373" pt_clust_6="14000.00000"></scales>
<clustering>
<clus scale="   41.309">  1  3  2 -1</clus>
<clus scale="   48.681">  1  4  2 -1</clus>
<clus scale="   63.204">  2  5  1 -1</clus>
<clus scale="   41.309">  1  3  2 -1</clus>
</clustering>
</event>
<event>
 6    0  0.4390142E+002  0.9343990E+02  0.7546771E-02  0.1294729E+00
         21   -1    0    0  505  501  0.00000000000E+00  0.00000000000E+00  0.30160363099E+03  0.30160363099E+03  0.00000000000E+00 0.  1.
         21   -1    0    0  504  502 -0.00000000000E+00 -0.00000000000E+00 -0.20795023764E+03  0.20795023764E+03  0.00000000000E+00 0. -1.
         21    1    1    2  503  506 -0.75040948773E+02 -0.10854641806E+03  0.60436735828E+02  0.14514154437E+03  0.00000000000E+00 0.  1.
         21    1    1    2  504  501  0.60144392715E+02  0.80564947482E+02 -0.11968670857E+03  0.15631048253E+03  0.00000000000E+00 0. -1.
         21    1    1    2  505  503  0.11685187085E+02  0.58622925810E+02  0.16462229363E+03  0.17513906072E+03  0.00000000000E+00 0.  1.
         21    1    1    2  506  502  0.32113689733E+01 -0.30641455238E+02 -0.11718927528E+02  0.32962781014E+02  0.00000000000E+00 0.  1.
<scales pt_clust_3="14000.00000" pt_clust_4="93.43990" pt_clust_5="58.94319" pt_clust_6="30.80928"></scales>
<clustering>
<clus scale="   30.809">  2  6  1 -1</clus>
<clus scale="   58.943">  1  5  2 -1</clus>
<clus scale="   93.440">  2  4  1 -1</clus>
<clus scale="   58.943">  1  3  2 -1</clus>
</clustering>
</event>
<event>
 6    0  0.4390142E+002  0.1274924E+03  0.7546771E-02  0.1231225E+00
         21   -1    0    0  502  501  0.00000000000E+00  0.00000000000E+00  0.59570458133E+03  0.59570458133E+03  0.00000000000E+00 0.  1.
         21   -1    0    0  504  502 -0.00000000000E+00 -0.00000000000E+00 -0.12058159158E+03  0.12058159158E+03  0.00000000000E+00 0.  1.
         21    1    1    2  503  506  0.45795496877E+00 -0.75308095332E+02  0.41619117971E+03  0.42294989894E+03  0.00000000000E+00 0.  1.
         21    1    1    2  504  505  0.53273024153E+02 -0.11280959353E+01 -0.39411922011E+02  0.66276596921E+02  0.00000000000E+00 0.  1.
         21    1    1    2  505  503 -0.34198071149E+02  0.11467296760E+03 -0.95616223718E-01  0.11966372345E+03  0.00000000000E+00 0.  1.
         21    1    1    2  506  501 -0.19532907973E+02 -0.38236776332E+02  0.98439348277E+02  0.10739595359E+03  0.00000000000E+00 0.  1.
<scales pt_clust_3="42.48506" pt_clust_4="53.28497" pt_clust_5="114.40480" pt_clust_6="42.48506"></scales>
<clustering>
<clus scale="   42.485">  3  6 -1 -1</clus>
<clus scale="   53.285">  2  4  1 -1</clus>
<clus scale="  114.405">  2  5  1 -1</clus>
<clus scale="  127.492">  1  3  2 -1</clus>
</clustering>
</event>
<event>
 6    0  0.4390142E+002  0.2688499E+03  0.7546771E-02  0.1101940E+00
         21   -1    0    0  503  501  0.00000000000E+00  0.00000000000E+00  0.70951808277E+03  0.70951808277E+03  0.00000000000E+00 0. -1.
         21   -1    0    0  505  502 -0.00000000000E+00 -0.00000000000E+00 -0.34026566992E+03  0.34026566992E+03  0.00000000000E+00 0. -1.
         21    1    1    2  503  506 -0.90057122416E+02  0.10907770124E+03  0.79540338005E+02  0.16228029941E+03  0.00000000000E+00 0. -1.
         21    1    1    2  504  502 -0.16156389662E+02 -0.50496703093E+02 -0.84646408514E+02  0.99879729798E+02  0.00000000000E+00 0. -1.
         21    1    1    2  505  501  0.10460112065E+03  0.15839335002E+03  0.50144244653E+03  0.53616636873E+03  0.00000000000E+00 0. -1.
         21    1    1    2  506  504  0.16123914265E+01 -0.21697434816E+03 -0.12708396317E+03  0.25145735476E+03  0.00000000000E+00 0. -1.
<scales pt_clust_3="141.45045" pt_clust_4="40.92880" pt_clust_5="255.78223" pt_clust_6="40.92880"></scales>
<clustering>
<clus scale="   40.929">  4  6 -1 -1</clus>
<clus scale="  141.450">  1  3  2 -1</clus>
<clus scale="  255.782">  1  5  2 -1</clus>
<clus scale="  141.450">  1  3  2 -1</clus>
</clustering>
</event>
<event>
 6    0  0.4390142E+002  0.6971162E+02  0.7546771E-02  0.1361076E+00
         21   -1    0    0  503  501  0.00000000000E+00  0.00000000000E+00  0.12696502406E+03  0.12696502406E+03  0.00000000000E+00 0. -1.
         21   -1    0    0  504  502 -0.00000000000E+00 -0.00000000000E+00 -0.70402576141E+03  0.70402576141E+03  0.00000000000E+00 0.  1.
         21    1    1    2  503  506 -0.88892442251E+02 -0.26895902551E+02  0.87770523024E+02  0.12778466487E+03  0.00000000000E+00 0. -1.
         21    1    1    2  504  501  0.24745437903E+02  0.20596863412E+02 -0.17477278515E+02  0.36633628591E+02  0.00000000000E+00 0.  1.
         21    1    1    2  505  502 -0.25281500798E+02  0.24328367285E+02 -0.42196084479E+03  0.42341702643E+03  0.00000000000E+00 0.  1.
         21    1    1    2  506  505  0.89428505146E+02 -0.18029328146E+02 -0.22539313707E+03  0.24315546558E+03  0.00000000000E+00 0. -1.
<scales pt_clust_3="14000.00000" pt_clust_4="32.19577" pt_clust_5="35.06450" pt_clust_6="69.71162"></scales>
<clustering>
<clus scale="   32.196">  1  4  2 -1</clus>
<clus scale="   35.064">  2  5  1 -1</clus>
<clus scale="   69.712">  2  6  1 -1</clus>
<clus scale="   32.196">  1  3  2 -1</clus>
</clustering>
</event>
<event>
 6    0  0.4390142E+002  0.1843708E+03  0.7546771E-02  0.1163639E+00
         21   -1    0    0  503  501  0.00000000000E+00  0.00000000000E+00  0.70088997592E+02  0.70088997592E+02  0.00000000000E+00 0. -1.
         21   -1    0    0  504  502 -0.00000000000E+00 -0.00000000000E+00 -0.45329687778E+03  0.45329687778E+03  0.00000000000E+00 0.  1.
         21    1    1    2  503  506 -0.73483655985E+02  0.94333016194E+01 -0.41234356079E+02  0.84788601814E+02  0.00000000000E+00 0. -1.
         21    1    1    2  504  501  0.14234278890E+03  0.62039899164E+02 -0.25592770400E+03  0.29934830602E+03  0.00000000000E+00 0.  1.
         21    1    1    2  505  502 -0.64486786361E+02 -0.37310374811E+02 -0.52269476243E+02  0.91009383199E+02  0.00000000000E+00 0. -1.
         21    1    1    2  506  505 -0.43723465507E+01 -0.34162825972E+02 -0.33776343870E+02  0.48239584347E+02  0.00000000000E+00 0. -1.
<scales pt_clust_3="67.72627" pt_clust_4="155.27530" pt_clust_5="67.72627" pt_clust_6="31.42653"></scales>
<clustering>
<clus scale="   31.427">  5  6 -1 -1</clus>
<clus scale="   67.726">  3  5 -1 -1</clus>
<clus scale="  155.275">  2  4  1 -1</clus>
<clus scale="  184.371">  1  3  2 -1</clus>
</clustering>
</event>
<event>
 6    0  0.4390142E+002  0.1258361E+03  0.7546771E-02  0.1233768E+00
         21   -1    0    0  506  501  0.00000000000E+00  0.00000000000E+00  0.76328460565E+03  0.76328460565E+03  0.00000000000E+00 0.  1.
         21   -1    0    0  501  502 -0.00000000000E+00 -0.00000000000E+00 -0.36231188421E+03  0.36231188421E+03  0.00000000000E+00 0.  1.
         21    1    1    2  503  504  0.57842509666E+02  0.12063681397E+02 -0.65235148699E+02  0.88016549348E+02  0.00000000000E+00 0.  1.
         21    1    1    2  504  502  0.85412450994E+01 -0.33629048116E+02 -0.25247354057E+03  0.25484653114E+03  0.00000000000E+00 0.  1.
         21    1    1    2  505  503  0.74169076964E+02  0.21948432736E+02  0.35255945556E+02  0.85004513846E+02  0.00000000000E+00 0.  1.
         21    1    1    2  506  505 -0.14055283173E+03 -0.38306601751E+00  0.68342546515E+03  0.69772889553E+03  0.00000000000E+00 0.  1.
<scales pt_clust_3="64.92054" pt_clust_4="34.69677" pt_clust_5="14000.00000" pt_clust_6="125.83614"></scales>
<clustering>
<clus scale="   34.697">  2  4  1 -1</clus>
<clus scale="   64.921">  2  3  1 -1</clus>
<clus scale="  125.836">  1  6  2 -1</clus>
<clus scale="  125.836">  1  3  2 -1</clus>
</clustering>
</event>
<event>
 6    0  0.4390142E+002  0.2557426E+03  0.7546771E-02  0.1109728E+00
         21   -1    0    0  505  501  0.00000000000E+00  0.00000000000E+00  0.79831634104E+03  0.79831634104E+03  0.00000000000E+00 0.  1.
         21   -1    0    0  506  502 -0.00000000000E+00 -0.00000000000E+00 -0.95085885394E+02  0.95085885394E+02  0.00000000000E+00 0.  1.
         21    1    1    2  503  504 -0.17249780273E+03 -0.51910565941E+02  0.19051327237E+03  0.26219364171E+03  0.00000000000E+00 0.  1.
         21    1    1    2  504  502  0.27313879356E+02 -0.28906750687E+02  0.90734737003E+01  0.40791863965E+02  0.00000000000E+00 0. -1.
         21    1    1    2  505  503 -0.69860436403E+02  0.94838923783E-01  0.18388953660E+03  0.19671261078E+03  0.00000000000E+00 0. -1.
         21    1    1    2  506  501  0.21504435978E+03  0.80722477704E+02  0.31975417298E+03  0.39370410998E+03  0.00000000000E+00 0.  1.
<scales pt_clust_3="59.35432" pt_clust_4="39.76994" pt_clust_5="59.35432" pt_clust_6="237.50614"></scales>
<clustering>
<clus scale="   39.770">  2  4  1 -1</clus>
<clus scale="   59.354">  3  5 -1 -1</clus>
<clus scale="  237.506">  1  6  2 -1</clus>
<clus scale="  237.506">  1  3  2 -1</clus>
</clustering>
</event>
<event>
 6    0  0.4390142E+002  0.2055457E+03  0.7546771E-02  0.1145143E+00
         21   -1    0    0  505  501  0.00000000000E+00  0.00000000000E+00  0.32513159169E+03  0.32513159169E+03  0.00000000000E+00 0.  1.
         21   -1    0    0  504  502 -0.00000000000E+00 -0.00000000000E+00 -0.58217831373E+03  0.58217831373E+03  0.00000000000E+00 0. -1.
         21    1    1    2  503  502 -0.30422189704E+02 -0.98161146426E+02 -0.53703471057E+02  0.11595336605E+03  0.00000000000E+00 0. -1.
         21    1    1    2  504  506 -0.12357105469E+03  0.23310808164E+03 -0.39509538632E+03  0.47508898912E+03  0.00000000000E+00 0. -1.
         21    1    1    2  505  503  0.17488270718E+03 -0.81306809337E+02  0.15959450144E+03  0.25033010887E+03  0.00000000000E+00 0.  1.
         21    1    1    2  506  501 -0.20889462788E+02 -0.53640125880E+02  0.32157633904E+02  0.65937441399E+02  0.00000000000E+00 0.  1.
<scales pt_clust_3="109.24163" pt_clust_4="14000.00000" pt_clust_5="205.54565" pt_clust_6="57.56416"></scales>
<clustering>
<clus scale="   57.564">  1  6  2 -1</clus>
<clus scale="  109.242">  2  3  1 -1</clus>
<clus scale="  205.546">  1  5  2 -1</clus>
<clus scale="   57.564">  1  3  2 -1</clus>
</clustering>
</event>
<event>
 6    0  0.4390142E+002  0.8421665E+02  0.7546771E-02  0.1317494E+00
         21   -1    0    0  503  501  0.00000000000E+00  0.00000000000E+00  0.32109374755E+02  0.32109374755E+02  0.00000000000E+00 0. -1.
         21   -1    0    0  506  502 -0.00000000000E+00 -0.00000000000E+00 -0.67993627848E+03  0.67993627848E+03  0.00000000000E+00 0. -1.
         21    1    1    2  503  505 -0.54435028076E+02  0.33956168386E+02 -0.10278033623E+03  0.12116101340E+03  0.00000000000E+00 0. -1.
         21    1    1    2  504  501  0.19193050733E+02 -0.95445889882E+02 -0.26474320482E+03  0.28207668388E+03  0.00000000000E+00 0. -1.
         21    1    1    2  505  502  0.65879129940E+02  0.62882049875E+02 -0.15472080761E+03  0.17953478845E+03  0.00000000000E+00 0. -1.
         21    1    1    2  506  504 -0.30637152597E+02 -0.13923283797E+01 -0.12558255507E+03  0.12927316750E+03  0.00000000000E+00 0. -1.
<scales pt_clust_3="69.36586" pt_clust_4="84.21665" pt_clust_5="14000.00000" pt_clust_6="30.66877"></scales>
<clustering>
<clus scale="   30.669">  2  6  1 -1</clus>
<clus scale="   69.366">  1  3  2 -1</clus>
<clus scale="   84.217">  2  4  1 -1</clus>
<clus scale="   69.366">  1  3  2 -1</clus>
</clustering>
</event>
<event>
 6    0  0.4390142E+002  0.8320099E+02  0.7546771E-02  0.1320205E+00
         21   -1    0    0  505  501  0.00000000000E+00  0.00000000000E+00  0.11310392798E+04  0.11310392798E+04  0.00000000000E+00 0. -1.
         21   -1    0    0  504  502 -0.00000000000E+00 -0.00000000000E+00 -0.28677380172E+02  0.28677380172E+02  0.00000000000E+00 0.  1.
         21    1    1    2  503  502  0.63523175140E+01  0.11693034804E+03  0.23785965049E+03  0.26512312529E+03  0.00000000000E+00 0.  1.
         21    1    1    2  504  506 -0.53012555545E+02 -0.29018206037E+02  0.78993954363E+02  0.99460706578E+02  0.00000000000E+00 0.  1.
         21    1    1    2  505  503  0.40279421278E+02 -0.50692256989E+02  0.24843231051E+03  0.25673088946E+03  0.00000000000E+00 0.  1.
         21    1    1    2  506  501  0.63808167526E+01 -0.37219885019E+02  0.53707598427E+03  0.53840193865E+03  0.00000000000E+00 0. -1.
<scales pt_clust_3="83.20099" pt_clust_4="62.51207" pt_clust_5="14000.00000" pt_clust_6="37.76287"></scales>
<clustering>
<clus scale="   37.763">  1  6  2 -1</clus>
<clus scale="   62.512">  2  4  1 -1</clus>
<clus scale="   83.201">  2  3  1 -1</clus>
<clus scale="   37.763">  1  3  2 -1</clus>
</clustering>
</event>
<event>
 6    0  0.4390142E+002  0.9818812E+02  0.7546771E-02  0.1284153E+00
         21   -1    0    0  502  501  0.00000000000E+00  0.00000000000E+00  0.20523132445E+03  0.20523132445E+03  0.00000000000E+00 0.  1.
         21   -1    0    0  504  502 -0.00000000000E+00 -0.00000000000E+00 -0.27317708994E+04  0.27317708994E+04  0.00000000000E+00 0.  1.
         21    1    1    2  503  506  0.61494047307E+02 -0.45735869378E+01 -0.81954463339E+03  0.82186120585E+03  0.00000000000E+00 0.  1.
         21    1    1    2  504  503 -0.43103154955E+00  0.31649310174E+02 -0.17936612453E+04  0.17939405028E+04  0.00000000000E+00 0.  1.
         21    1    1    2  505  501 -0.98879257762E+02  0.32255815326E+02  0.17784892306E+03  0.20602860158E+03  0.00000000000E+00 0.  1.
         21    1    1    2  506  505  0.37816242005E+02 -0.59331538562E+02 -0.91182619311E+02  0.11517191364E+03  0.00000000000E+00 0.  1.
<scales pt_clust_3="65.34338" pt_clust_4="31.65225" pt_clust_5="98.18812" pt_clust_6="14000.00000"></scales>
<clustering>
<clus scale="   31.652">  2  4  1 -1</clus>
<clus scale="   65.343">  2  3  1 -1</clus>
<clus scale="   98.188">  1  5  2 -1</clus>
<clus scale="   98.188">  1  3  2 -1</clus>
</clustering>
</event>
<event>
 6    0  0.4390142E+002  0.1725653E+03  0.7546771E-02  0.1175199E+00
         21   -1    0    0  506  501  0.00000000000E+00  0.00000000000E+00  0.27374207542E+02  0.27374207542E+02  0.00000000000E+00 0.  1.
         21   -1    0    0  501  502 -0.00000000000E+00 -0.00000000000E+00 -0.21552873774E+04  0.21552873774E+04  0.00000000000E+00 0.  1.
         21    1    1    2  503  505 -0.35187900553E+02  0.10124714683E+03 -0.76465449858E+03  0.77213060766E+03  0.00000000000E+00 0.  1.
         21    1    1    2  504  503 -0.43781609395E+02  0.62481147675E+01 -0.29646009141E+03  0.29974064465E+03  0.00000000000E+00 0.  1.
         21    1    1    2  505  502 -0.22968131189E+02  0.20689207753E+02 -0.77932235627E+03  0.77993519817E+03  0.00000000000E+00 0.  1.
         21    1    1    2  506  504  0.10193764114E+03 -0.12818446935E+03 -0.28747622362E+03  0.33085513447E+03  0.00000000000E+00 0.  1.
<scales pt_clust_3="45.80629" pt_clust_4="45.80629" pt_clust_5="30.91243" pt_clust_6="156.92798"></scales>
<clustering>
<clus scale="   30.912">  2  5  1 -1</clus>
<clus scale="   45.806">  3  4 -1 -1</clus>
<clus scale="  156.928">  1  6  2 -1</clus>
<clus scale="  156.928">  1  3  2 -1</clus>
</clustering>
</event>
<event>
 6    0  0.4390142E+002  0.9567701E+02  0.7546771E-02  0.1289659E+00
         21   -1    0    0  505  501  0.00000000000E+00  0.00000000000E+00  0.40802084744E+02  0.40802084744E+02  0.00000000000E+00 0. -1.
         21   -1    0    0  506  502 -0.00000000000E+00 -0.00000000000E+00 -0.16955072253E+04  0.16955072253E+04  0.00000000000E+00 0. -1.
         21    1    1    2  503  504 -0.11018652919E+03 -0.43729947585E+02 -0.34892638112E+03  0.36851458448E+03  0.00000000000E+00 0. -1.
         21    1    1    2  504  502  0.71278276435E+02 -0.55691458430E+02 -0.11805275685E+04  0.11839879524E+04  0.00000000000E+00 0. -1.
         21    1    1    2  505  503  0.50546985996E+02  0.61475706341E+02 -0.38508379782E+02  0.88414679646E+02  0.00000000000E+00 0. -1.
         21    1    1    2  506  501 -0.11638733237E+02  0.37945699674E+02 -0.86742811097E+02  0.95392093551E+02  0.00000000000E+00 0. -1.
<scales pt_clust_3="14000.00000" pt_clust_4="88.91854" pt_clust_5="95.67701" pt_clust_6="39.69051"></scales>
<clustering>
<clus scale="   39.691">  1  6  2 -1</clus>
<clus scale="   88.919">  2  4  1 -1</clus>
<clus scale="   95.677">  1  5  2 -1</clus>
<clus scale="   39.691">  1  3  2 -1</clus>
</clustering>
</event>
<event>
 6    0  0.4390142E+002  0.8765948E+02  0.7546771E-02  0.1308621E+00
         21   -1    0    0  504  501  0.00000000000E+00  0.00000000000E+00  0.69162912471E+02  0.69162912471E+02  0.00000000000E+00 0. -1.
         21   -1    0    0  503  502 -0.00000000000E+00 -0.00000000000E+00 -0.42314064565E+03  0.42314064565E+03  0.00000000000E+00 0. -1.
         21    1    1    2  503  501 -0.33645939625E+02  0.52098819110E+02 -0.72841276426E+01  0.62445133689E+02  0.00000000000E+00 0. -1.
         21    1    1    2  504  505  0.11773937922E+03 -0.61684752706E+02 -0.16270796897E+03  0.21009867516E+03  0.00000000000E+00 0. -1.
         21    1    1    2  505  506 -0.65003110490E+02 -0.28016032702E+02 -0.76126096899E+02  0.10394943526E+03  0.00000000000E+00 0. -1.
         21    1    1    2  506  502 -0.19090329109E+02  0.37601966299E+02 -0.10785953966E+03  0.11581031401E+03  0.00000000000E+00 0. -1.
<scales pt_clust_3="66.71816" pt_clust_4="14000.00000" pt_clust_5="87.65948" pt_clust_6="42.17047"></scales>
<clustering>
<clus scale="   42.170">  2  6  1 -1</clus>
<clus scale="   66.718">  1  3  2 -1</clus>
<clus scale="   87.659">  2  5  1 -1</clus>
<clus scale="   66.718">  1  3  2 -1</clus>
</clustering>
</event>
<event>
 6    0  0.4390142E+002  0.3863351E+03  0.7546771E-02  0.1048617E+00
         21   -1    0    0  504  501  0.00000000000E+00  0.00000000000E+00  0.41424787140E+03  0.41424787140E+03  0.00000000000E+00 0.  1.
         21   -1    0    0  503  502 -0.00000000000E+00 -0.00000000000E+00 -0.70214616623E+03  0.70214616623E+03  0.00000000000E+00 0.  1.
         21    1    1    2  503  506 -0.16485116797E+03 -0.86354778019E+02  0.11896926474E+03  0.22087720846E+03  0.00000000000E+00 0.  1.
         21    1    1    2  504  505  0.20075073293E+03  0.44776232196E+02 -0.22414986804E+03  0.30421855809E+03  0.00000000000E+00 0.  1.
         21    1    1    2  505  502  0.10163321841E+03  0.13689724693E+03 -0.32801793362E+03  0.36968355668E+03  0.00000000000E+00 0.  1.
         21    1    1    2  506  501 -0.13753278337E+03 -0.95318701109E+02  0.14530024210E+03  0.22161471440E+03  0.00000000000E+00 0. -1.
<scales pt_clust_3="354.90947" pt_clust_4="143.41869" pt_clust_5="143.41869" pt_clust_6="36.96236"></scales>
<clustering>
<clus scale="   36.962">  3  6 -1 -1</clus>
<clus scale="  143.419">  4  5 -1 -1</clus>
<clus scale="  354.909">  1  3  2 -1</clus>
<clus scale="  354.909">  1  3  2 -1</clus>
</clustering>
</event>
<event>
 6    0  0.4390142E+002  0.1288571E+03  0.7546771E-02  0.1229162E+00
         21   -1    0    0  504  501  0.00000000000E+00  0.00000000000E+00  0.24656159291E+03  0.24656159291E+03  0.00000000000E+00 0. -1.
         21   -1    0    0  503  502 -0.00000000000E+00 -0.00000000000E+00 -0.78670972425E+03  0.78670972425E+03  0.00000000000E+00 0.  1.
         21    1    1    2  503  505 -0.18376497610E+02 -0.52231574549E+02 -0.47384252634E+03  0.47706663352E+03  0.00000000000E+00 0.  1.
         21    1    1    2  504  502  0.50166589973E+02  0.15088196560E+03  0.19302864412E+03  0.25008420930E+03  0.00000000000E+00 0. -1.
         21    1    1    2  505  506 -0.26129503178E+02 -0.58680833411E+02 -0.25784365831E+03  0.26572456281E+03  0.00000000000E+00 0.  1.
         21    1    1    2  506  501 -0.56605891850E+01 -0.39969557643E+02 -0.14905908059E+01  0.40395911538E+02  0.00000000000E+00 0.  1.
<scales pt_clust_3="42.34843" pt_clust_4="120.46745" pt_clust_5="42.34843" pt_clust_6="40.36840"></scales>
<clustering>
<clus scale="   40.368">  1  6  2 -1</clus>
<clus scale="   42.348">  3  5 -1 -1</clus>
<clus scale="  120.467">  1  4  2 -1</clus>
<clus scale="   40.368">  1  3  2 -1</clus>
</clustering>
</event>
<event>
 6    0  0.4390142E+002  0.1386617E+03  0.7546771E-02  0.1215141E+00
         21   -1    0    0  505  501  0.00000000000E+00  0.00000000000E+00  0.32310453759E+03  0.32310453759E+03  0.00000000000E+00 0.  1.
         21   -1    0    0  504  502 -0.00000000000E+00 -0.00000000000E+00 -0.43040945715E+03  0.43040945715E+03  0.00000000000E+00 0.  1.
         21    1    1    2  503  506 -0.20012627510E+02  0.67251048420E+02  0.21309823665E+02  0.73330194041E+02  0.00000000000E+00 0.  1.
         21    1    1    2  504  501  0.14796122533E+03 -0.47777960588E+02  0.16968060094E+03  0.23014509348E+03  0.00000000000E+00 0.  1.
         21    1    1    2  505  503 -0.11158973960E+03  0.25254511141E+02  0.30021954468E+02  0.11828515573E+03  0.00000000000E+00 0.  1.
         21    1    1    2  506  502 -0.16358858223E+02 -0.44727598973E+02 -0.32831729862E+03  0.33175355149E+03  0.00000000000E+00 0.  1.
<scales pt_clust_3="60.71455" pt_clust_4="14000.00000" pt_clust_5="138.66169" pt_clust_6="47.62531"></scales>
<clustering>
<clus scale="   47.625">  2  6  1 -1</clus>
<clus scale="   60.715">  2  3  1 -1</clus>
<clus scale="  138.662">  2  5  1 -1</clus>
<clus scale="  138.662">  1  3  2 -1</clus>
</clustering>
</event>
<event>
 6    0  0.4390142E+002  0.2116661E+03  0.7546771E-02  0.1140253E+00
         21   -1    0    0  504  501  0.00000000000E+00  0.00000000000E+00  0.46986701734E+02  0.46986701734E+02  0.00000000000E+00 0. -1.
         21   -1    0    0  505  502 -0.00000000000E+00 -0.00000000000E+00 -0.29043845738E+04  0.29043845738E+04  0.00000000000E+00 0. -1.
         21    1    1    2  503  501  0.69256743065E+02  0.11975602198E+03 -0.11873084826E+03  0.18230473276E+03  0.00000000000E+00 0. -1.
         21    1    1    2  504  506  0.27316593352E+02  0.79296174003E+02 -0.29693960907E+03  0.30855665755E+03  0.00000000000E+00 0.  1.
         21    1    1    2  505  503  0.54347052559E+01  0.35358930283E+02 -0.60757060324E+03  0.60862289465E+03  0.00000000000E+00 0. -1.
         21    1    1    2  506  502 -0.10200804167E+03 -0.23441112626E+03 -0.18341568115E+04  0.18518869906E+04  0.00000000000E+00 0. -1.
<scales pt_clust_3="14000.00000" pt_clust_4="88.51440" pt_clust_5="35.77415" pt_clust_6="211.66614"></scales>
<clustering>
<clus scale="   35.774">  2  5  1 -1</clus>
<clus scale="   88.514">  1  4  2 -1</clus>
<clus scale="  211.666">  2  6  1 -1</clus>
<clus scale="   88.514">  1  3  2 -1</clus>
</clustering>
</event>
<event>
 6    0  0.4390142E+002  0.1783343E+03  0.7546771E-02  0.1169425E+00
         21   -1    0    0  504  501  0.00000000000E+00  0.00000000000E+00  0.53320711451E+03  0.53320711451E+03  0.00000000000E+00 0. -1.
         21   -1    0    0  505  502 -0.00000000000E+00 -0.00000000000E+00 -0.21739440813E+03  0.21739440813E+03  0.00000000000E+00 0. -1.
         21    1    1    2  503  502 -0.54657423353E+01 -0.21291393663E+03  0.91759234882E+02  0.23190941321E+03  0.00000000000E+00 0. -1.
         21    1    1    2  504  506 -0.32491038128E+02  0.14595201740E+03  0.30732641548E+03  0.34177066081E+03  0.00000000000E+00 0. -1.
         21    1    1    2  505  501  0.38327596589E+02  0.10766441030E+03 -0.70415955073E+02  0.13423500525E+03  0.00000000000E+00 0. -1.
         21    1    1    2  506  503 -0.37081612513E+00 -0.40702491070E+02 -0.12856988901E+02  0.42686443369E+02  0.00000000000E+00 0.  1.
<scales pt_clust_3="30.35693" pt_clust_4="164.25947" pt_clust_5="114.28311" pt_clust_6="30.35693"></scales>
<clustering>
<clus scale="   30.357">  3  6 -1 -1</clus>
<clus scale="  114.283">  2  5  1 -1</clus>
<clus scale="  164.259">  1  4  2 -1</clus>
<clus scale="  164.259">  1  3  2 -1</clus>
</clustering>
</event>
<event>
 6    0  0.4390142E+002  0.1412272E+03  0.7546771E-02  0.1211687E+00
         21   -1    0    0  503  501  0.00000000000E+00  0.00000000000E+00  0.48850930004E+02  0.48850930004E+02  0.00000000000E+00 0.  1.
         21   -1    0    0  504  502 -0.00000000000E+00 -0.00000000000E+00 -0.23684688664E+04  0.23684688664E+04  0.00000000000E+00 0. -1.
         21    1    1    2  503  505  0.27280847423E+02  0.22812385817E+02  0.13246707715E+01  0.35586575214E+02  0.00000000000E+00 0.  1.
         21    1    1    2  504  501 -0.13689823560E+03 -0.19152354612E+02 -0.65415940487E+03  0.66860486581E+03  0.00000000000E+00 0.  1.
         21    1    1    2  505  506  0.87789457957E+02  0.42398672639E+02 -0.81624093842E+02  0.12715002582E+03  0.00000000000E+00 0.  1.
         21    1    1    2  506  502  0.21827930223E+02 -0.46058703844E+02 -0.15851591085E+04  0.15859783296E+04  0.00000000000E+00 0. -1.
<scales pt_clust_3="30.44793" pt_clust_4="131.92262" pt_clust_5="30.44793" pt_clust_6="50.96923"></scales>
<clustering>
<clus scale="   30.448">  3  5 -1 -1</clus>
<clus scale="   50.969">  2  6  1 -1</clus>
<clus scale="  131.923">  2  4  1 -1</clus>
<clus scale="  141.227">  1  3  2 -1</clus>
</clustering>
</event>
<event>
 6    0  0.4390142E+002  0.8646372E+02  0.7546771E-02  0.1311649E+00
         21   -1    0    0  504  501  0.00000000000E+00  0.00000000000E+00  0.66057769670E+03  0.66057769670E+03  0.00000000000E+00 0. -1.
         21   -1    0    0  503  502 -0.00000000000E+00 -0.00000000000E+00 -0.39108820198E+02  0.39108820198E+02  0.00000000000E+00 0. -1.
         21    1    1    2  503  501  0.66254192459E+02 -0.82964804507E+02  0.15895556209E+03  0.19115346590E+03  0.00000000000E+00 0. -1.
         21    1    1    2  504  506 -0.42249777383E+02  0.82440444265E+01  0.28967937242E+03  0.29286028539E+03  0.00000000000E+00 0. -1.
         21    1    1    2  505  502  0.30403654537E+02  0.31679044036E+02  0.20856634479E+02  0.48610114606E+02  0.00000000000E+00 0. -1.
         21    1    1    2  506  505 -0.54408069613E+02  0.43041716045E+02  0.15197730751E+03  0.16706265099E+03  0.00000000000E+00 0. -1.
<scales pt_clust_3="86.46372" pt_clust_4="43.04658" pt_clust_5="41.85494" pt_clust_6="14000.00000"></scales>
<clustering>
<clus scale="   43.047">  1  4  2 -1</clus>
<clus scale="   41.855">  2  5  1 -1</clus>
<clus scale="   86.464">  2  3  1 -1</clus>
<clus scale="   43.047">  1  3  2 -1</clus>
</clustering>
</event>
<event>
 6    0  0.4390142E+002  0.1032252E+03  0.7546771E-02  0.1273656E+00
         21   -1    0    0  503  501  0.00000000000E+00  0.00000000000E+00  0.43049176290E+02  0.43049176290E+02  0.00000000000E+00 0.  1.
         21   -1    0    0  505  502 -0.00000000000E+00 -0.00000000000E+00 -0.13137438973E+04  0.13137438973E+04  0.00000000000E+00 0.  1.
         21    1    1    2  503  502  0.32647222936E+02 -0.37107472827E+02 -0.51341284889E+03  0.51578635026E+03  0.00000000000E+00 0.  1.
         21    1    1    2  504  506 -0.91532686556E+02  0.81745569478E+02 -0.28006093062E+03  0.30576902345E+03  0.00000000000E+00 0.  1.
         21    1    1    2  505  504 -0.13051507443E+01  0.32718550548E+02 -0.42094336078E+03  0.42221501626E+03  0.00000000000E+00 0.  1.
         21    1    1    2  506  501  0.60190614365E+02 -0.77356647199E+02 -0.56277580713E+02  0.11302268363E+03  0.00000000000E+00 0.  1.
<scales pt_clust_3="36.73942" pt_clust_4="103.22524" pt_clust_5="32.74457" pt_clust_6="14000.00000"></scales>
<clustering>
<clus scale="   32.745">  2  5  1 -1</clus>
<clus scale="   36.739">  2  3  1 -1</clus>
<clus scale="  103.225">  2  4  1 -1</clus>
<clus scale="  103.225">  1  3  2 -1</clus>
</clustering>
</event>
<event>
 6    0  0.4390142E+002  0.1119562E+03  0.7546771E-02  0.1256990E+00
         21   -1    0    0  503  501  0.00000000000E+00  0.00000000000E+00  0.25553016545E+03  0.25553016545E+03  0.00000000000E+00 0.  1.
         21   -1    0    0  506  502 -0.00000000000E+00 -0.00000000000E+00 -0.40669845094E+03  0.40669845094E+03  0.00000000000E+00 0.  1.
         21    1    1    2  503  504  0.98451581419E+01 -0.35984628904E+02  0.12647420563E+01  0.37328544422E+02  0.00000000000E+00 0. -1.
         21    1    1    2  504  505 -0.12474563312E+03  0.71999177886E+01 -0.31904254762E+03  0.34263896304E+03  0.00000000000E+00 0.  1.
         21    1    1    2  505  502  0.19575879992E+02  0.34540966430E+02 -0.38939473398E+02  0.55610934427E+02  0.00000000000E+00 0. -1.
         21    1    1    2  506  501  0.95324594990E+02 -0.57562553147E+01  0.20554899347E+03  0.22665017450E+03  0.00000000000E+00 0.  1.
<scales pt_clust_3="37.30711" pt_clust_4="14000.00000" pt_clust_5="38.78029" pt_clust_6="111.95625"></scales>
<clustering>
<clus scale="   37.307">  1  3  2 -1</clus>
<clus scale="   38.780">  2  5  1 -1</clus>
<clus scale="  111.956">  1  6  2 -1</clus>
<clus scale="   37.307">  1  3  2 -1</clus>
</clustering>
</event>
<event>
 6    0  0.4390142E+002  0.1023921E+03  0.7546771E-02  0.1275345E+00
         21   -1    0    0  506  501  0.00000000000E+00  0.00000000000E+00  0.14083646276E+03  0.14083646276E+03  0.00000000000E+00 0. -1.
         21   -1    0    0  501  502 -0.00000000000E+00 -0.00000000000E+00 -0.64992242016E+03  0.64992242016E+03  0.00000000000E+00 0.  1.
         21    1    1    2  503  502  0.90775985513E+02  0.37876133490E+01 -0.58071150104E+03  0.58777586970E+03  0.00000000000E+00 0.  1.
         21    1    1    2  504  505 -0.36570231670E+02  0.56521803356E+01 -0.15924217165E+02  0.40285353161E+02  0.00000000000E+00 0. -1.
         21    1    1    2  505  503 -0.67063720337E+02  0.40439441046E+02  0.26173540776E+02  0.82570849664E+02  0.00000000000E+00 0. -1.
         21    1    1    2  506  504  0.12857966494E+02 -0.49879234730E+02  0.61376220022E+02  0.80126810394E+02  0.00000000000E+00 0. -1.
<scales pt_clust_3="91.43288" pt_clust_4="31.68142" pt_clust_5="31.68142" pt_clust_6="51.50986"></scales>
<clustering>
<clus scale="   31.681">  4  5 -1 -1</clus>
<clus scale="   51.510">  1  6  2 -1</clus>
<clus scale="   91.433">  2  3  1 -1</clus>
<clus scale="   51.510">  1  3  2 -1</clus>
</clustering>
</event>
<event>
 6    0  0.4390142E+002  0.1715635E+03  0.7546771E-02  0.1176227E+00
         21   -1    0    0  506  501  0.00000000000E+00  0.00000000000E+00  0.68773654192E+03  0.68773654192E+03  0.00000000000E+00 0. -1.
         21   -1    0    0  503  502 -0.00000000000E+00 -0.00000000000E+00 -0.18549731449E+03  0.18549731449E+03  0.00000000000E+00 0. -1.
         21    1    1    2  503  501  0.13000966593E+03  0.14037775255E+03  0.41894873821E+03  0.46057189656E+03  0.00000000000E+00 0. -1.
         21    1    1    2  504  505 -0.68775180554E+02 -0.15462904398E+02  0.14949354566E+03  0.16527990521E+03  0.00000000000E+00 0. -1.
         21    1    1    2  505  502  0.60211336368E+01 -0.10635426173E+03 -0.11912863816E+03  0.15980962258E+03  0.00000000000E+00 0. -1.
         21    1    1    2  506  504 -0.67255619015E+02 -0.18560586421E+02  0.52925581716E+02  0.87572432063E+02  0.00000000000E+00 0. -1.
<scales pt_clust_3="161.66393" pt_clust_4="57.14038" pt_clust_5="106.52457" pt_clust_6="57.14038"></scales>
<clustering>
<clus scale="   57.140">  4  6 -1 -1</clus>
<clus scale="  106.525">  2  5  1 -1</clus>
<clus scale="  161.664">  1  3  2 -1</clus>
<clus scale="  161.664">  1  3  2 -1</clus>
</clustering>
</event>
<event>
 6    0  0.4390142E+002  0.1392207E+03  0.7546771E-02  0.1214381E+00
         21   -1    0    0  505  501  0.00000000000E+00  0.00000000000E+00  0.14649950934E+04  0.14649950934E+04  0.00000000000E+00 0.  1.
         21   -1    0    0  504  502 -0.00000000000E+00 -0.00000000000E+00 -0.13242100582E+03  0.13242100582E+03  0.00000000000E+00 0.  1.
         21    1    1    2  503  506 -0.66680069157E+02 -0.44236083428E+02  0.24417662789E+03  0.25695386416E+03  0.00000000000E+00 0. -1.
         21    1    1    2  504  501  0.13075190813E+03 -0.37984168744E+02  0.77579310092E+03  0.78765080714E+03  0.00000000000E+00 0.  1.
         21    1    1    2  505  503  0.12193093291E+02 -0.36490632623E+02  0.38999156792E+03  0.39188475454E+03  0.00000000000E+00 0. -1.
         21    1    1    2  506  502 -0.76264932260E+02  0.11871088480E+03 -0.77387209155E+02  0.16092667337E+03  0.00000000000E+00 0.  1.
<scales pt_clust_3="82.80959" pt_clust_4="139.22070" pt_clust_5="38.47386" pt_clust_6="14000.00000"></scales>
<clustering>
<clus scale="   38.474">  1  5  2 -1</clus>
<clus scale="   82.810">  1  3  2 -1</clus>
<clus scale="  139.221">  1  4  2 -1</clus>
<clus scale="   38.474">  1  3  2 -1</clus>
</clustering>
</event>
<event>
 6    0  0.4390142E+002  0.1107821E+03  0.7546771E-02  0.1259128E+00
         21   -1    0    0  506  501  0.00000000000E+00  0.00000000000E+00  0.34975842038E+03  0.34975842038E+03  0.00000000000E+00 0. -1.
         21   -1    0    0  504  502 -0.00000000000E+00 -0.00000000000E+00 -0.12324842404E+03  0.12324842404E+03  0.00000000000E+00 0. -1.
         21    1    1    2  503  502  0.10223678410E+03 -0.12259204929E+03  0.24622858787E+02  0.16151611607E+03  0.00000000000E+00 0. -1.
         21    1    1    2  504  505 -0.37966233772E+02  0.55312604224E+02  0.29953415301E+01  0.67155723239E+02  0.00000000000E+00 0. -1.
         21    1    1    2  505  501 -0.91343402716E+02  0.49145210628E+02  0.11789268315E+03  0.15702723868E+03  0.00000000000E+00 0. -1.
         21    1    1    2  506  503  0.27072852383E+02  0.18134234441E+02  0.80999112872E+02  0.87307766441E+02  0.00000000000E+00 0.  1.
<scales pt_clust_3="110.78210" pt_clust_4="67.17801" pt_clust_5="14000.00000" pt_clust_6="32.58512"></scales>
<clustering>
<clus scale="   32.585">  1  6  2 -1</clus>
<clus scale="   67.178">  2  4  1 -1</clus>
<clus scale="  110.782">  2  3  1 -1</clus>
<clus scale="   32.585">  1  3  2 -1</clus>
</clustering>
</event>
<event>
 6    0  0.4390142E+002  0.1122333E+03  0.7546771E-02  0.1256489E+00
         21   -1    0    0  505  501  0.00000000000E+00  0.00000000000E+00  0.80151282936E+03  0.80151282936E+03  0.00000000000E+00 0.  1.
         21   -1    0    0  504  502 -0.00000000000E+00 -0.00000000000E+00 -0.85055912284E+02  0.85055912284E+02  0.00000000000E+00 0.  1.
         21    1    1    2  503  502  0.35673681683E+02 -0.17406598856E+02  0.19054983573E+03  0.19464028654E+03  0.00000000000E+00 0.  1.
         21    1    1    2  504  506  0.56336027726E+02  0.13648222582E+02 -0.10284006389E+02  0.58870899322E+02  0.00000000000E+00 0.  1.
         21    1    1    2  505  503  0.63965119878E+02  0.18034119581E+02  0.44881196366E+03  0.45370579096E+03  0.00000000000E+00 0.  1.
         21    1    1    2  506  501 -0.15597482929E+03 -0.14275743306E+02  0.87379124075E+02  0.17935176482E+03  0.00000000000E+00 0.  1.
<scales pt_clust_3="31.30536" pt_clust_4="57.96570" pt_clust_5="31.30536" pt_clust_6="104.66842"></scales>
<clustering>
<clus scale="   31.305">  3  5 -1 -1</clus>
<clus scale="   57.966">  2  4  1 -1</clus>
<clus scale="  104.668">  2  6  1 -1</clus>
<clus scale="  112.233">  1  3  2 -1</clus>
</clustering>
</event>
<event>
 6    0  0.4390142E+002  0.1098464E+03  0.7546771E-02  0.1260855E+00
         21   -1    0    0  504  501  0.00000000000E+00  0.00000000000E+00  0.16155933806E+04  0.16155933806E+04  0.00000000000E+00 0. -1.
         21   -1    0    0  503  502 -0.00000000000E+00 -0.00000000000E+00 -0.19032003122E+03  0.19032003122E+03  0.00000000000E+00 0.  1.
         21    1    1    2  503  505 -0.26641141301E+02 -0.51577234471E+02 -0.15227182687E+03  0.16296217593E+03  0.00000000000E+00 0.  1.
         21    1    1    2  504  502  0.70576677451E+02  0.12573576497E+03  0.14607204949E+04  0.14678197826E+04  0.00000000000E+00 0. -1.
         21    1    1    2  505  506 -0.61371247362E+02 -0.33165485869E+02  0.26878679928E+02  0.74758563993E+02  0.00000000000E+00 0.  1.
         21    1    1    2  506  501  0.17435711212E+02 -0.40993044629E+02  0.89946001491E+02  0.10037288936E+03  0.00000000000E+00 0.  1.
<scales pt_clust_3="58.15141" pt_clust_4="109.84638" pt_clust_5="14000.00000" pt_clust_6="44.54698"></scales>
<clustering>
<clus scale="   44.547">  1  6  2 -1</clus>
<clus scale="   58.151">  2  3  1 -1</clus>
<clus scale="  109.846">  1  4  2 -1</clus>
<clus scale="   44.547">  1  3  2 -1</clus>
</clustering>
</event>
<event>
 6    0  0.4390142E+002  0.1844394E+03  0.7546771E-02  0.1163574E+00
         21   -1    0    0  505  501  0.00000000000E+00  0.00000000000E+00  0.12472722688E+04  0.12472722688E+04  0.00000000000E+00 0.  1.
         21   -1    0    0  506  502 -0.00000000000E+00 -0.00000000000E+00 -0.40060753558E+02  0.40060753558E+02  0.00000000000E+00 0.  1.
         21    1    1    2  503  504 -0.56016512894E+02 -0.86561950455E+02  0.47059481370E+03  0.48175751127E+03  0.00000000000E+00 0.  1.
         21    1    1    2  504  502 -0.56959779253E+02  0.76536881044E+01  0.10354318506E+03  0.11842375845E+03  0.00000000000E+00 0. -1.
         21    1    1    2  505  503  0.66411044717E+01 -0.74846048742E+02  0.24740126249E+03  0.25856028303E+03  0.00000000000E+00 0.  1.
         21    1    1    2  506  501  0.10633518768E+03  0.15375431109E+03  0.38567225404E+03  0.42859146964E+03  0.00000000000E+00 0.  1.
<scales pt_clust_3="54.40548" pt_clust_4="57.47169" pt_clust_5="54.40548" pt_clust_6="173.07882"></scales>
<clustering>
<clus scale="   54.405">  3  5 -1 -1</clus>
<clus scale="   57.472">  2  4  1 -1</clus>
<clus scale="  173.079">  2  6  1 -1</clus>
<clus scale="  184.439">  1  3  2 -1</clus>
</clustering>
</event>
<event>
 6    0  0.4390142E+002  0.1810928E+03  0.7546771E-02  0.1166750E+00
         21   -1    0    0  504  501  0.00000000000E+00  0.00000000000E+00  0.13653709564E+04  0.13653709564E+04  0.00000000000E+00 0.  1.
         21   -1    0    0  503  502 -0.00000000000E+00 -0.00000000000E+00 -0.95602498235E+02  0.95602498235E+02  0.00000000000E+00 0. -1.
         21    1    1    2  503  506 -0.68044190149E+02 -0.14103665070E+03  0.43233043233E+03  0.45981621478E+03  0.00000000000E+00 0.  1.
         21    1    1    2  504  505  0.96445504971E+02  0.18539470002E+03  0.47874654926E+03  0.52237073870E+03  0.00000000000E+00 0.  1.
         21    1    1    2  505  502  0.10954026313E+02 -0.32758521140E+02 -0.53977229366E+02  0.64083170097E+02  0.00000000000E+00 0. -1.
         21    1    1    2  506  501 -0.39355341134E+02 -0.11599528178E+02  0.41266870597E+03  0.41470333109E+03  0.00000000000E+00 0.  1.
<scales pt_clust_3="181.09279" pt_clust_4="14000.00000" pt_clust_5="34.54144" pt_clust_6="41.00575"></scales>
<clustering>
<clus scale="   34.541">  2  5  1 -1</clus>
<clus scale="   41.006">  1  6  2 -1</clus>
<clus scale="  181.093">  1  3  2 -1</clus>
<clus scale="   41.006">  1  3  2 -1</clus>
</clustering>
</event>
<event>
 6    0  0.4390142E+002  0.1096453E+03  0.7546771E-02  0.1261228E+00
         21   -1    0    0  505  501  0.00000000000E+00  0.00000000000E+00  0.28729998527E+03  0.28729998527E+03  0.00000000000E+00 0.  1.
         21   -1    0    0  506  502 -0.00000000000E+00 -0.00000000000E+00 -0.22059800250E+03  0.22059800250E+03  0.00000000000E+00 0.  1.
         21    1    1    2  503  502  0.87672385201E+02  0.16901714967E+02 -0.76683541240E+02  0.11769656152E+03  0.00000000000E+00 0.  1.
         21    1    1    2  504  501 -0.44500680501E+02  0.47295583276E+02  0.12995946162E+03  0.14528125973E+03  0.00000000000E+00 0.  1.
         21    1    1    2  505  503  0.13898366900E+02  0.78540506504E+02  0.39491481934E+02  0.89001982617E+02  0.00000000000E+00 0.  1.
         21    1    1    2  506  504 -0.57070071601E+02 -0.14273780475E+03 -0.26065419557E+02  0.15591818391E+03  0.00000000000E+00 0.  1.
<scales pt_clust_3="84.86034" pt_clust_4="64.93984" pt_clust_5="109.64531" pt_clust_6="14000.00000"></scales>
<clustering>
<clus scale="   64.940">  1  4  2 -1</clus>
<clus scale="   84.860">  2  3  1 -1</clus>
<clus scale="  109.645">  1  5  2 -1</clus>
<clus scale="   64.940">  1  3  2 -1</clus>
</clustering>
</event>
<event>
 6    0  0.4390142E+002  0.8588472E+02  0.7546771E-02  0.1313135E+00
         21   -1    0    0  503  501  0.00000000000E+00  0.00000000000E+00  0.64181949553E+03  0.64181949553E+03  0.00000000000E+00 0. -1.
         21   -1    0    0  505  502 -0.00000000000E+00 -0.00000000000E+00 -0.11888793018E+03  0.11888793018E+03  0.00000000000E+00 0. -1.
         21    1    1    2  503  502  0.47319760246E+02 -0.48502047837E+01  0.27136804470E+02  0.54763951218E+02  0.00000000000E+00 0. -1.
         21    1    1    2  504  506  0.11056244506E+02 -0.12746130877E+03  0.46329455888E+03  0.48063548980E+03  0.00000000000E+00 0. -1.
         21    1    1    2  505  504  0.32053567129E+01  0.76807651467E+02 -0.62604972693E+02  0.99141677620E+02  0.00000000000E+00 0. -1.
         21    1    1    2  506  501 -0.61581361465E+02  0.55503862086E+02  0.95105174690E+02  0.12616630707E+03  0.00000000000E+00 0. -1.
<scales pt_clust_3="47.56768" pt_clust_4="14000.00000" pt_clust_5="85.88472" pt_clust_6="77.33938"></scales>
<clustering>
<clus scale="   47.568">  2  3  1 -1</clus>
<clus scale="   77.339">  1  6  2 -1</clus>
<clus scale="   85.885">  2  5  1 -1</clus>
<clus scale="   77.339">  1  3  2 -1</clus>
</clustering>
</event>
<event>
 6    0  0.4390142E+002  0.1715330E+03  0.7546771E-02  0.1176259E+00
         21   -1    0    0  505  501  0.00000000000E+00  0.00000000000E+00  0.49812732297E+02  0.49812732297E+02  0.00000000000E+00 0.  1.
         21   -1    0    0  504  502 -0.00000000000E+00 -0.00000000000E+00 -0.89287771898E+03  0.89287771898E+03  0.00000000000E+00 0. -1.
         21    1    1    2  503  501 -0.73393499025E+01  0.73422333257E+02 -0.84194660891E+02  0.11195287402E+03  0.00000000000E+00 0.  1.
         21    1    1    2  504  506  0.76535987658E+01  0.39511813253E+02 -0.32751364807E+03  0.32997719714E+03  0.00000000000E+00 0. -1.
         21    1    1    2  505  502  0.48218334971E+02 -0.16734021879E+03 -0.24446475982E+03  0.30015125428E+03  0.00000000000E+00 0.  1.
         21    1    1    2  506  503 -0.48532583835E+02  0.54406072277E+02 -0.18689191790E+03  0.20060912584E+03  0.00000000000E+00 0.  1.
<scales pt_clust_3="68.24986" pt_clust_4="40.24625" pt_clust_5="157.09317" pt_clust_6="68.24986"></scales>
<clustering>
<clus scale="   40.246">  2  4  1 -1</clus>
<clus scale="   68.250">  3  6 -1 -1</clus>
<clus scale="  157.093">  2  5  1 -1</clus>
<clus scale="  171.533">  1  3  2 -1</clus>
</clustering>
</event>
<event>
 6    0  0.4390142E+002  0.1089000E+03  0.7546771E-02  0.1262620E+00
         21   -1    0    0  503  501  0.00000000000E+00  0.00000000000E+00  0.43889282476E+03  0.43889282476E+03  0.00000000000E+00 0. -1.
         21   -1    0    0  506  502 -0.00000000000E+00 -0.00000000000E+00 -0.50576687993E+03  0.50576687993E+03  0.00000000000E+00 0.  1.
         21    1    1    2  503  505  0.75290265248E+01 -0.51432355385E+02  0.45314429367E+02  0.68959197572E+02  0.00000000000E+00 0.  1.
         21    1    1    2  504  502 -0.42819711165E+02  0.18183168916E+02 -0.97580315376E+02  0.10810214265E+03  0.00000000000E+00 0.  1.
         21    1    1    2  505  504 -0.10062727986E+03 -0.39366545800E+01  0.35659866336E+03  0.37054548090E+03  0.00000000000E+00 0. -1.
         21    1    1    2  506  501  0.13591796450E+03  0.37185841049E+02 -0.37120683252E+03  0.39705288358E+03  0.00000000000E+00 0.  1.
<scales pt_clust_3="51.28389" pt_clust_4="46.52048" pt_clust_5="108.90004" pt_clust_6="14000.00000"></scales>
<clustering>
<clus scale="   46.520">  2  4  1 -1</clus>
<clus scale="   51.284">  1  3  2 -1</clus>
<clus scale="  108.900">  1  5  2 -1</clus>
<clus scale="   51.284">  1  3  2 -1</clus>
</clustering>
</event>
<event>
 6    0  0.4390142E+002  0.8141022E+02  0.7546771E-02  0.1325096E+00
         21   -1    0    0  504  501  0.00000000000E+00  0.00000000000E+00  0.69134032138E+03  0.69134032138E+03  0.00000000000E+00 0. -1.
         21   -1    0    0  506  502 -0.00000000000E+00 -0.00000000000E+00 -0.39592668459E+02  0.39592668459E+02  0.00000000000E+00 0. -1.
         21    1    1    2  503  501  0.11537033877E+02  0.30977296473E+02  0.19259910368E+03  0.19541522659E+03  0.00000000000E+00 0. -1.
         21    1    1    2  504  505 -0.61784337669E+02 -0.42445329674E+02  0.14869345907E+03  0.16651923361E+03  0.00000000000E+00 0. -1.
         21    1    1    2  505  502  0.91395903797E+02 -0.17606507454E+02  0.53928442140E+02  0.10757080090E+03  0.00000000000E+00 0. -1.
         21    1    1    2  506  503 -0.41148600005E+02  0.29074540655E+02  0.25652664804E+03  0.26142772873E+03  0.00000000000E+00 0. -1.
<scales pt_clust_3="33.05595" pt_clust_4="14000.00000" pt_clust_5="81.41022" pt_clust_6="57.25741"></scales>
<clustering>
<clus scale="   33.056">  1  3  2 -1</clus>
<clus scale="   57.257">  1  6  2 -1</clus>
<clus scale="   81.410">  2  5  1 -1</clus>
<clus scale="   33.056">  1  3  2 -1</clus>
</clustering>
</event>
<event>
 6    0  0.4390142E+002  0.1763776E+03  0.7546771E-02  0.1171356E+00
         21   -1    0    0  506  501  0.00000000000E+00  0.00000000000E+00  0.76316588545E+02  0.76316588545E+02  0.00000000000E+00 0. -1.
         21   -1    0    0  501  502 -0.00000000000E+00 -0.00000000000E+00 -0.59294934250E+03  0.59294934250E+03  0.00000000000E+00 0. -1.
         21    1    1    2  503  504  0.68258283630E+02 -0.16330122783E+02 -0.31615530662E+02  0.76976671617E+02  0.00000000000E+00 0.  1.
         21    1    1    2  504  505 -0.17467610360E+03  0.25160544742E+02 -0.23226974896E+03  0.29170881108E+03  0.00000000000E+00 0. -1.
         21    1    1    2  505  502  0.12844096360E+02  0.30995030485E+02 -0.15821552373E+03  0.16173377716E+03  0.00000000000E+00 0. -1.
         21    1    1    2  506  503  0.93573723615E+02 -0.39825452443E+02 -0.94531950603E+02  0.13884667118E+03  0.00000000000E+00 0. -1.
<scales pt_clust_3="30.22228" pt_clust_4="172.58502" pt_clust_5="33.55090" pt_clust_6="30.22228"></scales>
<clustering>
<clus scale="   30.222">  3  6 -1 -1</clus>
<clus scale="   33.551">  2  5  1 -1</clus>
<clus scale="  172.585">  2  4  1 -1</clus>
<clus scale="  176.378">  1  3  2 -1</clus>
</clustering>
</event>
<event>
 6    0  0.4390142E+002  0.9719984E+02  0.7546771E-02  0.1286297E+00
         21   -1    0    0  504  501  0.00000000000E+00  0.00000000000E+00  0.76911737780E+03  0.76911737780E+03  0.00000000000E+00 0. -1.
         21   -1    0    0  505  502 -0.00000000000E+00 -0.00000000000E+00 -0.35435270939E+03  0.35435270939E+03  0.00000000000E+00 0. -1.
         21    1    1    2  503  501 -0.38964438133E+02  0.47906727561E+02  0.44482058306E+02  0.76104766577E+02  0.00000000000E+00 0. -1.
         21    1    1    2  504  506 -0.18778800653E+02 -0.96210780637E+02  0.67250379941E+03  0.67961056340E+03  0.00000000000E+00 0. -1.
         21    1    1    2  505  503 -0.47404476806E+02 -0.21518079397E+01 -0.21999784800E+03  0.22505747671E+03  0.00000000000E+00 0. -1.
         21    1    1    2  506  502  0.10514771559E+03  0.50455861016E+02 -0.82223341304E+02  0.14269728049E+03  0.00000000000E+00 0. -1.
<scales pt_clust_3="65.29958" pt_clust_4="14000.00000" pt_clust_5="47.45329" pt_clust_6="97.19984"></scales>
<clustering>
<clus scale="   47.453">  2  5  1 -1</clus>
<clus scale="   65.300">  2  3  1 -1</clus>
<clus scale="   97.200">  2  6  1 -1</clus>
<clus scale="   97.200">  1  3  2 -1</clus>
</clustering>
</event>
<event>
 6    0  0.4935107E+002  0.1233820E+03  0.7546771E-02  0.1237620E+00
         21   -1    0    0  503  501  0.00000000000E+00  0.00000000000E+00  0.10784868089E+04  0.10784868089E+04  0.00000000000E+00 0.  1.
         21   -1    0    0  505  502 -0.00000000000E+00 -0.00000000000E+00 -0.12555126364E+03  0.12555126364E+03  0.00000000000E+00 0. -1.
         21    1    1    2  503  504 -0.14108407516E+03  0.15278144675E+02  0.83126725989E+03  0.84329318469E+03  0.00000000000E+00 0.  1.
         21    1    1    2  504  502  0.62943376525E+02  0.95621532083E+01 -0.10153601465E+03  0.11984517385E+03  0.00000000000E+00 0. -1.
         21    1    1    2  505  506  0.35425195814E+02 -0.22548790579E+01  0.51658011374E+02  0.62678378386E+02  0.00000000000E+00 0. -1.
         21    1    1    2  506  501  0.42715502817E+02 -0.22585418826E+02  0.17154628861E+03  0.17822133559E+03  0.00000000000E+00 0.  1.
<scales pt_clust_3="117.19053" pt_clust_4="63.66556" pt_clust_5="33.07938" pt_clust_6="33.07938"></scales>
<clustering>
<clus scale="   33.079">  5  6 -1 -1</clus>
<clus scale="   63.666">  2  4  1 -1</clus>
<clus scale="  117.191">  1  3  2 -1</clus>
<clus scale="  117.191">  1  3  2 -1</clus>
</clustering>
</event>
<event>
 6    0  0.4390142E+002  0.8544996E+02  0.7546771E-02  0.1314260E+00
         21   -1    0    0  506  501  0.00000000000E+00  0.00000000000E+00  0.26950425298E+02  0.26950425298E+02  0.00000000000E+00 0. -1.
         21   -1    0    0  503  502 -0.00000000000E+00 -0.00000000000E+00 -0.20467367845E+04  0.20467367845E+04  0.00000000000E+00 0.  1.
         21    1    1    2  503  505 -0.92708445671E+02 -0.56730017912E+02 -0.12105360815E+04  0.12154055930E+04  0.00000000000E+00 0.  1.
         21    1    1    2  504  502  0.75080146600E+02 -0.13080695332E+02 -0.68849737197E+03  0.69270250773E+03  0.00000000000E+00 0. -1.
         21    1    1    2  505  501 -0.24976721201E+02  0.61857755767E+02 -0.53234499799E+02  0.85347117815E+02  0.00000000000E+00 0. -1.
         21    1    1    2  506  504  0.42605020272E+02  0.79529574773E+01 -0.67518405961E+02  0.80231991303E+02  0.00000000000E+00 0. -1.
<scales pt_clust_3="85.44996" pt_clust_4="14000.00000" pt_clust_5="68.55562" pt_clust_6="43.34094"></scales>
<clustering>
<clus scale="   43.341">  1  6  2 -1</clus>
<clus scale="   68.556">  1  5  2 -1</clus>
<clus scale="   85.450">  1  3  2 -1</clus>
<clus scale="   43.341">  1  3  2 -1</clus>
</clustering>
</event>
<event>
 6    0  0.4390142E+002  0.6876312E+02  0.7546771E-02  0.1364350E+00
         21   -1    0    0  506  501  0.00000000000E+00  0.00000000000E+00  0.67055803113E+02  0.67055803113E+02  0.00000000000E+00 0.  1.
         21   -1    0    0  503  502 -0.00000000000E+00 -0.00000000000E+00 -0.67377664505E+03  0.67377664505E+03  0.00000000000E+00 0. -1.
         21    1    1    2  503  504 -0.11115315372E+02  0.42294677778E+02 -0.45390493899E+03  0.45600667061E+03  0.00000000000E+00 0. -1.
         21    1    1    2  504  505  0.88138771395E+02 -0.45536427824E+02 -0.34968131740E+02  0.10518925572E+03  0.00000000000E+00 0.  1.
         21    1    1    2  505  501 -0.20175808197E+02  0.41688944291E+02 -0.37198702160E+01  0.46463628215E+02  0.00000000000E+00 0.  1.
         21    1    1    2  506  502 -0.56847647827E+02 -0.38447194245E+02 -0.11412790100E+03  0.13317289362E+03  0.00000000000E+00 0.  1.
<scales pt_clust_3="43.73088" pt_clust_4="14000.00000" pt_clust_5="51.24430" pt_clust_6="68.76312"></scales>
<clustering>
<clus scale="   43.731">  2  3  1 -1</clus>
<clus scale="   51.244">  1  5  2 -1</clus>
<clus scale="   68.763">  2  6  1 -1</clus>
<clus scale="   51.244">  1  3  2 -1</clus>
</clustering>
</event>
<event>
 6    0  0.4390142E+002  0.1105478E+03  0.7546771E-02  0.1259559E+00
         21   -1    0    0  505  501  0.00000000000E+00  0.00000000000E+00  0.55604131890E+02  0.55604131890E+02  0.00000000000E+00 0.  1.
         21   -1    0    0  503  502 -0.00000000000E+00 -0.00000000000E+00 -0.11202687471E+04  0.11202687471E+04  0.00000000000E+00 0.  1.
         21    1    1    2  503  504 -0.45822854203E+02 -0.40693232985E+02 -0.24278954490E+03  0.25040454526E+03  0.00000000000E+00 0.  1.
         21    1    1    2  504  501  0.33422471165E+02  0.79536482543E+02  0.45108697351E+01  0.86391328152E+02  0.00000000000E+00 0.  1.
         21    1    1    2  505  506  0.13323621757E+02  0.34199265568E+02 -0.68803649608E+02  0.77981092975E+02  0.00000000000E+00 0.  1.
         21    1    1    2  506  502 -0.92323871908E+00 -0.73042515126E+02 -0.75758229041E+03  0.76109591257E+03  0.00000000000E+00 0.  1.
<scales pt_clust_3="58.85839" pt_clust_4="14000.00000" pt_clust_5="36.70298" pt_clust_6="110.54777"></scales>
<clustering>
<clus scale="   36.703">  1  5  2 -1</clus>
<clus scale="   58.858">  2  3  1 -1</clus>
<clus scale="  110.548">  2  6  1 -1</clus>
<clus scale="   36.703">  1  3  2 -1</clus>
</clustering>
</event>
<event>
 6    0  0.4390142E+002  0.1832618E+03  0.7546771E-02  0.1164683E+00
         21   -1    0    0  503  501  0.00000000000E+00  0.00000000000E+00  0.35100325377E+03  0.35100325377E+03  0.00000000000E+00 0.  1.
         21   -1    0    0  506  502 -0.00000000000E+00 -0.00000000000E+00 -0.27118365562E+03  0.27118365562E+03  0.00000000000E+00 0.  1.
         21    1    1    2  503  504 -0.12259375365E+02 -0.78838250870E+02  0.59400618454E+02  0.99469571012E+02  0.00000000000E+00 0.  1.
         21    1    1    2  504  505 -0.69067945199E+02 -0.20829880773E+02  0.23994193575E+02  0.76026221216E+02  0.00000000000E+00 0.  1.
         21    1    1    2  505  502  0.72928851125E+02  0.15532533804E+03 -0.18760579527E+03  0.25424498496E+03  0.00000000000E+00 0.  1.
         21    1    1    2  506  501  0.83984694395E+01 -0.55657206394E+02  0.18403058139E+03  0.19244613220E+03  0.00000000000E+00 0.  1.
<scales pt_clust_3="72.47932" pt_clust_4="72.47932" pt_clust_5="162.13787" pt_clust_6="56.28729"></scales>
<clustering>
<clus scale="   56.287">  1  6  2 -1</clus>
<clus scale="   72.479">  3  4 -1 -1</clus>
<clus scale="  162.138">  2  5  1 -1</clus>
<clus scale="   56.287">  1  3  2 -1</clus>
</clustering>
</event>
<event>
 6    0  0.4390142E+002  0.1567279E+03  0.7546771E-02  0.1192441E+00
         21   -1    0    0  502  501  0.00000000000E+00  0.00000000000E+00  0.85206003310E+02  0.85206003310E+02  0.00000000000E+00 0. -1.
         21   -1    0    0  506  502 -0.00000000000E+00 -0.00000000000E+00 -0.95006295508E+03  0.95006295508E+03  0.00000000000E+00 0. -1.
         21    1    1    2  503  505  0.57163192870E+01 -0.42274460238E+02 -0.25433967607E+02  0.49665813221E+02  0.00000000000E+00 0. -1.
         21    1    1    2  504  503 -0.98444670117E+02  0.57366026710E+02 -0.53902526418E+03  0.55093597588E+03  0.00000000000E+00 0. -1.
         21    1    1    2  505  501  0.75595304251E+02 -0.83781250388E+02  0.12799678870E+02  0.11356839226E+03  0.00000000000E+00 0. -1.
         21    1    1    2  506  504  0.17133046579E+02  0.68689683916E+02 -0.31319739885E+03  0.32109877702E+03  0.00000000000E+00 0. -1.
<scales pt_clust_3="38.80912" pt_clust_4="143.45545" pt_clust_5="38.80912" pt_clust_6="70.79417"></scales>
<clustering>
<clus scale="   38.809">  3  5 -1 -1</clus>
<clus scale="   70.794">  2  6  1 -1</clus>
<clus scale="  143.455">  2  4  1 -1</clus>
<clus scale="  156.728">  1  3  2 -1</clus>
</clustering>
</event>
<event>
 6    0  0.4390142E+002  0.7102848E+02  0.7546771E-02  0.1356630E+00
         21   -1    0    0  503  501  0.00000000000E+00  0.00000000000E+00  0.30417414612E+03  0.30417414612E+03  0.00000000000E+00 0. -1.
         21   -1    0    0  506  502 -0.00000000000E+00 -0.00000000000E+00 -0.20632020340E+03  0.20632020340E+03  0.00000000000E+00 0.  1.
         21    1    1    2  503  504 -0.33344942249E+02 -0.13768918005E+02  0.29980422237E+02  0.46907291481E+02  0.00000000000E+00 0. -1.
         21    1    1    2  504  505 -0.87168131769E+02  0.45291096787E+02 -0.79435163977E+02  0.12633096184E+03  0.00000000000E+00 0.  1.
         21    1    1    2  505  502  0.30488153517E+02 -0.13522681209E+02 -0.82931619980E+02  0.89387046066E+02  0.00000000000E+00 0.  1.
         21    1    1    2  506  501  0.90024920501E+02 -0.17999497574E+02  0.23024030444E+03  0.24786905013E+03  0.00000000000E+00 0. -1.
<scales pt_clust_3="34.49645" pt_clust_4="71.02848" pt_clust_5="33.35252" pt_clust_6="14000.00000"></scales>
<clustering>
<clus scale="   33.353">  2  5  1 -1</clus>
<clus scale="   34.496">  1  3  2 -1</clus>
<clus scale="   71.028">  2  4  1 -1</clus>
<clus scale="   34.496">  1  3  2 -1</clus>
</clustering>
</event>
<event>
 6    0  0.4390142E+002  0.2423423E+03  0.7546771E-02  0.1118242E+00
         21   -1    0    0  505  501  0.00000000000E+00  0.00000000000E+00  0.64486124762E+03  0.64486124762E+03  0.00000000000E+00 0. -1.
         21   -1    0    0  506  502 -0.00000000000E+00 -0.00000000000E+00 -0.18552409341E+04  0.18552409341E+04  0.00000000000E+00 0.  1.
         21    1    1    2  503  502  0.66619905195E+02  0.34714535250E+02 -0.15870117201E+03  0.17558295112E+03  0.00000000000E+00 0. -1.
         21    1    1    2  504  503  0.13208314147E+03 -0.42515957055E+03  0.45110581765E+02  0.44748361007E+03  0.00000000000E+00 0. -1.
         21    1    1    2  505  504 -0.68966072010E+02  0.20415685462E+03  0.35082948587E+03  0.41172523426E+03  0.00000000000E+00 0. -1.
         21    1    1    2  506  501 -0.12973697466E+03  0.18628818068E+03 -0.14476185821E+04  0.14653103863E+04  0.00000000000E+00 0.  1.
<scales pt_clust_3="75.12197" pt_clust_4="14000.00000" pt_clust_5="215.70372" pt_clust_6="242.34229"></scales>
<clustering>
<clus scale="   75.122">  2  3  1 -1</clus>
<clus scale="  215.704">  1  5  2 -1</clus>
<clus scale="  242.342">  2  6  1 -1</clus>
<clus scale="  215.704">  1  3  2 -1</clus>
</clustering>
</event>
<event>
 6    0  0.4390142E+002  0.1354155E+03  0.7546771E-02  0.1219634E+00
         21   -1    0    0  502  501  0.00000000000E+00  0.00000000000E+00  0.26399405762E+03  0.26399405762E+03  0.00000000000E+00 0.  1.
         21   -1    0    0  506  502 -0.00000000000E+00 -0.00000000000E+00 -0.41011428839E+03  0.41011428839E+03  0.00000000000E+00 0. -1.
         21    1    1    2  503  505 -0.25990027081E+02  0.84921152413E+02  0.30718535180E+01  0.88862365030E+02  0.00000000000E+00 0. -1.
         21    1    1    2  504  501  0.11316171047E+03 -0.84996389402E+02  0.16874564596E+03  0.22023862504E+03  0.00000000000E+00 0.  1.
         21    1    1    2  505  504 -0.10351191320E+03  0.33100890692E+02 -0.11297962054E+03  0.15676345173E+03  0.00000000000E+00 0. -1.
         21    1    1    2  506  503  0.16340229813E+02 -0.33025653703E+02 -0.20495810970E+03  0.20824390422E+03  0.00000000000E+00 0. -1.
<scales pt_clust_3="81.15488" pt_clust_4="14000.00000" pt_clust_5="135.41549" pt_clust_6="36.84694"></scales>
<clustering>
<clus scale="   36.847">  2  6  1 -1</clus>
<clus scale="   81.155">  2  3  1 -1</clus>
<clus scale="  135.415">  2  5  1 -1</clus>
<clus scale="  135.415">  1  3  2 -1</clus>
</clustering>
</event>
<event>
 6    0  0.4390142E+002  0.8447799E+02  0.7546771E-02  0.1316803E+00
         21   -1    0    0  504  501  0.00000000000E+00  0.00000000000E+00  0.30891468614E+03  0.30891468614E+03  0.00000000000E+00 0.  1.
         21   -1    0    0  505  502 -0.00000000000E+00 -0.00000000000E+00 -0.30976872980E+03  0.30976872980E+03  0.00000000000E+00 0. -1.
         21    1    1    2  503  506 -0.92773421539E+01  0.64878894589E+02 -0.10267516255E+03  0.12180939638E+03  0.00000000000E+00 0. -1.
         21    1    1    2  504  502  0.71310549538E+02 -0.73713559763E+02  0.14217932810E+03  0.17531070905E+03  0.00000000000E+00 0.  1.
         21    1    1    2  505  503 -0.13911013707E+02 -0.47006884706E+02 -0.16753883637E+03  0.17456352771E+03  0.00000000000E+00 0. -1.
         21    1    1    2  506  501 -0.48122193677E+02  0.55841549880E+02  0.12718062717E+03  0.14699978281E+03  0.00000000000E+00 0. -1.
<scales pt_clust_3="33.79642" pt_clust_4="14000.00000" pt_clust_5="49.02207" pt_clust_6="84.47799"></scales>
<clustering>
<clus scale="   49.022">  2  5  1 -1</clus>
<clus scale="   33.796">  2  3  1 -1</clus>
<clus scale="   84.478">  1  6  2 -1</clus>
<clus scale="   84.478">  1  3  2 -1</clus>
</clustering>
</event>
<event>
 6    0  0.4390142E+002  0.2142519E+03  0.7546771E-02  0.1138243E+00
         21   -1    0    0  506  501  0.00000000000E+00  0.00000000000E+00  0.41200333869E+03  0.41200333869E+03  0.00000000000E+00 0. -1.
         21   -1    0    0  504  502 -0.00000000000E+00 -0.00000000000E+00 -0.40248411236E+03  0.40248411236E+03  0.00000000000E+00 0.  1.
         21    1    1    2  503  502 -0.36136457396E+01 -0.31026684130E+02 -0.15931753546E+03  0.16235082590E+03  0.00000000000E+00 0.  1.
         21    1    1    2  504  505 -0.52877155445E+00 -0.55553575143E+02 -0.51098059675E+02  0.75481726352E+02  0.00000000000E+00 0.  1.
         21    1    1    2  505  501  0.21386021882E+03 -0.50319666408E+01  0.26789869853E+03  0.34282827560E+03  0.00000000000E+00 0. -1.
         21    1    1    2  506  503 -0.20971780152E+03  0.91612225913E+02 -0.47963877052E+02  0.23382662319E+03  0.00000000000E+00 0. -1.
<scales pt_clust_3="31.23641" pt_clust_4="63.69678" pt_clust_5="14000.00000" pt_clust_6="214.25189"></scales>
<clustering>
<clus scale="   31.236">  2  3  1 -1</clus>
<clus scale="   63.697">  2  4  1 -1</clus>
<clus scale="  214.252">  2  6  1 -1</clus>
<clus scale="  214.252">  1  3  2 -1</clus>
</clustering>
</event>
<event>
 6    0  0.4390142E+002  0.2151210E+03  0.7546771E-02  0.1137574E+00
         21   -1    0    0  505  501  0.00000000000E+00  0.00000000000E+00  0.68992005263E+03  0.68992005263E+03  0.00000000000E+00 0. -1.
         21   -1    0    0  504  502 -0.00000000000E+00 -0.00000000000E+00 -0.18141060289E+03  0.18141060289E+03  0.00000000000E+00 0.  1.
         21    1    1    2  503  506  0.39072592806E+02 -0.14873979928E+02  0.39672379730E+02  0.57635063120E+02  0.00000000000E+00 0. -1.
         21    1    1    2  504  503  0.31955034702E+02 -0.13667512602E+02 -0.10277847522E+03  0.10849580689E+03  0.00000000000E+00 0.  1.
         21    1    1    2  505  502 -0.22131434463E+03  0.56572762315E+02  0.20092784584E+03  0.30422444972E+03  0.00000000000E+00 0.  1.
         21    1    1    2  506  501  0.15028671713E+03 -0.28031269785E+02  0.37068769940E+03  0.40097533579E+03  0.00000000000E+00 0. -1.
<scales pt_clust_3="34.01272" pt_clust_4="34.75522" pt_clust_5="205.05305" pt_clust_6="34.01272"></scales>
<clustering>
<clus scale="   34.013">  3  6 -1 -1</clus>
<clus scale="   34.755">  2  4  1 -1</clus>
<clus scale="  205.053">  2  5  1 -1</clus>
<clus scale="  215.121">  1  3  2 -1</clus>
</clustering>
</event>
<event>
 6    0  0.4390142E+002  0.7533671E+02  0.7546771E-02  0.1342831E+00
         21   -1    0    0  503  501  0.00000000000E+00  0.00000000000E+00  0.24245790895E+02  0.24245790895E+02  0.00000000000E+00 0. -1.
         21   -1    0    0  506  502 -0.00000000000E+00 -0.00000000000E+00 -0.21432699422E+04  0.21432699422E+04  0.00000000000E+00 0. -1.
         21    1    1    2  503  502 -0.14634996009E+02  0.43713831812E+02 -0.44116804367E+02  0.63807324246E+02  0.00000000000E+00 0. -1.
         21    1    1    2  504  501 -0.40101655813E+02 -0.10026465532E+03 -0.21073469348E+03  0.23679158546E+03  0.00000000000E+00 0. -1.
         21    1    1    2  505  504  0.50822424820E+02  0.10017095147E+02 -0.11913074840E+04  0.11924331354E+04  0.00000000000E+00 0. -1.
         21    1    1    2  506  505  0.39142270027E+01  0.46533728363E+02 -0.67286516947E+03  0.67448368797E+03  0.00000000000E+00 0. -1.
<scales pt_clust_3="46.09861" pt_clust_4="14000.00000" pt_clust_5="75.33671" pt_clust_6="49.08776"></scales>
<clustering>
<clus scale="   46.099">  1  3  2 -1</clus>
<clus scale="   49.088">  2  6  1 -1</clus>
<clus scale="   75.337">  2  5  1 -1</clus>
<clus scale="   46.099">  1  3  2 -1</clus>
</clustering>
</event>
<event>
 6    0  0.4390142E+002  0.1337670E+03  0.7546771E-02  0.1221971E+00
         21   -1    0    0  503  501  0.00000000000E+00  0.00000000000E+00  0.18271925763E+03  0.18271925763E+03  0.00000000000E+00 0. -1.
         21   -1    0    0  505  502 -0.00000000000E+00 -0.00000000000E+00 -0.23951548507E+03  0.23951548507E+03  0.00000000000E+00 0.  1.
         21    1    1    2  503  506 -0.45901720554E+02 -0.35067881057E+02  0.12750722987E+02  0.59154925140E+02  0.00000000000E+00 0.  1.
         21    1    1    2  504  502  0.73373920611E+02  0.12780616374E+03  0.27524485432E+02  0.14991912824E+03  0.00000000000E+00 0. -1.
         21    1    1    2  505  501 -0.14661497149E+01 -0.35703536990E+02 -0.13516554825E+03  0.13980921852E+03  0.00000000000E+00 0.  1.
         21    1    1    2  506  504 -0.26006050342E+02 -0.57034745688E+02  0.38094112387E+02  0.73351470801E+02  0.00000000000E+00 0.  1.
<scales pt_clust_3="34.86544" pt_clust_4="128.74189" pt_clust_5="35.73363" pt_clust_6="34.86544"></scales>
<clustering>
<clus scale="   34.865">  3  6 -1 -1</clus>
<clus scale="   35.734">  2  5  1 -1</clus>
<clus scale="  128.742">  2  4  1 -1</clus>
<clus scale="  133.767">  1  3  2 -1</clus>
</clustering>
</event>
<event>
 6    0  0.4390142E+002  0.1924163E+03  0.7546771E-02  0.1156300E+00
         21   -1    0    0  504  501  0.00000000000E+00  0.00000000000E+00  0.50611392904E+03  0.50611392904E+03  0.00000000000E+00 0. -1.
         21   -1    0    0  506  502 -0.00000000000E+00 -0.00000000000E+00 -0.22828965441E+03  0.22828965441E+03  0.00000000000E+00 0. -1.
         21    1    1    2  503  502  0.11337394895E+03 -0.13637684810E+03 -0.14429067059E+03  0.22863091352E+03  0.00000000000E+00 0. -1.
         21    1    1    2  504  503 -0.25184852695E+02 -0.46901820055E+02  0.37541567034E+02  0.65141590287E+02  0.00000000000E+00 0. -1.
         21    1    1    2  505  501 -0.25625338322E+01  0.46636662912E+02  0.14084239205E+03  0.14838505419E+03  0.00000000000E+00 0. -1.
         21    1    1    2  506  505 -0.85626562423E+02  0.13664200525E+03  0.24373098614E+03  0.29224602545E+03  0.00000000000E+00 0. -1.
<scales pt_clust_3="179.25783" pt_clust_4="53.23587" pt_clust_5="37.63743" pt_clust_6="37.63743"></scales>
<clustering>
<clus scale="   37.637">  5  6 -1 -1</clus>
<clus scale="   53.236">  1  4  2 -1</clus>
<clus scale="  179.258">  2  3  1 -1</clus>
<clus scale="   53.236">  1  3  2 -1</clus>
</clustering>
</event>
<event>
 6    0  0.4390142E+002  0.8830786E+02  0.7546771E-02  0.1307002E+00
         21   -1    0    0  505  501  0.00000000000E+00  0.00000000000E+00  0.29592203782E+03  0.29592203782E+03  0.00000000000E+00 0.  1.
         21   -1    0    0  503  502 -0.00000000000E+00 -0.00000000000E+00 -0.29390152696E+03  0.29390152696E+03  0.00000000000E+00 0.  1.
         21    1    1    2  503  504 -0.62602348346E+01 -0.36566908730E+02 -0.13209422628E+03  0.13720500709E+03  0.00000000000E+00 0.  1.
         21    1    1    2  504  506 -0.25691315293E+02  0.92394815121E+02  0.11588735705E+03  0.15042182377E+03  0.00000000000E+00 0.  1.
         21    1    1    2  505  502 -0.37215785580E+02  0.16273016552E+01 -0.12646702773E+03  0.13183918958E+03  0.00000000000E+00 0.  1.
         21    1    1    2  506  501  0.69167335708E+02 -0.57455208046E+02  0.14469440782E+03  0.17035754434E+03  0.00000000000E+00 0.  1.
<scales pt_clust_3="37.09891" pt_clust_4="88.30786" pt_clust_5="50.73732" pt_clust_6="14000.00000"></scales>
<clustering>
<clus scale="   37.099">  2  3  1 -1</clus>
<clus scale="   50.737">  2  5  1 -1</clus>
<clus scale="   88.308">  2  4  1 -1</clus>
<clus scale="   88.308">  1  3  2 -1</clus>
</clustering>
</event>
<event>
 6    0  0.4390142E+002  0.1476458E+03  0.7546771E-02  0.1203396E+00
         21   -1    0    0  504  501  0.00000000000E+00  0.00000000000E+00  0.14421132281E+03  0.14421132281E+03  0.00000000000E+00 0.  1.
         21   -1    0    0  506  502 -0.00000000000E+00 -0.00000000000E+00 -0.73518752893E+03  0.73518752893E+03  0.00000000000E+00 0.  1.
         21    1    1    2  503  501 -0.66838921711E+02  0.29303726493E+02 -0.68785110426E+00  0.72983717232E+02  0.00000000000E+00 0.  1.
         21    1    1    2  504  502  0.12729627178E+03 -0.75179669033E+02  0.32949600155E+02  0.15146616650E+03  0.00000000000E+00 0.  1.
         21    1    1    2  505  503 -0.20193485386E+02  0.50320993130E+02 -0.33318658346E+02  0.63640491792E+02  0.00000000000E+00 0.  1.
         21    1    1    2  506  505 -0.40263864683E+02 -0.44450505892E+01 -0.58991929682E+03  0.59130847621E+03  0.00000000000E+00 0.  1.
<scales pt_clust_3="50.97419" pt_clust_4="134.92329" pt_clust_5="50.97419" pt_clust_6="40.50848"></scales>
<clustering>
<clus scale="   40.508">  2  6  1 -1</clus>
<clus scale="   50.974">  3  5 -1 -1</clus>
<clus scale="  134.923">  1  4  2 -1</clus>
<clus scale="  134.923">  1  3  2 -1</clus>
</clustering>
</event>
<event>
 6    0  0.4390142E+002  0.1082979E+03  0.7546771E-02  0.1263755E+00
         21   -1    0    0  505  501  0.00000000000E+00  0.00000000000E+00  0.94906008306E+03  0.94906008306E+03  0.00000000000E+00 0.  1.
         21   -1    0    0  504  502 -0.00000000000E+00 -0.00000000000E+00 -0.33071081135E+03  0.33071081135E+03  0.00000000000E+00 0.  1.
         21    1    1    2  503  501 -0.34942237984E+02  0.10242083543E+03  0.20377477526E+03  0.23072742914E+03  0.00000000000E+00 0. -1.
         21    1    1    2  504  503  0.30982350450E+02  0.10359682580E+02 -0.82643353446E+02  0.88865926718E+02  0.00000000000E+00 0.  1.
         21    1    1    2  505  506  0.69888855390E+02 -0.84918602414E+02  0.71888103180E+03  0.72724518494E+03  0.00000000000E+00 0.  1.
         21    1    1    2  506  502 -0.65928967855E+02 -0.27861915591E+02 -0.22166318190E+03  0.23293235360E+03  0.00000000000E+00 0.  1.
<scales pt_clust_3="108.29786" pt_clust_4="32.66847" pt_clust_5="14000.00000" pt_clust_6="41.41721"></scales>
<clustering>
<clus scale="   32.668">  2  4  1 -1</clus>
<clus scale="   41.417">  2  6  1 -1</clus>
<clus scale="  108.298">  2  3  1 -1</clus>
<clus scale="  108.298">  1  3  2 -1</clus>
</clustering>
</event>
<event>
 6    0  0.4390142E+002  0.9604863E+02  0.7546771E-02  0.1288832E+00
         21   -1    0    0  504  501  0.00000000000E+00  0.00000000000E+00  0.69872598890E+03  0.69872598890E+03  0.00000000000E+00 0. -1.
         21   -1    0    0  505  502 -0.00000000000E+00 -0.00000000000E+00 -0.44151643830E+03  0.44151643830E+03  0.00000000000E+00 0. -1.
         21    1    1    2  503  506  0.37628594961E+02 -0.30121194397E+02  0.24273610929E+03  0.24747528415E+03  0.00000000000E+00 0. -1.
         21    1    1    2  504  503  0.43348118350E+02 -0.37474748187E+01  0.40964082518E+03  0.41194503103E+03  0.00000000000E+00 0. -1.
         21    1    1    2  505  501 -0.97745259447E+02 -0.31143313831E+02 -0.40053915272E+03  0.41346783986E+03  0.00000000000E+00 0. -1.
         21    1    1    2  506  502  0.16768546136E+02  0.65011983046E+02  0.53717688439E+01  0.67354272170E+02  0.00000000000E+00 0. -1.
<scales pt_clust_3="37.22636" pt_clust_4="37.22636" pt_clust_5="87.69359" pt_clust_6="67.13972"></scales>
<clustering>
<clus scale="   37.226">  3  4 -1 -1</clus>
<clus scale="   67.140">  2  6  1 -1</clus>
<clus scale="   87.694">  2  5  1 -1</clus>
<clus scale="   96.049">  1  3  2 -1</clus>
</clustering>
</event>
<event>
 6    0  0.4390142E+002  0.1423459E+03  0.7546771E-02  0.1210207E+00
         21   -1    0    0  506  501  0.00000000000E+00  0.00000000000E+00  0.19240102622E+04  0.19240102622E+04  0.00000000000E+00 0.  1.
         21   -1    0    0  504  502 -0.00000000000E+00 -0.00000000000E+00 -0.85987705248E+02  0.85987705248E+02  0.00000000000E+00 0. -1.
         21    1    1    2  503  505  0.75521895811E+02 -0.34210493132E+02  0.79877544280E+03  0.80306669873E+03  0.00000000000E+00 0.  1.
         21    1    1    2  504  501 -0.13353088819E+03 -0.92896942494E+01 -0.78888984203E+01  0.13408590992E+03  0.00000000000E+00 0. -1.
         21    1    1    2  505  502  0.77501310954E+01  0.37545917547E+02  0.17803986500E+02  0.42269875701E+02  0.00000000000E+00 0. -1.
         21    1    1    2  506  503  0.50258861286E+02  0.59542698341E+01  0.10293320260E+04  0.10305754831E+04  0.00000000000E+00 0.  1.
<scales pt_clust_3="47.30246" pt_clust_4="128.89849" pt_clust_5="38.33746" pt_clust_6="47.30246"></scales>
<clustering>
<clus scale="   38.337">  2  5  1 -1</clus>
<clus scale="   47.302">  3  6 -1 -1</clus>
<clus scale="  128.898">  2  4  1 -1</clus>
<clus scale="  142.346">  1  3  2 -1</clus>
</clustering>
</event>
<event>
 6    0  0.4390142E+002  0.8654975E+02  0.7546771E-02  0.1311429E+00
         21   -1    0    0  505  501  0.00000000000E+00  0.00000000000E+00  0.16823923525E+03  0.16823923525E+03  0.00000000000E+00 0. -1.
         21   -1    0    0  504  502 -0.00000000000E+00 -0.00000000000E+00 -0.54952907408E+03  0.54952907408E+03  0.00000000000E+00 0.  1.
         21    1    1    2  503  502 -0.33553808010E+02  0.17480837773E+02 -0.34433897196E+03  0.34641126617E+03  0.00000000000E+00 0.  1.
         21    1    1    2  504  501  0.27576787525E+01 -0.31131076364E+02  0.61006464425E+01  0.31842842127E+02  0.00000000000E+00 0. -1.
         21    1    1    2  505  506  0.69522183187E+02  0.80777078008E+02  0.11908386148E+03  0.15981000079E+03  0.00000000000E+00 0. -1.
         21    1    1    2  506  503 -0.38726053929E+02 -0.67126839418E+02 -0.16213537480E+03  0.17970420025E+03  0.00000000000E+00 0.  1.
<scales pt_clust_3="37.71797" pt_clust_4="31.25298" pt_clust_5="14000.00000" pt_clust_6="86.54975"></scales>
<clustering>
<clus scale="   31.253">  1  4  2 -1</clus>
<clus scale="   37.718">  2  3  1 -1</clus>
<clus scale="   86.550">  2  6  1 -1</clus>
<clus scale="   31.253">  1  3  2 -1</clus>
</clustering>
</event>
<event>
 6    0  0.4390142E+002  0.2513381E+03  0.7546771E-02  0.1112462E+00
         21   -1    0    0  505  501  0.00000000000E+00  0.00000000000E+00  0.11720328968E+04  0.11720328968E+04  0.00000000000E+00 0.  1.
         21   -1    0    0  503  502 -0.00000000000E+00 -0.00000000000E+00 -0.10739179322E+03  0.10739179322E+03  0.00000000000E+00 0.  1.
         21    1    1    2  503  506  0.11643039417E+03 -0.48411252247E+01  0.31826132344E+02  0.12079890678E+03  0.00000000000E+00 0.  1.
         21    1    1    2  504  502 -0.63748916225E+02  0.72738256076E+01  0.21678798966E+03  0.22608375731E+03  0.00000000000E+00 0.  1.
         21    1    1    2  505  504 -0.23291197885E+03  0.71540180586E+02  0.34087444767E+03  0.41900044917E+03  0.00000000000E+00 0.  1.
         21    1    1    2  506  501  0.18023050091E+03 -0.73972880969E+02  0.47515253393E+03  0.51354157678E+03  0.00000000000E+00 0.  1.
<scales pt_clust_3="116.53100" pt_clust_4="53.64200" pt_clust_5="53.64200" pt_clust_6="228.56927"></scales>
<clustering>
<clus scale="   53.642">  4  5 -1 -1</clus>
<clus scale="  116.531">  2  3  1 -1</clus>
<clus scale="  228.569">  1  6  2 -1</clus>
<clus scale="  228.569">  1  3  2 -1</clus>
</clustering>
</event>
<event>
 6    0  0.4390142E+002  0.1179365E+03  0.7546771E-02  0.1246540E+00
         21   -1    0    0  505  501  0.00000000000E+00  0.00000000000E+00  0.75608320253E+03  0.75608320253E+03  0.00000000000E+00 0.  1.
         21   -1    0    0  503  502 -0.00000000000E+00 -0.00000000000E+00 -0.34625989580E+03  0.34625989580E+03  0.00000000000E+00 0.  1.
         21    1    1    2  503  506  0.30164453334E+02 -0.96503422818E+01 -0.24736499339E+00  0.31671509918E+02  0.00000000000E+00 0. -1.
         21    1    1    2  504  502 -0.72354201982E+02  0.92287431681E+01 -0.30168053751E+03  0.31037307705E+03  0.00000000000E+00 0.  1.
         21    1    1    2  505  504  0.24780382547E+01  0.11769754248E+03  0.51140077728E+03  0.52477576848E+03  0.00000000000E+00 0.  1.
         21    1    1    2  506  501  0.39711710394E+02 -0.11727594337E+03  0.20035043196E+03  0.23552274289E+03  0.00000000000E+00 0.  1.
<scales pt_clust_3="31.67054" pt_clust_4="44.40745" pt_clust_5="14000.00000" pt_clust_6="117.93652"></scales>
<clustering>
<clus scale="   31.671">  2  3  1 -1</clus>
<clus scale="   44.407">  2  4  1 -1</clus>
<clus scale="  117.937">  2  6  1 -1</clus>
<clus scale="  117.937">  1  3  2 -1</clus>
</clustering>
</event>
<event>
 6    0  0.4390142E+002  0.8482253E+02  0.7546771E-02  0.1315897E+00
         21   -1    0    0  505  501  0.00000000000E+00  0.00000000000E+00  0.13276568138E+03  0.13276568138E+03  0.00000000000E+00 0.  1.
         21   -1    0    0  506  502 -0.00000000000E+00 -0.00000000000E+00 -0.16984682238E+04  0.16984682238E+04  0.00000000000E+00 0. -1.
         21    1    1    2  503  502  0.89476430082E+02  0.78453555147E+02 -0.14095564557E+03  0.18447082662E+03  0.00000000000E+00 0. -1.
         21    1    1    2  504  501 -0.19325827664E+01 -0.76823626049E+02 -0.12781287600E+02  0.77903566723E+02  0.00000000000E+00 0.  1.
         21    1    1    2  505  503 -0.54730805336E+02  0.17276236836E+02  0.67674844070E+02  0.88734513758E+02  0.00000000000E+00 0.  1.
         21    1    1    2  506  504 -0.32813041979E+02 -0.18906165934E+02 -0.14796404534E+04  0.14801249981E+04  0.00000000000E+00 0. -1.
<scales pt_clust_3="84.82253" pt_clust_4="14000.00000" pt_clust_5="58.64140" pt_clust_6="37.87003"></scales>
<clustering>
<clus scale="   37.870">  2  6  1 -1</clus>
<clus scale="   58.641">  1  5  2 -1</clus>
<clus scale="   84.823">  2  3  1 -1</clus>
<clus scale="   58.641">  1  3  2 -1</clus>
</clustering>
</event>
<event>
 6    0  0.4390142E+002  0.9706485E+02  0.7546771E-02  0.1286592E+00
         21   -1    0    0  505  501  0.00000000000E+00  0.00000000000E+00  0.12945121094E+04  0.12945121094E+04  0.00000000000E+00 0. -1.
         21   -1    0    0  504  502 -0.00000000000E+00 -0.00000000000E+00 -0.38086893402E+02  0.38086893402E+02  0.00000000000E+00 0. -1.
         21    1    1    2  503  501  0.25022872178E+02  0.25591774223E+02  0.31541840446E+03  0.31744267658E+03  0.00000000000E+00 0. -1.
         21    1    1    2  504  503  0.16047749457E+02  0.27605904435E+02  0.11036307877E+03  0.11488962259E+03  0.00000000000E+00 0. -1.
         21    1    1    2  505  506 -0.46151451688E+02 -0.12637901535E+03  0.81400102053E+03  0.82504501298E+03  0.00000000000E+00 0. -1.
         21    1    1    2  506  502  0.50808300526E+01  0.73181336692E+02  0.16642712225E+02  0.75221690650E+02  0.00000000000E+00 0. -1.
<scales pt_clust_3="31.39127" pt_clust_4="31.39127" pt_clust_5="91.19775" pt_clust_6="73.35750"></scales>
<clustering>
<clus scale="   31.391">  3  4 -1 -1</clus>
<clus scale="   73.358">  2  6  1 -1</clus>
<clus scale="   91.198">  2  5  1 -1</clus>
<clus scale="   97.065">  1  3  2 -1</clus>
</clustering>
</event>
<event>
 6    0  0.4390142E+002  0.9704474E+02  0.7546771E-02  0.1286636E+00
         21   -1    0    0  504  501  0.00000000000E+00  0.00000000000E+00  0.33245094794E+03  0.33245094794E+03  0.00000000000E+00 0.  1.
         21   -1    0    0  506  502 -0.00000000000E+00 -0.00000000000E+00 -0.27909280978E+03  0.27909280978E+03  0.00000000000E+00 0.  1.
         21    1    1    2  503  505 -0.96326846057E+02 -0.13030449353E+02  0.27345799024E+03  0.29022047879E+03  0.00000000000E+00 0.  1.
         21    1    1    2  504  503  0.11419805830E+01  0.43468920790E+02  0.18428248575E+02  0.47227656514E+02  0.00000000000E+00 0.  1.
         21    1    1    2  505  502  0.29135067037E+02  0.32522567255E+02 -0.82534784848E+02  0.93373230757E+02  0.00000000000E+00 0.  1.
         21    1    1    2  506  501  0.66049798438E+02 -0.62961038692E+02 -0.15599331582E+03  0.18072239166E+03  0.00000000000E+00 0.  1.
<scales pt_clust_3="14000.00000" pt_clust_4="43.48392" pt_clust_5="44.26659" pt_clust_6="97.04474"></scales>
<clustering>
<clus scale="   43.484">  1  4  2 -1</clus>
<clus scale="   44.267">  2  5  1 -1</clus>
<clus scale="   97.045">  2  6  1 -1</clus>
<clus scale="   43.484">  1  3  2 -1</clus>
</clustering>
</event>
<event>
 6    0  0.4390142E+002  0.1105475E+03  0.7546771E-02  0.1259559E+00
         21   -1    0    0  503  501  0.00000000000E+00  0.00000000000E+00  0.29004943126E+03  0.29004943126E+03  0.00000000000E+00 0. -1.
         21   -1    0    0  504  502 -0.00000000000E+00 -0.00000000000E+00 -0.51360105241E+03  0.51360105241E+03  0.00000000000E+00 0.  1.
         21    1    1    2  503  502 -0.15538536031E+03 -0.57715212129E+02  0.48733311612E+02  0.17277323742E+03  0.00000000000E+00 0. -1.
         21    1    1    2  504  506  0.23794217752E+02  0.10430646168E+03 -0.35563689773E+03  0.37138067501E+03  0.00000000000E+00 0.  1.
         21    1    1    2  505  501  0.68275966769E+02  0.75559644418E+02  0.64701850013E+02  0.12065320923E+03  0.00000000000E+00 0. -1.
         21    1    1    2  506  505  0.63315175788E+02 -0.12215089397E+03  0.18650114954E+02  0.13884336199E+03  0.00000000000E+00 0. -1.
<scales pt_clust_3="110.15996" pt_clust_4="110.54755" pt_clust_5="101.83746" pt_clust_6="14000.00000"></scales>
<clustering>
<clus scale="  101.837">  1  5  2 -1</clus>
<clus scale="  110.548">  2  4  1 -1</clus>
<clus scale="  110.160">  1  3  2 -1</clus>
<clus scale="  101.837">  1  3  2 -1</clus>
</clustering>
</event>
<event>
 6    0  0.4390142E+002  0.1104526E+03  0.7546771E-02  0.1259734E+00
         21   -1    0    0  506  501  0.00000000000E+00  0.00000000000E+00  0.55229816300E+03  0.55229816300E+03  0.00000000000E+00 0. -1.
         21   -1    0    0  505  502 -0.00000000000E+00 -0.00000000000E+00 -0.91417770064E+02  0.91417770064E+02  0.00000000000E+00 0. -1.
         21    1    1    2  503  501  0.11906904714E+03 -0.94705534724E+01  0.45824867250E+03  0.47355989613E+03  0.00000000000E+00 0. -1.
         21    1    1    2  504  503 -0.54453083095E+02 -0.34701935460E+02 -0.28269685944E+02  0.70487855171E+02  0.00000000000E+00 0. -1.
         21    1    1    2  505  504 -0.32863844994E+02  0.45320052537E+02  0.92925676873E+00  0.55989311372E+02  0.00000000000E+00 0.  1.
         21    1    1    2  506  502 -0.31752119053E+02 -0.11475636042E+01  0.29972149606E+02  0.43678870391E+02  0.00000000000E+00 0.  1.
<scales pt_clust_3="110.45256" pt_clust_4="14000.00000" pt_clust_5="62.34173" pt_clust_6="31.77285"></scales>
<clustering>
<clus scale="   31.773">  2  6  1 -1</clus>
<clus scale="   62.342">  2  5  1 -1</clus>
<clus scale="  110.453">  1  3  2 -1</clus>
<clus scale="  110.453">  1  3  2 -1</clus>
</clustering>
</event>
<event>
 6    0  0.4390142E+002  0.1195860E+03  0.7546771E-02  0.1243782E+00
         21   -1    0    0  503  501  0.00000000000E+00  0.00000000000E+00  0.82444649952E+02  0.82444649952E+02  0.00000000000E+00 0.  1.
         21   -1    0    0  504  502 -0.00000000000E+00 -0.00000000000E+00 -0.11387332865E+04  0.11387332865E+04  0.00000000000E+00 0.  1.
         21    1    1    2  503  505 -0.34455148824E+02 -0.20723146519E+02  0.83545023040E+01  0.41065847012E+02  0.00000000000E+00 0.  1.
         21    1    1    2  504  501 -0.23239331068E+02 -0.27768739930E+02 -0.35001731560E+03  0.35188533735E+03  0.00000000000E+00 0.  1.
         21    1    1    2  505  506 -0.75939633364E+02  0.17861467199E+02  0.20310153922E+02  0.80612420124E+02  0.00000000000E+00 0.  1.
         21    1    1    2  506  502  0.13363411326E+03  0.30630419251E+02 -0.73493597716E+03  0.74761433194E+03  0.00000000000E+00 0.  1.
<scales pt_clust_3="30.36297" pt_clust_4="36.21007" pt_clust_5="30.36297" pt_clust_6="111.85731"></scales>
<clustering>
<clus scale="   30.363">  3  5 -1 -1</clus>
<clus scale="   36.210">  2  4  1 -1</clus>
<clus scale="  111.857">  2  6  1 -1</clus>
<clus scale="  119.586">  1  3  2 -1</clus>
</clustering>
</event>
<event>
 6    0  0.4390142E+002  0.7076746E+02  0.7546771E-02  0.1357503E+00
         21   -1    0    0  504  501  0.00000000000E+00  0.00000000000E+00  0.19658644823E+04  0.19658644823E+04  0.00000000000E+00 0. -1.
         21   -1    0    0  505  502 -0.00000000000E+00 -0.00000000000E+00 -0.39755260658E+02  0.39755260658E+02  0.00000000000E+00 0. -1.
         21    1    1    2  503  502  0.57444566995E+02  0.14410261421E+02  0.23913873438E+02  0.63870237625E+02  0.00000000000E+00 0. -1.
         21    1    1    2  504  503  0.59034610740E+02  0.67833819063E+02  0.14373788285E+04  0.14401890185E+04  0.00000000000E+00 0. -1.
         21    1    1    2  505  506 -0.10742328253E+03 -0.51744636837E+02  0.18601734710E+03  0.22095185559E+03  0.00000000000E+00 0. -1.
         21    1    1    2  506  501 -0.90558952094E+01 -0.30499443647E+02  0.27879917254E+03  0.28060863121E+03  0.00000000000E+00 0.  1.
<scales pt_clust_3="58.80693" pt_clust_4="14000.00000" pt_clust_5="70.76746" pt_clust_6="31.81549"></scales>
<clustering>
<clus scale="   31.815">  1  6  2 -1</clus>
<clus scale="   58.807">  2  3  1 -1</clus>
<clus scale="   70.767">  2  5  1 -1</clus>
<clus scale="   31.815">  1  3  2 -1</clus>
</clustering>
</event>
<event>
 6    0  0.4390142E+002  0.8291997E+02  0.7546771E-02  0.1320963E+00
         21   -1    0    0  503  501  0.00000000000E+00  0.00000000000E+00  0.70207062789E+02  0.70207062789E+02  0.00000000000E+00 0. -1.
         21   -1    0    0  505  502 -0.00000000000E+00 -0.00000000000E+00 -0.49850003219E+03  0.49850003219E+03  0.00000000000E+00 0. -1.
         21    1    1    2  503  502  0.23323066567E+02 -0.26434653779E+02  0.64693055596E+01  0.35841432295E+02  0.00000000000E+00 0. -1.
         21    1    1    2  504  506 -0.12480657701E+03  0.83635800752E+01 -0.81746792970E+02  0.14942947935E+03  0.00000000000E+00 0. -1.
         21    1    1    2  505  504  0.50531654339E+02 -0.13162763907E+02 -0.29689993241E+03  0.30145692281E+03  0.00000000000E+00 0. -1.
         21    1    1    2  506  501  0.50951856104E+02  0.31233837612E+02 -0.56115549583E+02  0.81979260532E+02  0.00000000000E+00 0. -1.
<scales pt_clust_3="35.25275" pt_clust_4="82.91997" pt_clust_5="53.58361" pt_clust_6="14000.00000"></scales>
<clustering>
<clus scale="   35.253">  1  3  2 -1</clus>
<clus scale="   53.584">  2  5  1 -1</clus>
<clus scale="   82.920">  2  4  1 -1</clus>
<clus scale="   35.253">  1  3  2 -1</clus>
</clustering>
</event>
<event>
 6    0  0.4390142E+002  0.1395461E+03  0.7546771E-02  0.1213941E+00
         21   -1    0    0  503  501  0.00000000000E+00  0.00000000000E+00  0.99309368928E+02  0.99309368928E+02  0.00000000000E+00 0. -1.
         21   -1    0    0  501  502 -0.00000000000E+00 -0.00000000000E+00 -0.33321256234E+03  0.33321256234E+03  0.00000000000E+00 0.  1.
         21    1    1    2  503  506 -0.32502156208E+02  0.48288922869E+02 -0.40710143801E+01  0.58350521747E+02  0.00000000000E+00 0. -1.
         21    1    1    2  504  502  0.54577198356E+01 -0.83372909694E+02 -0.14849659492E+03  0.17038799101E+03  0.00000000000E+00 0.  1.
         21    1    1    2  505  504  0.44407304841E+02 -0.33736299986E+02 -0.11303935292E+03  0.12604777653E+03  0.00000000000E+00 0.  1.
         21    1    1    2  506  505 -0.17362868469E+02  0.68820286811E+02  0.31703768807E+02  0.77735641984E+02  0.00000000000E+00 0. -1.
<scales pt_clust_3="35.70836" pt_clust_4="46.73333" pt_clust_5="46.73333" pt_clust_6="133.25117"></scales>
<clustering>
<clus scale="   35.708">  3  6 -1 -1</clus>
<clus scale="   46.733">  4  5 -1 -1</clus>
<clus scale="  133.251">  1  3  2 -1</clus>
<clus scale="  133.251">  1  3  2 -1</clus>
</clustering>
</event>
<event>
 6    0  0.4390142E+002  0.7174456E+02  0.7546771E-02  0.1354259E+00
         21   -1    0    0  506  501  0.00000000000E+00  0.00000000000E+00  0.91836137702E+03  0.91836137702E+03  0.00000000000E+00 0. -1.
         21   -1    0    0  503  502 -0.00000000000E+00 -0.00000000000E+00 -0.22538064132E+02  0.22538064132E+02  0.00000000000E+00 0. -1.
         21    1    1    2  503  505 -0.36751405590E+02  0.35664540054E+02  0.11996659644E+03  0.13044006092E+03  0.00000000000E+00 0. -1.
         21    1    1    2  504  502  0.50785782569E+02 -0.95018722845E+02  0.20826179964E+03  0.23447970187E+03  0.00000000000E+00 0. -1.
         21    1    1    2  505  501 -0.43359704419E+02  0.51619612215E+02  0.40720182077E+03  0.41274443808E+03  0.00000000000E+00 0. -1.
         21    1    1    2  506  504  0.29325327440E+02  0.77345705764E+01  0.16039309604E+03  0.16323524028E+03  0.00000000000E+00 0.  1.
<scales pt_clust_3="48.80983" pt_clust_4="71.74456" pt_clust_5="14000.00000" pt_clust_6="30.32818"></scales>
<clustering>
<clus scale="   30.328">  1  6  2 -1</clus>
<clus scale="   48.810">  2  3  1 -1</clus>
<clus scale="   71.745">  2  4  1 -1</clus>
<clus scale="   30.328">  1  3  2 -1</clus>
</clustering>
</event>
<event>
 6    0  0.4390142E+002  0.7327754E+02  0.7546771E-02  0.1349289E+00
         21   -1    0    0  506  501  0.00000000000E+00  0.00000000000E+00  0.29777729434E+02  0.29777729434E+02  0.00000000000E+00 0. -1.
         21   -1    0    0  503  502 -0.00000000000E+00 -0.00000000000E+00 -0.20938297829E+04  0.20938297829E+04  0.00000000000E+00 0. -1.
         21    1    1    2  503  504 -0.26225849072E+02 -0.90740800041E+02 -0.87277951145E+03  0.87787571077E+03  0.00000000000E+00 0. -1.
         21    1    1    2  504  501  0.64139599747E+02 -0.32311334443E+02 -0.50146886508E+02  0.87593497565E+02  0.00000000000E+00 0. -1.
         21    1    1    2  505  502 -0.30018245898E+02  0.63576626144E+02 -0.10251908254E+04  0.10275988083E+04  0.00000000000E+00 0. -1.
         21    1    1    2  506  505 -0.78955047770E+01  0.59475508340E+02 -0.11593483014E+03  0.13053949566E+03  0.00000000000E+00 0. -1.
<scales pt_clust_3="73.27754" pt_clust_4="60.08708" pt_clust_5="14000.00000" pt_clust_6="59.99729"></scales>
<clustering>
<clus scale="   59.997">  1  6  2 -1</clus>
<clus scale="   60.087">  1  4  2 -1</clus>
<clus scale="   73.278">  1  3  2 -1</clus>
<clus scale="   59.997">  1  3  2 -1</clus>
</clustering>
</event>
<event>
 6    0  0.4390142E+002  0.1054261E+03  0.7546771E-02  0.1269282E+00
         21   -1    0    0  505  501  0.00000000000E+00  0.00000000000E+00  0.17778680848E+03  0.17778680848E+03  0.00000000000E+00 0.  1.
         21   -1    0    0  506  502 -0.00000000000E+00 -0.00000000000E+00 -0.30048770117E+04  0.30048770117E+04  0.00000000000E+00 0.  1.
         21    1    1    2  503  501  0.40479655017E+02  0.98693260102E+02 -0.44400383035E+03  0.45663810992E+03  0.00000000000E+00 0.  1.
         21    1    1    2  504  502  0.41467683899E+02  0.37650686831E+00 -0.10923091478E+03  0.11683793608E+03  0.00000000000E+00 0.  1.
         21    1    1    2  505  504 -0.42930309681E+02 -0.96241067597E+02  0.15093406259E+03  0.18408271465E+03  0.00000000000E+00 0.  1.
         21    1    1    2  506  503 -0.39017029235E+02 -0.28286993725E+01 -0.24247895206E+04  0.24251050595E+04  0.00000000000E+00 0.  1.
<scales pt_clust_3="14000.00000" pt_clust_4="33.86330" pt_clust_5="105.42607" pt_clust_6="39.11943"></scales>
<clustering>
<clus scale="   39.119">  2  6  1 -1</clus>
<clus scale="   33.863">  2  4  1 -1</clus>
<clus scale="  105.426">  1  5  2 -1</clus>
<clus scale="  105.426">  1  3  2 -1</clus>
</clustering>
</event>
<event>
 6    0  0.4390142E+002  0.9942491E+02  0.7546771E-02  0.1281510E+00
         21   -1    0    0  505  501  0.00000000000E+00  0.00000000000E+00  0.16634173790E+03  0.16634173790E+03  0.00000000000E+00 0. -1.
         21   -1    0    0  506  502 -0.00000000000E+00 -0.00000000000E+00 -0.62908557560E+03  0.62908557560E+03  0.00000000000E+00 0.  1.
         21    1    1    2  503  504  0.87244510875E+02 -0.33017212194E+01 -0.78950697619E+02  0.11771031686E+03  0.00000000000E+00 0.  1.
         21    1    1    2  504  501  0.35948538226E+02  0.13926774026E+02  0.14981274337E+02  0.41360500675E+02  0.00000000000E+00 0.  1.
         21    1    1    2  505  502 -0.26478648760E+02  0.28950424655E+02  0.11009065201E+03  0.11687256987E+03  0.00000000000E+00 0. -1.
         21    1    1    2  506  503 -0.96714400341E+02 -0.39575477462E+02 -0.50886506643E+03  0.51948392610E+03  0.00000000000E+00 0.  1.
<scales pt_clust_3="99.42491" pt_clust_4="38.55194" pt_clust_5="40.50340" pt_clust_6="14000.00000"></scales>
<clustering>
<clus scale="   38.552">  1  4  2 -1</clus>
<clus scale="   40.503">  1  5  2 -1</clus>
<clus scale="   99.425">  1  3  2 -1</clus>
<clus scale="   38.552">  1  3  2 -1</clus>
</clustering>
</event>
<event>
 6    0  0.4390142E+002  0.2619050E+03  0.7546771E-02  0.1106004E+00
         21   -1    0    0  505  501  0.00000000000E+00  0.00000000000E+00  0.30613385706E+03  0.30613385706E+03  0.00000000000E+00 0. -1.
         21   -1    0    0  503  502 -0.00000000000E+00 -0.00000000000E+00 -0.93966760442E+03  0.93966760442E+03  0.00000000000E+00 0. -1.
         21    1    1    2  503  501 -0.77863271527E+02  0.51124035851E+02 -0.40805862170E+03  0.41855488868E+03  0.00000000000E+00 0. -1.
         21    1    1    2  504  502 -0.17549378569E+03 -0.59501290748E+02 -0.44291633653E+03  0.48011806213E+03  0.00000000000E+00 0. -1.
         21    1    1    2  505  506  0.46002963769E+02  0.39799258771E+02  0.46532103556E+02  0.76586489250E+02  0.00000000000E+00 0. -1.
         21    1    1    2  506  504  0.20735409345E+03 -0.31422003875E+02  0.17090910730E+03  0.27054202143E+03  0.00000000000E+00 0. -1.
<scales pt_clust_3="93.14696" pt_clust_4="244.20624" pt_clust_5="50.97192" pt_clust_6="50.97192"></scales>
<clustering>
<clus scale="   50.972">  5  6 -1 -1</clus>
<clus scale="   93.147">  2  3  1 -1</clus>
<clus scale="  244.206">  2  4  1 -1</clus>
<clus scale="  261.905">  1  3  2 -1</clus>
</clustering>
</event>
<event>
 6    0  0.4390142E+002  0.1291958E+03  0.7546771E-02  0.1228654E+00
         21   -1    0    0  505  501  0.00000000000E+00  0.00000000000E+00  0.34294499701E+03  0.34294499701E+03  0.00000000000E+00 0. -1.
         21   -1    0    0  503  502 -0.00000000000E+00 -0.00000000000E+00 -0.62556688912E+02  0.62556688912E+02  0.00000000000E+00 0. -1.
         21    1    1    2  503  504 -0.30407947780E+02  0.18272126004E-01  0.88851439158E+01  0.31679479233E+02  0.00000000000E+00 0. -1.
         21    1    1    2  504  501 -0.12932285433E+02 -0.11372937347E+03  0.75348127053E+02  0.13703632601E+03  0.00000000000E+00 0. -1.
         21    1    1    2  505  506 -0.73372072935E+01  0.33971630954E+02  0.78805032405E+02  0.86128621566E+02  0.00000000000E+00 0. -1.
         21    1    1    2  506  502  0.50677440507E+02  0.79739470390E+02  0.11735000473E+03  0.15065725912E+03  0.00000000000E+00 0. -1.
<scales pt_clust_3="30.40795" pt_clust_4="117.93804" pt_clust_5="33.10403" pt_clust_6="33.10403"></scales>
<clustering>
<clus scale="   30.408">  2  3  1 -1</clus>
<clus scale="   33.104">  5  6 -1 -1</clus>
<clus scale="  117.938">  2  4  1 -1</clus>
<clus scale="  129.196">  1  3  2 -1</clus>
</clustering>
</event>
<event>
 6    0  0.4390142E+002  0.1657592E+03  0.7546771E-02  0.1182344E+00
         21   -1    0    0  506  501  0.00000000000E+00  0.00000000000E+00  0.70274021552E+03  0.70274021552E+03  0.00000000000E+00 0. -1.
         21   -1    0    0  505  502 -0.00000000000E+00 -0.00000000000E+00 -0.96451146158E+02  0.96451146158E+02  0.00000000000E+00 0. -1.
         21    1    1    2  503  504 -0.91445934373E+02  0.21942890410E+02  0.67552788825E+02  0.11578958775E+03  0.00000000000E+00 0. -1.
         21    1    1    2  504  501 -0.38788375809E+02 -0.24043309587E+02  0.18843419109E+02  0.49373001503E+02  0.00000000000E+00 0.  1.
         21    1    1    2  505  503 -0.34638788459E+02 -0.51501582313E+01 -0.38331812878E+02  0.51920108573E+02  0.00000000000E+00 0. -1.
         21    1    1    2  506  502  0.16487309864E+03  0.72505774077E+01  0.55822467430E+03  0.58210866385E+03  0.00000000000E+00 0. -1.
<scales pt_clust_3="37.95356" pt_clust_4="37.95356" pt_clust_5="35.01956" pt_clust_6="156.93033"></scales>
<clustering>
<clus scale="   35.020">  2  5  1 -1</clus>
<clus scale="   37.954">  3  4 -1 -1</clus>
<clus scale="  156.930">  1  6  2 -1</clus>
<clus scale="  156.930">  1  3  2 -1</clus>
</clustering>
</event>
<event>
 6    0  0.4390142E+002  0.1562910E+03  0.7546771E-02  0.1192949E+00
         21   -1    0    0  506  501  0.00000000000E+00  0.00000000000E+00  0.18957785476E+04  0.18957785476E+04  0.00000000000E+00 0. -1.
         21   -1    0    0  503  502 -0.00000000000E+00 -0.00000000000E+00 -0.16658955736E+03  0.16658955736E+03  0.00000000000E+00 0. -1.
         21    1    1    2  503  505  0.32763595166E+02  0.39182320906E+01 -0.14201315131E+03  0.14579623060E+03  0.00000000000E+00 0. -1.
         21    1    1    2  504  502 -0.42390533932E+02 -0.54644447019E+02  0.99426013266E+02  0.12111360399E+03  0.00000000000E+00 0. -1.
         21    1    1    2  505  501  0.50432935562E+02  0.13645092117E+03  0.15101073152E+04  0.15170980319E+04  0.00000000000E+00 0. -1.
         21    1    1    2  506  504 -0.40805996796E+02 -0.85724706243E+02  0.26166881305E+03  0.27836023846E+03  0.00000000000E+00 0. -1.
<scales pt_clust_3="32.99706" pt_clust_4="41.27533" pt_clust_5="147.85854" pt_clust_6="41.27533"></scales>
<clustering>
<clus scale="   32.997">  2  3  1 -1</clus>
<clus scale="   41.275">  4  6 -1 -1</clus>
<clus scale="  147.859">  1  5  2 -1</clus>
<clus scale="  147.859">  1  3  2 -1</clus>
</clustering>
</event>
<event>
 6    0  0.4390142E+002  0.3252497E+03  0.7546771E-02  0.1073258E+00
         21   -1    0    0  506  501  0.00000000000E+00  0.00000000000E+00  0.52545759628E+03  0.52545759628E+03  0.00000000000E+00 0.  1.
         21   -1    0    0  504  502 -0.00000000000E+00 -0.00000000000E+00 -0.29375574787E+03  0.29375574787E+03  0.00000000000E+00 0.  1.
         21    1    1    2  503  502 -0.18211384092E+03 -0.52482400639E+02  0.29641135471E+03  0.35182317239E+03  0.00000000000E+00 0.  1.
         21    1    1    2  504  505  0.20341518881E+03  0.88310445592E+02 -0.71172110634E+02  0.23289899779E+03  0.00000000000E+00 0.  1.
         21    1    1    2  505  501  0.84627081260E+02  0.13323782115E+02 -0.55714980676E+02  0.10219307767E+03  0.00000000000E+00 0.  1.
         21    1    1    2  506  503 -0.10592842915E+03 -0.49151827068E+02  0.62177585007E+02  0.13229809629E+03  0.00000000000E+00 0.  1.
<scales pt_clust_3="87.72364" pt_clust_4="310.13927" pt_clust_5="33.40488" pt_clust_6="87.72364"></scales>
<clustering>
<clus scale="   33.405">  4  5 -1 -1</clus>
<clus scale="   87.724">  3  6 -1 -1</clus>
<clus scale="  310.139">  2  4  1 -1</clus>
<clus scale="  325.250">  1  3  2 -1</clus>
</clustering>
</event>
<event>
 6    0  0.4390142E+002  0.7970306E+02  0.7546771E-02  0.1329896E+00
         21   -1    0    0  503  501  0.00000000000E+00  0.00000000000E+00  0.12255721524E+03  0.12255721524E+03  0.00000000000E+00 0. -1.
         21   -1    0    0  506  502 -0.00000000000E+00 -0.00000000000E+00 -0.31899772880E+03  0.31899772880E+03  0.00000000000E+00 0. -1.
         21    1    1    2  503  505 -0.12068240266E+02  0.28127254029E+02 -0.45273200801E+01  0.30939965569E+02  0.00000000000E+00 0.  1.
         21    1    1    2  504  502  0.11519314040E+02 -0.29591040587E+02 -0.12387166473E+03  0.12787694711E+03  0.00000000000E+00 0. -1.
         21    1    1    2  505  504 -0.13380650902E+02  0.99346664425E+02 -0.13142849342E+03  0.16529443558E+03  0.00000000000E+00 0. -1.
         21    1    1    2  506  501  0.13929577128E+02 -0.97882877866E+02  0.63386964672E+02  0.11744359578E+03  0.00000000000E+00 0. -1.
<scales pt_clust_3="30.60694" pt_clust_4="31.19392" pt_clust_5="14000.00000" pt_clust_6="79.70306"></scales>
<clustering>
<clus scale="   30.607">  1  3  2 -1</clus>
<clus scale="   31.194">  2  4  1 -1</clus>
<clus scale="   79.703">  1  6  2 -1</clus>
<clus scale="   30.607">  1  3  2 -1</clus>
</clustering>
</event>
<event>
 6    0  0.4390142E+002  0.1539383E+03  0.7546771E-02  0.1195715E+00
         21   -1    0    0  506  501  0.00000000000E+00  0.00000000000E+00  0.12593691370E+03  0.12593691370E+03  0.00000000000E+00 0. -1.
         21   -1    0    0  503  502 -0.00000000000E+00 -0.00000000000E+00 -0.13398768879E+04  0.13398768879E+04  0.00000000000E+00 0. -1.
         21    1    1    2  503  505 -0.56485433143E+02 -0.29305115072E+02 -0.97570058880E+03  0.97777350798E+03  0.00000000000E+00 0. -1.
         21    1    1    2  504  502  0.19375657150E+02  0.24997931500E+02 -0.16662291784E+03  0.16959808201E+03  0.00000000000E+00 0. -1.
         21    1    1    2  505  501 -0.13499161277E+03  0.19358688650E+02 -0.45247360853E+02  0.14368304705E+03  0.00000000000E+00 0. -1.
         21    1    1    2  506  504  0.17210138876E+03 -0.15051505078E+02 -0.26369106723E+02  0.17475916459E+03  0.00000000000E+00 0. -1.
<scales pt_clust_3="41.21395" pt_clust_4="31.62772" pt_clust_5="153.93834" pt_clust_6="14000.00000"></scales>
<clustering>
<clus scale="   31.628">  2  4  1 -1</clus>
<clus scale="   41.214">  2  3  1 -1</clus>
<clus scale="  153.938">  1  5  2 -1</clus>
<clus scale="  153.938">  1  3  2 -1</clus>
</clustering>
</event>
<event>
 6    0  0.4390142E+002  0.1042907E+03  0.7546771E-02  0.1271523E+00
         21   -1    0    0  506  501  0.00000000000E+00  0.00000000000E+00  0.14724898878E+03  0.14724898878E+03  0.00000000000E+00 0. -1.
         21   -1    0    0  504  502 -0.00000000000E+00 -0.00000000000E+00 -0.21135976628E+03  0.21135976628E+03  0.00000000000E+00 0. -1.
         21    1    1    2  503  505  0.54753705717E+02  0.87405451640E+02 -0.79786505023E+02  0.13039772870E+03  0.00000000000E+00 0. -1.
         21    1    1    2  504  503 -0.46119502353E+02  0.19017896479E+02 -0.30527979996E+02  0.58486292808E+02  0.00000000000E+00 0. -1.
         21    1    1    2  505  501 -0.39710338402E+02  0.11244216238E+02  0.16519488966E+02  0.44454886014E+02  0.00000000000E+00 0. -1.
         21    1    1    2  506  502  0.31076135038E+02 -0.11766756436E+03  0.29684218550E+02  0.12526984754E+03  0.00000000000E+00 0. -1.
<scales pt_clust_3="14000.00000" pt_clust_4="54.79815" pt_clust_5="41.27158" pt_clust_6="104.29070"></scales>
<clustering>
<clus scale="   41.272">  1  5  2 -1</clus>
<clus scale="   54.798">  2  4  1 -1</clus>
<clus scale="  104.291">  1  6  2 -1</clus>
<clus scale="   41.272">  1  3  2 -1</clus>
</clustering>
</event>
<event>
 6    0  0.4390142E+002  0.2760654E+03  0.7546771E-02  0.1097858E+00
         21   -1    0    0  502  501  0.00000000000E+00  0.00000000000E+00  0.34587704377E+02  0.34587704377E+02  0.00000000000E+00 0. -1.
         21   -1    0    0  504  502 -0.00000000000E+00 -0.00000000000E+00 -0.36650978015E+04  0.36650978015E+04  0.00000000000E+00 0. -1.
         21    1    1    2  503  506 -0.96752941034E+02  0.22285815512E+02 -0.39583818613E+03  0.40810005976E+03  0.00000000000E+00 0. -1.
         21    1    1    2  504  503  0.24994423944E+03 -0.11318300891E+03 -0.23324168629E+04  0.23484997208E+04  0.00000000000E+00 0. -1.
         21    1    1    2  505  501  0.22410992108E+02  0.90740104075E+02 -0.40781005481E+03  0.41838386664E+03  0.00000000000E+00 0. -1.
         21    1    1    2  506  505 -0.17560229052E+03  0.15708932791E+00 -0.49444499327E+03  0.52470185866E+03  0.00000000000E+00 0. -1.
<scales pt_clust_3="40.03103" pt_clust_4="270.88354" pt_clust_5="93.46667" pt_clust_6="40.03103"></scales>
<clustering>
<clus scale="   40.031">  3  6 -1 -1</clus>
<clus scale="   93.467">  1  5  2 -1</clus>
<clus scale="  270.884">  2  4  1 -1</clus>
<clus scale="   93.467">  1  3  2 -1</clus>
</clustering>
</event>
<event>
 6    0  0.4390142E+002  0.1531362E+03  0.7546771E-02  0.1196671E+00
         21   -1    0    0  505  501  0.00000000000E+00  0.00000000000E+00  0.22252561729E+03  0.22252561729E+03  0.00000000000E+00 0.  1.
         21   -1    0    0  506  502 -0.00000000000E+00 -0.00000000000E+00 -0.14082917692E+03  0.14082917692E+03  0.00000000000E+00 0.  1.
         21    1    1    2  503  504 -0.29620615281E+02  0.10134671192E+03 -0.22140921374E+02  0.10788307219E+03  0.00000000000E+00 0.  1.
         21    1    1    2  504  502 -0.48666853856E+02  0.12230086799E+02 -0.11250671025E+02  0.51425823142E+02  0.00000000000E+00 0.  1.
         21    1    1    2  505  503 -0.22453259249E+02 -0.27854747138E+02  0.30700121172E+02  0.47143750689E+02  0.00000000000E+00 0.  1.
         21    1    1    2  506  501  0.10074072838E+03 -0.85722051579E+02  0.84387911601E+02  0.15690214819E+03  0.00000000000E+00 0.  1.
<scales pt_clust_3="51.87790" pt_clust_4="51.87790" pt_clust_5="35.77759" pt_clust_6="134.96291"></scales>
<clustering>
<clus scale="   35.778">  1  5  2 -1</clus>
<clus scale="   51.878">  3  4 -1 -1</clus>
<clus scale="  134.963">  1  6  2 -1</clus>
<clus scale="   35.778">  1  3  2 -1</clus>
</clustering>
</event>
<event>
 6    0  0.4390142E+002  0.2179903E+03  0.7546771E-02  0.1135390E+00
         21   -1    0    0  503  501  0.00000000000E+00  0.00000000000E+00  0.16375912380E+04  0.16375912380E+04  0.00000000000E+00 0.  1.
         21   -1    0    0  505  502 -0.00000000000E+00 -0.00000000000E+00 -0.12754968268E+03  0.12754968268E+03  0.00000000000E+00 0.  1.
         21    1    1    2  503  502  0.28821611136E+03  0.55890104887E+02  0.24910687045E+03  0.38502787377E+03  0.00000000000E+00 0.  1.
         21    1    1    2  504  506 -0.16338438508E+03  0.97443869468E+02  0.80282842351E+03  0.82505953881E+03  0.00000000000E+00 0.  1.
         21    1    1    2  505  504 -0.71881279961E+02 -0.75568047800E+02  0.19037536061E+02  0.10601828161E+03  0.00000000000E+00 0.  1.
         21    1    1    2  506  501 -0.52950446315E+02 -0.77765926555E+02  0.43906872526E+03  0.44903522646E+03  0.00000000000E+00 0. -1.
<scales pt_clust_3="217.99030" pt_clust_4="14000.00000" pt_clust_5="109.16169" pt_clust_6="94.08129"></scales>
<clustering>
<clus scale="   94.081">  1  6  2 -1</clus>
<clus scale="  109.162">  2  5  1 -1</clus>
<clus scale="  217.990">  2  3  1 -1</clus>
<clus scale="   94.081">  1  3  2 -1</clus>
</clustering>
</event>
<event>
 6    0  0.4390142E+002  0.1157737E+03  0.7546771E-02  0.1250237E+00
         21   -1    0    0  504  501  0.00000000000E+00  0.00000000000E+00  0.18667230304E+03  0.18667230304E+03  0.00000000000E+00 0.  1.
         21   -1    0    0  503  502 -0.00000000000E+00 -0.00000000000E+00 -0.17374904239E+03  0.17374904239E+03  0.00000000000E+00 0.  1.
         21    1    1    2  503  505  0.97876733608E+01 -0.40608861771E+02 -0.16836773115E+02  0.45037263828E+02  0.00000000000E+00 0. -1.
         21    1    1    2  504  506 -0.91645137221E+02 -0.28416679677E+02  0.16153695318E+02  0.97299952377E+02  0.00000000000E+00 0.  1.
         21    1    1    2  505  501  0.12887648127E+03  0.50117324670E+02  0.58724790122E+02  0.15023147017E+03  0.00000000000E+00 0.  1.
         21    1    1    2  506  502 -0.47019017406E+02  0.18908216779E+02 -0.45118451672E+02  0.67852659054E+02  0.00000000000E+00 0.  1.
<scales pt_clust_3="41.77174" pt_clust_4="115.77367" pt_clust_5="14000.00000" pt_clust_6="43.24155"></scales>
<clustering>
<clus scale="   41.772">  2  3  1 -1</clus>
<clus scale="   43.242">  2  6  1 -1</clus>
<clus scale="  115.774">  1  4  2 -1</clus>
<clus scale="  115.774">  1  3  2 -1</clus>
</clustering>
</event>
<event>
 6    0  0.4390142E+002  0.1419281E+03  0.7546771E-02  0.1210758E+00
         21   -1    0    0  506  501  0.00000000000E+00  0.00000000000E+00  0.10916809400E+04  0.10916809400E+04  0.00000000000E+00 0.  1.
         21   -1    0    0  503  502 -0.00000000000E+00 -0.00000000000E+00 -0.77498900658E+03  0.77498900658E+03  0.00000000000E+00 0.  1.
         21    1    1    2  503  501 -0.28293660607E+02 -0.17328778787E+02 -0.74220845434E+03  0.74294966687E+03  0.00000000000E+00 0.  1.
         21    1    1    2  504  505 -0.18609655474E+02 -0.11157883758E+03  0.40136997928E+03  0.41700601499E+03  0.00000000000E+00 0.  1.
         21    1    1    2  505  502  0.79316422916E+02  0.15742124196E+03  0.31081222273E+03  0.35731887742E+03  0.00000000000E+00 0.  1.
         21    1    1    2  506  504 -0.32413106835E+02 -0.28513625591E+02  0.34671818579E+03  0.34939538734E+03  0.00000000000E+00 0.  1.
<scales pt_clust_3="33.17857" pt_clust_4="14000.00000" pt_clust_5="141.92810" pt_clust_6="44.52061"></scales>
<clustering>
<clus scale="   33.179">  2  3  1 -1</clus>
<clus scale="   44.521">  1  6  2 -1</clus>
<clus scale="  141.928">  2  5  1 -1</clus>
<clus scale="   44.521">  1  3  2 -1</clus>
</clustering>
</event>
<event>
 6    0  0.4390142E+002  0.6292058E+02  0.7546771E-02  0.1385969E+00
         21   -1    0    0  505  501  0.00000000000E+00  0.00000000000E+00  0.15069562809E+03  0.15069562809E+03  0.00000000000E+00 0. -1.
         21   -1    0    0  501  502 -0.00000000000E+00 -0.00000000000E+00 -0.60874892957E+03  0.60874892957E+03  0.00000000000E+00 0. -1.
         21    1    1    2  503  506 -0.63109734116E+01  0.51001635767E+02  0.51115303320E+02  0.72482890877E+02  0.00000000000E+00 0. -1.
         21    1    1    2  504  502  0.51913415067E+02 -0.31519347692E+02 -0.53558191106E+03  0.53901433691E+03  0.00000000000E+00 0. -1.
         21    1    1    2  505  503  0.41631329015E+02  0.23194565884E+02  0.16029420934E+02  0.50280192697E+02  0.00000000000E+00 0. -1.
         21    1    1    2  506  504 -0.87233770671E+02 -0.42676853959E+02  0.10383885333E+02  0.97667137175E+02  0.00000000000E+00 0. -1.
<scales pt_clust_3="14000.00000" pt_clust_4="61.07961" pt_clust_5="47.65664" pt_clust_6="62.92058"></scales>
<clustering>
<clus scale="   47.657">  1  5  2 -1</clus>
<clus scale="   61.080">  2  4  1 -1</clus>
<clus scale="   62.921">  2  6  1 -1</clus>
<clus scale="   47.657">  1  3  2 -1</clus>
</clustering>
</event>
<event>
 6    0  0.4390142E+002  0.1410593E+03  0.7546771E-02  0.1211911E+00
         21   -1    0    0  503  501  0.00000000000E+00  0.00000000000E+00  0.31855787919E+03  0.31855787919E+03  0.00000000000E+00 0.  1.
         21   -1    0    0  504  502 -0.00000000000E+00 -0.00000000000E+00 -0.86430153556E+03  0.86430153556E+03  0.00000000000E+00 0. -1.
         21    1    1    2  503  506 -0.25066059320E+02 -0.18963382913E+02  0.18271249939E+03  0.18539626386E+03  0.00000000000E+00 0.  1.
         21    1    1    2  504  505 -0.14173007412E+03  0.19788414689E+02 -0.75454793663E+03  0.76799842704E+03  0.00000000000E+00 0. -1.
         21    1    1    2  505  501  0.10672089261E+03 -0.10458718874E+00  0.91554414829E+02  0.14061141750E+03  0.00000000000E+00 0.  1.
         21    1    1    2  506  502  0.60075240835E+02 -0.72044458644E+00 -0.65462633962E+02  0.88853306337E+02  0.00000000000E+00 0. -1.
<scales pt_clust_3="31.43115" pt_clust_4="141.05931" pt_clust_5="14000.00000" pt_clust_6="57.94416"></scales>
<clustering>
<clus scale="   31.431">  1  3  2 -1</clus>
<clus scale="   57.944">  1  6  2 -1</clus>
<clus scale="  141.059">  2  4  1 -1</clus>
<clus scale="   31.431">  1  3  2 -1</clus>
</clustering>
</event>
<event>
 6    0  0.4390142E+002  0.1310464E+03  0.7546771E-02  0.1225911E+00
         21   -1    0    0  503  501  0.00000000000E+00  0.00000000000E+00  0.62511376572E+03  0.62511376572E+03  0.00000000000E+00 0. -1.
         21   -1    0    0  504  502 -0.00000000000E+00 -0.00000000000E+00 -0.99392433247E+03  0.99392433247E+03  0.00000000000E+00 0.  1.
         21    1    1    2  503  505  0.17930626899E+02 -0.61540494112E+02  0.37893308110E+03  0.38431630170E+03  0.00000000000E+00 0. -1.
         21    1    1    2  504  506 -0.84514968661E+02  0.86835296380E+02 -0.89441597190E+03  0.90258688192E+03  0.00000000000E+00 0.  1.
         21    1    1    2  505  502 -0.27432964157E+02 -0.15333314588E+02 -0.80315202425E+02  0.86245056666E+02  0.00000000000E+00 0. -1.
         21    1    1    2  506  501  0.94017305919E+02 -0.99614876801E+01  0.22698752647E+03  0.24588985791E+03  0.00000000000E+00 0. -1.
<scales pt_clust_3="64.12035" pt_clust_4="131.04638" pt_clust_5="31.42735" pt_clust_6="14000.00000"></scales>
<clustering>
<clus scale="   31.427">  2  5  1 -1</clus>
<clus scale="   64.120">  1  3  2 -1</clus>
<clus scale="  131.046">  2  4  1 -1</clus>
<clus scale="   64.120">  1  3  2 -1</clus>
</clustering>
</event>
<event>
 6    0  0.4390142E+002  0.1208065E+03  0.7546771E-02  0.1241773E+00
         21   -1    0    0  505  501  0.00000000000E+00  0.00000000000E+00  0.37344547376E+03  0.37344547376E+03  0.00000000000E+00 0. -1.
         21   -1    0    0  506  502 -0.00000000000E+00 -0.00000000000E+00 -0.26106772231E+03  0.26106772231E+03  0.00000000000E+00 0.  1.
         21    1    1    2  503  504 -0.56750294434E+02 -0.83917604631E+02  0.21692860352E+03  0.23941758355E+03  0.00000000000E+00 0. -1.
         21    1    1    2  504  502 -0.51126198477E+02  0.11522983686E+03 -0.19623492863E+03  0.23323797008E+03  0.00000000000E+00 0.  1.
         21    1    1    2  505  503  0.27402197191E+02 -0.40918217175E+02  0.51998563128E+02  0.71617256824E+02  0.00000000000E+00 0. -1.
         21    1    1    2  506  501  0.80474295721E+02  0.96059849500E+01  0.39685513441E+02  0.90240385614E+02  0.00000000000E+00 0. -1.
<scales pt_clust_3="14000.00000" pt_clust_4="120.80648" pt_clust_5="49.24613" pt_clust_6="86.19319"></scales>
<clustering>
<clus scale="   49.246">  1  5  2 -1</clus>
<clus scale="   86.193">  1  6  2 -1</clus>
<clus scale="  120.806">  2  4  1 -1</clus>
<clus scale="   49.246">  1  3  2 -1</clus>
</clustering>
</event>
<event>
 6    0  0.4390142E+002  0.1369796E+03  0.7546771E-02  0.1217452E+00
         21   -1    0    0  504  501  0.00000000000E+00  0.00000000000E+00  0.10163468720E+03  0.10163468720E+03  0.00000000000E+00 0.  1.
         21   -1    0    0  503  502 -0.00000000000E+00 -0.00000000000E+00 -0.54150020010E+03  0.54150020010E+03  0.00000000000E+00 0.  1.
         21    1    1    2  503  501  0.21306342781E+02  0.30548099867E+02 -0.35905408126E+03  0.36098058108E+03  0.00000000000E+00 0.  1.
         21    1    1    2  504  505  0.44097585134E+02  0.38181895535E+02 -0.56681483748E+01  0.58605307501E+02  0.00000000000E+00 0.  1.
         21    1    1    2  505  506  0.25612603284E+02  0.49852090077E+02 -0.43014442943E+02  0.70650397265E+02  0.00000000000E+00 0.  1.
         21    1    1    2  506  502 -0.91016531199E+02 -0.11858208548E+03 -0.32128840325E+02  0.15289860146E+03  0.00000000000E+00 0.  1.
<scales pt_clust_3="37.24442" pt_clust_4="40.66943" pt_clust_5="40.66943" pt_clust_6="130.52154"></scales>
<clustering>
<clus scale="   37.244">  2  3  1 -1</clus>
<clus scale="   40.669">  4  5 -1 -1</clus>
<clus scale="  130.522">  2  6  1 -1</clus>
<clus scale="  136.980">  1  3  2 -1</clus>
</clustering>
</event>
<event>
 6    0  0.4390142E+002  0.7979118E+02  0.7546771E-02  0.1329645E+00
         21   -1    0    0  504  501  0.00000000000E+00  0.00000000000E+00  0.26323914190E+03  0.26323914190E+03  0.00000000000E+00 0.  1.
         21   -1    0    0  505  502 -0.00000000000E+00 -0.00000000000E+00 -0.34258339839E+03  0.34258339839E+03  0.00000000000E+00 0.  1.
         21    1    1    2  503  506 -0.10629650245E+02 -0.76004090476E+02 -0.14786108823E+03  0.16659085403E+03  0.00000000000E+00 0.  1.
         21    1    1    2  504  502  0.63595750512E+02  0.60052304337E+01 -0.16775194478E+01  0.63900675640E+02  0.00000000000E+00 0.  1.
         21    1    1    2  505  503 -0.49568308882E+02 -0.99183088958E+01 -0.14084459754E+03  0.14964154087E+03  0.00000000000E+00 0.  1.
         21    1    1    2  506  501 -0.33977913849E+01  0.79917168939E+02  0.21103894873E+03  0.22568946975E+03  0.00000000000E+00 0.  1.
<scales pt_clust_3="14000.00000" pt_clust_4="55.53093" pt_clust_5="50.55087" pt_clust_6="79.79118"></scales>
<clustering>
<clus scale="   50.551">  2  5  1 -1</clus>
<clus scale="   55.531">  2  4  1 -1</clus>
<clus scale="   79.791">  1  6  2 -1</clus>
<clus scale="   79.791">  1  3  2 -1</clus>
</clustering>
</event>
<event>
 6    0  0.4390142E+002  0.1757164E+03  0.7546771E-02  0.1172014E+00
         21   -1    0    0  506  501  0.00000000000E+00  0.00000000000E+00  0.97130631361E+03  0.97130631361E+03  0.00000000000E+00 0. -1.
         21   -1    0    0  504  502 -0.00000000000E+00 -0.00000000000E+00 -0.28016968449E+03  0.28016968449E+03  0.00000000000E+00 0. -1.
         21    1    1    2  503  501  0.30257703843E+02 -0.50103711865E+02  0.10729258724E+03  0.12221951506E+03  0.00000000000E+00 0. -1.
         21    1    1    2  504  503  0.75849136139E+02 -0.60418544210E+02  0.32716495330E+03  0.34123364225E+03  0.00000000000E+00 0. -1.
         21    1    1    2  505  502 -0.57859436540E+02 -0.87398912009E+02 -0.23418113112E+03  0.25656789821E+03  0.00000000000E+00 0. -1.
         21    1    1    2  506  505 -0.48247403443E+02  0.19792116808E+03  0.49086021970E+03  0.53145494258E+03  0.00000000000E+00 0. -1.
<scales pt_clust_3="39.32159" pt_clust_4="39.32159" pt_clust_5="104.81548" pt_clust_6="168.26950"></scales>
<clustering>
<clus scale="   39.322">  3  4 -1 -1</clus>
<clus scale="  104.815">  2  5  1 -1</clus>
<clus scale="  168.269">  2  6  1 -1</clus>
<clus scale="  175.716">  1  3  2 -1</clus>
</clustering>
</event>
<event>
 6    0  0.4390142E+002  0.1082694E+03  0.7546771E-02  0.1263809E+00
         21   -1    0    0  503  501  0.00000000000E+00  0.00000000000E+00  0.13141867148E+04  0.13141867148E+04  0.00000000000E+00 0.  1.
         21   -1    0    0  504  502 -0.00000000000E+00 -0.00000000000E+00 -0.52132036264E+02  0.52132036264E+02  0.00000000000E+00 0. -1.
         21    1    1    2  503  506 -0.12334063964E+02  0.30150918193E+02  0.13809044349E+03  0.14188085701E+03  0.00000000000E+00 0.  1.
         21    1    1    2  504  505  0.10082113871E+03  0.11895313524E+02  0.43018663282E+02  0.11025881319E+03  0.00000000000E+00 0. -1.
         21    1    1    2  505  501 -0.96719204140E+02 -0.69481592829E+01  0.10728595783E+04  0.10772328235E+04  0.00000000000E+00 0.  1.
         21    1    1    2  506  502  0.82321293917E+01 -0.35098072434E+02  0.80859935122E+01  0.36946257374E+02  0.00000000000E+00 0. -1.
<scales pt_clust_3="32.57617" pt_clust_4="14000.00000" pt_clust_5="108.26942" pt_clust_6="35.43380"></scales>
<clustering>
<clus scale="   32.576">  1  3  2 -1</clus>
<clus scale="   35.434">  2  6  1 -1</clus>
<clus scale="  108.269">  1  5  2 -1</clus>
<clus scale="   32.576">  1  3  2 -1</clus>
</clustering>
</event>
<event>
 6    0  0.4390142E+002  0.1504142E+03  0.7546771E-02  0.1199965E+00
         21   -1    0    0  505  501  0.00000000000E+00  0.00000000000E+00  0.66720714497E+03  0.66720714497E+03  0.00000000000E+00 0.  1.
         21   -1    0    0  506  502 -0.00000000000E+00 -0.00000000000E+00 -0.21262596981E+03  0.21262596981E+03  0.00000000000E+00 0. -1.
         21    1    1    2  503  502 -0.11572920260E+03  0.13116433173E+03  0.38724848726E+01  0.17496378594E+03  0.00000000000E+00 0. -1.
         21    1    1    2  504  501  0.86167874044E+02 -0.41338533796E+02  0.12397819036E+03  0.15653871272E+03  0.00000000000E+00 0.  1.
         21    1    1    2  505  503 -0.24284970975E+02 -0.10866256369E+03  0.42246348610E+03  0.43688981409E+03  0.00000000000E+00 0.  1.
         21    1    1    2  506  504  0.53846299532E+02  0.18836765760E+02 -0.95732986176E+02  0.11144080204E+03  0.00000000000E+00 0. -1.
<scales pt_clust_3="150.41420" pt_clust_4="101.78069" pt_clust_5="14000.00000" pt_clust_6="57.04601"></scales>
<clustering>
<clus scale="   57.046">  2  6  1 -1</clus>
<clus scale="  101.781">  1  4  2 -1</clus>
<clus scale="  150.414">  2  3  1 -1</clus>
<clus scale="  101.781">  1  3  2 -1</clus>
</clustering>
</event>
<event>
 6    0  0.4390142E+002  0.9249264E+02  0.7546771E-02  0.1296925E+00
         21   -1    0    0  503  501  0.00000000000E+00  0.00000000000E+00  0.89384306850E+02  0.89384306850E+02  0.00000000000E+00 0. -1.
         21   -1    0    0  505  502 -0.00000000000E+00 -0.00000000000E+00 -0.54276243346E+03  0.54276243346E+03  0.00000000000E+00 0.  1.
         21    1    1    2  503  502  0.87236865372E+02 -0.85226634695E+02 -0.13296490004E+03  0.18042592548E+03  0.00000000000E+00 0.  1.
         21    1    1    2  504  501 -0.35968108443E+02 -0.31745582189E+02 -0.17251284797E+02  0.50981306776E+02  0.00000000000E+00 0.  1.
         21    1    1    2  505  506 -0.86595977004E+01  0.48110964934E+02 -0.31511504064E+03  0.31888421475E+03  0.00000000000E+00 0. -1.
         21    1    1    2  506  504 -0.42609159228E+02  0.68861251949E+02  0.11953098866E+02  0.81855293309E+02  0.00000000000E+00 0. -1.
<scales pt_clust_3="92.49264" pt_clust_4="47.97381" pt_clust_5="48.24951" pt_clust_6="14000.00000"></scales>
<clustering>
<clus scale="   47.974">  1  4  2 -1</clus>
<clus scale="   48.250">  2  5  1 -1</clus>
<clus scale="   92.493">  2  3  1 -1</clus>
<clus scale="   47.974">  1  3  2 -1</clus>
</clustering>
</event>
<event>
 6    0  0.4390142E+002  0.1206013E+03  0.7546771E-02  0.1242108E+00
         21   -1    0    0  503  501  0.00000000000E+00  0.00000000000E+00  0.32898476969E+02  0.32898476969E+02  0.00000000000E+00 0. -1.
         21   -1    0    0  501  502 -0.00000000000E+00 -0.00000000000E+00 -0.16214763999E+04  0.16214763999E+04  0.00000000000E+00 0.  1.
         21    1    1    2  503  504  0.78459306794E+00  0.53121214178E+02 -0.67725369654E+02  0.86076737141E+02  0.00000000000E+00 0. -1.
         21    1    1    2  504  505  0.45794638627E+02  0.72629526032E+02 -0.84915405229E+02  0.12075935998E+03  0.00000000000E+00 0. -1.
         21    1    1    2  505  506 -0.22590375400E+02 -0.76707040399E+02 -0.30575284162E+03  0.31603654103E+03  0.00000000000E+00 0.  1.
         21    1    1    2  506  502 -0.23988856295E+02 -0.49043699811E+02 -0.11301843065E+04  0.11315022388E+04  0.00000000000E+00 0.  1.
<scales pt_clust_3="30.45597" pt_clust_4="30.45597" pt_clust_5="114.21725" pt_clust_6="54.59624"></scales>
<clustering>
<clus scale="   30.456">  3  4 -1 -1</clus>
<clus scale="   54.596">  2  6  1 -1</clus>
<clus scale="  114.217">  2  5  1 -1</clus>
<clus scale="  120.601">  1  3  2 -1</clus>
</clustering>
</event>
<event>
 6    0  0.4390142E+002  0.8219924E+02  0.7546771E-02  0.1322924E+00
         21   -1    0    0  505  501  0.00000000000E+00  0.00000000000E+00  0.61874651497E+03  0.61874651497E+03  0.00000000000E+00 0. -1.
         21   -1    0    0  504  502 -0.00000000000E+00 -0.00000000000E+00 -0.46373201068E+03  0.46373201068E+03  0.00000000000E+00 0. -1.
         21    1    1    2  503  501 -0.46301632567E+02 -0.65151254466E+02  0.40925960391E+03  0.41699154731E+03  0.00000000000E+00 0. -1.
         21    1    1    2  504  506 -0.30533672278E+02  0.78262654341E+02 -0.41108270577E+03  0.41957876399E+03  0.00000000000E+00 0. -1.
         21    1    1    2  505  502 -0.20681461837E+02 -0.50973588681E+02 -0.27644272702E+01  0.55078776901E+02  0.00000000000E+00 0.  1.
         21    1    1    2  506  503  0.97516766681E+02  0.37862188807E+02  0.15960203342E+03  0.19082943745E+03  0.00000000000E+00 0. -1.
<scales pt_clust_3="14000.00000" pt_clust_4="58.33942" pt_clust_5="55.00936" pt_clust_6="82.19924"></scales>
<clustering>
<clus scale="   55.009">  2  5  1 -1</clus>
<clus scale="   58.339">  2  4  1 -1</clus>
<clus scale="   82.199">  2  6  1 -1</clus>
<clus scale="   82.199">  1  3  2 -1</clus>
</clustering>
</event>
<event>
 6    0  0.4390142E+002  0.8043608E+02  0.7546771E-02  0.1327818E+00
         21   -1    0    0  506  501  0.00000000000E+00  0.00000000000E+00  0.63637709308E+02  0.63637709308E+02  0.00000000000E+00 0.  1.
         21   -1    0    0  503  502 -0.00000000000E+00 -0.00000000000E+00 -0.99555878001E+03  0.99555878001E+03  0.00000000000E+00 0.  1.
         21    1    1    2  503  504 -0.29340439162E+02 -0.99539242067E+01 -0.18064349390E+03  0.18328124253E+03  0.00000000000E+00 0. -1.
         21    1    1    2  504  505 -0.97381628886E+02 -0.22206244283E+02 -0.13315352390E+03  0.16645167424E+03  0.00000000000E+00 0.  1.
         21    1    1    2  505  501  0.31031757718E+02  0.61944218314E+00  0.36053133486E+02  0.47572913826E+02  0.00000000000E+00 0.  1.
         21    1    1    2  506  502  0.95690310330E+02  0.31540726307E+02 -0.65417718638E+03  0.66189065871E+03  0.00000000000E+00 0.  1.
<scales pt_clust_3="30.98293" pt_clust_4="80.43608" pt_clust_5="30.82893" pt_clust_6="14000.00000"></scales>
<clustering>
<clus scale="   30.983">  2  3  1 -1</clus>
<clus scale="   30.829">  1  5  2 -1</clus>
<clus scale="   80.436">  1  4  2 -1</clus>
<clus scale="   30.829">  1  3  2 -1</clus>
</clustering>
</event>
<event>
 6    0  0.4390142E+002  0.1166530E+03  0.7546771E-02  0.1248723E+00
         21   -1    0    0  503  501  0.00000000000E+00  0.00000000000E+00  0.61879559944E+02  0.61879559944E+02  0.00000000000E+00 0.  1.
         21   -1    0    0  505  502 -0.00000000000E+00 -0.00000000000E+00 -0.83163382323E+03  0.83163382323E+03  0.00000000000E+00 0.  1.
         21    1    1    2  503  504  0.54713953165E+02 -0.21506622801E+02 -0.11590403918E+03  0.12996113955E+03  0.00000000000E+00 0.  1.
         21    1    1    2  504  506 -0.34706835936E+02 -0.86471521700E+02 -0.16280456080E+02  0.94588275044E+02  0.00000000000E+00 0.  1.
         21    1    1    2  505  501 -0.56145616234E+02 -0.70099619957E+01 -0.76833568324E+02  0.95419426800E+02  0.00000000000E+00 0.  1.
         21    1    1    2  506  502  0.36138499005E+02  0.11498810650E+03 -0.56073619970E+03  0.57354454178E+03  0.00000000000E+00 0.  1.
<scales pt_clust_3="52.27304" pt_clust_4="116.65304" pt_clust_5="56.58153" pt_clust_6="14000.00000"></scales>
<clustering>
<clus scale="   56.582">  1  5  2 -1</clus>
<clus scale="   52.273">  1  3  2 -1</clus>
<clus scale="  116.653">  1  4  2 -1</clus>
<clus scale="   56.582">  1  3  2 -1</clus>
</clustering>
</event>
<event>
 6    0  0.6376084E+002  0.9678666E+02  0.7546771E-02  0.1287202E+00
         21   -1    0    0  506  501  0.00000000000E+00  0.00000000000E+00  0.96576160115E+02  0.96576160115E+02  0.00000000000E+00 0. -1.
         21   -1    0    0  503  502 -0.00000000000E+00 -0.00000000000E+00 -0.77103597922E+03  0.77103597922E+03  0.00000000000E+00 0. -1.
         21    1    1    2  503  501 -0.54382116490E+02 -0.24902820391E+02 -0.67720032752E+02  0.90352464788E+02  0.00000000000E+00 0. -1.
         21    1    1    2  504  505 -0.30697002427E+02  0.25613447102E+02 -0.92762939497E+02  0.10101147249E+03  0.00000000000E+00 0. -1.
         21    1    1    2  505  502 -0.30001344357E+02 -0.24457193520E+02 -0.55153135976E+03  0.55288794143E+03  0.00000000000E+00 0. -1.
         21    1    1    2  506  504  0.11508046327E+03  0.23746566810E+02  0.37554512906E+02  0.12336026063E+03  0.00000000000E+00 0. -1.
<scales pt_clust_3="96.78666" pt_clust_4="46.39895" pt_clust_5="38.70704" pt_clust_6="14000.00000"></scales>
<clustering>
<clus scale="   38.707">  2  5  1 -1</clus>
<clus scale="   46.399">  2  4  1 -1</clus>
<clus scale="   96.787">  2  3  1 -1</clus>
<clus scale="   96.787">  1  3  2 -1</clus>
</clustering>
</event>
<event>
 6    0  0.4390142E+002  0.1546879E+03  0.7546771E-02  0.1194828E+00
         21   -1    0    0  506  501  0.00000000000E+00  0.00000000000E+00  0.14509580180E+03  0.14509580180E+03  0.00000000000E+00 0. -1.
         21   -1    0    0  503  502 -0.00000000000E+00 -0.00000000000E+00 -0.84158803264E+03  0.84158803264E+03  0.00000000000E+00 0. -1.
         21    1    1    2  503  504 -0.26681372384E+02 -0.48259021148E+02 -0.51992904848E+03  0.52284514362E+03  0.00000000000E+00 0. -1.
         21    1    1    2  504  505  0.51260740507E+01 -0.56957807035E+02  0.11971535431E+02  0.58427614002E+02  0.00000000000E+00 0. -1.
         21    1    1    2  505  501  0.54276820694E+02 -0.72420909980E+02  0.52176723610E+02  0.10446612826E+03  0.00000000000E+00 0. -1.
         21    1    1    2  506  502 -0.32721522361E+02  0.17763773816E+03 -0.24071144140E+03  0.30094494856E+03  0.00000000000E+00 0. -1.
<scales pt_clust_3="55.14371" pt_clust_4="36.87432" pt_clust_5="36.87432" pt_clust_6="147.56878"></scales>
<clustering>
<clus scale="   36.874">  4  5 -1 -1</clus>
<clus scale="   55.144">  2  3  1 -1</clus>
<clus scale="  147.569">  2  6  1 -1</clus>
<clus scale="  154.688">  1  3  2 -1</clus>
</clustering>
</event>
<event>
 6    0  0.4390142E+002  0.1388891E+03  0.7546771E-02  0.1214832E+00
         21   -1    0    0  503  501  0.00000000000E+00  0.00000000000E+00  0.14209763033E+03  0.14209763033E+03  0.00000000000E+00 0. -1.
         21   -1    0    0  504  502 -0.00000000000E+00 -0.00000000000E+00 -0.29866893142E+03  0.29866893142E+03  0.00000000000E+00 0. -1.
         21    1    1    2  503  506  0.51993417638E+02 -0.13649472449E+03 -0.45821112510E+02  0.15308069650E+03  0.00000000000E+00 0. -1.
         21    1    1    2  504  505 -0.82557741705E+02  0.45459715286E+02  0.26990047651E+02  0.98034836163E+02  0.00000000000E+00 0. -1.
         21    1    1    2  505  501 -0.86395591299E+01  0.37752994234E+02 -0.21545110211E+01  0.38788818922E+02  0.00000000000E+00 0. -1.
         21    1    1    2  506  502  0.39203883197E+02  0.53282014966E+02 -0.13558572521E+03  0.15086221017E+03  0.00000000000E+00 0. -1.
<scales pt_clust_3="128.17008" pt_clust_4="34.29781" pt_clust_5="34.29781" pt_clust_6="66.15072"></scales>
<clustering>
<clus scale="   34.298">  4  5 -1 -1</clus>
<clus scale="   66.151">  2  6  1 -1</clus>
<clus scale="  128.170">  2  3  1 -1</clus>
<clus scale="  138.889">  1  3  2 -1</clus>
</clustering>
</event>
<event>
 6    0  0.4390142E+002  0.9468654E+02  0.7546771E-02  0.1291884E+00
         21   -1    0    0  506  501  0.00000000000E+00  0.00000000000E+00  0.86809731012E+03  0.86809731012E+03  0.00000000000E+00 0.  1.
         21   -1    0    0  505  502 -0.00000000000E+00 -0.00000000000E+00 -0.26292307496E+03  0.26292307496E+03  0.00000000000E+00 0. -1.
         21    1    1    2  503  504 -0.42712198647E+02  0.54125711503E+02  0.23306697052E+03  0.24305171735E+03  0.00000000000E+00 0.  1.
         21    1    1    2  504  502 -0.65910274285E+02 -0.28814309628E+02 -0.23400530011E+03  0.24481198740E+03  0.00000000000E+00 0. -1.
         21    1    1    2  505  501  0.11856313935E+03 -0.74961970907E+02  0.54986240457E+03  0.56747262405E+03  0.00000000000E+00 0.  1.
         21    1    1    2  506  503 -0.99406664180E+01  0.49650569033E+02  0.56250160181E+02  0.75684056276E+02  0.00000000000E+00 0.  1.
<scales pt_clust_3="94.68654" pt_clust_4="71.86166" pt_clust_5="14000.00000" pt_clust_6="50.63591"></scales>
<clustering>
<clus scale="   50.636">  1  6  2 -1</clus>
<clus scale="   71.862">  2  4  1 -1</clus>
<clus scale="   94.687">  2  3  1 -1</clus>
<clus scale="   50.636">  1  3  2 -1</clus>
</clustering>
</event>
<event>
 6    0  0.4390142E+002  0.6059809E+02  0.7546771E-02  0.1395339E+00
         21   -1    0    0  505  501  0.00000000000E+00  0.00000000000E+00  0.12998308034E+04  0.12998308034E+04  0.00000000000E+00 0. -1.
         21   -1    0    0  506  502 -0.00000000000E+00 -0.00000000000E+00 -0.17232773740E+03  0.17232773740E+03  0.00000000000E+00 0. -1.
         21    1    1    2  503  504 -0.81405064395E+02  0.33487464769E+02  0.19057501392E+03  0.20992148707E+03  0.00000000000E+00 0. -1.
         21    1    1    2  504  501  0.29085391370E+02 -0.43507754357E+02  0.10541763222E+04  0.10554745866E+04  0.00000000000E+00 0. -1.
         21    1    1    2  505  502  0.79903601122E+02  0.58106331900E+02 -0.29746887842E+02  0.10317852788E+03  0.00000000000E+00 0. -1.
         21    1    1    2  506  503 -0.27583928097E+02 -0.48086042312E+02 -0.87501382318E+02  0.10358393921E+03  0.00000000000E+00 0. -1.
<scales pt_clust_3="60.59809" pt_clust_4="52.33435" pt_clust_5="14000.00000" pt_clust_6="56.22061"></scales>
<clustering>
<clus scale="   52.334">  1  4  2 -1</clus>
<clus scale="   56.221">  2  6  1 -1</clus>
<clus scale="   60.598">  1  3  2 -1</clus>
<clus scale="   52.334">  1  3  2 -1</clus>
</clustering>
</event>
<event>
 6    0  0.4390142E+002  0.1233192E+03  0.7546771E-02  0.1237720E+00
         21   -1    0    0  506  501  0.00000000000E+00  0.00000000000E+00  0.96391857159E+02  0.96391857159E+02  0.00000000000E+00 0. -1.
         21   -1    0    0  503  502 -0.00000000000E+00 -0.00000000000E+00 -0.88038540478E+03  0.88038540478E+03  0.00000000000E+00 0. -1.
         21    1    1    2  503  504 -0.30550049302E+02 -0.54033279249E+01 -0.50236009056E+03  0.50331715851E+03  0.00000000000E+00 0. -1.
         21    1    1    2  504  501  0.36598584940E+02 -0.11524530331E+03 -0.22819740234E+02  0.12305152132E+03  0.00000000000E+00 0. -1.
         21    1    1    2  505  502 -0.31443522367E+02 -0.13004776086E+02 -0.19884120511E+03  0.20173161415E+03  0.00000000000E+00 0. -1.
         21    1    1    2  506  505  0.25394986729E+02  0.13365340732E+03 -0.59972511719E+02  0.14867696796E+03  0.00000000000E+00 0. -1.
<scales pt_clust_3="31.02421" pt_clust_4="123.31924" pt_clust_5="50.22382" pt_clust_6="14000.00000"></scales>
<clustering>
<clus scale="   31.024">  2  3  1 -1</clus>
<clus scale="   50.224">  2  5  1 -1</clus>
<clus scale="  123.319">  1  4  2 -1</clus>
<clus scale="  123.319">  1  3  2 -1</clus>
</clustering>
</event>
<event>
 6    0  0.4390142E+002  0.1034672E+03  0.7546771E-02  0.1273169E+00
         21   -1    0    0  503  501  0.00000000000E+00  0.00000000000E+00  0.31198253899E+03  0.31198253899E+03  0.00000000000E+00 0. -1.
         21   -1    0    0  504  502 -0.00000000000E+00 -0.00000000000E+00 -0.10203411510E+04  0.10203411510E+04  0.00000000000E+00 0. -1.
         21    1    1    2  503  505  0.40621812037E+02  0.28350119826E+02  0.37913472171E+02  0.62380223464E+02  0.00000000000E+00 0. -1.
         21    1    1    2  504  506  0.65009088325E+02 -0.99718216771E+02 -0.63286717604E+03  0.64396488013E+03  0.00000000000E+00 0. -1.
         21    1    1    2  505  502 -0.11123991347E+03  0.27812742392E+01 -0.35643131384E+03  0.37339702104E+03  0.00000000000E+00 0. -1.
         21    1    1    2  506  501  0.56090131104E+01  0.68586822706E+02  0.24302640571E+03  0.25258156534E+03  0.00000000000E+00 0. -1.
<scales pt_clust_3="49.53646" pt_clust_4="103.46717" pt_clust_5="14000.00000" pt_clust_6="105.09652"></scales>
<clustering>
<clus scale="   49.536">  1  3  2 -1</clus>
<clus scale="  105.097">  1  6  2 -1</clus>
<clus scale="  103.467">  2  4  1 -1</clus>
<clus scale="   49.536">  1  3  2 -1</clus>
</clustering>
</event>
<event>
 6    0  0.4390142E+002  0.1228965E+03  0.7546771E-02  0.1238394E+00
         21   -1    0    0  503  501  0.00000000000E+00  0.00000000000E+00  0.56513011417E+02  0.56513011417E+02  0.00000000000E+00 0. -1.
         21   -1    0    0  505  502 -0.00000000000E+00 -0.00000000000E+00 -0.16287426561E+04  0.16287426561E+04  0.00000000000E+00 0.  1.
         21    1    1    2  503  504  0.21527875013E+02  0.25484803773E+02  0.15613353550E+02  0.36833428228E+02  0.00000000000E+00 0. -1.
         21    1    1    2  504  502 -0.47259518462E+02 -0.10664225791E+03 -0.13946480631E+04  0.13995175073E+04  0.00000000000E+00 0.  1.
         21    1    1    2  505  506 -0.33573755444E+02  0.54023942716E+01 -0.12860828866E+03  0.13302809790E+03  0.00000000000E+00 0.  1.
         21    1    1    2  506  501  0.59305398893E+02  0.75755059862E+02 -0.64586646479E+02  0.11587663412E+03  0.00000000000E+00 0. -1.
<scales pt_clust_3="33.36052" pt_clust_4="122.89651" pt_clust_5="32.81663" pt_clust_6="14000.00000"></scales>
<clustering>
<clus scale="   33.361">  1  3  2 -1</clus>
<clus scale="   32.817">  2  5  1 -1</clus>
<clus scale="  122.897">  2  4  1 -1</clus>
<clus scale="   33.361">  1  3  2 -1</clus>
</clustering>
</event>
<event>
 6    0  0.4390142E+002  0.1072570E+03  0.7546771E-02  0.1265735E+00
         21   -1    0    0  503  501  0.00000000000E+00  0.00000000000E+00  0.14043854919E+04  0.14043854919E+04  0.00000000000E+00 0. -1.
         21   -1    0    0  505  502 -0.00000000000E+00 -0.00000000000E+00 -0.70324496441E+02  0.70324496441E+02  0.00000000000E+00 0.  1.
         21    1    1    2  503  502  0.22882613888E+02 -0.20760062446E+02  0.20103947696E+03  0.20339976772E+03  0.00000000000E+00 0. -1.
         21    1    1    2  504  501 -0.12489289814E+03 -0.33254340329E+02  0.10661590654E+04  0.10739642638E+04  0.00000000000E+00 0. -1.
         21    1    1    2  505  506  0.22886579438E+02  0.47573307902E+02 -0.38561078395E+02  0.65375621681E+02  0.00000000000E+00 0.  1.
         21    1    1    2  506  504  0.79123704817E+02  0.64410948728E+01  0.10542353147E+03  0.13197033513E+03  0.00000000000E+00 0.  1.
<scales pt_clust_3="30.89651" pt_clust_4="107.25699" pt_clust_5="52.69522" pt_clust_6="14000.00000"></scales>
<clustering>
<clus scale="   30.897">  1  3  2 -1</clus>
<clus scale="   52.695">  2  5  1 -1</clus>
<clus scale="  107.257">  1  4  2 -1</clus>
<clus scale="   30.897">  1  3  2 -1</clus>
</clustering>
</event>
<event>
 6    0  0.4390142E+002  0.1278582E+03  0.7546771E-02  0.1230669E+00
         21   -1    0    0  506  501  0.00000000000E+00  0.00000000000E+00  0.10065804509E+03  0.10065804509E+03  0.00000000000E+00 0. -1.
         21   -1    0    0  504  502 -0.00000000000E+00 -0.00000000000E+00 -0.83845720821E+03  0.83845720821E+03  0.00000000000E+00 0. -1.
         21    1    1    2  503  502  0.12408017308E+03  0.37027247865E+02 -0.12845533212E+03  0.18239429483E+03  0.00000000000E+00 0. -1.
         21    1    1    2  504  505 -0.11297688180E+03 -0.60083150273E+02 -0.65238030876E+03  0.66481112207E+03  0.00000000000E+00 0. -1.
         21    1    1    2  505  501 -0.43281850095E+02  0.17617426002E+02  0.15572245950E+02  0.49256340612E+02  0.00000000000E+00 0. -1.
         21    1    1    2  506  503  0.32178558822E+02  0.54384764063E+01  0.27464231812E+02  0.42653495783E+02  0.00000000000E+00 0. -1.
<scales pt_clust_3="127.85818" pt_clust_4="14000.00000" pt_clust_5="34.08859" pt_clust_6="32.63490"></scales>
<clustering>
<clus scale="   32.635">  1  6  2 -1</clus>
<clus scale="   34.089">  1  5  2 -1</clus>
<clus scale="  127.858">  1  3  2 -1</clus>
<clus scale="   32.635">  1  3  2 -1</clus>
</clustering>
</event>
<event>
 6    0  0.4390142E+002  0.1645750E+03  0.7546771E-02  0.1183626E+00
         21   -1    0    0  503  501  0.00000000000E+00  0.00000000000E+00  0.79954966391E+03  0.79954966391E+03  0.00000000000E+00 0.  1.
         21   -1    0    0  506  502 -0.00000000000E+00 -0.00000000000E+00 -0.20987797923E+04  0.20987797923E+04  0.00000000000E+00 0.  1.
         21    1    1    2  503  502  0.16248532387E+02  0.26355104469E+02 -0.24145664481E+02  0.39263462016E+02  0.00000000000E+00 0.  1.
         21    1    1    2  504  501  0.14392682482E+02 -0.16434115756E+03  0.77818332885E+03  0.79547750357E+03  0.00000000000E+00 0.  1.
         21    1    1    2  505  504  0.14530073675E+02  0.12677396490E+03 -0.86017858483E+03  0.86959183472E+03  0.00000000000E+00 0.  1.
         21    1    1    2  506  505 -0.45171288543E+02  0.11212088195E+02 -0.11930892079E+04  0.11939966559E+04  0.00000000000E+00 0.  1.
<scales pt_clust_3="30.96137" pt_clust_4="164.57495" pt_clust_5="14000.00000" pt_clust_6="44.49047"></scales>
<clustering>
<clus scale="   30.961">  2  3  1 -1</clus>
<clus scale="   44.490">  2  6  1 -1</clus>
<clus scale="  164.575">  1  4  2 -1</clus>
<clus scale="  164.575">  1  3  2 -1</clus>
</clustering>
</event>
<event>
 6    0  0.4390142E+002  0.7898122E+02  0.7546771E-02  0.1331968E+00
         21   -1    0    0  505  501  0.00000000000E+00  0.00000000000E+00  0.11940306228E+03  0.11940306228E+03  0.00000000000E+00 0.  1.
         21   -1    0    0  504  502 -0.00000000000E+00 -0.00000000000E+00 -0.16410676147E+04  0.16410676147E+04  0.00000000000E+00 0.  1.
         21    1    1    2  503  502  0.24262119279E+02 -0.60664538162E+02 -0.70795124549E+03  0.71095977566E+03  0.00000000000E+00 0.  1.
         21    1    1    2  504  501  0.39482147591E+02 -0.15533248401E+02 -0.17927674443E+02  0.46059996691E+02  0.00000000000E+00 0.  1.
         21    1    1    2  505  506 -0.37048380205E+02 -0.31154628314E+02  0.94575693824E+02  0.10624384784E+03  0.00000000000E+00 0.  1.
         21    1    1    2  506  503 -0.26695886665E+02  0.10735241488E+03 -0.89036132634E+03  0.89720705680E+03  0.00000000000E+00 0.  1.
<scales pt_clust_3="78.98122" pt_clust_4="42.42784" pt_clust_5="45.96506" pt_clust_6="14000.00000"></scales>
<clustering>
<clus scale="   42.428">  1  4  2 -1</clus>
<clus scale="   45.965">  1  5  2 -1</clus>
<clus scale="   78.981">  2  3  1 -1</clus>
<clus scale="   42.428">  1  3  2 -1</clus>
</clustering>
</event>
<event>
 6    0  0.4390142E+002  0.4589918E+03  0.7546771E-02  0.1025074E+00
         21   -1    0    0  504  501  0.00000000000E+00  0.00000000000E+00  0.22072941431E+03  0.22072941431E+03  0.00000000000E+00 0. -1.
         21   -1    0    0  503  502 -0.00000000000E+00 -0.00000000000E+00 -0.10942572852E+04  0.10942572852E+04  0.00000000000E+00 0. -1.
         21    1    1    2  503  506  0.18028403699E+03  0.24714700270E+03 -0.57202786082E+03  0.64869087283E+03  0.00000000000E+00 0. -1.
         21    1    1    2  504  502 -0.26561439145E+03 -0.34588294718E+03 -0.15590704440E+03  0.46313391647E+03  0.00000000000E+00 0. -1.
         21    1    1    2  505  501  0.91152441967E+01  0.30235680804E+02 -0.98466479082E+01  0.33079306907E+02  0.00000000000E+00 0. -1.
         21    1    1    2  506  505  0.76215110259E+02  0.68500263675E+02 -0.13574631772E+03  0.17008260326E+03  0.00000000000E+00 0. -1.
<scales pt_clust_3="63.44052" pt_clust_4="436.10322" pt_clust_5="30.64510" pt_clust_6="63.44052"></scales>
<clustering>
<clus scale="   30.645">  5  6 -1 -1</clus>
<clus scale="   63.441">  3  5 -1 -1</clus>
<clus scale="  436.103">  1  4  2 -1</clus>
<clus scale="  436.103">  1  3  2 -1</clus>
</clustering>
</event>
<event>
 6    0  0.4390142E+002  0.1236353E+03  0.7546771E-02  0.1237218E+00
         21   -1    0    0  504  501  0.00000000000E+00  0.00000000000E+00  0.60728361033E+02  0.60728361033E+02  0.00000000000E+00 0. -1.
         21   -1    0    0  503  502 -0.00000000000E+00 -0.00000000000E+00 -0.84916338858E+03  0.84916338858E+03  0.00000000000E+00 0. -1.
         21    1    1    2  503  505 -0.73189922218E+02 -0.53588759324E+02 -0.54774381722E+03  0.55520429496E+03  0.00000000000E+00 0. -1.
         21    1    1    2  504  502  0.77777662760E+02 -0.76967141095E+02 -0.16030619306E+03  0.19409116715E+03  0.00000000000E+00 0. -1.
         21    1    1    2  505  506 -0.53262839476E+01  0.64961435653E+02 -0.67331078365E+02  0.93711426926E+02  0.00000000000E+00 0. -1.
         21    1    1    2  506  501  0.73854340608E+00  0.65594464766E+02 -0.13053938912E+02  0.66884860585E+02  0.00000000000E+00 0. -1.
<scales pt_clust_3="90.71119" pt_clust_4="114.11473" pt_clust_5="47.42427" pt_clust_6="47.42427"></scales>
<clustering>
<clus scale="   47.424">  5  6 -1 -1</clus>
<clus scale="   90.711">  2  3  1 -1</clus>
<clus scale="  114.115">  2  4  1 -1</clus>
<clus scale="  123.635">  1  3  2 -1</clus>
</clustering>
</event>
<event>
 6    0  0.4390142E+002  0.1405932E+03  0.7546771E-02  0.1212533E+00
         21   -1    0    0  506  501  0.00000000000E+00  0.00000000000E+00  0.54002642609E+03  0.54002642609E+03  0.00000000000E+00 0. -1.
         21   -1    0    0  505  502 -0.00000000000E+00 -0.00000000000E+00 -0.10751055999E+03  0.10751055999E+03  0.00000000000E+00 0. -1.
         21    1    1    2  503  502  0.95431353261E+02  0.36119293957E+02  0.65615597277E+02  0.12131427446E+03  0.00000000000E+00 0. -1.
         21    1    1    2  504  501 -0.12617950269E+03  0.19333489652E+02  0.34344751490E+03  0.36640311982E+03  0.00000000000E+00 0. -1.
         21    1    1    2  505  504 -0.23046783753E+02 -0.49871772810E+02 -0.46096656374E+02  0.71716453435E+02  0.00000000000E+00 0. -1.
         21    1    1    2  506  503  0.53794933180E+02 -0.55810107990E+01  0.69549410298E+02  0.88103138367E+02  0.00000000000E+00 0. -1.
<scales pt_clust_3="35.55466" pt_clust_4="131.83871" pt_clust_5="54.93949" pt_clust_6="35.55466"></scales>
<clustering>
<clus scale="   35.555">  3  6 -1 -1</clus>
<clus scale="   54.939">  2  5  1 -1</clus>
<clus scale="  131.839">  1  4  2 -1</clus>
<clus scale="  131.839">  1  3  2 -1</clus>
</clustering>
</event>
<event>
 6    0  0.4390142E+002  0.9324459E+02  0.7546771E-02  0.1295179E+00
         21   -1    0    0  506  501  0.00000000000E+00  0.00000000000E+00  0.12688905128E+04  0.12688905128E+04  0.00000000000E+00 0.  1.
         21   -1    0    0  504  502 -0.00000000000E+00 -0.00000000000E+00 -0.74054214271E+02  0.74054214271E+02  0.00000000000E+00 0.  1.
         21    1    1    2  503  502 -0.12416046906E+03 -0.30503383104E+02  0.35072600703E+03  0.37330284015E+03  0.00000000000E+00 0.  1.
         21    1    1    2  504  505  0.42920754685E+02 -0.23472691434E+02 -0.42588288057E+02  0.64860779409E+02  0.00000000000E+00 0.  1.
         21    1    1    2  505  501  0.27954033928E+02  0.84211529904E+02  0.25262168825E+03  0.26775124119E+03  0.00000000000E+00 0.  1.
         21    1    1    2  506  503  0.53285680451E+02 -0.30235455366E+02  0.63407689135E+03  0.63702986637E+03  0.00000000000E+00 0.  1.
<scales pt_clust_3="14000.00000" pt_clust_4="48.91992" pt_clust_5="93.24459" pt_clust_6="64.81870"></scales>
<clustering>
<clus scale="   48.920">  2  4  1 -1</clus>
<clus scale="   64.819">  1  6  2 -1</clus>
<clus scale="   93.245">  2  5  1 -1</clus>
<clus scale="   64.819">  1  3  2 -1</clus>
</clustering>
</event>
<event>
 6    0  0.4390142E+002  0.7157196E+02  0.7546771E-02  0.1354828E+00
         21   -1    0    0  503  501  0.00000000000E+00  0.00000000000E+00  0.99085749469E+03  0.99085749469E+03  0.00000000000E+00 0. -1.
         21   -1    0    0  506  502 -0.00000000000E+00 -0.00000000000E+00 -0.86419400563E+02  0.86419400563E+02  0.00000000000E+00 0. -1.
         21    1    1    2  503  504  0.45970470046E+02 -0.61888628313E+02  0.82411444121E+03  0.82771257007E+03  0.00000000000E+00 0. -1.
         21    1    1    2  504  505 -0.53081539928E+00  0.57375276505E+02  0.98941520780E+02  0.11437494766E+03  0.00000000000E+00 0.  1.
         21    1    1    2  505  502  0.85891327820E+01 -0.47507651370E+02  0.18254673483E+02  0.51613789288E+02  0.00000000000E+00 0. -1.
         21    1    1    2  506  501 -0.54028787429E+02  0.52021003178E+02 -0.36872541350E+02  0.83575588232E+02  0.00000000000E+00 0. -1.
<scales pt_clust_3="71.57196" pt_clust_4="14000.00000" pt_clust_5="48.27784" pt_clust_6="47.89098"></scales>
<clustering>
<clus scale="   48.278">  2  5  1 -1</clus>
<clus scale="   47.891">  2  6  1 -1</clus>
<clus scale="   71.572">  1  3  2 -1</clus>
<clus scale="   71.572">  1  3  2 -1</clus>
</clustering>
</event>
<event>
 6    0  0.4390142E+002  0.1811912E+03  0.7546771E-02  0.1166655E+00
         21   -1    0    0  506  501  0.00000000000E+00  0.00000000000E+00  0.28141758200E+03  0.28141758200E+03  0.00000000000E+00 0.  1.
         21   -1    0    0  504  502 -0.00000000000E+00 -0.00000000000E+00 -0.73179177903E+03  0.73179177903E+03  0.00000000000E+00 0.  1.
         21    1    1    2  503  505  0.41551402446E+02 -0.10305750714E+02  0.20716368442E+02  0.47559388815E+02  0.00000000000E+00 0.  1.
         21    1    1    2  504  503 -0.13189484301E+03  0.10841568479E+02 -0.40489192003E+03  0.42597095690E+03  0.00000000000E+00 0.  1.
         21    1    1    2  505  501  0.11520831471E+03 -0.62288457305E+02  0.21442979367E+03  0.25126269939E+03  0.00000000000E+00 0.  1.
         21    1    1    2  506  502 -0.24864874145E+02  0.61752639540E+02 -0.28062843911E+03  0.28841631593E+03  0.00000000000E+00 0.  1.
<scales pt_clust_3="36.86390" pt_clust_4="169.33062" pt_clust_5="36.86390" pt_clust_6="66.57064"></scales>
<clustering>
<clus scale="   36.864">  3  5 -1 -1</clus>
<clus scale="   66.571">  2  6  1 -1</clus>
<clus scale="  169.331">  2  4  1 -1</clus>
<clus scale="  181.191">  1  3  2 -1</clus>
</clustering>
</event>
<event>
 6    0  0.4390142E+002  0.2325286E+03  0.7546771E-02  0.1124873E+00
         21   -1    0    0  505  501  0.00000000000E+00  0.00000000000E+00  0.29139612663E+03  0.29139612663E+03  0.00000000000E+00 0. -1.
         21   -1    0    0  503  502 -0.00000000000E+00 -0.00000000000E+00 -0.72939945507E+03  0.72939945507E+03  0.00000000000E+00 0.  1.
         21    1    1    2  503  501  0.20068473998E+03  0.11318826142E+03  0.19240829744E+02  0.23120587560E+03  0.00000000000E+00 0. -1.
         21    1    1    2  504  506 -0.19050657359E+03  0.54925967371E+02  0.84280962028E+00  0.19826832022E+03  0.00000000000E+00 0. -1.
         21    1    1    2  505  504 -0.37295400120E+02  0.10841782598E+02  0.43358036989E+02  0.58210054901E+02  0.00000000000E+00 0. -1.
         21    1    1    2  506  502  0.27117233732E+02 -0.17895601139E+03 -0.50144500480E+03  0.53311133098E+03  0.00000000000E+00 0.  1.
<scales pt_clust_3="215.54870" pt_clust_4="38.60601" pt_clust_5="38.60601" pt_clust_6="180.99889"></scales>
<clustering>
<clus scale="   38.606">  4  5 -1 -1</clus>
<clus scale="  180.999">  2  6  1 -1</clus>
<clus scale="  215.549">  2  3  1 -1</clus>
<clus scale="  232.529">  1  3  2 -1</clus>
</clustering>
</event>
<event>
 6    0  0.4390142E+002  0.1046432E+03  0.7546771E-02  0.1270824E+00
         21   -1    0    0  504  501  0.00000000000E+00  0.00000000000E+00  0.95105536357E+03  0.95105536357E+03  0.00000000000E+00 0. -1.
         21   -1    0    0  501  502 -0.00000000000E+00 -0.00000000000E+00 -0.43826239019E+03  0.43826239019E+03  0.00000000000E+00 0.  1.
         21    1    1    2  503  506  0.14022222965E+03  0.97341069536E+02  0.22172789623E+03  0.27982283229E+03  0.00000000000E+00 0. -1.
         21    1    1    2  504  505 -0.33582293383E+02 -0.83389588402E+01  0.18654205117E+03  0.18972413004E+03  0.00000000000E+00 0.  1.
         21    1    1    2  505  503 -0.20021348465E+02 -0.79295123916E+02  0.50415442348E+03  0.51074480300E+03  0.00000000000E+00 0. -1.
         21    1    1    2  506  502 -0.86618587798E+02 -0.97069867801E+01 -0.39963139750E+03  0.40902598843E+03  0.00000000000E+00 0.  1.
<scales pt_clust_3="14000.00000" pt_clust_4="34.60215" pt_clust_5="104.64319" pt_clust_6="87.37200"></scales>
<clustering>
<clus scale="   34.602">  1  4  2 -1</clus>
<clus scale="   87.372">  2  6  1 -1</clus>
<clus scale="  104.643">  1  5  2 -1</clus>
<clus scale="   34.602">  1  3  2 -1</clus>
</clustering>
</event>
<event>
 6    0  0.4390142E+002  0.1255503E+03  0.7546771E-02  0.1234212E+00
         21   -1    0    0  505  501  0.00000000000E+00  0.00000000000E+00  0.21919033960E+03  0.21919033960E+03  0.00000000000E+00 0.  1.
         21   -1    0    0  504  502 -0.00000000000E+00 -0.00000000000E+00 -0.38477427005E+03  0.38477427005E+03  0.00000000000E+00 0.  1.
         21    1    1    2  503  506  0.29716844784E+02 -0.20627279277E+02  0.36664159673E+02  0.51505690160E+02  0.00000000000E+00 0.  1.
         21    1    1    2  504  503  0.70847973679E+02 -0.81706815959E+02 -0.17459920734E+03  0.20537848561E+03  0.00000000000E+00 0.  1.
         21    1    1    2  505  502 -0.15881721445E+03  0.95997624489E+02 -0.13177248625E+03  0.22760149307E+03  0.00000000000E+00 0.  1.
         21    1    1    2  506  501  0.58252395989E+02  0.63364707463E+01  0.10412360347E+03  0.11947894082E+03  0.00000000000E+00 0.  1.
<scales pt_clust_3="30.14259" pt_clust_4="125.55034" pt_clust_5="14000.00000" pt_clust_6="97.02860"></scales>
<clustering>
<clus scale="   30.143">  3  6 -1 -1</clus>
<clus scale="   97.029">  1  3  2 -1</clus>
<clus scale="  125.550">  2  4  1 -1</clus>
<clus scale="   97.029">  1  3  2 -1</clus>
</clustering>
</event>
<event>
 6    0  0.4390142E+002  0.1192121E+03  0.7546771E-02  0.1244403E+00
         21   -1    0    0  504  501  0.00000000000E+00  0.00000000000E+00  0.22070344903E+03  0.22070344903E+03  0.00000000000E+00 0. -1.
         21   -1    0    0  506  502 -0.00000000000E+00 -0.00000000000E+00 -0.13408642973E+03  0.13408642973E+03  0.00000000000E+00 0. -1.
         21    1    1    2  503  505  0.25240116914E+02 -0.68594895447E+02  0.73235184143E+02  0.10346842697E+03  0.00000000000E+00 0. -1.
         21    1    1    2  504  503  0.35557239098E+02 -0.85525498951E+01  0.31750977910E+02  0.48431270479E+02  0.00000000000E+00 0. -1.
         21    1    1    2  505  502  0.25768736560E+02 -0.20206097987E+02 -0.58099355626E+02  0.66692198223E+02  0.00000000000E+00 0. -1.
         21    1    1    2  506  501 -0.86566092572E+02  0.97353543328E+02  0.39730212869E+02  0.13619798308E+03  0.00000000000E+00 0. -1.
<scales pt_clust_3="34.90243" pt_clust_4="34.90243" pt_clust_5="32.74621" pt_clust_6="108.66531"></scales>
<clustering>
<clus scale="   32.746">  2  5  1 -1</clus>
<clus scale="   34.902">  3  4 -1 -1</clus>
<clus scale="  108.665">  2  6  1 -1</clus>
<clus scale="  119.212">  1  3  2 -1</clus>
</clustering>
</event>
<event>
 6    0  0.4390142E+002  0.8275099E+02  0.7546771E-02  0.1321421E+00
         21   -1    0    0  506  501  0.00000000000E+00  0.00000000000E+00  0.11325501614E+03  0.11325501614E+03  0.00000000000E+00 0.  1.
         21   -1    0    0  504  502 -0.00000000000E+00 -0.00000000000E+00 -0.24277550344E+03  0.24277550344E+03  0.00000000000E+00 0.  1.
         21    1    1    2  503  501 -0.48189900637E+01  0.31332054707E+02  0.44084833050E+00  0.31703543408E+02  0.00000000000E+00 0.  1.
         21    1    1    2  504  503 -0.40439125921E+02  0.86160719493E+01 -0.65559983101E+01  0.41863357664E+02  0.00000000000E+00 0.  1.
         21    1    1    2  505  502 -0.23191751468E+02  0.72333931672E+02 -0.13025263846E+03  0.15078396743E+03  0.00000000000E+00 0.  1.
         21    1    1    2  506  505  0.68449867452E+02 -0.11228205833E+03  0.68473011470E+01  0.13167965108E+03  0.00000000000E+00 0.  1.
<scales pt_clust_3="31.70048" pt_clust_4="43.72183" pt_clust_5="14000.00000" pt_clust_6="82.75099"></scales>
<clustering>
<clus scale="   31.700">  1  3  2 -1</clus>
<clus scale="   43.722">  1  4  2 -1</clus>
<clus scale="   82.751">  1  6  2 -1</clus>
<clus scale="   31.700">  1  3  2 -1</clus>
</clustering>
</event>
<event>
 6    0  0.4390142E+002  0.1141002E+03  0.7546771E-02  0.1253160E+00
         21   -1    0    0  503  501  0.00000000000E+00  0.00000000000E+00  0.82764864997E+03  0.82764864997E+03  0.00000000000E+00 0.  1.
         21   -1    0    0  504  502 -0.00000000000E+00 -0.00000000000E+00 -0.69518939201E+02  0.69518939201E+02  0.00000000000E+00 0.  1.
         21    1    1    2  503  505  0.53469041705E+01  0.81477330112E+02  0.13765156365E+03  0.16004717330E+03  0.00000000000E+00 0.  1.
         21    1    1    2  504  506 -0.17122464566E+02 -0.26552335897E+02 -0.94092084544E+01  0.32965717619E+02  0.00000000000E+00 0.  1.
         21    1    1    2  505  502  0.31717747662E+01  0.81336200105E+02  0.26635314364E+02  0.85645067423E+02  0.00000000000E+00 0.  1.
         21    1    1    2  506  501  0.86037856288E+01 -0.13626119432E+03  0.60325204121E+03  0.61850963083E+03  0.00000000000E+00 0.  1.
<scales pt_clust_3="14000.00000" pt_clust_4="31.59439" pt_clust_5="65.53255" pt_clust_6="114.10019"></scales>
<clustering>
<clus scale="   31.594">  2  4  1 -1</clus>
<clus scale="   65.533">  2  5  1 -1</clus>
<clus scale="  114.100">  1  6  2 -1</clus>
<clus scale="  114.100">  1  3  2 -1</clus>
</clustering>
</event>
<event>
 6    0  0.4390142E+002  0.1150688E+03  0.7546771E-02  0.1251461E+00
         21   -1    0    0  503  501  0.00000000000E+00  0.00000000000E+00  0.31240241138E+03  0.31240241138E+03  0.00000000000E+00 0. -1.
         21   -1    0    0  506  502 -0.00000000000E+00 -0.00000000000E+00 -0.28017429588E+03  0.28017429588E+03  0.00000000000E+00 0.  1.
         21    1    1    2  503  502  0.20099402687E+02 -0.22491939576E+02 -0.22131033907E+03  0.22335653004E+03  0.00000000000E+00 0.  1.
         21    1    1    2  504  505  0.23888645134E+02 -0.51039770974E+02  0.10909234775E+03  0.12278788998E+03  0.00000000000E+00 0. -1.
         21    1    1    2  505  501 -0.24745924073E+02 -0.47929466066E+02  0.10368563196E+03  0.11687730640E+03  0.00000000000E+00 0. -1.
         21    1    1    2  506  504 -0.19242123749E+02  0.12146117662E+03  0.40760474853E+02  0.12955498084E+03  0.00000000000E+00 0.  1.
<scales pt_clust_3="30.16411" pt_clust_4="46.79864" pt_clust_5="46.79864" pt_clust_6="104.26670"></scales>
<clustering>
<clus scale="   30.164">  2  3  1 -1</clus>
<clus scale="   46.799">  4  5 -1 -1</clus>
<clus scale="  104.267">  2  6  1 -1</clus>
<clus scale="  115.069">  1  3  2 -1</clus>
</clustering>
</event>
<event>
 6    0  0.4390142E+002  0.1271811E+03  0.7546771E-02  0.1231699E+00
         21   -1    0    0  503  501  0.00000000000E+00  0.00000000000E+00  0.12444368496E+03  0.12444368496E+03  0.00000000000E+00 0. -1.
         21   -1    0    0  504  502 -0.00000000000E+00 -0.00000000000E+00 -0.50849867093E+03  0.50849867093E+03  0.00000000000E+00 0. -1.
         21    1    1    2  503  502  0.18733515996E+02  0.33672819545E+02 -0.15969320078E+03  0.16427635793E+03  0.00000000000E+00 0. -1.
         21    1    1    2  504  506  0.93503006493E+02 -0.36243818159E+01 -0.30292653606E+03  0.31704957753E+03  0.00000000000E+00 0. -1.
         21    1    1    2  505  501 -0.61596358466E+02  0.89435677022E+01  0.21252268656E+02  0.65770492643E+02  0.00000000000E+00 0. -1.
         21    1    1    2  506  505 -0.50640164023E+02 -0.38992005431E+02  0.57312482212E+02  0.85845927784E+02  0.00000000000E+00 0. -1.
<scales pt_clust_3="38.53315" pt_clust_4="113.40136" pt_clust_5="57.09016" pt_clust_6="57.09016"></scales>
<clustering>
<clus scale="   38.533">  2  3  1 -1</clus>
<clus scale="   57.090">  5  6 -1 -1</clus>
<clus scale="  113.401">  2  4  1 -1</clus>
<clus scale="  127.181">  1  3  2 -1</clus>
</clustering>
</event>
<event>
 6    0  0.4390142E+002  0.8980490E+02  0.7546771E-02  0.1303325E+00
         21   -1    0    0  503  501  0.00000000000E+00  0.00000000000E+00  0.33793058870E+02  0.33793058870E+02  0.00000000000E+00 0. -1.
         21   -1    0    0  506  502 -0.00000000000E+00 -0.00000000000E+00 -0.12487090896E+04  0.12487090896E+04  0.00000000000E+00 0.  1.
         21    1    1    2  503  504 -0.16991174256E+02  0.25008015197E+02 -0.79664353988E+01  0.31266034601E+02  0.00000000000E+00 0. -1.
         21    1    1    2  504  502 -0.60234814861E+02 -0.97471671934E+02 -0.34005819649E+03  0.35884333176E+03  0.00000000000E+00 0. -1.
         21    1    1    2  505  501  0.47925344526E+02  0.57246032685E+02 -0.10002345211E+03  0.12481441375E+03  0.00000000000E+00 0. -1.
         21    1    1    2  506  505  0.29300644590E+02  0.15217624051E+02 -0.76686794673E+03  0.76757836836E+03  0.00000000000E+00 0.  1.
<scales pt_clust_3="30.23410" pt_clust_4="89.80490" pt_clust_5="14000.00000" pt_clust_6="32.96325"></scales>
<clustering>
<clus scale="   30.234">  1  3  2 -1</clus>
<clus scale="   32.963">  2  6  1 -1</clus>
<clus scale="   89.805">  2  4  1 -1</clus>
<clus scale="   30.234">  1  3  2 -1</clus>
</clustering>
</event>
<event>
 6    0  0.4390142E+002  0.6354309E+02  0.7546771E-02  0.1383537E+00
         21   -1    0    0  503  501  0.00000000000E+00  0.00000000000E+00  0.23936423113E+03  0.23936423113E+03  0.00000000000E+00 0.  1.
         21   -1    0    0  506  502 -0.00000000000E+00 -0.00000000000E+00 -0.14204280053E+03  0.14204280053E+03  0.00000000000E+00 0.  1.
         21    1    1    2  503  505 -0.35146368218E+02 -0.48884231169E+02  0.14170413005E+02  0.61852533179E+02  0.00000000000E+00 0.  1.
         21    1    1    2  504  502 -0.47231831710E+02 -0.39195353256E+02 -0.81935184602E+02  0.10237429423E+03  0.00000000000E+00 0.  1.
         21    1    1    2  505  504  0.84883444263E+02  0.46417367144E+02  0.13334552640E+03  0.16474465240E+03  0.00000000000E+00 0.  1.
         21    1    1    2  506  501 -0.25052443344E+01  0.41662217282E+02  0.31740675794E+02  0.52435551850E+02  0.00000000000E+00 0.  1.
<scales pt_clust_3="54.20978" pt_clust_4="14000.00000" pt_clust_5="63.54309" pt_clust_6="41.73747"></scales>
<clustering>
<clus scale="   41.737">  1  6  2 -1</clus>
<clus scale="   54.210">  1  3  2 -1</clus>
<clus scale="   63.543">  1  5  2 -1</clus>
<clus scale="   41.737">  1  3  2 -1</clus>
</clustering>
</event>
<event>
 6    0  0.4390142E+002  0.6914701E+02  0.7546771E-02  0.1363018E+00
         21   -1    0    0  506  501  0.00000000000E+00  0.00000000000E+00  0.17380176622E+03  0.17380176622E+03  0.00000000000E+00 0. -1.
         21   -1    0    0  505  502 -0.00000000000E+00 -0.00000000000E+00 -0.56835986629E+03  0.56835986629E+03  0.00000000000E+00 0. -1.
         21    1    1    2  503  501 -0.46563011792E+02  0.82676031211E+02  0.40367783770E+02  0.10311643017E+03  0.00000000000E+00 0. -1.
         21    1    1    2  504  502  0.34058263466E+02 -0.72615708000E+02 -0.22437960207E+03  0.23828388989E+03  0.00000000000E+00 0. -1.
         21    1    1    2  505  503 -0.46468712187E+02  0.58999777961E+01 -0.29379167468E+03  0.29750243539E+03  0.00000000000E+00 0. -1.
         21    1    1    2  506  504  0.58973460514E+02 -0.15960301007E+02  0.83245392904E+02  0.10325887707E+03  0.00000000000E+00 0. -1.
<scales pt_clust_3="14000.00000" pt_clust_4="69.14701" pt_clust_5="46.84177" pt_clust_6="59.39304"></scales>
<clustering>
<clus scale="   46.842">  2  5  1 -1</clus>
<clus scale="   59.393">  1  6  2 -1</clus>
<clus scale="   69.147">  2  4  1 -1</clus>
<clus scale="   59.393">  1  3  2 -1</clus>
</clustering>
</event>
<event>
 6    0  0.4390142E+002  0.1194088E+03  0.7546771E-02  0.1244076E+00
         21   -1    0    0  505  501  0.00000000000E+00  0.00000000000E+00  0.78822307376E+03  0.78822307376E+03  0.00000000000E+00 0.  1.
         21   -1    0    0  503  502 -0.00000000000E+00 -0.00000000000E+00 -0.81644053379E+03  0.81644053379E+03  0.00000000000E+00 0. -1.
         21    1    1    2  503  506 -0.30592140224E+02  0.46122872372E+01 -0.84476501759E+02  0.89963501413E+02  0.00000000000E+00 0.  1.
         21    1    1    2  504  502  0.11715567135E+03 -0.49679976419E+02 -0.64713746747E+03  0.65953047935E+03  0.00000000000E+00 0. -1.
         21    1    1    2  505  504 -0.29453044808E+02  0.11603714721E+03  0.74533228083E+03  0.75488562725E+03  0.00000000000E+00 0.  1.
         21    1    1    2  506  501 -0.57110486321E+02 -0.70969458029E+02 -0.41935771627E+02  0.10028399953E+03  0.00000000000E+00 0. -1.
<scales pt_clust_3="30.93788" pt_clust_4="119.40880" pt_clust_5="14000.00000" pt_clust_6="92.65137"></scales>
<clustering>
<clus scale="   30.938">  2  3  1 -1</clus>
<clus scale="   92.651">  2  6  1 -1</clus>
<clus scale="  119.409">  2  4  1 -1</clus>
<clus scale="  119.409">  1  3  2 -1</clus>
</clustering>
</event>
<event>
 6    0  0.4390142E+002  0.1073327E+03  0.7546771E-02  0.1265591E+00
         21   -1    0    0  506  501  0.00000000000E+00  0.00000000000E+00  0.96650407998E+03  0.96650407998E+03  0.00000000000E+00 0. -1.
         21   -1    0    0  503  502 -0.00000000000E+00 -0.00000000000E+00 -0.32926473510E+02  0.32926473510E+02  0.00000000000E+00 0. -1.
         21    1    1    2  503  504  0.42607725679E+01 -0.34322225138E+02  0.11993526764E+03  0.12482242485E+03  0.00000000000E+00 0. -1.
         21    1    1    2  504  501 -0.42260490622E+02 -0.69232468968E+02  0.57562376056E+03  0.58131041410E+03  0.00000000000E+00 0. -1.
         21    1    1    2  505  502 -0.33969017936E+02  0.63878792019E+02  0.49547863434E+02  0.87689138554E+02  0.00000000000E+00 0. -1.
         21    1    1    2  506  505  0.71968735990E+02  0.39675902087E+02  0.18847071484E+03  0.20560857598E+03  0.00000000000E+00 0. -1.
<scales pt_clust_3="33.63802" pt_clust_4="33.63802" pt_clust_5="72.34911" pt_clust_6="94.16278"></scales>
<clustering>
<clus scale="   33.638">  3  4 -1 -1</clus>
<clus scale="   72.349">  2  5  1 -1</clus>
<clus scale="   94.163">  2  6  1 -1</clus>
<clus scale="  107.333">  1  3  2 -1</clus>
</clustering>
</event>
<event>
 6    0  0.4390142E+002  0.1426293E+03  0.7546771E-02  0.1209834E+00
         21   -1    0    0  502  501  0.00000000000E+00  0.00000000000E+00  0.17965459139E+04  0.17965459139E+04  0.00000000000E+00 0.  1.
         21   -1    0    0  503  502 -0.00000000000E+00 -0.00000000000E+00 -0.40182371190E+02  0.40182371190E+02  0.00000000000E+00 0. -1.
         21    1    1    2  503  505 -0.19095759123E+02  0.47349681837E+02  0.82528672445E+02  0.97044433958E+02  0.00000000000E+00 0. -1.
         21    1    1    2  504  501  0.69543557012E+02  0.46752365128E+02  0.76770167967E+03  0.77226158712E+03  0.00000000000E+00 0.  1.
         21    1    1    2  505  506 -0.10626417833E+03 -0.10062397983E+03  0.15128852977E+03  0.21048866989E+03  0.00000000000E+00 0. -1.
         21    1    1    2  506  504  0.55816380443E+02  0.65219328659E+01  0.75484466082E+03  0.75693359412E+03  0.00000000000E+00 0.  1.
<scales pt_clust_3="51.05527" pt_clust_4="34.13275" pt_clust_5="136.40317" pt_clust_6="34.13275"></scales>
<clustering>
<clus scale="   34.133">  4  6 -1 -1</clus>
<clus scale="   51.055">  2  3  1 -1</clus>
<clus scale="  136.403">  2  5  1 -1</clus>
<clus scale="  142.629">  1  3  2 -1</clus>
</clustering>
</event>
<event>
 6    0  0.4390142E+002  0.1341357E+03  0.7546771E-02  0.1221445E+00
         21   -1    0    0  506  501  0.00000000000E+00  0.00000000000E+00  0.37502290862E+03  0.37502290862E+03  0.00000000000E+00 0.  1.
         21   -1    0    0  505  502 -0.00000000000E+00 -0.00000000000E+00 -0.34544218287E+03  0.34544218287E+03  0.00000000000E+00 0.  1.
         21    1    1    2  503  501 -0.75429230518E+02 -0.47403513722E+02 -0.14281386302E+03  0.16832249226E+03  0.00000000000E+00 0.  1.
         21    1    1    2  504  502  0.52618678888E+02  0.80123928462E+01  0.19000900181E+03  0.19732294488E+03  0.00000000000E+00 0.  1.
         21    1    1    2  505  503 -0.51715654495E+02  0.12212200041E+02 -0.17266374887E+03  0.18065552004E+03  0.00000000000E+00 0.  1.
         21    1    1    2  506  504  0.74526206126E+02  0.27178920835E+02  0.15504933583E+03  0.17416413430E+03  0.00000000000E+00 0.  1.
<scales pt_clust_3="128.29361" pt_clust_4="32.07290" pt_clust_5="53.13800" pt_clust_6="32.07290"></scales>
<clustering>
<clus scale="   32.073">  4  6 -1 -1</clus>
<clus scale="   53.138">  2  5  1 -1</clus>
<clus scale="  128.294">  2  3  1 -1</clus>
<clus scale="  134.136">  1  3  2 -1</clus>
</clustering>
</event>
<event>
 6    0  0.4390142E+002  0.1615861E+03  0.7546771E-02  0.1186918E+00
         21   -1    0    0  502  501  0.00000000000E+00  0.00000000000E+00  0.83500769634E+03  0.83500769634E+03  0.00000000000E+00 0. -1.
         21   -1    0    0  505  502 -0.00000000000E+00 -0.00000000000E+00 -0.10054194466E+03  0.10054194466E+03  0.00000000000E+00 0. -1.
         21    1    1    2  503  506  0.41521162294E+02 -0.49996255457E+02  0.19119840278E+03  0.20194172849E+03  0.00000000000E+00 0. -1.
         21    1    1    2  504  503 -0.92216506260E+02  0.36605132236E+02  0.46960658004E+02  0.10976849791E+03  0.00000000000E+00 0. -1.
         21    1    1    2  505  504 -0.51725900906E+02  0.33731413793E+02 -0.42527964289E+02  0.74980029658E+02  0.00000000000E+00 0. -1.
         21    1    1    2  506  501  0.10242124487E+03 -0.20340290572E+02  0.53883465518E+03  0.54885938494E+03  0.00000000000E+00 0. -1.
<scales pt_clust_3="56.26970" pt_clust_4="144.99190" pt_clust_5="61.75255" pt_clust_6="56.26970"></scales>
<clustering>
<clus scale="   56.270">  3  6 -1 -1</clus>
<clus scale="   61.753">  2  5  1 -1</clus>
<clus scale="  144.992">  2  4  1 -1</clus>
<clus scale="  161.586">  1  3  2 -1</clus>
</clustering>
</event>
<event>
 6    0  0.4390142E+002  0.3352581E+03  0.7546771E-02  0.1068834E+00
         21   -1    0    0  502  501  0.00000000000E+00  0.00000000000E+00  0.24207694848E+03  0.24207694848E+03  0.00000000000E+00 0. -1.
         21   -1    0    0  505  502 -0.00000000000E+00 -0.00000000000E+00 -0.58959912615E+03  0.58959912615E+03  0.00000000000E+00 0. -1.
         21    1    1    2  503  504 -0.31315271960E+03  0.11146088531E+03 -0.13631237423E+03  0.35926204658E+03  0.00000000000E+00 0. -1.
         21    1    1    2  504  506  0.18289799457E+03 -0.28950417060E+02 -0.59204505607E+02  0.19440930161E+03  0.00000000000E+00 0. -1.
         21    1    1    2  505  503  0.39432810249E+02  0.20201693570E+02 -0.13225879045E+03  0.13948276811E+03  0.00000000000E+00 0.  1.
         21    1    1    2  506  501  0.90821914773E+02 -0.10271216182E+03 -0.19746507381E+02  0.13852195834E+03  0.00000000000E+00 0. -1.
<scales pt_clust_3="316.29990" pt_clust_4="93.83536" pt_clust_5="44.30638" pt_clust_6="93.83536"></scales>
<clustering>
<clus scale="   44.306">  2  5  1 -1</clus>
<clus scale="   93.835">  4  6 -1 -1</clus>
<clus scale="  316.300">  2  3  1 -1</clus>
<clus scale="  335.258">  1  3  2 -1</clus>
</clustering>
</event>
<event>
 6    0  0.4390142E+002  0.1218292E+03  0.7546771E-02  0.1240110E+00
         21   -1    0    0  503  501  0.00000000000E+00  0.00000000000E+00  0.20355781819E+04  0.20355781819E+04  0.00000000000E+00 0. -1.
         21   -1    0    0  504  502 -0.00000000000E+00 -0.00000000000E+00 -0.40107275046E+03  0.40107275046E+03  0.00000000000E+00 0. -1.
         21    1    1    2  503  505 -0.12589567312E+03 -0.56065064613E+02  0.75903855427E+03  0.77144833842E+03  0.00000000000E+00 0. -1.
         21    1    1    2  504  506 -0.20760459862E+02 -0.28224941706E+02 -0.38442179911E+03  0.38601523760E+03  0.00000000000E+00 0. -1.
         21    1    1    2  505  502  0.12224841756E+03 -0.60002776480E+01  0.57041817307E+03  0.58340172359E+03  0.00000000000E+00 0. -1.
         21    1    1    2  506  501  0.24407715426E+02  0.90290283967E+02  0.68947050322E+03  0.69578563276E+03  0.00000000000E+00 0. -1.
<scales pt_clust_3="14000.00000" pt_clust_4="35.03775" pt_clust_5="121.82917" pt_clust_6="87.06219"></scales>
<clustering>
<clus scale="   35.038">  2  4  1 -1</clus>
<clus scale="   87.062">  1  6  2 -1</clus>
<clus scale="  121.829">  2  5  1 -1</clus>
<clus scale="   87.062">  1  3  2 -1</clus>
</clustering>
</event>
<event>
 6    0  0.4390142E+002  0.1060156E+03  0.7546771E-02  0.1268131E+00
         21   -1    0    0  506  501  0.00000000000E+00  0.00000000000E+00  0.15645861259E+04  0.15645861259E+04  0.00000000000E+00 0.  1.
         21   -1    0    0  504  502 -0.00000000000E+00 -0.00000000000E+00 -0.22309863862E+03  0.22309863862E+03  0.00000000000E+00 0. -1.
         21    1    1    2  503  505  0.37013826549E+02  0.62436092336E+02  0.10918364572E+04  0.10942463792E+04  0.00000000000E+00 0.  1.
         21    1    1    2  504  503 -0.87239362320E+02 -0.89956742128E+02 -0.36701743370E+02  0.13057541790E+03  0.00000000000E+00 0. -1.
         21    1    1    2  505  501 -0.14986835811E+02  0.29211776718E+02  0.41623024922E+03  0.41752311734E+03  0.00000000000E+00 0.  1.
         21    1    1    2  506  502  0.65212371582E+02 -0.16911269267E+01 -0.12987747579E+03  0.14533985012E+03  0.00000000000E+00 0. -1.
<scales pt_clust_3="32.23587" pt_clust_4="94.56225" pt_clust_5="32.23587" pt_clust_6="65.23430"></scales>
<clustering>
<clus scale="   32.236">  3  5 -1 -1</clus>
<clus scale="   65.234">  2  6  1 -1</clus>
<clus scale="   94.562">  2  4  1 -1</clus>
<clus scale="  106.016">  1  3  2 -1</clus>
</clustering>
</event>
<event>
 6    0  0.4390142E+002  0.1416490E+03  0.7546771E-02  0.1211127E+00
         21   -1    0    0  503  501  0.00000000000E+00  0.00000000000E+00  0.58980747139E+03  0.58980747139E+03  0.00000000000E+00 0.  1.
         21   -1    0    0  506  502 -0.00000000000E+00 -0.00000000000E+00 -0.18899623329E+03  0.18899623329E+03  0.00000000000E+00 0. -1.
         21    1    1    2  503  505  0.78867668559E+02 -0.47784837037E+02  0.43952158740E+03  0.44909099922E+03  0.00000000000E+00 0.  1.
         21    1    1    2  504  501 -0.94167963680E+02  0.24959050705E+02 -0.81293525935E+02  0.12688261092E+03  0.00000000000E+00 0. -1.
         21    1    1    2  505  502  0.43210633068E+02 -0.46703249910E+01  0.11365104740E+03  0.12167798207E+03  0.00000000000E+00 0.  1.
         21    1    1    2  506  504 -0.27910337947E+02  0.27496111323E+02 -0.71067870766E+02  0.81152112465E+02  0.00000000000E+00 0. -1.
<scales pt_clust_3="140.63167" pt_clust_4="31.13120" pt_clust_5="31.62948" pt_clust_6="31.13120"></scales>
<clustering>
<clus scale="   31.131">  4  6 -1 -1</clus>
<clus scale="   31.629">  3  5 -1 -1</clus>
<clus scale="  140.632">  1  3  2 -1</clus>
<clus scale="  140.632">  1  3  2 -1</clus>
</clustering>
</event>
<event>
 6    0  0.4390142E+002  0.1392350E+03  0.7546771E-02  0.1214362E+00
         21   -1    0    0  504  501  0.00000000000E+00  0.00000000000E+00  0.43647916032E+03  0.43647916032E+03  0.00000000000E+00 0.  1.
         21   -1    0    0  503  502 -0.00000000000E+00 -0.00000000000E+00 -0.87559261553E+02  0.87559261553E+02  0.00000000000E+00 0. -1.
         21    1    1    2  503  506 -0.29859862420E+02  0.56319073375E+01 -0.14098677148E+02  0.33497797858E+02  0.00000000000E+00 0. -1.
         21    1    1    2  504  502  0.87946579566E+02 -0.10413851064E+03  0.33852935238E+03  0.36494047826E+03  0.00000000000E+00 0.  1.
         21    1    1    2  505  501 -0.42752927136E+02  0.46289169018E+02  0.31983448860E+02  0.70664283397E+02  0.00000000000E+00 0. -1.
         21    1    1    2  506  505 -0.15333790010E+02  0.52217434281E+02 -0.74942253264E+01  0.54935862351E+02  0.00000000000E+00 0. -1.
<scales pt_clust_3="30.38634" pt_clust_4="131.48507" pt_clust_5="43.12498" pt_clust_6="43.12498"></scales>
<clustering>
<clus scale="   30.386">  2  3  1 -1</clus>
<clus scale="   43.125">  5  6 -1 -1</clus>
<clus scale="  131.485">  1  4  2 -1</clus>
<clus scale="  131.485">  1  3  2 -1</clus>
</clustering>
</event>
<event>
 6    0  0.4470294E+002  0.7803252E+02  0.7546771E-02  0.1334729E+00
         21   -1    0    0  504  501  0.00000000000E+00  0.00000000000E+00  0.47421047537E+03  0.47421047537E+03  0.00000000000E+00 0. -1.
         21   -1    0    0  505  502 -0.00000000000E+00 -0.00000000000E+00 -0.22472897397E+04  0.22472897397E+04  0.00000000000E+00 0.  1.
         21    1    1    2  503  506 -0.10611717981E+03  0.60632304082E+02  0.11110495364E+02  0.12272153542E+03  0.00000000000E+00 0. -1.
         21    1    1    2  504  503  0.23109678834E+02 -0.25104683808E+02  0.83470034027E+02  0.90175101804E+02  0.00000000000E+00 0. -1.
         21    1    1    2  505  501  0.53115778765E+02  0.98558387650E+01  0.31785506910E+03  0.32241319524E+03  0.00000000000E+00 0. -1.
         21    1    1    2  506  502  0.29891722213E+02 -0.45383459038E+02 -0.21855148628E+04  0.21861903826E+04  0.00000000000E+00 0.  1.
<scales pt_clust_3="14000.00000" pt_clust_4="34.12188" pt_clust_5="78.03252" pt_clust_6="54.37247"></scales>
<clustering>
<clus scale="   34.122">  1  4  2 -1</clus>
<clus scale="   54.372">  2  6  1 -1</clus>
<clus scale="   78.033">  1  5  2 -1</clus>
<clus scale="   34.122">  1  3  2 -1</clus>
</clustering>
</event>
<event>
 6    0  0.4390142E+002  0.1687293E+03  0.7546771E-02  0.1179179E+00
         21   -1    0    0  503  501  0.00000000000E+00  0.00000000000E+00  0.39101152203E+04  0.39101152203E+04  0.00000000000E+00 0.  1.
         21   -1    0    0  505  502 -0.00000000000E+00 -0.00000000000E+00 -0.29255213665E+03  0.29255213665E+03  0.00000000000E+00 0.  1.
         21    1    1    2  503  506 -0.31506217847E+02  0.11057318671E+02  0.29837884107E+03  0.30024130106E+03  0.00000000000E+00 0. -1.
         21    1    1    2  504  501  0.44365492533E+02  0.72879780118E+02  0.33030943489E+04  0.33041961257E+04  0.00000000000E+00 0.  1.
         21    1    1    2  505  504 -0.11600466730E+03 -0.20908688038E+03  0.22866766183E+03  0.33085239300E+03  0.00000000000E+00 0.  1.
         21    1    1    2  506  502  0.10314539261E+03  0.12514978159E+03 -0.21257776819E+03  0.26737753716E+03  0.00000000000E+00 0.  1.
<scales pt_clust_3="33.39021" pt_clust_4="84.43868" pt_clust_5="14000.00000" pt_clust_6="168.72930"></scales>
<clustering>
<clus scale="   33.390">  1  3  2 -1</clus>
<clus scale="   84.439">  1  4  2 -1</clus>
<clus scale="  168.729">  2  6  1 -1</clus>
<clus scale="   33.390">  1  3  2 -1</clus>
</clustering>
</event>
<event>
 6    0  0.4390142E+002  0.1080178E+03  0.7546771E-02  0.1264285E+00
         21   -1    0    0  506  501  0.00000000000E+00  0.00000000000E+00  0.93953950194E+02  0.93953950194E+02  0.00000000000E+00 0.  1.
         21   -1    0    0  505  502 -0.00000000000E+00 -0.00000000000E+00 -0.35194433756E+04  0.35194433756E+04  0.00000000000E+00 0.  1.
         21    1    1    2  503  504 -0.62144701311E+02  0.24792478502E+01 -0.47710688351E+02  0.78386353110E+02  0.00000000000E+00 0.  1.
         21    1    1    2  504  501 -0.71003001034E+02  0.33028265647E+02 -0.12210668001E+02  0.79255238947E+02  0.00000000000E+00 0.  1.
         21    1    1    2  505  503  0.76578575977E+02 -0.58731185305E+02 -0.33889230433E+04  0.33902968931E+04  0.00000000000E+00 0.  1.
         21    1    1    2  506  502  0.56569126368E+02  0.23223671808E+02  0.23354974225E+02  0.65458840590E+02  0.00000000000E+00 0.  1.
<scales pt_clust_3="42.47149" pt_clust_4="42.47149" pt_clust_5="96.93631" pt_clust_6="61.15067"></scales>
<clustering>
<clus scale="   42.471">  3  4 -1 -1</clus>
<clus scale="   61.151">  1  6  2 -1</clus>
<clus scale="   96.936">  2  5  1 -1</clus>
<clus scale="   61.151">  1  3  2 -1</clus>
</clustering>
</event>
<event>
 6    0  0.4390142E+002  0.1301523E+03  0.7546771E-02  0.1227230E+00
         21   -1    0    0  505  501  0.00000000000E+00  0.00000000000E+00  0.57076327631E+03  0.57076327631E+03  0.00000000000E+00 0. -1.
         21   -1    0    0  504  502 -0.00000000000E+00 -0.00000000000E+00 -0.37943053498E+03  0.37943053498E+03  0.00000000000E+00 0.  1.
         21    1    1    2  503  501  0.66369391355E+02  0.10803171646E+03  0.32312359083E+03  0.34710892069E+03  0.00000000000E+00 0. -1.
         21    1    1    2  504  506 -0.77453495091E+02  0.23933918340E+01 -0.24038618412E+03  0.25256739644E+03  0.00000000000E+00 0.  1.
         21    1    1    2  505  502  0.62236212695E+02 -0.18599534889E+03  0.15326805917E+03  0.24891507375E+03  0.00000000000E+00 0. -1.
         21    1    1    2  506  503 -0.51152108960E+02  0.75570240594E+02 -0.44672724556E+02  0.10160242041E+03  0.00000000000E+00 0. -1.
<scales pt_clust_3="14000.00000" pt_clust_4="77.49047" pt_clust_5="130.15234" pt_clust_6="121.25328"></scales>
<clustering>
<clus scale="   77.490">  2  4  1 -1</clus>
<clus scale="  121.253">  2  6  1 -1</clus>
<clus scale="  130.152">  2  5  1 -1</clus>
<clus scale="  130.152">  1  3  2 -1</clus>
</clustering>
</event>
<event>
 6    0  0.4390142E+002  0.7746932E+02  0.7546771E-02  0.1336390E+00
         21   -1    0    0  504  501  0.00000000000E+00  0.00000000000E+00  0.13918433475E+04  0.13918433475E+04  0.00000000000E+00 0. -1.
         21   -1    0    0  506  502 -0.00000000000E+00 -0.00000000000E+00 -0.28366241046E+02  0.28366241046E+02  0.00000000000E+00 0. -1.
         21    1    1    2  503  501  0.11135345509E+02  0.32293208544E+02  0.63870130433E+03  0.63961410505E+03  0.00000000000E+00 0. -1.
         21    1    1    2  504  505 -0.75427845422E+02 -0.65257574358E+02  0.24544161333E+03  0.26493300367E+03  0.00000000000E+00 0. -1.
         21    1    1    2  505  502  0.57911176671E+02 -0.26781637514E+02  0.47184820848E+02  0.79355956360E+02  0.00000000000E+00 0. -1.
         21    1    1    2  506  503  0.63813232419E+01  0.59746003328E+02  0.43214936792E+03  0.43630652343E+03  0.00000000000E+00 0. -1.
<scales pt_clust_3="34.15915" pt_clust_4="77.46932" pt_clust_5="63.57844" pt_clust_6="14000.00000"></scales>
<clustering>
<clus scale="   34.159">  1  3  2 -1</clus>
<clus scale="   63.578">  2  5  1 -1</clus>
<clus scale="   77.469">  2  4  1 -1</clus>
<clus scale="   34.159">  1  3  2 -1</clus>
</clustering>
</event>
<event>
 6    0  0.4390142E+002  0.8270080E+02  0.7546771E-02  0.1321557E+00
         21   -1    0    0  505  501  0.00000000000E+00  0.00000000000E+00  0.39019037758E+03  0.39019037758E+03  0.00000000000E+00 0. -1.
         21   -1    0    0  504  502 -0.00000000000E+00 -0.00000000000E+00 -0.64384550696E+03  0.64384550696E+03  0.00000000000E+00 0.  1.
         21    1    1    2  503  501 -0.57291068724E+02 -0.25643098688E+02  0.29282495957E+03  0.29947669694E+03  0.00000000000E+00 0. -1.
         21    1    1    2  504  503  0.51063230127E+02  0.65610513567E+02 -0.23720734675E+03  0.25135536261E+03  0.00000000000E+00 0. -1.
         21    1    1    2  505  506  0.34025241233E+01  0.51185242343E+02  0.73547927689E+02  0.89670529560E+02  0.00000000000E+00 0. -1.
         21    1    1    2  506  502  0.28253144738E+01 -0.91152657222E+02 -0.38282066989E+03  0.39353329543E+03  0.00000000000E+00 0.  1.
<scales pt_clust_3="58.90747" pt_clust_4="14000.00000" pt_clust_5="51.29821" pt_clust_6="82.70080"></scales>
<clustering>
<clus scale="   51.298">  1  5  2 -1</clus>
<clus scale="   58.907">  1  3  2 -1</clus>
<clus scale="   82.701">  2  6  1 -1</clus>
<clus scale="   51.298">  1  3  2 -1</clus>
</clustering>
</event>
<event>
 6    0  0.4390142E+002  0.2163159E+03  0.7546771E-02  0.1136660E+00
         21   -1    0    0  504  501  0.00000000000E+00  0.00000000000E+00  0.26709408048E+03  0.26709408048E+03  0.00000000000E+00 0. -1.
         21   -1    0    0  506  502 -0.00000000000E+00 -0.00000000000E+00 -0.45260960433E+03  0.45260960433E+03  0.00000000000E+00 0. -1.
         21    1    1    2  503  501 -0.18740898114E+02 -0.80591938583E+02  0.95536312771E+02  0.12638618945E+03  0.00000000000E+00 0. -1.
         21    1    1    2  504  502  0.40956167030E+02 -0.94698727130E+01 -0.75379597250E+02  0.86308573088E+02  0.00000000000E+00 0.  1.
         21    1    1    2  505  503  0.66051482409E+02 -0.10852311438E+03  0.78443333008E+02  0.14930981608E+03  0.00000000000E+00 0. -1.
         21    1    1    2  506  505 -0.88266751325E+02  0.19858492568E+03 -0.28411557238E+03  0.35769910619E+03  0.00000000000E+00 0. -1.
<scales pt_clust_3="70.21286" pt_clust_4="42.03672" pt_clust_5="70.21286" pt_clust_6="197.62594"></scales>
<clustering>
<clus scale="   42.037">  2  4  1 -1</clus>
<clus scale="   70.213">  3  5 -1 -1</clus>
<clus scale="  197.626">  2  6  1 -1</clus>
<clus scale="  216.316">  1  3  2 -1</clus>
</clustering>
</event>
<event>
 6    0  0.4390142E+002  0.5956902E+02  0.7546771E-02  0.1399649E+00
         21   -1    0    0  505  501  0.00000000000E+00  0.00000000000E+00  0.57099236203E+03  0.57099236203E+03  0.00000000000E+00 0.  1.
         21   -1    0    0  503  502 -0.00000000000E+00 -0.00000000000E+00 -0.38393246739E+02  0.38393246739E+02  0.00000000000E+00 0. -1.
         21    1    1    2  503  501  0.11053989307E+02  0.52163778361E+02  0.10363431951E+03  0.11654751234E+03  0.00000000000E+00 0.  1.
         21    1    1    2  504  506  0.83350206932E+02 -0.81738373336E+00  0.23847928646E+03  0.25262679031E+03  0.00000000000E+00 0.  1.
         21    1    1    2  505  504 -0.39078939603E+02 -0.43193233605E+02  0.17155104794E+03  0.18117003340E+03  0.00000000000E+00 0.  1.
         21    1    1    2  506  502 -0.55325256636E+02 -0.81531610226E+01  0.18934461369E+02  0.59041272715E+02  0.00000000000E+00 0. -1.
<scales pt_clust_3="53.32214" pt_clust_4="59.56902" pt_clust_5="41.88373" pt_clust_6="14000.00000"></scales>
<clustering>
<clus scale="   53.322">  1  3  2 -1</clus>
<clus scale="   41.884">  1  5  2 -1</clus>
<clus scale="   59.569">  1  4  2 -1</clus>
<clus scale="   53.322">  1  3  2 -1</clus>
</clustering>
</event>
<event>
 6    0  0.4390142E+002  0.1809595E+03  0.7546771E-02  0.1166878E+00
         21   -1    0    0  504  501  0.00000000000E+00  0.00000000000E+00  0.11504819797E+03  0.11504819797E+03  0.00000000000E+00 0.  1.
         21   -1    0    0  505  502 -0.00000000000E+00 -0.00000000000E+00 -0.76100927982E+03  0.76100927982E+03  0.00000000000E+00 0.  1.
         21    1    1    2  503  501 -0.58882075922E+01  0.64499002489E+02 -0.70613681217E+02  0.95817974753E+02  0.00000000000E+00 0. -1.
         21    1    1    2  504  506  0.20729930328E+02  0.28368642132E+02 -0.63680369061E+01  0.35708006971E+02  0.00000000000E+00 0.  1.
         21    1    1    2  505  503 -0.26377353743E+02 -0.18048762073E+03 -0.61738525178E+03  0.64376711250E+03  0.00000000000E+00 0.  1.
         21    1    1    2  506  502  0.11535631007E+02  0.87619976111E+02  0.48405888046E+02  0.10076438356E+03  0.00000000000E+00 0.  1.
<scales pt_clust_3="64.76722" pt_clust_4="30.65123" pt_clust_5="174.30787" pt_clust_6="30.65123"></scales>
<clustering>
<clus scale="   30.651">  4  6 -1 -1</clus>
<clus scale="   64.767">  1  3  2 -1</clus>
<clus scale="  174.308">  2  5  1 -1</clus>
<clus scale="   64.767">  1  3  2 -1</clus>
</clustering>
</event>
<event>
 6    0  0.4390142E+002  0.1854478E+03  0.7546771E-02  0.1162632E+00
         21   -1    0    0  505  501  0.00000000000E+00  0.00000000000E+00  0.14959513258E+03  0.14959513258E+03  0.00000000000E+00 0. -1.
         21   -1    0    0  506  502 -0.00000000000E+00 -0.00000000000E+00 -0.61115932923E+03  0.61115932923E+03  0.00000000000E+00 0. -1.
         21    1    1    2  503  501  0.51083595864E+01 -0.49193412853E+02  0.58094751636E+01  0.49797963889E+02  0.00000000000E+00 0. -1.
         21    1    1    2  504  502  0.74731839334E+02 -0.23671554528E+01 -0.21794170520E+03  0.23041058591E+03  0.00000000000E+00 0. -1.
         21    1    1    2  505  504  0.74468745817E+02  0.84636516400E+02 -0.29539415471E+03  0.31617501585E+03  0.00000000000E+00 0. -1.
         21    1    1    2  506  503 -0.15430894474E+03 -0.33075948094E+02  0.45962188095E+02  0.16437089616E+03  0.00000000000E+00 0. -1.
<scales pt_clust_3="49.45793" pt_clust_4="65.17722" pt_clust_5="65.17722" pt_clust_6="167.86254"></scales>
<clustering>
<clus scale="   49.458">  1  3  2 -1</clus>
<clus scale="   65.177">  4  5 -1 -1</clus>
<clus scale="  167.863">  1  6  2 -1</clus>
<clus scale="   49.458">  1  3  2 -1</clus>
</clustering>
</event>
<event>
 6    0  0.4390142E+002  0.8677104E+02  0.7546771E-02  0.1310865E+00
         21   -1    0    0  503  501  0.00000000000E+00  0.00000000000E+00  0.32283069643E+03  0.32283069643E+03  0.00000000000E+00 0.  1.
         21   -1    0    0  504  502 -0.00000000000E+00 -0.00000000000E+00 -0.24594916406E+03  0.24594916406E+03  0.00000000000E+00 0.  1.
         21    1    1    2  503  506 -0.11386471774E+03 -0.73011768179E+02  0.96169521240E+02  0.16596526460E+03  0.00000000000E+00 0.  1.
         21    1    1    2  504  505  0.78579275830E+02  0.40297108854E+02 -0.17025824384E+03  0.19179788624E+03  0.00000000000E+00 0.  1.
         21    1    1    2  505  501  0.45577022623E+02  0.61282485105E+02  0.16168624651E+03  0.17881624726E+03  0.00000000000E+00 0.  1.
         21    1    1    2  506  502 -0.10291580711E+02 -0.28567825780E+02 -0.10715991540E+02  0.32200462388E+02  0.00000000000E+00 0.  1.
<scales pt_clust_3="86.77104" pt_clust_4="72.36866" pt_clust_5="14000.00000" pt_clust_6="30.36507"></scales>
<clustering>
<clus scale="   30.365">  2  6  1 -1</clus>
<clus scale="   72.369">  2  4  1 -1</clus>
<clus scale="   86.771">  2  3  1 -1</clus>
<clus scale="   86.771">  1  3  2 -1</clus>
</clustering>
</event>
<event>
 6    0  0.4390142E+002  0.1155494E+03  0.7546771E-02  0.1250625E+00
         21   -1    0    0  506  501  0.00000000000E+00  0.00000000000E+00  0.33812058197E+03  0.33812058197E+03  0.00000000000E+00 0. -1.
         21   -1    0    0  505  502 -0.00000000000E+00 -0.00000000000E+00 -0.10750198649E+04  0.10750198649E+04  0.00000000000E+00 0.  1.
         21    1    1    2  503  504  0.55101987016E+02 -0.85140516672E+02  0.17756808314E+03  0.20448853440E+03  0.00000000000E+00 0. -1.
         21    1    1    2  504  502  0.14552658777E+02  0.15496899916E+03 -0.89766580212E+02  0.17968085458E+03  0.00000000000E+00 0. -1.
         21    1    1    2  505  501 -0.19771444790E+02 -0.41586774774E+02 -0.91817016558E+03  0.91932411196E+03  0.00000000000E+00 0.  1.
         21    1    1    2  506  503 -0.49883201004E+02 -0.28241707717E+02  0.93469379749E+02  0.10964694591E+03  0.00000000000E+00 0. -1.
<scales pt_clust_3="115.54945" pt_clust_4="14000.00000" pt_clust_5="46.04747" pt_clust_6="59.28990"></scales>
<clustering>
<clus scale="   46.047">  2  5  1 -1</clus>
<clus scale="   59.290">  1  6  2 -1</clus>
<clus scale="  115.549">  1  3  2 -1</clus>
<clus scale="   59.290">  1  3  2 -1</clus>
</clustering>
</event>
<event>
 6    0  0.4390142E+002  0.1202913E+03  0.7546771E-02  0.1242617E+00
         21   -1    0    0  504  501  0.00000000000E+00  0.00000000000E+00  0.19881684747E+04  0.19881684747E+04  0.00000000000E+00 0. -1.
         21   -1    0    0  506  502 -0.00000000000E+00 -0.00000000000E+00 -0.21347507368E+02  0.21347507368E+02  0.00000000000E+00 0. -1.
         21    1    1    2  503  502  0.21754675097E+01  0.56256450708E+02  0.55149007306E+03  0.55435622265E+03  0.00000000000E+00 0. -1.
         21    1    1    2  504  503  0.38600652072E+02  0.58165432273E+02  0.11463413090E+04  0.11484648992E+04  0.00000000000E+00 0. -1.
         21    1    1    2  505  501 -0.56078417486E+02 -0.60359970586E+02  0.20823804146E+03  0.22394462902E+03  0.00000000000E+00 0. -1.
         21    1    1    2  506  505  0.15302297904E+02 -0.54061912394E+02  0.60751543728E+02  0.82750231167E+02  0.00000000000E+00 0. -1.
<scales pt_clust_3="42.24891" pt_clust_4="42.24891" pt_clust_5="110.70991" pt_clust_6="56.18586"></scales>
<clustering>
<clus scale="   42.249">  3  4 -1 -1</clus>
<clus scale="   56.186">  2  6  1 -1</clus>
<clus scale="  110.710">  2  5  1 -1</clus>
<clus scale="  120.291">  1  3  2 -1</clus>
</clustering>
</event>
<event>
 6    0  0.4390142E+002  0.2537152E+03  0.7546771E-02  0.1110979E+00
         21   -1    0    0  506  501  0.00000000000E+00  0.00000000000E+00  0.76939863485E+03  0.76939863485E+03  0.00000000000E+00 0. -1.
         21   -1    0    0  503  502 -0.00000000000E+00 -0.00000000000E+00 -0.61418056450E+03  0.61418056450E+03  0.00000000000E+00 0.  1.
         21    1    1    2  503  501  0.20418433243E+03  0.18612991006E+03 -0.54065597438E+03  0.60716098990E+03  0.00000000000E+00 0.  1.
         21    1    1    2  504  505 -0.72467878320E+02 -0.45963644792E+02  0.29513154729E+03  0.30735464896E+03  0.00000000000E+00 0. -1.
         21    1    1    2  505  502 -0.11454443202E+02 -0.28404688880E+02 -0.53034478530E+01  0.31083069002E+02  0.00000000000E+00 0. -1.
         21    1    1    2  506  504 -0.12026201091E+03 -0.11176157639E+03  0.40604594529E+03  0.43798049148E+03  0.00000000000E+00 0. -1.
<scales pt_clust_3="250.03770" pt_clust_4="31.09397" pt_clust_5="30.62729" pt_clust_6="31.09397"></scales>
<clustering>
<clus scale="   30.627">  2  5  1 -1</clus>
<clus scale="   31.094">  4  6 -1 -1</clus>
<clus scale="  250.038">  2  3  1 -1</clus>
<clus scale="  253.715">  1  3  2 -1</clus>
</clustering>
</event>
<event>
 6    0  0.4390142E+002  0.1330166E+03  0.7546771E-02  0.1223047E+00
         21   -1    0    0  506  501  0.00000000000E+00  0.00000000000E+00  0.81370793662E+03  0.81370793662E+03  0.00000000000E+00 0.  1.
         21   -1    0    0  503  502 -0.00000000000E+00 -0.00000000000E+00 -0.21186738482E+03  0.21186738482E+03  0.00000000000E+00 0.  1.
         21    1    1    2  503  501 -0.13059377186E+02  0.75597544658E+02  0.59121601329E+03  0.59617271865E+03  0.00000000000E+00 0.  1.
         21    1    1    2  504  502  0.11377091450E+03  0.60753172353E+02 -0.11102217635E+03  0.17017841396E+03  0.00000000000E+00 0.  1.
         21    1    1    2  505  504 -0.10472377569E+03 -0.10637498775E+03  0.16933798215E+02  0.15023135736E+03  0.00000000000E+00 0.  1.
         21    1    1    2  506  505  0.40122383781E+01 -0.29975729260E+02  0.10471291663E+03  0.10899283146E+03  0.00000000000E+00 0.  1.
<scales pt_clust_3="51.34322" pt_clust_4="133.01656" pt_clust_5="14000.00000" pt_clust_6="30.24306"></scales>
<clustering>
<clus scale="   30.243">  1  6  2 -1</clus>
<clus scale="   51.343">  1  3  2 -1</clus>
<clus scale="  133.017">  2  4  1 -1</clus>
<clus scale="   30.243">  1  3  2 -1</clus>
</clustering>
</event>
<event>
 6    0  0.4390142E+002  0.1665674E+03  0.7546771E-02  0.1181475E+00
         21   -1    0    0  503  501  0.00000000000E+00  0.00000000000E+00  0.27435029475E+03  0.27435029475E+03  0.00000000000E+00 0. -1.
         21   -1    0    0  505  502 -0.00000000000E+00 -0.00000000000E+00 -0.29814878720E+03  0.29814878720E+03  0.00000000000E+00 0. -1.
         21    1    1    2  503  502 -0.60868494237E+02  0.16323929465E+03  0.78836164809E+02  0.19122547370E+03  0.00000000000E+00 0. -1.
         21    1    1    2  504  506  0.30967375871E+02  0.31445106475E+02  0.49594189077E+02  0.66387925708E+02  0.00000000000E+00 0. -1.
         21    1    1    2  505  504  0.35581126542E+01 -0.16658273989E+03 -0.19555518889E+03  0.25691302283E+03  0.00000000000E+00 0. -1.
         21    1    1    2  506  501  0.26343005712E+02 -0.28101661238E+02  0.43326342560E+02  0.57972659711E+02  0.00000000000E+00 0.  1.
<scales pt_clust_3="166.56743" pt_clust_4="44.85847" pt_clust_5="14000.00000" pt_clust_6="38.51827"></scales>
<clustering>
<clus scale="   38.518">  1  6  2 -1</clus>
<clus scale="   44.858">  1  4  2 -1</clus>
<clus scale="  166.567">  1  3  2 -1</clus>
<clus scale="   38.518">  1  3  2 -1</clus>
</clustering>
</event>
<event>
 6    0  0.4390142E+002  0.6671239E+02  0.7546771E-02  0.1371644E+00
         21   -1    0    0  506  501  0.00000000000E+00  0.00000000000E+00  0.80065522158E+03  0.80065522158E+03  0.00000000000E+00 0.  1.
         21   -1    0    0  503  502 -0.00000000000E+00 -0.00000000000E+00 -0.73748300178E+03  0.73748300178E+03  0.00000000000E+00 0.  1.
         21    1    1    2  503  504 -0.40944889926E+02 -0.39957719972E+01 -0.66304779763E+03  0.66432283729E+03  0.00000000000E+00 0.  1.
         21    1    1    2  504  505 -0.76383311875E+02  0.13469491436E+02  0.40798490697E+03  0.41529209220E+03  0.00000000000E+00 0.  1.
         21    1    1    2  505  501  0.43124993888E+02 -0.48828587388E+02  0.35920897599E+03  0.36506860243E+03  0.00000000000E+00 0.  1.
         21    1    1    2  506  502  0.74203207912E+02  0.39354867949E+02 -0.40973865527E+02  0.93454691439E+02  0.00000000000E+00 0.  1.
<scales pt_clust_3="41.13940" pt_clust_4="66.71239" pt_clust_5="14000.00000" pt_clust_6="51.36166"></scales>
<clustering>
<clus scale="   41.139">  2  3  1 -1</clus>
<clus scale="   51.362">  2  6  1 -1</clus>
<clus scale="   66.712">  2  4  1 -1</clus>
<clus scale="   66.712">  1  3  2 -1</clus>
</clustering>
</event>
<event>
 6    0  0.4390142E+002  0.2327894E+03  0.7546771E-02  0.1124692E+00
         21   -1    0    0  504  501  0.00000000000E+00  0.00000000000E+00  0.36314897411E+03  0.36314897411E+03  0.00000000000E+00 0. -1.
         21   -1    0    0  503  502 -0.00000000000E+00 -0.00000000000E+00 -0.12515204235E+04  0.12515204235E+04  0.00000000000E+00 0. -1.
         21    1    1    2  503  506 -0.64241268684E+02 -0.23250613011E+03 -0.10888421870E+04  0.11152413861E+04  0.00000000000E+00 0. -1.
         21    1    1    2  504  502  0.33428182969E+02  0.80772256150E+02  0.22032086791E+03  0.23702929274E+03  0.00000000000E+00 0. -1.
         21    1    1    2  505  501  0.76379226280E+02  0.42286052418E+02  0.71409074899E+02  0.11278808631E+03  0.00000000000E+00 0. -1.
         21    1    1    2  506  505 -0.45566140565E+02  0.10944782154E+03 -0.91259205205E+02  0.14961063245E+03  0.00000000000E+00 0. -1.
<scales pt_clust_3="14000.00000" pt_clust_4="232.78936" pt_clust_5="87.30347" pt_clust_6="119.96044"></scales>
<clustering>
<clus scale="   87.303">  1  5  2 -1</clus>
<clus scale="  119.960">  1  6  2 -1</clus>
<clus scale="  232.789">  1  4  2 -1</clus>
<clus scale="   87.303">  1  3  2 -1</clus>
</clustering>
</event>
<event>
 6    0  0.4390142E+002  0.1505847E+03  0.7546771E-02  0.1199756E+00
         21   -1    0    0  506  501  0.00000000000E+00  0.00000000000E+00  0.32541049608E+04  0.32541049608E+04  0.00000000000E+00 0. -1.
         21   -1    0    0  503  502 -0.00000000000E+00 -0.00000000000E+00 -0.31408841880E+03  0.31408841880E+03  0.00000000000E+00 0. -1.
         21    1    1    2  503  504  0.12034119073E+02  0.29428166135E+02 -0.14913288764E+02  0.35117562069E+02  0.00000000000E+00 0. -1.
         21    1    1    2  504  501  0.92510203006E+02 -0.16855424811E+03  0.15847152730E+04  0.15963367967E+04  0.00000000000E+00 0. -1.
         21    1    1    2  505  502  0.14345711720E+02  0.69139946690E+02 -0.27593084319E+03  0.28482268501E+03  0.00000000000E+00 0. -1.
         21    1    1    2  506  505 -0.11889003380E+03  0.69986135286E+02  0.16461454009E+04  0.16519163357E+04  0.00000000000E+00 0. -1.
<scales pt_clust_3="31.79366" pt_clust_4="150.58469" pt_clust_5="101.08838" pt_clust_6="14000.00000"></scales>
<clustering>
<clus scale="   31.794">  2  3  1 -1</clus>
<clus scale="  101.088">  2  5  1 -1</clus>
<clus scale="  150.585">  2  4  1 -1</clus>
<clus scale="  150.585">  1  3  2 -1</clus>
</clustering>
</event>
<event>
 6    0  0.4390142E+002  0.1247781E+03  0.7546771E-02  0.1235417E+00
         21   -1    0    0  504  501  0.00000000000E+00  0.00000000000E+00  0.41096217735E+03  0.41096217735E+03  0.00000000000E+00 0.  1.
         21   -1    0    0  505  502 -0.00000000000E+00 -0.00000000000E+00 -0.13808142026E+03  0.13808142026E+03  0.00000000000E+00 0. -1.
         21    1    1    2  503  502  0.25162665048E+02  0.26914176907E+02  0.15236664484E+01  0.36876200866E+02  0.00000000000E+00 0. -1.
         21    1    1    2  504  503  0.12286305907E+03 -0.51056801913E+02  0.30591440577E+03  0.33359519175E+03  0.00000000000E+00 0.  1.
         21    1    1    2  505  506 -0.71571061104E+02 -0.33093086767E+02 -0.24336175350E+02  0.82521625105E+02  0.00000000000E+00 0. -1.
         21    1    1    2  506  501 -0.76454663009E+02  0.57235711773E+02 -0.10221139783E+02  0.96050579887E+02  0.00000000000E+00 0. -1.
<scales pt_clust_3="36.84471" pt_clust_4="14000.00000" pt_clust_5="64.00101" pt_clust_6="124.77808"></scales>
<clustering>
<clus scale="   36.845">  2  3  1 -1</clus>
<clus scale="   64.001">  2  5  1 -1</clus>
<clus scale="  124.778">  2  6  1 -1</clus>
<clus scale="  124.778">  1  3  2 -1</clus>
</clustering>
</event>
<event>
 6    0  0.4390142E+002  0.1035999E+03  0.7546771E-02  0.1272903E+00
         21   -1    0    0  505  501  0.00000000000E+00  0.00000000000E+00  0.11848289641E+03  0.11848289641E+03  0.00000000000E+00 0. -1.
         21   -1    0    0  501  502 -0.00000000000E+00 -0.00000000000E+00 -0.45933324127E+03  0.45933324127E+03  0.00000000000E+00 0. -1.
         21    1    1    2  503  504 -0.31699435722E+02 -0.36194723938E+02  0.11504005637E+02  0.49469732279E+02  0.00000000000E+00 0. -1.
         21    1    1    2  504  506  0.83269781769E+02  0.11065931715E+03 -0.25775851293E+03  0.29260688990E+03  0.00000000000E+00 0. -1.
         21    1    1    2  505  503 -0.19774239598E+02 -0.37195145011E+02  0.60144558975E+02  0.73429335680E+02  0.00000000000E+00 0. -1.
         21    1    1    2  506  502 -0.31796106449E+02 -0.37269448201E+02 -0.15474039654E+03  0.16231017983E+03  0.00000000000E+00 0. -1.
<scales pt_clust_3="41.16060" pt_clust_4="93.79707" pt_clust_5="41.16060" pt_clust_6="48.98984"></scales>
<clustering>
<clus scale="   41.161">  3  5 -1 -1</clus>
<clus scale="   48.990">  2  6  1 -1</clus>
<clus scale="   93.797">  2  4  1 -1</clus>
<clus scale="  103.600">  1  3  2 -1</clus>
</clustering>
</event>
<event>
 6    0  0.4390142E+002  0.8982648E+02  0.7546771E-02  0.1303272E+00
         21   -1    0    0  506  501  0.00000000000E+00  0.00000000000E+00  0.24627473480E+02  0.24627473480E+02  0.00000000000E+00 0.  1.
         21   -1    0    0  504  502 -0.00000000000E+00 -0.00000000000E+00 -0.13283837760E+04  0.13283837760E+04  0.00000000000E+00 0.  1.
         21    1    1    2  503  502  0.14185631050E+03 -0.36431981688E+01 -0.56037903827E+03  0.57806673685E+03  0.00000000000E+00 0.  1.
         21    1    1    2  504  505 -0.65651195416E+02 -0.24678917471E+02 -0.51289628151E+03  0.51766951235E+03  0.00000000000E+00 0.  1.
         21    1    1    2  505  501 -0.51096562290E+02  0.55030495204E+02 -0.12758714693E+03  0.14804625676E+03  0.00000000000E+00 0.  1.
         21    1    1    2  506  503 -0.25108552792E+02 -0.26708379564E+02 -0.10289383577E+03  0.10922874348E+03  0.00000000000E+00 0. -1.
<scales pt_clust_3="89.82648" pt_clust_4="73.81735" pt_clust_5="14000.00000" pt_clust_6="36.65756"></scales>
<clustering>
<clus scale="   36.658">  1  6  2 -1</clus>
<clus scale="   73.817">  2  4  1 -1</clus>
<clus scale="   89.826">  2  3  1 -1</clus>
<clus scale="   36.658">  1  3  2 -1</clus>
</clustering>
</event>
<event>
 6    0  0.4390142E+002  0.1091168E+03  0.7546771E-02  0.1262214E+00
         21   -1    0    0  504  501  0.00000000000E+00  0.00000000000E+00  0.78766748301E+03  0.78766748301E+03  0.00000000000E+00 0.  1.
         21   -1    0    0  503  502 -0.00000000000E+00 -0.00000000000E+00 -0.30752174252E+02  0.30752174252E+02  0.00000000000E+00 0.  1.
         21    1    1    2  503  506 -0.27006121881E+02  0.31605278335E+02  0.34896692643E+02  0.54277098256E+02  0.00000000000E+00 0.  1.
         21    1    1    2  504  502  0.79426647895E+02  0.58797044288E+02  0.13941159485E+03  0.17088381314E+03  0.00000000000E+00 0.  1.
         21    1    1    2  505  501 -0.73244097019E+01 -0.49788505984E+02  0.30196372253E+03  0.30612845674E+03  0.00000000000E+00 0.  1.
         21    1    1    2  506  505 -0.45096116312E+02 -0.40613816639E+02  0.28064329874E+03  0.28713028913E+03  0.00000000000E+00 0.  1.
<scales pt_clust_3="41.57192" pt_clust_4="101.49865" pt_clust_5="36.47584" pt_clust_6="36.47584"></scales>
<clustering>
<clus scale="   36.476">  5  6 -1 -1</clus>
<clus scale="   41.572">  2  3  1 -1</clus>
<clus scale="  101.499">  2  4  1 -1</clus>
<clus scale="  109.117">  1  3  2 -1</clus>
</clustering>
</event>
<event>
 6    0  0.4390142E+002  0.1019680E+03  0.7546771E-02  0.1276211E+00
         21   -1    0    0  503  501  0.00000000000E+00  0.00000000000E+00  0.24358710902E+03  0.24358710902E+03  0.00000000000E+00 0. -1.
         21   -1    0    0  504  502 -0.00000000000E+00 -0.00000000000E+00 -0.40079125905E+04  0.40079125905E+04  0.00000000000E+00 0. -1.
         21    1    1    2  503  505  0.14536044819E+03 -0.82663748348E+02  0.13286762777E+03  0.21358080836E+03  0.00000000000E+00 0. -1.
         21    1    1    2  504  506 -0.91344763416E+02  0.11993309729E+03 -0.38205585259E+04  0.38235317788E+04  0.00000000000E+00 0. -1.
         21    1    1    2  505  502  0.21332827004E+02 -0.50263485891E+02 -0.11613127534E+03  0.12832763005E+03  0.00000000000E+00 0.  1.
         21    1    1    2  506  501 -0.75348511777E+02  0.12994136946E+02  0.39496691984E+02  0.86059482334E+02  0.00000000000E+00 0. -1.
<scales pt_clust_3="14000.00000" pt_clust_4="101.96801" pt_clust_5="54.60318" pt_clust_6="76.28410"></scales>
<clustering>
<clus scale="   54.603">  2  5  1 -1</clus>
<clus scale="   76.284">  1  6  2 -1</clus>
<clus scale="  101.968">  2  4  1 -1</clus>
<clus scale="   76.284">  1  3  2 -1</clus>
</clustering>
</event>
<event>
 6    0  0.4390142E+002  0.1091994E+03  0.7546771E-02  0.1262060E+00
         21   -1    0    0  505  501  0.00000000000E+00  0.00000000000E+00  0.56992708574E+02  0.56992708574E+02  0.00000000000E+00 0.  1.
         21   -1    0    0  504  502 -0.00000000000E+00 -0.00000000000E+00 -0.62283143249E+03  0.62283143249E+03  0.00000000000E+00 0. -1.
         21    1    1    2  503  502  0.12263657982E+03  0.65121398551E+02 -0.35531464525E+03  0.38148266590E+03  0.00000000000E+00 0. -1.
         21    1    1    2  504  506 -0.50427882722E+02  0.15745272029E+02 -0.15070151917E+03  0.15969293293E+03  0.00000000000E+00 0. -1.
         21    1    1    2  505  503 -0.79427425844E+02 -0.51380616923E+02 -0.47910478364E+02  0.10603818986E+03  0.00000000000E+00 0.  1.
         21    1    1    2  506  501  0.72187287481E+01 -0.29486053657E+02 -0.11912081140E+02  0.32610352376E+02  0.00000000000E+00 0. -1.
<scales pt_clust_3="109.19938" pt_clust_4="51.37876" pt_clust_5="14000.00000" pt_clust_6="30.35683"></scales>
<clustering>
<clus scale="   30.357">  1  6  2 -1</clus>
<clus scale="   51.379">  2  4  1 -1</clus>
<clus scale="  109.199">  2  3  1 -1</clus>
<clus scale="   30.357">  1  3  2 -1</clus>
</clustering>
</event>
<event>
 6    0  0.4390142E+002  0.1468624E+03  0.7546771E-02  0.1204382E+00
         21   -1    0    0  506  501  0.00000000000E+00  0.00000000000E+00  0.36644616195E+03  0.36644616195E+03  0.00000000000E+00 0.  1.
         21   -1    0    0  504  502 -0.00000000000E+00 -0.00000000000E+00 -0.46367541545E+03  0.46367541545E+03  0.00000000000E+00 0.  1.
         21    1    1    2  503  502 -0.31838591671E+02 -0.52333311441E+01 -0.12348900444E+03  0.12763470489E+03  0.00000000000E+00 0.  1.
         21    1    1    2  504  505  0.21942904997E+02 -0.37134287078E+02  0.55272998366E+02  0.70110988474E+02  0.00000000000E+00 0.  1.
         21    1    1    2  505  501  0.86488868318E+02 -0.40164057154E+02  0.28407666675E+03  0.29965484883E+03  0.00000000000E+00 0.  1.
         21    1    1    2  506  503 -0.76593181643E+02  0.82531675376E+02 -0.31308991418E+03  0.33272103522E+03  0.00000000000E+00 0.  1.
<scales pt_clust_3="32.09106" pt_clust_4="41.65494" pt_clust_5="41.65494" pt_clust_6="146.03512"></scales>
<clustering>
<clus scale="   32.091">  3  6 -1 -1</clus>
<clus scale="   41.655">  4  5 -1 -1</clus>
<clus scale="  146.035">  2  3  1 -1</clus>
<clus scale="  146.862">  1  3  2 -1</clus>
</clustering>
</event>
<event>
 6    0  0.4390142E+002  0.1058522E+03  0.7546771E-02  0.1268450E+00
         21   -1    0    0  503  501  0.00000000000E+00  0.00000000000E+00  0.26799187429E+03  0.26799187429E+03  0.00000000000E+00 0.  1.
         21   -1    0    0  504  502 -0.00000000000E+00 -0.00000000000E+00 -0.21673520725E+03  0.21673520725E+03  0.00000000000E+00 0. -1.
         21    1    1    2  503  502 -0.30910210139E+02 -0.26735552594E+02 -0.56928861768E+02  0.70079427549E+02  0.00000000000E+00 0. -1.
         21    1    1    2  504  505  0.43210369626E+02 -0.63887462861E+01 -0.99373178038E+02  0.10854943867E+03  0.00000000000E+00 0. -1.
         21    1    1    2  505  506  0.43797227169E+02 -0.70714459538E+02  0.21751115276E+02  0.85975827482E+02  0.00000000000E+00 0. -1.
         21    1    1    2  506  501 -0.56097386656E+02  0.10383875842E+03  0.18580759157E+03  0.22012238783E+03  0.00000000000E+00 0.  1.
<scales pt_clust_3="40.86846" pt_clust_4="33.10868" pt_clust_5="14000.00000" pt_clust_6="105.85216"></scales>
<clustering>
<clus scale="   40.868">  2  3  1 -1</clus>
<clus scale="   33.109">  2  4  1 -1</clus>
<clus scale="  105.852">  1  6  2 -1</clus>
<clus scale="  105.852">  1  3  2 -1</clus>
</clustering>
</event>
<event>
 6    0  0.4390142E+002  0.7685202E+02  0.7546771E-02  0.1338230E+00
         21   -1    0    0  506  501  0.00000000000E+00  0.00000000000E+00  0.44027638379E+02  0.44027638379E+02  0.00000000000E+00 0.  1.
         21   -1    0    0  503  502 -0.00000000000E+00 -0.00000000000E+00 -0.31125248152E+04  0.31125248152E+04  0.00000000000E+00 0.  1.
         21    1    1    2  503  504  0.40828905507E+02 -0.33430308214E+02 -0.26809195078E+04  0.26814387914E+04  0.00000000000E+00 0.  1.
         21    1    1    2  504  501 -0.73374051862E+02 -0.18380425882E+02 -0.21191090451E+02  0.78553509513E+02  0.00000000000E+00 0.  1.
         21    1    1    2  505  502 -0.31140240817E+02 -0.10322830764E+02 -0.23862722055E+03  0.24087180370E+03  0.00000000000E+00 0.  1.
         21    1    1    2  506  505  0.63685387172E+02  0.62133564861E+02 -0.12775935801E+03  0.15568834889E+03  0.00000000000E+00 0.  1.
<scales pt_clust_3="44.64295" pt_clust_4="76.85202" pt_clust_5="32.80664" pt_clust_6="14000.00000"></scales>
<clustering>
<clus scale="   32.807">  2  5  1 -1</clus>
<clus scale="   44.643">  2  3  1 -1</clus>
<clus scale="   76.852">  1  4  2 -1</clus>
<clus scale="   76.852">  1  3  2 -1</clus>
</clustering>
</event>
<event>
 6    0  0.4390142E+002  0.1307104E+03  0.7546771E-02  0.1226405E+00
         21   -1    0    0  506  501  0.00000000000E+00  0.00000000000E+00  0.51268431291E+03  0.51268431291E+03  0.00000000000E+00 0.  1.
         21   -1    0    0  505  502 -0.00000000000E+00 -0.00000000000E+00 -0.88170827404E+02  0.88170827404E+02  0.00000000000E+00 0.  1.
         21    1    1    2  503  501  0.46485831062E+02  0.12058402951E+03  0.38945713333E+03  0.41033924911E+03  0.00000000000E+00 0.  1.
         21    1    1    2  504  503  0.18910100665E+02 -0.43530186156E+02  0.29972982677E+02  0.56132421153E+02  0.00000000000E+00 0.  1.
         21    1    1    2  505  504 -0.40710571054E+02 -0.37400626025E+02  0.46284196798E+02  0.72099821746E+02  0.00000000000E+00 0.  1.
         21    1    1    2  506  502 -0.24685360673E+02 -0.39653217331E+02 -0.41200827294E+02  0.62283648304E+02  0.00000000000E+00 0.  1.
<scales pt_clust_3="116.11170" pt_clust_4="54.41006" pt_clust_5="54.41006" pt_clust_6="46.70915"></scales>
<clustering>
<clus scale="   46.709">  2  6  1 -1</clus>
<clus scale="   54.410">  4  5 -1 -1</clus>
<clus scale="  116.112">  1  3  2 -1</clus>
<clus scale="  116.112">  1  3  2 -1</clus>
</clustering>
</event>
<event>
 6    0  0.4390142E+002  0.1854408E+03  0.7546771E-02  0.1162639E+00
         21   -1    0    0  505  501  0.00000000000E+00  0.00000000000E+00  0.93230393887E+03  0.93230393887E+03  0.00000000000E+00 0. -1.
         21   -1    0    0  504  502 -0.00000000000E+00 -0.00000000000E+00 -0.12564057084E+03  0.12564057084E+03  0.00000000000E+00 0.  1.
         21    1    1    2  503  501  0.90087727509E+02 -0.16358992305E+03  0.14066256158E+03  0.23380209109E+03  0.00000000000E+00 0.  1.
         21    1    1    2  504  503 -0.59187022024E+02 -0.15910870062E+02 -0.40668363961E+02  0.73553893095E+02  0.00000000000E+00 0.  1.
         21    1    1    2  505  506  0.45715338324E+02 -0.46225806322E+01  0.72801926917E+02  0.86089377815E+02  0.00000000000E+00 0. -1.
         21    1    1    2  506  502 -0.76616043809E+02  0.18412337374E+03  0.63386724350E+03  0.66449914771E+03  0.00000000000E+00 0. -1.
<scales pt_clust_3="185.44075" pt_clust_4="60.46113" pt_clust_5="45.94845" pt_clust_6="14000.00000"></scales>
<clustering>
<clus scale="   45.948">  1  5  2 -1</clus>
<clus scale="   60.461">  2  4  1 -1</clus>
<clus scale="  185.441">  2  3  1 -1</clus>
<clus scale="   45.948">  1  3  2 -1</clus>
</clustering>
</event>
<event>
 6    0  0.4390142E+002  0.1519487E+03  0.7546771E-02  0.1198099E+00
         21   -1    0    0  504  501  0.00000000000E+00  0.00000000000E+00  0.34417161037E+03  0.34417161037E+03  0.00000000000E+00 0.  1.
         21   -1    0    0  503  502 -0.00000000000E+00 -0.00000000000E+00 -0.44948755316E+03  0.44948755316E+03  0.00000000000E+00 0. -1.
         21    1    1    2  503  505 -0.35734847956E+02 -0.66733519409E+01 -0.27420737043E+03  0.27660657076E+03  0.00000000000E+00 0. -1.
         21    1    1    2  504  506  0.35821726254E+02  0.14964000648E+03  0.24691295053E+03  0.29093183523E+03  0.00000000000E+00 0.  1.
         21    1    1    2  505  501 -0.49481699364E+02  0.10815730479E+02 -0.16280161681E+02  0.53202088888E+02  0.00000000000E+00 0. -1.
         21    1    1    2  506  502  0.49394821065E+02 -0.15378238501E+03 -0.61741361200E+02  0.17291866866E+03  0.00000000000E+00 0. -1.
<scales pt_clust_3="36.35262" pt_clust_4="151.94871" pt_clust_5="57.40216" pt_clust_6="14000.00000"></scales>
<clustering>
<clus scale="   36.353">  2  3  1 -1</clus>
<clus scale="   57.402">  2  5  1 -1</clus>
<clus scale="  151.949">  1  4  2 -1</clus>
<clus scale="  151.949">  1  3  2 -1</clus>
</clustering>
</event>
<event>
 6    0  0.4390142E+002  0.1477784E+03  0.7546771E-02  0.1203230E+00
         21   -1    0    0  503  501  0.00000000000E+00  0.00000000000E+00  0.11764040897E+04  0.11764040897E+04  0.00000000000E+00 0. -1.
         21   -1    0    0  505  502 -0.00000000000E+00 -0.00000000000E+00 -0.15215451267E+03  0.15215451267E+03  0.00000000000E+00 0.  1.
         21    1    1    2  503  506  0.40312219209E+02  0.23812081080E+01  0.60899707400E+02  0.73072016059E+02  0.00000000000E+00 0.  1.
         21    1    1    2  504  501 -0.66430281471E+02 -0.74307212804E+02  0.81448288373E+03  0.82055890225E+03  0.00000000000E+00 0. -1.
         21    1    1    2  505  504 -0.34383807664E+02 -0.50844754991E+02  0.25465104080E+03  0.26194386406E+03  0.00000000000E+00 0.  1.
         21    1    1    2  506  502  0.60501869927E+02  0.12277075969E+03 -0.10578405492E+03  0.17298381998E+03  0.00000000000E+00 0.  1.
<scales pt_clust_3="40.38249" pt_clust_4="45.04838" pt_clust_5="45.04838" pt_clust_6="137.47753"></scales>
<clustering>
<clus scale="   40.382">  1  3  2 -1</clus>
<clus scale="   45.048">  4  5 -1 -1</clus>
<clus scale="  137.478">  2  6  1 -1</clus>
<clus scale="   40.382">  1  3  2 -1</clus>
</clustering>
</event>
<event>
 6    0  0.4390142E+002  0.8911516E+02  0.7546771E-02  0.1305009E+00
         21   -1    0    0  503  501  0.00000000000E+00  0.00000000000E+00  0.58139387257E+02  0.58139387257E+02  0.00000000000E+00 0. -1.
         21   -1    0    0  506  502 -0.00000000000E+00 -0.00000000000E+00 -0.66807270243E+03  0.66807270243E+03  0.00000000000E+00 0. -1.
         21    1    1    2  503  505  0.16657479337E+02 -0.26760131529E+02 -0.15847815561E+01  0.31560858510E+02  0.00000000000E+00 0.  1.
         21    1    1    2  504  501 -0.23019231356E+02  0.71108694245E+02 -0.26035223247E+02  0.79146473446E+02  0.00000000000E+00 0. -1.
         21    1    1    2  505  502  0.31242973932E+00  0.75754970194E+02 -0.28228817992E+03  0.29227646098E+03  0.00000000000E+00 0. -1.
         21    1    1    2  506  504  0.60493222795E+01 -0.12010353291E+03 -0.30002513045E+03  0.32322829674E+03  0.00000000000E+00 0. -1.
<scales pt_clust_3="31.52104" pt_clust_4="56.11230" pt_clust_5="89.11516" pt_clust_6="14000.00000"></scales>
<clustering>
<clus scale="   31.521">  1  3  2 -1</clus>
<clus scale="   56.112">  1  4  2 -1</clus>
<clus scale="   89.115">  2  5  1 -1</clus>
<clus scale="   31.521">  1  3  2 -1</clus>
</clustering>
</event>
<event>
 6    0  0.4390142E+002  0.6485841E+02  0.7546771E-02  0.1378505E+00
         21   -1    0    0  505  501  0.00000000000E+00  0.00000000000E+00  0.62016807371E+03  0.62016807371E+03  0.00000000000E+00 0. -1.
         21   -1    0    0  506  502 -0.00000000000E+00 -0.00000000000E+00 -0.69641323733E+02  0.69641323733E+02  0.00000000000E+00 0. -1.
         21    1    1    2  503  501 -0.11737574668E+03 -0.12327580689E+02  0.39244519298E+03  0.40980759466E+03  0.00000000000E+00 0. -1.
         21    1    1    2  504  503  0.61584876581E+02 -0.12781765103E+02 -0.24320052368E+01  0.62944302300E+02  0.00000000000E+00 0. -1.
         21    1    1    2  505  502  0.59360407447E+02 -0.53191537261E+01  0.17374702786E+03  0.18368446058E+03  0.00000000000E+00 0. -1.
         21    1    1    2  506  504 -0.35695373483E+01  0.30428499518E+02 -0.13233465621E+02  0.33373039900E+02  0.00000000000E+00 0. -1.
<scales pt_clust_3="64.85841" pt_clust_4="14000.00000" pt_clust_5="59.01349" pt_clust_6="30.63715"></scales>
<clustering>
<clus scale="   30.637">  2  6  1 -1</clus>
<clus scale="   59.013">  1  5  2 -1</clus>
<clus scale="   64.858">  1  3  2 -1</clus>
<clus scale="   59.013">  1  3  2 -1</clus>
</clustering>
</event>
<event>
 6    0  0.4390142E+002  0.1180882E+03  0.7546771E-02  0.1246285E+00
         21   -1    0    0  503  501  0.00000000000E+00  0.00000000000E+00  0.28204111730E+03  0.28204111730E+03  0.00000000000E+00 0.  1.
         21   -1    0    0  504  502 -0.00000000000E+00 -0.00000000000E+00 -0.55424364890E+03  0.55424364890E+03  0.00000000000E+00 0. -1.
         21    1    1    2  503  505  0.26731747165E+01  0.12703503991E+03  0.18693652569E+03  0.22603166120E+03  0.00000000000E+00 0.  1.
         21    1    1    2  504  506  0.17136357961E+02 -0.87317234138E+02 -0.50325822753E+01  0.89125086401E+02  0.00000000000E+00 0.  1.
         21    1    1    2  505  502  0.19360851835E+02 -0.52611726135E+02 -0.47261400793E+03  0.47592734404E+03  0.00000000000E+00 0. -1.
         21    1    1    2  506  501 -0.39170384512E+02  0.12893920363E+02  0.18507532923E+02  0.45200674553E+02  0.00000000000E+00 0.  1.
<scales pt_clust_3="14000.00000" pt_clust_4="118.08819" pt_clust_5="55.89171" pt_clust_6="41.23799"></scales>
<clustering>
<clus scale="   41.238">  1  6  2 -1</clus>
<clus scale="   55.892">  2  5  1 -1</clus>
<clus scale="  118.088">  2  4  1 -1</clus>
<clus scale="   41.238">  1  3  2 -1</clus>
</clustering>
</event>
<event>
 6    0  0.4390142E+002  0.1133946E+03  0.7546771E-02  0.1254410E+00
         21   -1    0    0  503  501  0.00000000000E+00  0.00000000000E+00  0.10600505994E+03  0.10600505994E+03  0.00000000000E+00 0.  1.
         21   -1    0    0  505  502 -0.00000000000E+00 -0.00000000000E+00 -0.94916598659E+03  0.94916598659E+03  0.00000000000E+00 0.  1.
         21    1    1    2  503  504  0.10199392185E+03 -0.45836710515E+02  0.25230639060E+02  0.11463136251E+03  0.00000000000E+00 0.  1.
         21    1    1    2  504  502 -0.68684901847E+02 -0.69358807270E+02 -0.54666476980E+03  0.55531129147E+03  0.00000000000E+00 0.  1.
         21    1    1    2  505  506 -0.58441791701E+02  0.73545148063E+02 -0.32318543060E+03  0.33656077367E+03  0.00000000000E+00 0.  1.
         21    1    1    2  506  501  0.25132771703E+02  0.41650369722E+02  0.14586346945E+01  0.48667618871E+02  0.00000000000E+00 0.  1.
<scales pt_clust_3="113.39464" pt_clust_4="95.08950" pt_clust_5="14000.00000" pt_clust_6="48.64576"></scales>
<clustering>
<clus scale="   48.646">  1  6  2 -1</clus>
<clus scale="   95.089">  2  4  1 -1</clus>
<clus scale="  113.395">  1  3  2 -1</clus>
<clus scale="   48.646">  1  3  2 -1</clus>
</clustering>
</event>
<event>
 6    0  0.4390142E+002  0.1350470E+03  0.7546771E-02  0.1220153E+00
         21   -1    0    0  502  501  0.00000000000E+00  0.00000000000E+00  0.14226283713E+04  0.14226283713E+04  0.00000000000E+00 0.  1.
         21   -1    0    0  503  502 -0.00000000000E+00 -0.00000000000E+00 -0.33864041512E+02  0.33864041512E+02  0.00000000000E+00 0.  1.
         21    1    1    2  503  505  0.33847216298E+02  0.46375547433E+01  0.51509162160E+02  0.61808856578E+02  0.00000000000E+00 0.  1.
         21    1    1    2  504  506 -0.72407664759E+02 -0.93723560863E+02  0.92005200166E+03  0.92764360696E+03  0.00000000000E+00 0.  1.
         21    1    1    2  505  504  0.99606499010E+01  0.13549596231E+03  0.19119693515E+03  0.23455199501E+03  0.00000000000E+00 0.  1.
         21    1    1    2  506  501  0.28599798559E+02 -0.46409956195E+02  0.22600623083E+03  0.23248795429E+03  0.00000000000E+00 0.  1.
<scales pt_clust_3="34.16344" pt_clust_4="135.04701" pt_clust_5="14000.00000" pt_clust_6="56.18390"></scales>
<clustering>
<clus scale="   34.163">  2  3  1 -1</clus>
<clus scale="   56.184">  1  6  2 -1</clus>
<clus scale="  135.047">  1  4  2 -1</clus>
<clus scale="   56.184">  1  3  2 -1</clus>
</clustering>
</event>
<event>
 6    0  0.4390142E+002  0.2024793E+03  0.7546771E-02  0.1147664E+00
         21   -1    0    0  505  501  0.00000000000E+00  0.00000000000E+00  0.49762987418E+03  0.49762987418E+03  0.00000000000E+00 0.  1.
         21   -1    0    0  506  502 -0.00000000000E+00 -0.00000000000E+00 -0.48986384472E+03  0.48986384472E+03  0.00000000000E+00 0. -1.
         21    1    1    2  503  502 -0.95025728965E+00  0.51835432068E+02 -0.12519600720E+02  0.53334373614E+02  0.00000000000E+00 0.  1.
         21    1    1    2  504  501 -0.85812756880E+02  0.17074419643E+03  0.12081403986E+03  0.22608282130E+03  0.00000000000E+00 0.  1.
         21    1    1    2  505  503  0.63573539567E+02 -0.20173477834E+03  0.26621321311E+03  0.34001175062E+03  0.00000000000E+00 0. -1.
         21    1    1    2  506  504  0.23189474603E+02 -0.20844850161E+02 -0.36674162279E+03  0.36806477337E+03  0.00000000000E+00 0. -1.
<scales pt_clust_3="46.53180" pt_clust_4="202.47928" pt_clust_5="14000.00000" pt_clust_6="31.18108"></scales>
<clustering>
<clus scale="   31.181">  2  6  1 -1</clus>
<clus scale="   46.532">  2  3  1 -1</clus>
<clus scale="  202.479">  2  4  1 -1</clus>
<clus scale="  202.479">  1  3  2 -1</clus>
</clustering>
</event>
<event>
 6    0  0.4390142E+002  0.1161199E+03  0.7546771E-02  0.1249639E+00
         21   -1    0    0  505  501  0.00000000000E+00  0.00000000000E+00  0.45951975842E+03  0.45951975842E+03  0.00000000000E+00 0.  1.
         21   -1    0    0  506  502 -0.00000000000E+00 -0.00000000000E+00 -0.47256598882E+02  0.47256598882E+02  0.00000000000E+00 0.  1.
         21    1    1    2  503  501  0.70437148728E+02 -0.15851510425E+02  0.23214463147E+03  0.24311271506E+03  0.00000000000E+00 0.  1.
         21    1    1    2  504  503  0.41804447934E+02  0.16208532864E+02  0.94072941086E+02  0.10421154758E+03  0.00000000000E+00 0. -1.
         21    1    1    2  505  502 -0.99059098893E+02 -0.28563104167E+02  0.67031402836E+02  0.12297058575E+03  0.00000000000E+00 0.  1.
         21    1    1    2  506  504 -0.13182497769E+02  0.28206081728E+02  0.19014184151E+02  0.36481508916E+02  0.00000000000E+00 0.  1.
<scales pt_clust_3="32.25838" pt_clust_4="32.25838" pt_clust_5="108.93064" pt_clust_6="31.13457"></scales>
<clustering>
<clus scale="   31.135">  2  6  1 -1</clus>
<clus scale="   32.258">  3  4 -1 -1</clus>
<clus scale="  108.931">  2  5  1 -1</clus>
<clus scale="  116.120">  1  3  2 -1</clus>
</clustering>
</event>
<event>
 6    0  0.4390142E+002  0.1413016E+03  0.7546771E-02  0.1211588E+00
         21   -1    0    0  503  501  0.00000000000E+00  0.00000000000E+00  0.51092654931E+03  0.51092654931E+03  0.00000000000E+00 0.  1.
         21   -1    0    0  504  502 -0.00000000000E+00 -0.00000000000E+00 -0.11225863505E+03  0.11225863505E+03  0.00000000000E+00 0.  1.
         21    1    1    2  503  502 -0.95662647454E+02 -0.10942051876E+03  0.35322198767E+03  0.38195544847E+03  0.00000000000E+00 0.  1.
         21    1    1    2  504  506  0.62287370575E+02  0.46208053411E+01 -0.55137825204E+02  0.83314153320E+02  0.00000000000E+00 0.  1.
         21    1    1    2  505  501 -0.96147532539E+01  0.45476648244E+02  0.53293876729E+02  0.70716379379E+02  0.00000000000E+00 0.  1.
         21    1    1    2  506  505  0.42990030133E+02  0.59323065179E+02  0.47289875071E+02  0.87199203192E+02  0.00000000000E+00 0.  1.
<scales pt_clust_3="131.31178" pt_clust_4="62.45853" pt_clust_5="41.56746" pt_clust_6="41.56746"></scales>
<clustering>
<clus scale="   41.567">  5  6 -1 -1</clus>
<clus scale="   62.459">  2  4  1 -1</clus>
<clus scale="  131.312">  1  3  2 -1</clus>
<clus scale="  131.312">  1  3  2 -1</clus>
</clustering>
</event>
<event>
 6    0  0.4390142E+002  0.1239678E+03  0.7546771E-02  0.1236691E+00
         21   -1    0    0  503  501  0.00000000000E+00  0.00000000000E+00  0.32829793775E+03  0.32829793775E+03  0.00000000000E+00 0. -1.
         21   -1    0    0  504  502 -0.00000000000E+00 -0.00000000000E+00 -0.48146865409E+03  0.48146865409E+03  0.00000000000E+00 0.  1.
         21    1    1    2  503  502  0.94633592171E+02  0.26686656908E+02 -0.24038135886E+03  0.25971309577E+03  0.00000000000E+00 0.  1.
         21    1    1    2  504  506  0.32395140377E+02 -0.42153236450E+02 -0.19236044445E+03  0.19957174412E+03  0.00000000000E+00 0. -1.
         21    1    1    2  505  501  0.91135928363E+01  0.56079207123E+02  0.32439631256E+02  0.65423732101E+02  0.00000000000E+00 0. -1.
         21    1    1    2  506  505 -0.13614232538E+03 -0.40612627581E+02  0.24713145571E+03  0.28505801985E+03  0.00000000000E+00 0. -1.
<scales pt_clust_3="14000.00000" pt_clust_4="53.16334" pt_clust_5="54.75738" pt_clust_6="123.96784"></scales>
<clustering>
<clus scale="   53.163">  2  4  1 -1</clus>
<clus scale="   54.757">  1  5  2 -1</clus>
<clus scale="  123.968">  1  6  2 -1</clus>
<clus scale="   54.757">  1  3  2 -1</clus>
</clustering>
</event>
<event>
 6    0  0.4390142E+002  0.7914113E+02  0.7546771E-02  0.1331507E+00
         21   -1    0    0  505  501  0.00000000000E+00  0.00000000000E+00  0.34714066219E+02  0.34714066219E+02  0.00000000000E+00 0. -1.
         21   -1    0    0  504  502 -0.00000000000E+00 -0.00000000000E+00 -0.82619234380E+03  0.82619234380E+03  0.00000000000E+00 0. -1.
         21    1    1    2  503  506 -0.37838819906E+02  0.34166404950E+02 -0.16921905951E+03  0.17673202771E+03  0.00000000000E+00 0. -1.
         21    1    1    2  504  503  0.41170515079E+02  0.20794137097E+01 -0.41862012834E+03  0.42064491810E+03  0.00000000000E+00 0. -1.
         21    1    1    2  505  502  0.77442267059E+02 -0.22027155053E+02 -0.69789780494E+02  0.10655099131E+03  0.00000000000E+00 0. -1.
         21    1    1    2  506  501 -0.80773962232E+02 -0.14218663606E+02 -0.13384930923E+03  0.15697847289E+03  0.00000000000E+00 0. -1.
<scales pt_clust_3="40.51640" pt_clust_4="41.22299" pt_clust_5="79.14113" pt_clust_6="14000.00000"></scales>
<clustering>
<clus scale="   41.223">  2  4  1 -1</clus>
<clus scale="   40.516">  2  3  1 -1</clus>
<clus scale="   79.141">  1  5  2 -1</clus>
<clus scale="   79.141">  1  3  2 -1</clus>
</clustering>
</event>
<event>
 6    0  0.4390142E+002  0.1641807E+03  0.7546771E-02  0.1184056E+00
         21   -1    0    0  504  501  0.00000000000E+00  0.00000000000E+00  0.67029550086E+03  0.67029550086E+03  0.00000000000E+00 0. -1.
         21   -1    0    0  506  502 -0.00000000000E+00 -0.00000000000E+00 -0.83590552560E+02  0.83590552560E+02  0.00000000000E+00 0. -1.
         21    1    1    2  503  505  0.46756263986E+01  0.44830361896E+02  0.74550497919E+02  0.87117160020E+02  0.00000000000E+00 0. -1.
         21    1    1    2  504  503  0.44866937498E+02 -0.61527566070E+00  0.12385860786E+03  0.13173600641E+03  0.00000000000E+00 0.  1.
         21    1    1    2  505  502 -0.11335502459E+03  0.11816544775E+03  0.83430229755E+02  0.18377442118E+03  0.00000000000E+00 0. -1.
         21    1    1    2  506  501  0.63812460696E+02 -0.16238053398E+03  0.30486561277E+03  0.35125846581E+03  0.00000000000E+00 0. -1.
<scales pt_clust_3="46.15865" pt_clust_4="44.87116" pt_clust_5="14000.00000" pt_clust_6="164.18068"></scales>
<clustering>
<clus scale="   44.871">  1  4  2 -1</clus>
<clus scale="   46.159">  1  3  2 -1</clus>
<clus scale="  164.181">  1  6  2 -1</clus>
<clus scale="   44.871">  1  3  2 -1</clus>
</clustering>
</event>
<event>
 6    0  0.4390142E+002  0.1427719E+03  0.7546771E-02  0.1209647E+00
         21   -1    0    0  505  501  0.00000000000E+00  0.00000000000E+00  0.89786986662E+03  0.89786986662E+03  0.00000000000E+00 0. -1.
         21   -1    0    0  504  502 -0.00000000000E+00 -0.00000000000E+00 -0.17450432286E+03  0.17450432286E+03  0.00000000000E+00 0.  1.
         21    1    1    2  503  506  0.40462520183E+02 -0.10981971192E+03  0.25648493215E+03  0.28192570845E+03  0.00000000000E+00 0. -1.
         21    1    1    2  504  503  0.89168469013E+01 -0.52350816343E+02 -0.13808752890E+03  0.14794689509E+03  0.00000000000E+00 0.  1.
         21    1    1    2  505  502 -0.35877812408E+02 -0.10235663743E+02  0.59065114949E+02  0.69861821042E+02  0.00000000000E+00 0. -1.
         21    1    1    2  506  501 -0.13501554676E+02  0.17240619201E+03  0.54590302556E+03  0.57263976489E+03  0.00000000000E+00 0. -1.
<scales pt_clust_3="14000.00000" pt_clust_4="53.12929" pt_clust_5="37.30933" pt_clust_6="142.77189"></scales>
<clustering>
<clus scale="   37.309">  1  5  2 -1</clus>
<clus scale="   53.129">  2  4  1 -1</clus>
<clus scale="  142.772">  1  6  2 -1</clus>
<clus scale="   37.309">  1  3  2 -1</clus>
</clustering>
</event>
<event>
 6    0  0.8796863E+002  0.7685776E+02  0.7546771E-02  0.1338213E+00
         21   -1    0    0  505  501  0.00000000000E+00  0.00000000000E+00  0.12127233117E+04  0.12127233117E+04  0.00000000000E+00 0.  1.
         21   -1    0    0  503  502 -0.00000000000E+00 -0.00000000000E+00 -0.72978292360E+03  0.72978292360E+03  0.00000000000E+00 0.  1.
         21    1    1    2  503  504  0.94945306098E+01 -0.68363386892E+02  0.84199205037E+02  0.10887242492E+03  0.00000000000E+00 0. -1.
         21    1    1    2  504  506 -0.76660822872E+02 -0.23185093805E+02 -0.25700467795E-01  0.80090142956E+02  0.00000000000E+00 0. -1.
         21    1    1    2  505  502  0.21553023910E+02  0.74100246093E+02 -0.67463347685E+03  0.67903292070E+03  0.00000000000E+00 0.  1.
         21    1    1    2  506  501  0.45613268352E+02  0.17448234604E+02  0.10734003604E+04  0.10745107467E+04  0.00000000000E+00 0.  1.
<scales pt_clust_3="76.85776" pt_clust_4="66.04545" pt_clust_5="14000.00000" pt_clust_6="48.83658"></scales>
<clustering>
<clus scale="   48.837">  1  6  2 -1</clus>
<clus scale="   66.045">  1  4  2 -1</clus>
<clus scale="   76.858">  1  3  2 -1</clus>
<clus scale="   48.837">  1  3  2 -1</clus>
</clustering>
</event>
<event>
 6    0  0.4390142E+002  0.7468520E+02  0.7546771E-02  0.1344849E+00
         21   -1    0    0  503  501  0.00000000000E+00  0.00000000000E+00  0.18301493200E+04  0.18301493200E+04  0.00000000000E+00 0. -1.
         21   -1    0    0  505  502 -0.00000000000E+00 -0.00000000000E+00 -0.49723320410E+03  0.49723320410E+03  0.00000000000E+00 0.  1.
         21    1    1    2  503  502  0.88864394196E+02 -0.10005119390E+03  0.55720314016E+03  0.57304664850E+03  0.00000000000E+00 0. -1.
         21    1    1    2  504  506 -0.55194647006E+02  0.33060160483E+02  0.51631782237E+02  0.82494025276E+02  0.00000000000E+00 0. -1.
         21    1    1    2  505  504  0.19560248598E+02  0.25095117686E+02 -0.47238712822E+03  0.47345746078E+03  0.00000000000E+00 0.  1.
         21    1    1    2  506  501 -0.53229995788E+02  0.41895915727E+02  0.11964683217E+04  0.11983843896E+04  0.00000000000E+00 0. -1.
<scales pt_clust_3="74.68520" pt_clust_4="65.03819" pt_clust_5="31.81773" pt_clust_6="14000.00000"></scales>
<clustering>
<clus scale="   31.818">  2  5  1 -1</clus>
<clus scale="   65.038">  2  4  1 -1</clus>
<clus scale="   74.685">  2  3  1 -1</clus>
<clus scale="   74.685">  1  3  2 -1</clus>
</clustering>
</event>
<event>
 6    0  0.4390142E+002  0.6569809E+02  0.7546771E-02  0.1375365E+00
         21   -1    0    0  502  501  0.00000000000E+00  0.00000000000E+00  0.22378351905E+04  0.22378351905E+04  0.00000000000E+00 0.  1.
         21   -1    0    0  503  502 -0.00000000000E+00 -0.00000000000E+00 -0.86007066874E+02  0.86007066874E+02  0.00000000000E+00 0. -1.
         21    1    1    2  503  504  0.27806873825E+02 -0.13539221835E+02 -0.45359059755E+02  0.54899700014E+02  0.00000000000E+00 0. -1.
         21    1    1    2  504  506 -0.87078860732E+02 -0.83574751040E+01  0.25253027411E+02  0.91051033876E+02  0.00000000000E+00 0. -1.
         21    1    1    2  505  501 -0.39940174839E+02  0.43869561533E+02  0.82200490538E+03  0.82414308252E+03  0.00000000000E+00 0. -1.
         21    1    1    2  506  505  0.99212161746E+02 -0.21972864594E+02  0.13499292506E+04  0.13537484410E+04  0.00000000000E+00 0.  1.
<scales pt_clust_3="30.92786" pt_clust_4="14000.00000" pt_clust_5="58.47238" pt_clust_6="65.69809"></scales>
<clustering>
<clus scale="   30.928">  2  3  1 -1</clus>
<clus scale="   58.472">  1  5  2 -1</clus>
<clus scale="   65.698">  1  6  2 -1</clus>
<clus scale="   58.472">  1  3  2 -1</clus>
</clustering>
</event>
<event>
 6    0  0.4390142E+002  0.8463084E+02  0.7546771E-02  0.1316401E+00
         21   -1    0    0  505  501  0.00000000000E+00  0.00000000000E+00  0.17739501690E+04  0.17739501690E+04  0.00000000000E+00 0.  1.
         21   -1    0    0  506  502 -0.00000000000E+00 -0.00000000000E+00 -0.59648600133E+02  0.59648600133E+02  0.00000000000E+00 0.  1.
         21    1    1    2  503  502  0.49789795607E+02  0.84461614935E+02  0.10732840114E+03  0.14536909519E+03  0.00000000000E+00 0.  1.
         21    1    1    2  504  501  0.44325781621E+02 -0.10546783806E+02  0.11777797043E+04  0.11786606982E+04  0.00000000000E+00 0.  1.
         21    1    1    2  505  503 -0.15860067113E+02 -0.41129412834E+02  0.42213470277E+03  0.42443006210E+03  0.00000000000E+00 0.  1.
         21    1    1    2  506  504 -0.78255510116E+02 -0.32785418295E+02  0.70587606359E+01  0.85138913653E+02  0.00000000000E+00 0.  1.
<scales pt_clust_3="14000.00000" pt_clust_4="55.54240" pt_clust_5="44.08141" pt_clust_6="84.63084"></scales>
<clustering>
<clus scale="   44.081">  1  5  2 -1</clus>
<clus scale="   55.542">  1  4  2 -1</clus>
<clus scale="   84.631">  2  6  1 -1</clus>
<clus scale="   44.081">  1  3  2 -1</clus>
</clustering>
</event>
<event>
 6    0  0.4390142E+002  0.2503496E+03  0.7546771E-02  0.1113084E+00
         21   -1    0    0  504  501  0.00000000000E+00  0.00000000000E+00  0.12365701074E+03  0.12365701074E+03  0.00000000000E+00 0.  1.
         21   -1    0    0  503  502 -0.00000000000E+00 -0.00000000000E+00 -0.18120372262E+04  0.18120372262E+04  0.00000000000E+00 0.  1.
         21    1    1    2  503  506  0.36936289423E+02  0.10007883495E+02 -0.84172662219E+03  0.84259607981E+03  0.00000000000E+00 0.  1.
         21    1    1    2  504  505  0.15444703776E+03  0.17672175605E+03 -0.46936708897E+03  0.52477607677E+03  0.00000000000E+00 0.  1.
         21    1    1    2  505  502  0.42542010389E+02 -0.70034582995E+02 -0.27610338673E+03  0.28800650275E+03  0.00000000000E+00 0.  1.
         21    1    1    2  506  501 -0.23392533757E+03 -0.11669505655E+03 -0.10118311760E+03  0.28031557764E+03  0.00000000000E+00 0.  1.
<scales pt_clust_3="38.26810" pt_clust_4="14000.00000" pt_clust_5="85.70179" pt_clust_6="250.34962"></scales>
<clustering>
<clus scale="   38.268">  2  3  1 -1</clus>
<clus scale="   85.702">  2  5  1 -1</clus>
<clus scale="  250.350">  1  6  2 -1</clus>
<clus scale="  250.350">  1  3  2 -1</clus>
</clustering>
</event>
<event>
 6    0  0.4390142E+002  0.1924578E+03  0.7546771E-02  0.1156263E+00
         21   -1    0    0  505  501  0.00000000000E+00  0.00000000000E+00  0.19664592666E+04  0.19664592666E+04  0.00000000000E+00 0.  1.
         21   -1    0    0  503  502 -0.00000000000E+00 -0.00000000000E+00 -0.18851833890E+03  0.18851833890E+03  0.00000000000E+00 0.  1.
         21    1    1    2  503  506  0.98708466730E+02 -0.10856733124E+03  0.15024539242E+04  0.15096019412E+04  0.00000000000E+00 0.  1.
         21    1    1    2  504  502  0.54682275541E+01 -0.42203030892E+02 -0.38555363739E+02  0.57423979330E+02  0.00000000000E+00 0.  1.
         21    1    1    2  505  504 -0.14822361549E+03  0.14987947768E+03 -0.53742926424E+02  0.21753712363E+03  0.00000000000E+00 0.  1.
         21    1    1    2  506  501  0.44046921207E+02  0.89088445725E+00  0.36778529367E+03  0.37041456124E+03  0.00000000000E+00 0. -1.
<scales pt_clust_3="37.54150" pt_clust_4="42.55581" pt_clust_5="179.84991" pt_clust_6="37.54150"></scales>
<clustering>
<clus scale="   37.541">  3  6 -1 -1</clus>
<clus scale="   42.556">  2  4  1 -1</clus>
<clus scale="  179.850">  2  5  1 -1</clus>
<clus scale="  192.458">  1  3  2 -1</clus>
</clustering>
</event>
<event>
 6    0  0.4390142E+002  0.7321819E+02  0.7546771E-02  0.1349479E+00
         21   -1    0    0  505  501  0.00000000000E+00  0.00000000000E+00  0.37472974646E+02  0.37472974646E+02  0.00000000000E+00 0.  1.
         21   -1    0    0  504  502 -0.00000000000E+00 -0.00000000000E+00 -0.76580041812E+03  0.76580041812E+03  0.00000000000E+00 0.  1.
         21    1    1    2  503  506 -0.15898359164E+02 -0.77892361301E+02 -0.13539321953E+03  0.15700732998E+03  0.00000000000E+00 0.  1.
         21    1    1    2  504  501  0.64142150201E+02  0.35861497489E+02 -0.39275626884E+03  0.39957195741E+03  0.00000000000E+00 0.  1.
         21    1    1    2  505  503  0.44657024969E+02  0.10319956711E+02 -0.69521021507E+02  0.83270185643E+02  0.00000000000E+00 0.  1.
         21    1    1    2  506  502 -0.92900816006E+02  0.31710907101E+02 -0.13065693359E+03  0.16342391973E+03  0.00000000000E+00 0.  1.
<scales pt_clust_3="74.24756" pt_clust_4="14000.00000" pt_clust_5="45.83395" pt_clust_6="73.21819"></scales>
<clustering>
<clus scale="   45.834">  1  5  2 -1</clus>
<clus scale="   74.248">  1  3  2 -1</clus>
<clus scale="   73.218">  1  6  2 -1</clus>
<clus scale="   45.834">  1  3  2 -1</clus>
</clustering>
</event>
<event>
 6    0  0.4390142E+002  0.1116948E+03  0.7546771E-02  0.1257463E+00
         21   -1    0    0  506  501  0.00000000000E+00  0.00000000000E+00  0.61494326807E+03  0.61494326807E+03  0.00000000000E+00 0. -1.
         21   -1    0    0  503  502 -0.00000000000E+00 -0.00000000000E+00 -0.20658041199E+03  0.20658041199E+03  0.00000000000E+00 0.  1.
         21    1    1    2  503  504 -0.26488010907E+02 -0.28389743099E+02 -0.15541523917E+03  0.16019203726E+03  0.00000000000E+00 0.  1.
         21    1    1    2  504  501 -0.11337320328E+03 -0.88876908287E+01  0.40905299418E+03  0.42456663354E+03  0.00000000000E+00 0. -1.
         21    1    1    2  505  502  0.32272827304E+02  0.46765245532E+02  0.12501094130E+02  0.58179041985E+02  0.00000000000E+00 0.  1.
         21    1    1    2  506  505  0.10758838689E+03 -0.94878116042E+01  0.14222400693E+03  0.17858596728E+03  0.00000000000E+00 0. -1.
<scales pt_clust_3="38.82773" pt_clust_4="111.69476" pt_clust_5="38.92574" pt_clust_6="14000.00000"></scales>
<clustering>
<clus scale="   38.828">  2  3  1 -1</clus>
<clus scale="   38.926">  2  5  1 -1</clus>
<clus scale="  111.695">  1  4  2 -1</clus>
<clus scale="  111.695">  1  3  2 -1</clus>
</clustering>
</event>
<event>
 6    0  0.4390142E+002  0.1257831E+03  0.7546771E-02  0.1233851E+00
         21   -1    0    0  504  501  0.00000000000E+00  0.00000000000E+00  0.40969004287E+03  0.40969004287E+03  0.00000000000E+00 0.  1.
         21   -1    0    0  506  502 -0.00000000000E+00 -0.00000000000E+00 -0.90661439557E+02  0.90661439557E+02  0.00000000000E+00 0.  1.
         21    1    1    2  503  501  0.17833423856E+02  0.14258598735E+03  0.22345257243E+03  0.26566867885E+03  0.00000000000E+00 0.  1.
         21    1    1    2  504  505 -0.18471452598E+02 -0.36885120870E+02  0.67694309881E+02  0.79273112043E+02  0.00000000000E+00 0.  1.
         21    1    1    2  505  502  0.17779545083E+02 -0.60795190205E+02  0.67905368807E+02  0.92861760096E+02  0.00000000000E+00 0.  1.
         21    1    1    2  506  503 -0.17141516342E+02 -0.44905676272E+02 -0.40023647806E+02  0.62547931442E+02  0.00000000000E+00 0.  1.
<scales pt_clust_3="118.82830" pt_clust_4="33.28561" pt_clust_5="33.28561" pt_clust_6="48.06611"></scales>
<clustering>
<clus scale="   33.286">  4  5 -1 -1</clus>
<clus scale="   48.066">  2  6  1 -1</clus>
<clus scale="  118.828">  2  3  1 -1</clus>
<clus scale="  125.783">  1  3  2 -1</clus>
</clustering>
</event>
<event>
 6    0  0.4390142E+002  0.2187440E+03  0.7546771E-02  0.1134823E+00
         21   -1    0    0  503  501  0.00000000000E+00  0.00000000000E+00  0.67557826221E+03  0.67557826221E+03  0.00000000000E+00 0.  1.
         21   -1    0    0  506  502 -0.00000000000E+00 -0.00000000000E+00 -0.39685112823E+03  0.39685112823E+03  0.00000000000E+00 0.  1.
         21    1    1    2  503  505  0.16835046721E+03 -0.52623112283E+02 -0.87807177296E+02  0.19703089134E+03  0.00000000000E+00 0.  1.
         21    1    1    2  504  501 -0.10437540945E+03  0.28780326285E+02  0.31361378752E+03  0.33177724606E+03  0.00000000000E+00 0.  1.
         21    1    1    2  505  502  0.35535010788E+02 -0.34889069590E+02 -0.23141029920E+03  0.23670807072E+03  0.00000000000E+00 0.  1.
         21    1    1    2  506  504 -0.99510068548E+02  0.58731855588E+02  0.28433082295E+03  0.30691318232E+03  0.00000000000E+00 0.  1.
<scales pt_clust_3="216.07617" pt_clust_4="32.96910" pt_clust_5="49.79944" pt_clust_6="32.96910"></scales>
<clustering>
<clus scale="   32.969">  4  6 -1 -1</clus>
<clus scale="   49.799">  2  5  1 -1</clus>
<clus scale="  216.076">  2  3  1 -1</clus>
<clus scale="  218.744">  1  3  2 -1</clus>
</clustering>
</event>
<event>
 6    0  0.4390142E+002  0.6573376E+02  0.7546771E-02  0.1375232E+00
         21   -1    0    0  505  501  0.00000000000E+00  0.00000000000E+00  0.28716309615E+03  0.28716309615E+03  0.00000000000E+00 0.  1.
         21   -1    0    0  506  502 -0.00000000000E+00 -0.00000000000E+00 -0.19948251378E+03  0.19948251378E+03  0.00000000000E+00 0. -1.
         21    1    1    2  503  502  0.12131194193E+02  0.49708543165E+02 -0.11137042835E+03  0.12256213708E+03  0.00000000000E+00 0. -1.
         21    1    1    2  504  501 -0.22786539207E+02  0.61049587768E+02  0.17879556615E+03  0.19030011300E+03  0.00000000000E+00 0.  1.
         21    1    1    2  505  503  0.62467633562E+02 -0.20659156468E+02  0.23315168302E+02  0.69804033277E+02  0.00000000000E+00 0. -1.
         21    1    1    2  506  504 -0.51812288549E+02 -0.90098974465E+02 -0.30597237365E+01  0.10397932657E+03  0.00000000000E+00 0. -1.
<scales pt_clust_3="51.16742" pt_clust_4="14000.00000" pt_clust_5="66.22034" pt_clust_6="65.73376"></scales>
<clustering>
<clus scale="   51.167">  2  3  1 -1</clus>
<clus scale="   66.220">  2  5  1 -1</clus>
<clus scale="   65.734">  2  6  1 -1</clus>
<clus scale="   65.734">  1  3  2 -1</clus>
</clustering>
</event>
<event>
 6    0  0.4390142E+002  0.9426944E+02  0.7546771E-02  0.1292830E+00
         21   -1    0    0  506  501  0.00000000000E+00  0.00000000000E+00  0.16169386596E+03  0.16169386596E+03  0.00000000000E+00 0. -1.
         21   -1    0    0  504  502 -0.00000000000E+00 -0.00000000000E+00 -0.82352192987E+03  0.82352192987E+03  0.00000000000E+00 0.  1.
         21    1    1    2  503  505  0.29832347537E+02 -0.26349226672E+02  0.38348646389E+01  0.39986959031E+02  0.00000000000E+00 0. -1.
         21    1    1    2  504  503  0.37629627524E+02  0.87678853509E+02 -0.76921436970E+03  0.77510922893E+03  0.00000000000E+00 0.  1.
         21    1    1    2  505  501  0.21661820402E+02 -0.36228309612E+02  0.36452074112E+02  0.55771664737E+02  0.00000000000E+00 0. -1.
         21    1    1    2  506  502 -0.89123795462E+02 -0.25101317225E+02  0.67099367025E+02  0.11434794314E+03  0.00000000000E+00 0. -1.
<scales pt_clust_3="30.38468" pt_clust_4="14000.00000" pt_clust_5="86.87161" pt_clust_6="94.26944"></scales>
<clustering>
<clus scale="   30.385">  3  5 -1 -1</clus>
<clus scale="   86.872">  1  3  2 -1</clus>
<clus scale="   94.269">  1  6  2 -1</clus>
<clus scale="   86.872">  1  3  2 -1</clus>
</clustering>
</event>
<event>
 6    0  0.4390142E+002  0.1536126E+03  0.7546771E-02  0.1196103E+00
         21   -1    0    0  506  501  0.00000000000E+00  0.00000000000E+00  0.30597453855E+03  0.30597453855E+03  0.00000000000E+00 0. -1.
         21   -1    0    0  505  502 -0.00000000000E+00 -0.00000000000E+00 -0.25926682910E+03  0.25926682910E+03  0.00000000000E+00 0.  1.
         21    1    1    2  503  502  0.32616042646E+02  0.13268924430E+02 -0.10951331838E+03  0.11503494033E+03  0.00000000000E+00 0.  1.
         21    1    1    2  504  503 -0.41150752217E+02  0.61904612278E+02  0.10280311792E+03  0.12686231309E+03  0.00000000000E+00 0. -1.
         21    1    1    2  505  501  0.89574915189E+02 -0.77193185353E+02 -0.96689343512E+02  0.15274580991E+03  0.00000000000E+00 0.  1.
         21    1    1    2  506  504 -0.81040205617E+02  0.20196486450E+01  0.15010725342E+03  0.17059830432E+03  0.00000000000E+00 0. -1.
<scales pt_clust_3="35.21180" pt_clust_4="71.78234" pt_clust_5="134.51618" pt_clust_6="71.78234"></scales>
<clustering>
<clus scale="   35.212">  2  3  1 -1</clus>
<clus scale="   71.782">  4  6 -1 -1</clus>
<clus scale="  134.516">  2  5  1 -1</clus>
<clus scale="  153.613">  1  3  2 -1</clus>
</clustering>
</event>
<event>
 6    0  0.4390142E+002  0.2044575E+03  0.7546771E-02  0.1146032E+00
         21   -1    0    0  505  501  0.00000000000E+00  0.00000000000E+00  0.20278036316E+03  0.20278036316E+03  0.00000000000E+00 0. -1.
         21   -1    0    0  503  502 -0.00000000000E+00 -0.00000000000E+00 -0.20553444928E+04  0.20553444928E+04  0.00000000000E+00 0.  1.
         21    1    1    2  503  504 -0.68314432985E+01  0.35464925826E+02 -0.78301517110E+03  0.78384768148E+03  0.00000000000E+00 0.  1.
         21    1    1    2  504  506  0.32421500637E+02 -0.10428299284E+03  0.57661898222E+02  0.12349490194E+03  0.00000000000E+00 0. -1.
         21    1    1    2  505  502  0.24050347280E+02  0.14864811678E+03 -0.12137223484E+04  0.12230276452E+04  0.00000000000E+00 0.  1.
         21    1    1    2  506  501 -0.49640404618E+02 -0.79830049767E+02  0.86511491675E+02  0.12775462735E+03  0.00000000000E+00 0. -1.
<scales pt_clust_3="36.11689" pt_clust_4="83.90590" pt_clust_5="183.45742" pt_clust_6="83.90590"></scales>
<clustering>
<clus scale="   36.117">  2  3  1 -1</clus>
<clus scale="   83.906">  4  6 -1 -1</clus>
<clus scale="  183.457">  2  5  1 -1</clus>
<clus scale="  204.458">  1  3  2 -1</clus>
</clustering>
</event>
<event>
 6    0  0.5019901E+002  0.5678657E+02  0.7546771E-02  0.1411834E+00
         21   -1    0    0  504  501  0.00000000000E+00  0.00000000000E+00  0.20903653997E+04  0.20903653997E+04  0.00000000000E+00 0.  1.
         21   -1    0    0  503  502 -0.00000000000E+00 -0.00000000000E+00 -0.13523009008E+03  0.13523009008E+03  0.00000000000E+00 0. -1.
         21    1    1    2  503  506 -0.62741923375E+02 -0.53082868762E+01 -0.11679937201E+03  0.13269069357E+03  0.00000000000E+00 0. -1.
         21    1    1    2  504  505  0.85474069602E+02 -0.57598761642E+02  0.17425917842E+04  0.17456372934E+04  0.00000000000E+00 0.  1.
         21    1    1    2  505  502  0.15831618542E+02  0.34647151962E+02  0.45112194943E+02  0.59043843179E+02  0.00000000000E+00 0.  1.
         21    1    1    2  506  501 -0.38563764769E+02  0.28259896556E+02  0.28423070254E+03  0.28822365963E+03  0.00000000000E+00 0.  1.
<scales pt_clust_3="56.78657" pt_clust_4="14000.00000" pt_clust_5="38.09285" pt_clust_6="47.93341"></scales>
<clustering>
<clus scale="   38.093">  2  5  1 -1</clus>
<clus scale="   47.933">  1  6  2 -1</clus>
<clus scale="   56.787">  2  3  1 -1</clus>
<clus scale="   47.933">  1  3  2 -1</clus>
</clustering>
</event>
<event>
 6    0  0.4390142E+002  0.1776615E+03  0.7546771E-02  0.1170086E+00
         21   -1    0    0  503  501  0.00000000000E+00  0.00000000000E+00  0.11231982336E+03  0.11231982336E+03  0.00000000000E+00 0.  1.
         21   -1    0    0  506  502 -0.00000000000E+00 -0.00000000000E+00 -0.19782688515E+04  0.19782688515E+04  0.00000000000E+00 0.  1.
         21    1    1    2  503  505  0.56744410031E+02 -0.84775892831E+02 -0.22221007843E+02  0.10440619361E+03  0.00000000000E+00 0.  1.
         21    1    1    2  504  502  0.26329133566E+02  0.11236108412E+03 -0.16659829911E+04  0.16699753181E+04  0.00000000000E+00 0.  1.
         21    1    1    2  505  504  0.75870629526E+02 -0.61540394944E+02 -0.51694666404E+02  0.11052561318E+03  0.00000000000E+00 0.  1.
         21    1    1    2  506  501 -0.15894417312E+03  0.33955203651E+02 -0.12605036279E+03  0.20568154993E+03  0.00000000000E+00 0. -1.
<scales pt_clust_3="40.78413" pt_clust_4="115.40466" pt_clust_5="40.78413" pt_clust_6="172.70401"></scales>
<clustering>
<clus scale="   40.784">  3  5 -1 -1</clus>
<clus scale="  115.405">  2  4  1 -1</clus>
<clus scale="  172.704">  2  6  1 -1</clus>
<clus scale="  177.662">  1  3  2 -1</clus>
</clustering>
</event>
<event>
 6    0  0.4390142E+002  0.1516555E+03  0.7546771E-02  0.1198453E+00
         21   -1    0    0  503  501  0.00000000000E+00  0.00000000000E+00  0.28152861547E+03  0.28152861547E+03  0.00000000000E+00 0.  1.
         21   -1    0    0  505  502 -0.00000000000E+00 -0.00000000000E+00 -0.80452304123E+03  0.80452304123E+03  0.00000000000E+00 0. -1.
         21    1    1    2  503  506 -0.13980312305E+03 -0.61527760285E+02  0.20185268101E+03  0.25313056578E+03  0.00000000000E+00 0.  1.
         21    1    1    2  504  501  0.15230330807E+03  0.14783099015E+02 -0.66055805687E+02  0.16666795472E+03  0.00000000000E+00 0.  1.
         21    1    1    2  505  504  0.29843969499E+02  0.21379661675E+02 -0.12767947639E+03  0.13285255414E+03  0.00000000000E+00 0. -1.
         21    1    1    2  506  502 -0.42344154521E+02  0.25364999595E+02 -0.53111182469E+03  0.53340058207E+03  0.00000000000E+00 0. -1.
<scales pt_clust_3="151.65547" pt_clust_4="14000.00000" pt_clust_5="36.71175" pt_clust_6="46.23074"></scales>
<clustering>
<clus scale="   36.712">  2  5  1 -1</clus>
<clus scale="   46.231">  2  6  1 -1</clus>
<clus scale="  151.655">  1  3  2 -1</clus>
<clus scale="  151.655">  1  3  2 -1</clus>
</clustering>
</event>
<event>
 6    0  0.4390142E+002  0.9652261E+02  0.7546771E-02  0.1287783E+00
         21   -1    0    0  506  501  0.00000000000E+00  0.00000000000E+00  0.42949011553E+03  0.42949011553E+03  0.00000000000E+00 0.  1.
         21   -1    0    0  505  502 -0.00000000000E+00 -0.00000000000E+00 -0.79295911411E+03  0.79295911411E+03  0.00000000000E+00 0.  1.
         21    1    1    2  503  502  0.27375827884E+02 -0.57202094579E+02 -0.49170211995E+03  0.49577463664E+03  0.00000000000E+00 0.  1.
         21    1    1    2  504  501 -0.13030007193E+03  0.71021750294E+02  0.38965542227E+03  0.41695748688E+03  0.00000000000E+00 0.  1.
         21    1    1    2  505  504  0.68485061971E+02  0.23079086156E+02 -0.24680685327E+03  0.25717012025E+03  0.00000000000E+00 0.  1.
         21    1    1    2  506  503  0.34439182077E+02 -0.36898741871E+02 -0.14615447645E+02  0.52546985867E+02  0.00000000000E+00 0.  1.
<scales pt_clust_3="63.65430" pt_clust_4="14000.00000" pt_clust_5="96.52261" pt_clust_6="50.47350"></scales>
<clustering>
<clus scale="   50.474">  1  6  2 -1</clus>
<clus scale="   63.654">  2  3  1 -1</clus>
<clus scale="   96.523">  2  5  1 -1</clus>
<clus scale="   50.474">  1  3  2 -1</clus>
</clustering>
</event>
<event>
 6    0  0.4390142E+002  0.1197292E+03  0.7546771E-02  0.1243544E+00
         21   -1    0    0  503  501  0.00000000000E+00  0.00000000000E+00  0.72030003451E+03  0.72030003451E+03  0.00000000000E+00 0.  1.
         21   -1    0    0  504  502 -0.00000000000E+00 -0.00000000000E+00 -0.36325109140E+03  0.36325109140E+03  0.00000000000E+00 0. -1.
         21    1    1    2  503  505  0.43726269980E+02 -0.82303328734E+02  0.57909581794E+03  0.58654734759E+03  0.00000000000E+00 0.  1.
         21    1    1    2  504  506 -0.40924506214E+01  0.72631194825E+02 -0.31379665743E+03  0.32211858193E+03  0.00000000000E+00 0. -1.
         21    1    1    2  505  502 -0.29578165611E+02  0.45053446426E+02 -0.19808059675E+02  0.57419858445E+02  0.00000000000E+00 0. -1.
         21    1    1    2  506  501 -0.10055653747E+02 -0.35381312517E+02  0.11155784227E+03  0.11746533795E+03  0.00000000000E+00 0.  1.
<scales pt_clust_3="119.72919" pt_clust_4="14000.00000" pt_clust_5="53.15525" pt_clust_6="36.78252"></scales>
<clustering>
<clus scale="   36.783">  1  6  2 -1</clus>
<clus scale="   53.155">  2  5  1 -1</clus>
<clus scale="  119.729">  1  3  2 -1</clus>
<clus scale="   36.783">  1  3  2 -1</clus>
</clustering>
</event>
<event>
 6    0  0.4390142E+002  0.9778032E+02  0.7546771E-02  0.1285034E+00
         21   -1    0    0  503  501  0.00000000000E+00  0.00000000000E+00  0.18098812140E+03  0.18098812140E+03  0.00000000000E+00 0. -1.
         21   -1    0    0  504  502 -0.00000000000E+00 -0.00000000000E+00 -0.12666804856E+04  0.12666804856E+04  0.00000000000E+00 0. -1.
         21    1    1    2  503  502 -0.56098311890E+02 -0.62513918790E+02 -0.94487459770E+02  0.12642345784E+03  0.00000000000E+00 0.  1.
         21    1    1    2  504  506 -0.52017328283E+02  0.68703303367E+01 -0.11057014610E+04  0.11069456738E+04  0.00000000000E+00 0. -1.
         21    1    1    2  505  501  0.55783590541E+02  0.83228828156E+02  0.11829012150E+03  0.15502064267E+03  0.00000000000E+00 0. -1.
         21    1    1    2  506  505  0.52332049632E+02 -0.27585239703E+02 -0.37935649129E+01  0.59278832672E+02  0.00000000000E+00 0. -1.
<scales pt_clust_3="14000.00000" pt_clust_4="52.46908" pt_clust_5="97.78032" pt_clust_6="49.60668"></scales>
<clustering>
<clus scale="   52.469">  2  4  1 -1</clus>
<clus scale="   49.607">  2  6  1 -1</clus>
<clus scale="   97.780">  1  5  2 -1</clus>
<clus scale="   97.780">  1  3  2 -1</clus>
</clustering>
</event>
<event>
 6    0  0.4390142E+002  0.7453985E+02  0.7546771E-02  0.1345302E+00
         21   -1    0    0  506  501  0.00000000000E+00  0.00000000000E+00  0.20484946341E+02  0.20484946341E+02  0.00000000000E+00 0.  1.
         21   -1    0    0  505  502 -0.00000000000E+00 -0.00000000000E+00 -0.12396802217E+04  0.12396802217E+04  0.00000000000E+00 0.  1.
         21    1    1    2  503  501  0.58627276984E+02  0.40274647035E+01 -0.17398859954E+03  0.18364479532E+03  0.00000000000E+00 0.  1.
         21    1    1    2  504  502 -0.84372012340E+02  0.15513032272E+02 -0.17246818321E+03  0.19262545226E+03  0.00000000000E+00 0.  1.
         21    1    1    2  505  503  0.70997820368E+02  0.19254455345E+02 -0.61336764142E+03  0.61776313268E+03  0.00000000000E+00 0.  1.
         21    1    1    2  506  504 -0.45253085012E+02 -0.38794952321E+02 -0.25937085124E+03  0.26613178784E+03  0.00000000000E+00 0.  1.
<scales pt_clust_3="58.76545" pt_clust_4="14000.00000" pt_clust_5="74.53985" pt_clust_6="50.00761"></scales>
<clustering>
<clus scale="   58.765">  1  3  2 -1</clus>
<clus scale="   50.008">  1  6  2 -1</clus>
<clus scale="   74.540">  2  5  1 -1</clus>
<clus scale="   58.765">  1  3  2 -1</clus>
</clustering>
</event>
<event>
 6    0  0.4390142E+002  0.1592744E+03  0.7546771E-02  0.1189518E+00
         21   -1    0    0  506  501  0.00000000000E+00  0.00000000000E+00  0.12370873167E+04  0.12370873167E+04  0.00000000000E+00 0. -1.
         21   -1    0    0  503  502 -0.00000000000E+00 -0.00000000000E+00 -0.44595970407E+03  0.44595970407E+03  0.00000000000E+00 0.  1.
         21    1    1    2  503  504 -0.12420734034E+03  0.36395570497E+02  0.17008934062E+02  0.13054273164E+03  0.00000000000E+00 0. -1.
         21    1    1    2  504  505 -0.21492355408E+02 -0.25398958230E+02  0.28151819653E+03  0.28347755360E+03  0.00000000000E+00 0. -1.
         21    1    1    2  505  501 -0.22240941181E+02 -0.20549662168E+02  0.86231385834E+03  0.86284537338E+03  0.00000000000E+00 0. -1.
         21    1    1    2  506  502  0.16794063693E+03  0.95530499011E+01 -0.36971337633E+03  0.40618136212E+03  0.00000000000E+00 0.  1.
<scales pt_clust_3="14000.00000" pt_clust_4="56.01186" pt_clust_5="30.28115" pt_clust_6="159.27444"></scales>
<clustering>
<clus scale="   30.281">  1  5  2 -1</clus>
<clus scale="   56.012">  1  4  2 -1</clus>
<clus scale="  159.274">  2  6  1 -1</clus>
<clus scale="   30.281">  1  3  2 -1</clus>
</clustering>
</event>
<event>
 6    0  0.4390142E+002  0.1061717E+03  0.7546771E-02  0.1267828E+00
         21   -1    0    0  504  501  0.00000000000E+00  0.00000000000E+00  0.32405928410E+03  0.32405928410E+03  0.00000000000E+00 0. -1.
         21   -1    0    0  505  502 -0.00000000000E+00 -0.00000000000E+00 -0.23247749077E+03  0.23247749077E+03  0.00000000000E+00 0.  1.
         21    1    1    2  503  502 -0.39118405244E+02 -0.11023211073E+02  0.67422777341E+01  0.41197319333E+02  0.00000000000E+00 0. -1.
         21    1    1    2  504  503  0.17721390710E+02 -0.49677090217E+02 -0.32960115935E+02  0.62195098067E+02  0.00000000000E+00 0. -1.
         21    1    1    2  505  506 -0.84897247518E+02  0.73063669182E+02 -0.13689715710E+03  0.17688039465E+03  0.00000000000E+00 0.  1.
         21    1    1    2  506  501  0.10629426205E+03 -0.12363367892E+02  0.25469678863E+03  0.27626396282E+03  0.00000000000E+00 0. -1.
<scales pt_clust_3="40.64186" pt_clust_4="52.89783" pt_clust_5="106.17175" pt_clust_6="14000.00000"></scales>
<clustering>
<clus scale="   40.642">  2  3  1 -1</clus>
<clus scale="   52.898">  2  4  1 -1</clus>
<clus scale="  106.172">  2  5  1 -1</clus>
<clus scale="  106.172">  1  3  2 -1</clus>
</clustering>
</event>
<event>
 6    0  0.4390142E+002  0.9896960E+02  0.7546771E-02  0.1282478E+00
         21   -1    0    0  506  501  0.00000000000E+00  0.00000000000E+00  0.20216149825E+03  0.20216149825E+03  0.00000000000E+00 0. -1.
         21   -1    0    0  503  502 -0.00000000000E+00 -0.00000000000E+00 -0.36295258567E+03  0.36295258567E+03  0.00000000000E+00 0. -1.
         21    1    1    2  503  505  0.33303838797E+02 -0.26418970184E+02 -0.26208138904E+03  0.26550661413E+03  0.00000000000E+00 0. -1.
         21    1    1    2  504  502 -0.10776862052E+03  0.43984785538E+02  0.22562510618E+00  0.11639926045E+03  0.00000000000E+00 0. -1.
         21    1    1    2  505  501  0.85379463922E+02 -0.48685043218E+02  0.26680842120E+02  0.10184180688E+03  0.00000000000E+00 0. -1.
         21    1    1    2  506  504 -0.10914682202E+02  0.31119227865E+02  0.74383834393E+02  0.81366402461E+02  0.00000000000E+00 0. -1.
<scales pt_clust_3="42.12646" pt_clust_4="14000.00000" pt_clust_5="98.96960" pt_clust_6="32.97782"></scales>
<clustering>
<clus scale="   32.978">  1  6  2 -1</clus>
<clus scale="   42.126">  2  3  1 -1</clus>
<clus scale="   98.970">  1  5  2 -1</clus>
<clus scale="   32.978">  1  3  2 -1</clus>
</clustering>
</event>
<event>
 6    0  0.4390142E+002  0.1183890E+03  0.7546771E-02  0.1245779E+00
         21   -1    0    0  504  501  0.00000000000E+00  0.00000000000E+00  0.15355870957E+03  0.15355870957E+03  0.00000000000E+00 0. -1.
         21   -1    0    0  506  502 -0.00000000000E+00 -0.00000000000E+00 -0.43793813504E+03  0.43793813504E+03  0.00000000000E+00 0. -1.
         21    1    1    2  503  501  0.28704078277E+02  0.10072105488E+02 -0.10893669770E+02  0.32311661359E+02  0.00000000000E+00 0.  1.
         21    1    1    2  504  505 -0.11912739097E+03  0.29023957397E+02  0.10617345006E+03  0.16219286938E+03  0.00000000000E+00 0. -1.
         21    1    1    2  505  502  0.61556916508E+02 -0.28298126260E+02 -0.34042188565E+03  0.34709811026E+03  0.00000000000E+00 0. -1.
         21    1    1    2  506  503  0.28866396183E+02 -0.10797936624E+02 -0.39237320115E+02  0.49894203609E+02  0.00000000000E+00 0. -1.
<scales pt_clust_3="30.29415" pt_clust_4="118.38898" pt_clust_5="14000.00000" pt_clust_6="65.15127"></scales>
<clustering>
<clus scale="   30.294">  3  6 -1 -1</clus>
<clus scale="   65.151">  2  3  1 -1</clus>
<clus scale="  118.389">  1  4  2 -1</clus>
<clus scale="  118.389">  1  3  2 -1</clus>
</clustering>
</event>
<event>
 6    0  0.4390142E+002  0.1089677E+03  0.7546771E-02  0.1262493E+00
         21   -1    0    0  505  501  0.00000000000E+00  0.00000000000E+00  0.60811912481E+03  0.60811912481E+03  0.00000000000E+00 0. -1.
         21   -1    0    0  503  502 -0.00000000000E+00 -0.00000000000E+00 -0.49508700862E+02  0.49508700862E+02  0.00000000000E+00 0. -1.
         21    1    1    2  503  506  0.82837591234E+01  0.58692930770E+02  0.87694871268E+01  0.59919818858E+02  0.00000000000E+00 0. -1.
         21    1    1    2  504  502  0.22112845465E+02 -0.41324949554E+02  0.13652788983E+03  0.14434886245E+03  0.00000000000E+00 0.  1.
         21    1    1    2  505  504  0.61961241904E+02 -0.28689010098E+02  0.29521552980E+03  0.30300901609E+03  0.00000000000E+00 0. -1.
         21    1    1    2  506  501 -0.92357846492E+02  0.11321028882E+02  0.11809751720E+03  0.15035012827E+03  0.00000000000E+00 0. -1.
<scales pt_clust_3="59.27462" pt_clust_4="34.72103" pt_clust_5="34.72103" pt_clust_6="100.58669"></scales>
<clustering>
<clus scale="   34.721">  4  5 -1 -1</clus>
<clus scale="   59.275">  2  3  1 -1</clus>
<clus scale="  100.587">  2  6  1 -1</clus>
<clus scale="  108.968">  1  3  2 -1</clus>
</clustering>
</event>
<event>
 6    0  0.4390142E+002  0.9675609E+02  0.7546771E-02  0.1287269E+00
         21   -1    0    0  503  501  0.00000000000E+00  0.00000000000E+00  0.10848185979E+03  0.10848185979E+03  0.00000000000E+00 0.  1.
         21   -1    0    0  506  502 -0.00000000000E+00 -0.00000000000E+00 -0.50805092928E+03  0.50805092928E+03  0.00000000000E+00 0. -1.
         21    1    1    2  503  505  0.93668850344E+02  0.16972078823E+02 -0.22252348506E+03  0.24203017661E+03  0.00000000000E+00 0.  1.
         21    1    1    2  504  501 -0.45639533764E+02  0.25051939319E+02  0.61725100487E+02  0.80749951925E+02  0.00000000000E+00 0.  1.
         21    1    1    2  505  502 -0.18005893793E+02 -0.66121914257E+02 -0.24531051177E+03  0.25470289936E+03  0.00000000000E+00 0. -1.
         21    1    1    2  506  504 -0.30023422788E+02  0.24097896116E+02  0.65398268453E+01  0.39049761181E+02  0.00000000000E+00 0.  1.
<scales pt_clust_3="88.37680" pt_clust_4="33.86887" pt_clust_5="68.52970" pt_clust_6="33.86887"></scales>
<clustering>
<clus scale="   33.869">  4  6 -1 -1</clus>
<clus scale="   68.530">  2  5  1 -1</clus>
<clus scale="   88.377">  2  3  1 -1</clus>
<clus scale="   96.756">  1  3  2 -1</clus>
</clustering>
</event>
<event>
 6    0  0.4390142E+002  0.2262039E+03  0.7546771E-02  0.1129341E+00
         21   -1    0    0  503  501  0.00000000000E+00  0.00000000000E+00  0.52647604191E+03  0.52647604191E+03  0.00000000000E+00 0.  1.
         21   -1    0    0  506  502 -0.00000000000E+00 -0.00000000000E+00 -0.28228812469E+03  0.28228812469E+03  0.00000000000E+00 0.  1.
         21    1    1    2  503  504  0.66583432066E+02  0.13161882961E+03  0.83183091965E+02  0.16934077041E+03  0.00000000000E+00 0.  1.
         21    1    1    2  504  502  0.60325411640E+02  0.88883787153E+02  0.67318697796E+01  0.10763271333E+03  0.00000000000E+00 0.  1.
         21    1    1    2  505  501 -0.13820696399E+03 -0.63119494378E+01  0.25859436547E+03  0.29327811281E+03  0.00000000000E+00 0.  1.
         21    1    1    2  506  505  0.11298120286E+02 -0.21419066732E+03 -0.10432140999E+03  0.23851257005E+03  0.00000000000E+00 0.  1.
<scales pt_clust_3="53.31025" pt_clust_4="53.31025" pt_clust_5="138.35102" pt_clust_6="217.40709"></scales>
<clustering>
<clus scale="   53.310">  3  4 -1 -1</clus>
<clus scale="  138.351">  1  5  2 -1</clus>
<clus scale="  217.407">  2  6  1 -1</clus>
<clus scale="  138.351">  1  3  2 -1</clus>
</clustering>
</event>
<event>
 6    0  0.4390142E+002  0.4551969E+03  0.7546771E-02  0.1026184E+00
         21   -1    0    0  502  501  0.00000000000E+00  0.00000000000E+00  0.75414193297E+03  0.75414193297E+03  0.00000000000E+00 0.  1.
         21   -1    0    0  503  502 -0.00000000000E+00 -0.00000000000E+00 -0.31955934757E+03  0.31955934757E+03  0.00000000000E+00 0.  1.
         21    1    1    2  503  505  0.32920520528E+02  0.40163532195E+03 -0.53243350159E+02  0.40648437467E+03  0.00000000000E+00 0.  1.
         21    1    1    2  504  501 -0.27417748520E+02 -0.41361505058E+02  0.10979041872E+03  0.12048420261E+03  0.00000000000E+00 0.  1.
         21    1    1    2  505  506  0.67964108257E+02 -0.10792962614E+03  0.85916078467E+02  0.15378392878E+03  0.00000000000E+00 0.  1.
         21    1    1    2  506  504 -0.73466880265E+02 -0.25234419075E+03  0.29211943837E+03  0.39294877449E+03  0.00000000000E+00 0.  1.
<scales pt_clust_3="402.98225" pt_clust_4="32.63607" pt_clust_5="123.66529" pt_clust_6="123.66529"></scales>
<clustering>
<clus scale="   32.636">  4  6 -1 -1</clus>
<clus scale="  123.665">  4  5 -1 -1</clus>
<clus scale="  402.982">  2  3  1 -1</clus>
<clus scale="  455.197">  1  3  2 -1</clus>
</clustering>
</event>
<event>
 6    0  0.4390142E+002  0.3188787E+03  0.7546771E-02  0.1076166E+00
         21   -1    0    0  506  501  0.00000000000E+00  0.00000000000E+00  0.19055359481E+04  0.19055359481E+04  0.00000000000E+00 0.  1.
         21   -1    0    0  504  502 -0.00000000000E+00 -0.00000000000E+00 -0.10555612602E+03  0.10555612602E+03  0.00000000000E+00 0. -1.
         21    1    1    2  503  501  0.60937622440E+02  0.68402084224E+02  0.26808560311E+03  0.28330571747E+03  0.00000000000E+00 0. -1.
         21    1    1    2  504  505 -0.18902968946E+03 -0.27391545707E+03  0.34269792367E+03  0.47770678036E+03  0.00000000000E+00 0. -1.
         21    1    1    2  505  503  0.86526696261E+01  0.18010206235E+03  0.28210441992E+03  0.33480520500E+03  0.00000000000E+00 0.  1.
         21    1    1    2  506  502  0.11943939739E+03  0.25411310488E+02  0.90709187541E+03  0.91527437132E+03  0.00000000000E+00 0.  1.
<scales pt_clust_3="80.50055" pt_clust_4="298.20919" pt_clust_5="80.50055" pt_clust_6="122.11267"></scales>
<clustering>
<clus scale="   80.501">  3  5 -1 -1</clus>
<clus scale="  122.113">  1  6  2 -1</clus>
<clus scale="  298.209">  2  4  1 -1</clus>
<clus scale="  122.113">  1  3  2 -1</clus>
</clustering>
</event>
<event>
 6    0  0.4390142E+002  0.2377939E+03  0.7546771E-02  0.1121271E+00
         21   -1    0    0  506  501  0.00000000000E+00  0.00000000000E+00  0.53248513752E+03  0.53248513752E+03  0.00000000000E+00 0.  1.
         21   -1    0    0  504  502 -0.00000000000E+00 -0.00000000000E+00 -0.30653383257E+03  0.30653383257E+03  0.00000000000E+00 0. -1.
         21    1    1    2  503  502  0.96341940006E+02  0.25883638024E+03 -0.15383117976E+03  0.31613616213E+03  0.00000000000E+00 0. -1.
         21    1    1    2  504  501 -0.43784714971E+02 -0.36704039851E+02 -0.19910289515E+02  0.60503780337E+02  0.00000000000E+00 0. -1.
         21    1    1    2  505  503 -0.36758694769E+02 -0.74114581340E+02  0.12397522096E+03  0.14904371245E+03  0.00000000000E+00 0.  1.
         21    1    1    2  506  505 -0.15798530266E+02 -0.14801775904E+03  0.27571755327E+03  0.31333531517E+03  0.00000000000E+00 0.  1.
<scales pt_clust_3="233.68981" pt_clust_4="57.13395" pt_clust_5="32.79332" pt_clust_6="32.79332"></scales>
<clustering>
<clus scale="   32.793">  5  6 -1 -1</clus>
<clus scale="   57.134">  2  4  1 -1</clus>
<clus scale="  233.690">  2  3  1 -1</clus>
<clus scale="  237.794">  1  3  2 -1</clus>
</clustering>
</event>
<event>
 6    0  0.4390142E+002  0.7333052E+02  0.7546771E-02  0.1349120E+00
         21   -1    0    0  503  501  0.00000000000E+00  0.00000000000E+00  0.26862608991E+02  0.26862608991E+02  0.00000000000E+00 0.  1.
         21   -1    0    0  506  502 -0.00000000000E+00 -0.00000000000E+00 -0.15843010060E+04  0.15843010060E+04  0.00000000000E+00 0.  1.
         21    1    1    2  503  505 -0.50958455325E+02  0.27588544632E+02 -0.76181087902E+02  0.95715464361E+02  0.00000000000E+00 0.  1.
         21    1    1    2  504  501  0.12858091738E+03 -0.28009134129E+02 -0.29365004209E+03  0.32178861250E+03  0.00000000000E+00 0.  1.
         21    1    1    2  505  502 -0.46034270775E+02  0.89924037279E+01 -0.19681771898E+03  0.20232951321E+03  0.00000000000E+00 0.  1.
         21    1    1    2  506  504 -0.31588191284E+02 -0.85718142310E+01 -0.99078954808E+03  0.99133002497E+03  0.00000000000E+00 0.  1.
<scales pt_clust_3="73.33052" pt_clust_4="14000.00000" pt_clust_5="56.98927" pt_clust_6="32.73056"></scales>
<clustering>
<clus scale="   32.731">  2  6  1 -1</clus>
<clus scale="   56.989">  2  5  1 -1</clus>
<clus scale="   73.331">  1  3  2 -1</clus>
<clus scale="   73.331">  1  3  2 -1</clus>
</clustering>
</event>
<event>
 6    0  0.4390142E+002  0.2271730E+03  0.7546771E-02  0.1128646E+00
         21   -1    0    0  503  501  0.00000000000E+00  0.00000000000E+00  0.21101464037E+03  0.21101464037E+03  0.00000000000E+00 0. -1.
         21   -1    0    0  506  502 -0.00000000000E+00 -0.00000000000E+00 -0.18957920534E+04  0.18957920534E+04  0.00000000000E+00 0.  1.
         21    1    1    2  503  502  0.18542592092E+03 -0.58893044844E+00  0.14969554964E+03  0.23831046257E+03  0.00000000000E+00 0. -1.
         21    1    1    2  504  501  0.30531144627E+02 -0.22495060653E+02 -0.26731263015E+02  0.46397618132E+02  0.00000000000E+00 0. -1.
         21    1    1    2  505  504 -0.17238981417E+03 -0.10408231089E+02 -0.13110254501E+04  0.13223518103E+04  0.00000000000E+00 0.  1.
         21    1    1    2  506  505 -0.43567251377E+02  0.33492222190E+02 -0.49671624954E+03  0.49974680279E+03  0.00000000000E+00 0. -1.
<scales pt_clust_3="216.01984" pt_clust_4="37.92332" pt_clust_5="39.64964" pt_clust_6="39.64964"></scales>
<clustering>
<clus scale="   37.923">  1  4  2 -1</clus>
<clus scale="   39.650">  5  6 -1 -1</clus>
<clus scale="  216.020">  1  3  2 -1</clus>
<clus scale="   37.923">  1  3  2 -1</clus>
</clustering>
</event>
<event>
 6    0  0.4390142E+002  0.1425262E+03  0.7546771E-02  0.1209970E+00
         21   -1    0    0  506  501  0.00000000000E+00  0.00000000000E+00  0.13240242680E+03  0.13240242680E+03  0.00000000000E+00 0.  1.
         21   -1    0    0  505  502 -0.00000000000E+00 -0.00000000000E+00 -0.25031989098E+03  0.25031989098E+03  0.00000000000E+00 0.  1.
         21    1    1    2  503  501  0.35913069641E+02  0.37527016575E+02  0.16757205052E+02  0.54578653934E+02  0.00000000000E+00 0.  1.
         21    1    1    2  504  503  0.59831094708E+02  0.40875076515E+02 -0.28850972052E+02  0.77993014831E+02  0.00000000000E+00 0.  1.
         21    1    1    2  505  504 -0.18593566798E+02  0.62932728297E+02 -0.32199882426E+02  0.73096384626E+02  0.00000000000E+00 0.  1.
         21    1    1    2  506  502 -0.77150597552E+02 -0.14133482139E+03 -0.73623814759E+02  0.17705426439E+03  0.00000000000E+00 0.  1.
<scales pt_clust_3="38.93873" pt_clust_4="38.93873" pt_clust_5="65.62202" pt_clust_6="134.90204"></scales>
<clustering>
<clus scale="   38.939">  3  4 -1 -1</clus>
<clus scale="   65.622">  2  5  1 -1</clus>
<clus scale="  134.902">  2  6  1 -1</clus>
<clus scale="  142.526">  1  3  2 -1</clus>
</clustering>
</event>
<event>
 6    0  0.4390142E+002  0.1240296E+03  0.7546771E-02  0.1236594E+00
         21   -1    0    0  503  501  0.00000000000E+00  0.00000000000E+00  0.56552455079E+02  0.56552455079E+02  0.00000000000E+00 0. -1.
         21   -1    0    0  505  502 -0.00000000000E+00 -0.00000000000E+00 -0.20079853468E+04  0.20079853468E+04  0.00000000000E+00 0. -1.
         21    1    1    2  503  504  0.45166557994E+01 -0.46846861075E+02 -0.11877091581E+03  0.12775585707E+03  0.00000000000E+00 0. -1.
         21    1    1    2  504  502 -0.10148127454E+03  0.61735996531E+02 -0.18272268118E+04  0.18310837239E+04  0.00000000000E+00 0. -1.
         21    1    1    2  505  506  0.62029949551E+02  0.92567759321E+01  0.11277036164E+01  0.62726981893E+02  0.00000000000E+00 0. -1.
         21    1    1    2  506  501  0.34934669194E+02 -0.24145911388E+02 -0.65628677620E+01  0.42971239006E+02  0.00000000000E+00 0.  1.
<scales pt_clust_3="47.06409" pt_clust_4="117.74802" pt_clust_5="32.06840" pt_clust_6="32.06840"></scales>
<clustering>
<clus scale="   32.068">  5  6 -1 -1</clus>
<clus scale="   47.064">  1  3  2 -1</clus>
<clus scale="  117.748">  2  4  1 -1</clus>
<clus scale="   47.064">  1  3  2 -1</clus>
</clustering>
</event>
<event>
 6    0  0.4390142E+002  0.1212238E+03  0.7546771E-02  0.1241092E+00
         21   -1    0    0  505  501  0.00000000000E+00  0.00000000000E+00  0.57924156102E+03  0.57924156102E+03  0.00000000000E+00 0. -1.
         21   -1    0    0  503  502 -0.00000000000E+00 -0.00000000000E+00 -0.99453831536E+02  0.99453831536E+02  0.00000000000E+00 0. -1.
         21    1    1    2  503  501 -0.11163066128E+03  0.72267293603E+02  0.13242031846E+03  0.18766754382E+03  0.00000000000E+00 0. -1.
         21    1    1    2  504  502  0.12426596963E+03  0.13610521571E+02 -0.57658529220E+01  0.12514200959E+03  0.00000000000E+00 0. -1.
         21    1    1    2  505  506  0.18899298299E+01 -0.47556772897E+02  0.25718786677E+03  0.26155461627E+03  0.00000000000E+00 0. -1.
         21    1    1    2  506  504 -0.14525238173E+02 -0.38321042278E+02  0.95945397180E+02  0.10433122287E+03  0.00000000000E+00 0. -1.
<scales pt_clust_3="14000.00000" pt_clust_4="121.22381" pt_clust_5="95.75670" pt_clust_6="37.51758"></scales>
<clustering>
<clus scale="   37.518">  5  6 -1 -1</clus>
<clus scale="   95.757">  1  5  2 -1</clus>
<clus scale="  121.224">  2  4  1 -1</clus>
<clus scale="   95.757">  1  3  2 -1</clus>
</clustering>
</event>
<event>
 6    0  0.4390142E+002  0.6776512E+02  0.7546771E-02  0.1367862E+00
         21   -1    0    0  503  501  0.00000000000E+00  0.00000000000E+00  0.76011960862E+03  0.76011960862E+03  0.00000000000E+00 0.  1.
         21   -1    0    0  505  502 -0.00000000000E+00 -0.00000000000E+00 -0.93604065547E+02  0.93604065547E+02  0.00000000000E+00 0.  1.
         21    1    1    2  503  504  0.55875962694E+02  0.50593382246E+02  0.37183142658E+03  0.37939481194E+03  0.00000000000E+00 0.  1.
         21    1    1    2  504  502  0.26907262929E+02 -0.38137656674E+02  0.37079309770E+01  0.46821260204E+02  0.00000000000E+00 0.  1.
         21    1    1    2  505  506 -0.93658614963E+02  0.35276546906E+02 -0.28691280547E+02  0.10411321001E+03  0.00000000000E+00 0.  1.
         21    1    1    2  506  501  0.10875389340E+02 -0.47732272479E+02  0.31966746606E+03  0.32339439202E+03  0.00000000000E+00 0.  1.
<scales pt_clust_3="67.76512" pt_clust_4="46.67421" pt_clust_5="14000.00000" pt_clust_6="50.07400"></scales>
<clustering>
<clus scale="   46.674">  2  4  1 -1</clus>
<clus scale="   50.074">  1  6  2 -1</clus>
<clus scale="   67.765">  1  3  2 -1</clus>
<clus scale="   50.074">  1  3  2 -1</clus>
</clustering>
</event>
<event>
 6    0  0.4390142E+002  0.1245161E+03  0.7546771E-02  0.1235828E+00
         21   -1    0    0  505  501  0.00000000000E+00  0.00000000000E+00  0.19377520008E+04  0.19377520008E+04  0.00000000000E+00 0.  1.
         21   -1    0    0  503  502 -0.00000000000E+00 -0.00000000000E+00 -0.28663558377E+03  0.28663558377E+03  0.00000000000E+00 0. -1.
         21    1    1    2  503  501 -0.33613562661E+02 -0.10175491202E+03  0.44038461047E+01  0.10725356673E+03  0.00000000000E+00 0. -1.
         21    1    1    2  504  502  0.60584855805E+02  0.11563707354E+03 -0.21566673404E+03  0.25210037227E+03  0.00000000000E+00 0. -1.
         21    1    1    2  505  506 -0.11414997886E+02  0.35652159434E+02  0.12146867265E+04  0.12152634373E+04  0.00000000000E+00 0.  1.
         21    1    1    2  506  504 -0.15556295258E+02 -0.49534320949E+02  0.64769257844E+03  0.64977020818E+03  0.00000000000E+00 0. -1.
<scales pt_clust_3="124.51608" pt_clust_4="14000.00000" pt_clust_5="37.43499" pt_clust_6="31.19612"></scales>
<clustering>
<clus scale="   37.435">  1  5  2 -1</clus>
<clus scale="   31.196">  1  6  2 -1</clus>
<clus scale="  124.516">  1  3  2 -1</clus>
<clus scale="   37.435">  1  3  2 -1</clus>
</clustering>
</event>
<event>
 6    0  0.4390142E+002  0.1667958E+03  0.7546771E-02  0.1181231E+00
         21   -1    0    0  503  501  0.00000000000E+00  0.00000000000E+00  0.19306477874E+04  0.19306477874E+04  0.00000000000E+00 0.  1.
         21   -1    0    0  505  502 -0.00000000000E+00 -0.00000000000E+00 -0.17585970039E+04  0.17585970039E+04  0.00000000000E+00 0.  1.
         21    1    1    2  503  506 -0.89517548930E+02 -0.49699716879E+02  0.12468908950E+04  0.12510876697E+04  0.00000000000E+00 0.  1.
         21    1    1    2  504  502  0.20690787897E+03  0.13301436621E+03  0.28929159517E+02  0.24767032173E+03  0.00000000000E+00 0. -1.
         21    1    1    2  505  501 -0.81471396571E+02 -0.35326294201E+02 -0.16442731484E+04  0.16466692813E+04  0.00000000000E+00 0.  1.
         21    1    1    2  506  504 -0.35918933470E+02 -0.47988355126E+02  0.54050387738E+03  0.54381751854E+03  0.00000000000E+00 0.  1.
<scales pt_clust_3="30.86545" pt_clust_4="161.84418" pt_clust_5="88.80054" pt_clust_6="30.86545"></scales>
<clustering>
<clus scale="   30.865">  3  6 -1 -1</clus>
<clus scale="   88.801">  2  5  1 -1</clus>
<clus scale="  161.844">  2  4  1 -1</clus>
<clus scale="  166.796">  1  3  2 -1</clus>
</clustering>
</event>
<event>
 6    0  0.4390142E+002  0.1808509E+03  0.7546771E-02  0.1166982E+00
         21   -1    0    0  503  501  0.00000000000E+00  0.00000000000E+00  0.22695852391E+04  0.22695852391E+04  0.00000000000E+00 0. -1.
         21   -1    0    0  504  502 -0.00000000000E+00 -0.00000000000E+00 -0.30552074130E+02  0.30552074130E+02  0.00000000000E+00 0. -1.
         21    1    1    2  503  502 -0.74069987533E+01 -0.33149332337E+02  0.13521234369E+03  0.13941348483E+03  0.00000000000E+00 0. -1.
         21    1    1    2  504  506 -0.15466786058E+03  0.27472133725E+02  0.23260268446E+03  0.28067930818E+03  0.00000000000E+00 0. -1.
         21    1    1    2  505  501  0.85678519240E+02  0.21813608987E+02  0.13628674721E+04  0.13657321805E+04  0.00000000000E+00 0. -1.
         21    1    1    2  506  505  0.76396340089E+02 -0.16136410375E+02  0.50835066467E+03  0.51431233972E+03  0.00000000000E+00 0.  1.
<scales pt_clust_3="33.96678" pt_clust_4="160.92683" pt_clust_5="77.90494" pt_clust_6="77.90494"></scales>
<clustering>
<clus scale="   33.967">  2  3  1 -1</clus>
<clus scale="   77.905">  5  6 -1 -1</clus>
<clus scale="  160.927">  2  4  1 -1</clus>
<clus scale="  180.851">  1  3  2 -1</clus>
</clustering>
</event>
<event>
 6    0  0.4390142E+002  0.9700088E+02  0.7546771E-02  0.1286732E+00
         21   -1    0    0  506  501  0.00000000000E+00  0.00000000000E+00  0.73731496447E+02  0.73731496447E+02  0.00000000000E+00 0.  1.
         21   -1    0    0  503  502 -0.00000000000E+00 -0.00000000000E+00 -0.82492610468E+03  0.82492610468E+03  0.00000000000E+00 0.  1.
         21    1    1    2  503  501 -0.61751843068E+02 -0.52998083359E+02 -0.14292851249E+03  0.16447080788E+03  0.00000000000E+00 0.  1.
         21    1    1    2  504  505  0.95578059155E+02  0.75515042655E+02 -0.47292859766E+02  0.13066867124E+03  0.00000000000E+00 0.  1.
         21    1    1    2  505  502  0.80436319532E+01 -0.30134276904E+02 -0.56008397470E+03  0.56095172107E+03  0.00000000000E+00 0.  1.
         21    1    1    2  506  504 -0.41869848040E+02  0.76173176086E+01 -0.88926127309E+00  0.42566400929E+02  0.00000000000E+00 0.  1.
<scales pt_clust_3="97.00088" pt_clust_4="14000.00000" pt_clust_5="31.18934" pt_clust_6="41.52831"></scales>
<clustering>
<clus scale="   31.189">  2  5  1 -1</clus>
<clus scale="   41.528">  1  6  2 -1</clus>
<clus scale="   97.001">  2  3  1 -1</clus>
<clus scale="   41.528">  1  3  2 -1</clus>
</clustering>
</event>
<event>
 6    0  0.4390142E+002  0.1104445E+03  0.7546771E-02  0.1259749E+00
         21   -1    0    0  505  501  0.00000000000E+00  0.00000000000E+00  0.34384431843E+03  0.34384431843E+03  0.00000000000E+00 0.  1.
         21   -1    0    0  504  502 -0.00000000000E+00 -0.00000000000E+00 -0.24235720331E+03  0.24235720331E+03  0.00000000000E+00 0.  1.
         21    1    1    2  503  502 -0.22743156271E+02 -0.22082476954E+02 -0.25233408690E+02  0.40516809595E+02  0.00000000000E+00 0.  1.
         21    1    1    2  504  506 -0.90420195587E+02  0.19084763010E+02 -0.18369280340E+03  0.20562851449E+03  0.00000000000E+00 0.  1.
         21    1    1    2  505  503  0.14082956069E+02 -0.30518071015E+02  0.62087215879E+02  0.70601024679E+02  0.00000000000E+00 0.  1.
         21    1    1    2  506  501  0.99080395789E+02  0.33515784959E+02  0.24832611134E+03  0.26945517298E+03  0.00000000000E+00 0.  1.
<scales pt_clust_3="31.69995" pt_clust_4="110.44445" pt_clust_5="33.83001" pt_clust_6="14000.00000"></scales>
<clustering>
<clus scale="   31.700">  2  3  1 -1</clus>
<clus scale="   33.830">  1  5  2 -1</clus>
<clus scale="  110.444">  2  4  1 -1</clus>
<clus scale="   33.830">  1  3  2 -1</clus>
</clustering>
</event>
<event>
 6    0  0.4390142E+002  0.7678325E+02  0.7546771E-02  0.1338436E+00
         21   -1    0    0  506  501  0.00000000000E+00  0.00000000000E+00  0.23712740697E+03  0.23712740697E+03  0.00000000000E+00 0. -1.
         21   -1    0    0  504  502 -0.00000000000E+00 -0.00000000000E+00 -0.47576960240E+03  0.47576960240E+03  0.00000000000E+00 0.  1.
         21    1    1    2  503  501 -0.44881982233E+02 -0.55018348043E+02  0.16594147885E+03  0.18049372663E+03  0.00000000000E+00 0. -1.
         21    1    1    2  504  503  0.99474517815E+02  0.34383962782E+02 -0.38665023608E+03  0.40071915558E+03  0.00000000000E+00 0.  1.
         21    1    1    2  505  502 -0.24192942412E+02 -0.20973832405E+02 -0.58106704097E+02  0.66344473540E+02  0.00000000000E+00 0.  1.
         21    1    1    2  506  505 -0.30399593171E+02  0.41608217667E+02  0.40173265890E+02  0.65339653615E+02  0.00000000000E+00 0. -1.
<scales pt_clust_3="76.78325" pt_clust_4="14000.00000" pt_clust_5="32.01875" pt_clust_6="51.45850"></scales>
<clustering>
<clus scale="   32.019">  2  5  1 -1</clus>
<clus scale="   51.458">  1  6  2 -1</clus>
<clus scale="   76.783">  1  3  2 -1</clus>
<clus scale="   51.458">  1  3  2 -1</clus>
</clustering>
</event>
<event>
 6    0  0.4390142E+002  0.1269546E+03  0.7546771E-02  0.1232046E+00
         21   -1    0    0  506  501  0.00000000000E+00  0.00000000000E+00  0.46738124517E+03  0.46738124517E+03  0.00000000000E+00 0.  1.
         21   -1    0    0  505  502 -0.00000000000E+00 -0.00000000000E+00 -0.12215943936E+04  0.12215943936E+04  0.00000000000E+00 0.  1.
         21    1    1    2  503  501 -0.11448159492E+02 -0.67748568604E+02  0.33189940374E+03  0.33893678334E+03  0.00000000000E+00 0.  1.
         21    1    1    2  504  502 -0.54124035061E+02 -0.72981805023E+02 -0.31004506831E+03  0.32308466293E+03  0.00000000000E+00 0. -1.
         21    1    1    2  505  503 -0.66825825784E+02 -0.38058514306E+02  0.98254125302E+02  0.12477185036E+03  0.00000000000E+00 0. -1.
         21    1    1    2  506  504  0.13239802034E+03  0.17878888793E+03 -0.87432160912E+03  0.90218234211E+03  0.00000000000E+00 0.  1.
<scales pt_clust_3="68.70902" pt_clust_4="93.89928" pt_clust_5="126.95460" pt_clust_6="14000.00000"></scales>
<clustering>
<clus scale="   68.709">  1  3  2 -1</clus>
<clus scale="   93.899">  2  4  1 -1</clus>
<clus scale="  126.955">  1  5  2 -1</clus>
<clus scale="   68.709">  1  3  2 -1</clus>
</clustering>
</event>
<event>
 6    0  0.4390142E+002  0.8361729E+02  0.7546771E-02  0.1319089E+00
         21   -1    0    0  505  501  0.00000000000E+00  0.00000000000E+00  0.33067754268E+03  0.33067754268E+03  0.00000000000E+00 0. -1.
         21   -1    0    0  506  502 -0.00000000000E+00 -0.00000000000E+00 -0.43093444548E+03  0.43093444548E+03  0.00000000000E+00 0. -1.
         21    1    1    2  503  501 -0.67235856867E+02 -0.34496859938E+02  0.18786199038E+03  0.20249153371E+03  0.00000000000E+00 0. -1.
         21    1    1    2  504  502  0.11472430250E+03 -0.32384247049E+02 -0.31432462577E+03  0.33617015841E+03  0.00000000000E+00 0. -1.
         21    1    1    2  505  504 -0.16324314525E+02  0.36237661214E+02  0.11625156630E+03  0.12285795865E+03  0.00000000000E+00 0. -1.
         21    1    1    2  506  503 -0.31164131112E+02  0.30643445773E+02 -0.90045833707E+02  0.10009233739E+03  0.00000000000E+00 0.  1.
<scales pt_clust_3="83.61729" pt_clust_4="14000.00000" pt_clust_5="39.74483" pt_clust_6="44.58888"></scales>
<clustering>
<clus scale="   39.745">  1  5  2 -1</clus>
<clus scale="   44.589">  2  6  1 -1</clus>
<clus scale="   83.617">  1  3  2 -1</clus>
<clus scale="   39.745">  1  3  2 -1</clus>
</clustering>
</event>
<event>
 6    0  0.4970946E+002  0.1094121E+03  0.7546771E-02  0.1261662E+00
         21   -1    0    0  504  501  0.00000000000E+00  0.00000000000E+00  0.11277211546E+04  0.11277211546E+04  0.00000000000E+00 0.  1.
         21   -1    0    0  503  502 -0.00000000000E+00 -0.00000000000E+00 -0.37670966575E+03  0.37670966575E+03  0.00000000000E+00 0.  1.
         21    1    1    2  503  506 -0.62661406971E+02  0.76866002749E+01 -0.34846464017E+03  0.35413717850E+03  0.00000000000E+00 0.  1.
         21    1    1    2  504  505  0.34152244841E+02  0.49176953016E+02  0.98448716955E+02  0.11522542430E+03  0.00000000000E+00 0.  1.
         21    1    1    2  505  502  0.15623475077E+02  0.43167790792E+02  0.22085199968E+02  0.50944157594E+02  0.00000000000E+00 0.  1.
         21    1    1    2  506  501  0.12885687053E+02 -0.10003134408E+03  0.97894221206E+03  0.98412405991E+03  0.00000000000E+00 0.  1.
<scales pt_clust_3="63.13110" pt_clust_4="39.92353" pt_clust_5="39.92353" pt_clust_6="99.45991"></scales>
<clustering>
<clus scale="   39.924">  4  5 -1 -1</clus>
<clus scale="   63.131">  2  3  1 -1</clus>
<clus scale="   99.460">  1  6  2 -1</clus>
<clus scale="   99.460">  1  3  2 -1</clus>
</clustering>
</event>
<event>
 6    0  0.4390142E+002  0.7575143E+02  0.7546771E-02  0.1341560E+00
         21   -1    0    0  504  501  0.00000000000E+00  0.00000000000E+00  0.92354989600E+03  0.92354989600E+03  0.00000000000E+00 0. -1.
         21   -1    0    0  501  502 -0.00000000000E+00 -0.00000000000E+00 -0.67897613380E+03  0.67897613380E+03  0.00000000000E+00 0.  1.
         21    1    1    2  503  502 -0.34664489052E+02 -0.42058189072E+02 -0.64364041891E+03  0.64594388837E+03  0.00000000000E+00 0.  1.
         21    1    1    2  504  506 -0.31931031586E+02 -0.97136706439E+01  0.38812797980E+03  0.38956036102E+03  0.00000000000E+00 0.  1.
         21    1    1    2  505  503  0.10751534692E+03  0.13827464764E+02  0.60963999730E+02  0.12436783294E+03  0.00000000000E+00 0.  1.
         21    1    1    2  506  505 -0.40919826286E+02  0.37944394953E+02  0.43912220158E+03  0.44265394747E+03  0.00000000000E+00 0. -1.
<scales pt_clust_3="54.56236" pt_clust_4="33.37583" pt_clust_5="75.75143" pt_clust_6="14000.00000"></scales>
<clustering>
<clus scale="   33.376">  1  4  2 -1</clus>
<clus scale="   54.562">  2  3  1 -1</clus>
<clus scale="   75.751">  2  5  1 -1</clus>
<clus scale="   33.376">  1  3  2 -1</clus>
</clustering>
</event>
<event>
 6    0  0.4390142E+002  0.1620503E+03  0.7546771E-02  0.1186401E+00
         21   -1    0    0  504  501  0.00000000000E+00  0.00000000000E+00  0.28719611299E+03  0.28719611299E+03  0.00000000000E+00 0. -1.
         21   -1    0    0  506  502 -0.00000000000E+00 -0.00000000000E+00 -0.33367373592E+03  0.33367373592E+03  0.00000000000E+00 0. -1.
         21    1    1    2  503  505 -0.70082747503E+02 -0.25483319254E+01  0.54261598975E+02  0.88670212679E+02  0.00000000000E+00 0. -1.
         21    1    1    2  504  503 -0.77979659904E+02 -0.28746675127E+02  0.14470069710E+03  0.16686968098E+03  0.00000000000E+00 0.  1.
         21    1    1    2  505  502 -0.14525172538E+02  0.28531056954E+02 -0.19127381747E+03  0.19393471865E+03  0.00000000000E+00 0. -1.
         21    1    1    2  506  501  0.16258757995E+03  0.27639500985E+01 -0.54166101537E+02  0.17139523660E+03  0.00000000000E+00 0. -1.
<scales pt_clust_3="49.21748" pt_clust_4="49.21748" pt_clust_5="32.01565" pt_clust_6="153.12579"></scales>
<clustering>
<clus scale="   32.016">  2  5  1 -1</clus>
<clus scale="   49.217">  3  4 -1 -1</clus>
<clus scale="  153.126">  2  6  1 -1</clus>
<clus scale="  162.050">  1  3  2 -1</clus>
</clustering>
</event>
<event>
 6    0  0.4390142E+002  0.1102392E+03  0.7546771E-02  0.1260128E+00
         21   -1    0    0  504  501  0.00000000000E+00  0.00000000000E+00  0.28168190370E+03  0.28168190370E+03  0.00000000000E+00 0. -1.
         21   -1    0    0  506  502 -0.00000000000E+00 -0.00000000000E+00 -0.22303509367E+04  0.22303509367E+04  0.00000000000E+00 0.  1.
         21    1    1    2  503  502 -0.54600188990E+02 -0.21694003221E+02 -0.21570284830E+04  0.21578284656E+04  0.00000000000E+00 0.  1.
         21    1    1    2  504  503  0.21879635624E+02  0.44047234186E+02  0.27504086749E+02  0.56350262487E+02  0.00000000000E+00 0.  1.
         21    1    1    2  505  501  0.85618901514E+02  0.50232966840E+02  0.18280302102E+03  0.20801656604E+03  0.00000000000E+00 0. -1.
         21    1    1    2  506  505 -0.52898348148E+02 -0.72586197805E+02 -0.19476577605E+01  0.89837546268E+02  0.00000000000E+00 0. -1.
<scales pt_clust_3="58.69108" pt_clust_4="49.18208" pt_clust_5="110.23918" pt_clust_6="14000.00000"></scales>
<clustering>
<clus scale="   49.182">  1  4  2 -1</clus>
<clus scale="   58.691">  2  3  1 -1</clus>
<clus scale="  110.239">  1  5  2 -1</clus>
<clus scale="   49.182">  1  3  2 -1</clus>
</clustering>
</event>
<event>
 6    0  0.4390142E+002  0.1029630E+03  0.7546771E-02  0.1274186E+00
         21   -1    0    0  504  501  0.00000000000E+00  0.00000000000E+00  0.15533317212E+03  0.15533317212E+03  0.00000000000E+00 0.  1.
         21   -1    0    0  505  502 -0.00000000000E+00 -0.00000000000E+00 -0.15246003450E+04  0.15246003450E+04  0.00000000000E+00 0.  1.
         21    1    1    2  503  506 -0.58999857413E+02 -0.59111713475E+02  0.46283020620E+01  0.83645675469E+02  0.00000000000E+00 0.  1.
         21    1    1    2  504  502  0.26452422222E+02 -0.37325556042E+02 -0.13551058027E+04  0.13558778206E+04  0.00000000000E+00 0.  1.
         21    1    1    2  505  503 -0.31892482933E+02 -0.55208759728E+01 -0.93219504287E+02  0.98678703470E+02  0.00000000000E+00 0.  1.
         21    1    1    2  506  501  0.64439918125E+02  0.10195814549E+03  0.74429832083E+02  0.14173131758E+03  0.00000000000E+00 0.  1.
<scales pt_clust_3="14000.00000" pt_clust_4="42.73362" pt_clust_5="32.36681" pt_clust_6="102.96305"></scales>
<clustering>
<clus scale="   32.367">  2  5  1 -1</clus>
<clus scale="   42.734">  2  4  1 -1</clus>
<clus scale="  102.963">  1  6  2 -1</clus>
<clus scale="  102.963">  1  3  2 -1</clus>
</clustering>
</event>
<event>
 6    0  0.4390142E+002  0.1807528E+03  0.7546771E-02  0.1167076E+00
         21   -1    0    0  505  501  0.00000000000E+00  0.00000000000E+00  0.11588502034E+04  0.11588502034E+04  0.00000000000E+00 0. -1.
         21   -1    0    0  506  502 -0.00000000000E+00 -0.00000000000E+00 -0.25919864721E+03  0.25919864721E+03  0.00000000000E+00 0. -1.
         21    1    1    2  503  502  0.10941383947E+03  0.10976898473E+03  0.97125906196E+03  0.98354704194E+03  0.00000000000E+00 0. -1.
         21    1    1    2  504  501 -0.34527817527E+02 -0.17793842334E+03  0.27601474630E+02  0.18334692276E+03  0.00000000000E+00 0. -1.
         21    1    1    2  505  503  0.86078714952E+01  0.37048088055E+02  0.58638532284E+02  0.69893731826E+02  0.00000000000E+00 0. -1.
         21    1    1    2  506  504 -0.83493893434E+02  0.31121350556E+02 -0.15784751271E+03  0.18126115406E+03  0.00000000000E+00 0. -1.
<scales pt_clust_3="180.75282" pt_clust_4="14000.00000" pt_clust_5="38.03493" pt_clust_6="89.15842"></scales>
<clustering>
<clus scale="   38.035">  1  5  2 -1</clus>
<clus scale="   89.158">  2  6  1 -1</clus>
<clus scale="  180.753">  1  3  2 -1</clus>
<clus scale="   38.035">  1  3  2 -1</clus>
</clustering>
</event>
<event>
 6    0  0.4390142E+002  0.7256511E+02  0.7546771E-02  0.1351581E+00
         21   -1    0    0  503  501  0.00000000000E+00  0.00000000000E+00  0.10028236886E+04  0.10028236886E+04  0.00000000000E+00 0. -1.
         21   -1    0    0  504  502 -0.00000000000E+00 -0.00000000000E+00 -0.54706017489E+02  0.54706017489E+02  0.00000000000E+00 0. -1.
         21    1    1    2  503  502  0.53558729024E+02 -0.59744259793E+01  0.50840937507E+02  0.74088002720E+02  0.00000000000E+00 0. -1.
         21    1    1    2  504  506 -0.64727964025E+02  0.70424968372E+02  0.29606538435E+02  0.10012957912E+03  0.00000000000E+00 0. -1.
         21    1    1    2  505  501 -0.34468695919E+02  0.26781112454E+02  0.10299638273E+03  0.11186408645E+03  0.00000000000E+00 0. -1.
         21    1    1    2  506  505  0.45637930920E+02 -0.91231654846E+02  0.76467381242E+03  0.77144803777E+03  0.00000000000E+00 0. -1.
<scales pt_clust_3="51.31866" pt_clust_4="72.56511" pt_clust_5="43.64996" pt_clust_6="14000.00000"></scales>
<clustering>
<clus scale="   43.650">  1  5  2 -1</clus>
<clus scale="   51.319">  2  3  1 -1</clus>
<clus scale="   72.565">  2  4  1 -1</clus>
<clus scale="   43.650">  1  3  2 -1</clus>
</clustering>
</event>
<event>
 6    0  0.4390142E+002  0.9515773E+02  0.7546771E-02  0.1290821E+00
         21   -1    0    0  502  501  0.00000000000E+00  0.00000000000E+00  0.35599665327E+03  0.35599665327E+03  0.00000000000E+00 0.  1.
         21   -1    0    0  506  502 -0.00000000000E+00 -0.00000000000E+00 -0.57191551465E+03  0.57191551465E+03  0.00000000000E+00 0.  1.
         21    1    1    2  503  504 -0.94080713323E+02 -0.14290939225E+02  0.42205931375E+02  0.10409972241E+03  0.00000000000E+00 0.  1.
         21    1    1    2  504  501  0.14582276380E+02  0.42699982725E+02  0.23992303915E+03  0.24412905608E+03  0.00000000000E+00 0.  1.
         21    1    1    2  505  503  0.12422236568E+03 -0.17809069628E+02 -0.59765179524E+02  0.13899725098E+03  0.00000000000E+00 0.  1.
         21    1    1    2  506  505 -0.44723928733E+02 -0.10599973871E+02 -0.43828265238E+03  0.44068613846E+03  0.00000000000E+00 0.  1.
<scales pt_clust_3="95.15773" pt_clust_4="45.12130" pt_clust_5="14000.00000" pt_clust_6="45.71123"></scales>
<clustering>
<clus scale="   45.121">  1  4  2 -1</clus>
<clus scale="   45.711">  2  6  1 -1</clus>
<clus scale="   95.158">  1  3  2 -1</clus>
<clus scale="   45.121">  1  3  2 -1</clus>
</clustering>
</event>
<event>
 6    0  0.4390142E+002  0.1258547E+03  0.7546771E-02  0.1233740E+00
         21   -1    0    0  505  501  0.00000000000E+00  0.00000000000E+00  0.11283471355E+04  0.11283471355E+04  0.00000000000E+00 0. -1.
         21   -1    0    0  506  502 -0.00000000000E+00 -0.00000000000E+00 -0.63012912521E+02  0.63012912521E+02  0.00000000000E+00 0. -1.
         21    1    1    2  503  502 -0.22188921799E+02 -0.18682647623E+03  0.20612255254E+03  0.27907523562E+03  0.00000000000E+00 0. -1.
         21    1    1    2  504  501 -0.20573421300E+02  0.77728809891E+02  0.24307864229E+03  0.25603175562E+03  0.00000000000E+00 0. -1.
         21    1    1    2  505  503  0.53224333484E+02  0.63731473644E+02  0.60185532911E+03  0.60755606127E+03  0.00000000000E+00 0. -1.
         21    1    1    2  506  504 -0.10461990385E+02  0.45366192697E+02  0.14277699057E+02  0.48696995523E+02  0.00000000000E+00 0.  1.
<scales pt_clust_3="125.85467" pt_clust_4="14000.00000" pt_clust_5="84.81432" pt_clust_6="46.55690"></scales>
<clustering>
<clus scale="   46.557">  2  6  1 -1</clus>
<clus scale="   84.814">  1  5  2 -1</clus>
<clus scale="  125.855">  2  3  1 -1</clus>
<clus scale="   84.814">  1  3  2 -1</clus>
</clustering>
</event>
<event>
 6    0  0.4390142E+002  0.1174168E+03  0.7546771E-02  0.1247420E+00
         21   -1    0    0  506  501  0.00000000000E+00  0.00000000000E+00  0.31769842521E+03  0.31769842521E+03  0.00000000000E+00 0.  1.
         21   -1    0    0  504  502 -0.00000000000E+00 -0.00000000000E+00 -0.21007126513E+03  0.21007126513E+03  0.00000000000E+00 0.  1.
         21    1    1    2  503  502  0.25110676773E+02 -0.49800832838E+02 -0.14544034082E+03  0.15576765318E+03  0.00000000000E+00 0.  1.
         21    1    1    2  504  501  0.88017577847E+02  0.51993117928E+01 -0.73126690464E+00  0.88174041557E+02  0.00000000000E+00 0. -1.
         21    1    1    2  505  503 -0.66247521690E+02  0.17563850979E+02  0.10399093530E+03  0.12454452062E+03  0.00000000000E+00 0.  1.
         21    1    1    2  506  505 -0.46880732930E+02  0.27037670066E+02  0.14980783250E+03  0.15928347498E+03  0.00000000000E+00 0.  1.
<scales pt_clust_3="55.77337" pt_clust_4="111.48757" pt_clust_5="32.73697" pt_clust_6="32.73697"></scales>
<clustering>
<clus scale="   32.737">  5  6 -1 -1</clus>
<clus scale="   55.773">  2  3  1 -1</clus>
<clus scale="  111.488">  2  4  1 -1</clus>
<clus scale="  117.417">  1  3  2 -1</clus>
</clustering>
</event>
<event>
 6    0  0.4390142E+002  0.2598046E+03  0.7546771E-02  0.1107261E+00
         21   -1    0    0  503  501  0.00000000000E+00  0.00000000000E+00  0.26391717092E+03  0.26391717092E+03  0.00000000000E+00 0.  1.
         21   -1    0    0  504  502 -0.00000000000E+00 -0.00000000000E+00 -0.47230887615E+03  0.47230887615E+03  0.00000000000E+00 0.  1.
         21    1    1    2  503  505  0.13516532589E+03 -0.23836196349E+03 -0.11255852030E+02  0.27424949438E+03  0.00000000000E+00 0.  1.
         21    1    1    2  504  506  0.36724752948E+02  0.18322079528E+02 -0.14940723734E+03  0.15494169435E+03  0.00000000000E+00 0. -1.
         21    1    1    2  505  502 -0.12830036997E+03  0.21454844789E+03 -0.67380535480E+02  0.25890569323E+03  0.00000000000E+00 0.  1.
         21    1    1    2  506  501 -0.43589708870E+02  0.54914360739E+01  0.19651919624E+02  0.48129165112E+02  0.00000000000E+00 0.  1.
<scales pt_clust_3="14000.00000" pt_clust_4="41.04152" pt_clust_5="259.80464" pt_clust_6="42.42760"></scales>
<clustering>
<clus scale="   41.042">  2  4  1 -1</clus>
<clus scale="   42.428">  1  6  2 -1</clus>
<clus scale="  259.805">  2  5  1 -1</clus>
<clus scale="   42.428">  1  3  2 -1</clus>
</clustering>
</event>
<event>
 6    0  0.4390142E+002  0.1524133E+03  0.7546771E-02  0.1197538E+00
         21   -1    0    0  503  501  0.00000000000E+00  0.00000000000E+00  0.52218145086E+03  0.52218145086E+03  0.00000000000E+00 0. -1.
         21   -1    0    0  505  502 -0.00000000000E+00 -0.00000000000E+00 -0.14553814554E+03  0.14553814554E+03  0.00000000000E+00 0.  1.
         21    1    1    2  503  504  0.33379368752E+02  0.25389674003E+02  0.22929497205E+03  0.23309869586E+03  0.00000000000E+00 0. -1.
         21    1    1    2  504  506  0.25907546638E+02  0.38246995794E+02  0.10447104507E+03  0.11422886202E+03  0.00000000000E+00 0. -1.
         21    1    1    2  505  501 -0.49935871686E+02 -0.18073872516E+03 -0.17472025258E+02  0.18832246207E+03  0.00000000000E+00 0.  1.
         21    1    1    2  506  502 -0.93510437054E+01  0.11710205537E+03  0.60349313461E+02  0.13206957645E+03  0.00000000000E+00 0.  1.
<scales pt_clust_3="38.96170" pt_clust_4="96.10764" pt_clust_5="152.41335" pt_clust_6="14000.00000"></scales>
<clustering>
<clus scale="   38.962">  3  4 -1 -1</clus>
<clus scale="   96.108">  1  3  2 -1</clus>
<clus scale="  152.413">  2  5  1 -1</clus>
<clus scale="   96.108">  1  3  2 -1</clus>
</clustering>
</event>
<event>
 6    0  0.4390142E+002  0.1212220E+03  0.7546771E-02  0.1241095E+00
         21   -1    0    0  506  501  0.00000000000E+00  0.00000000000E+00  0.16554234835E+04  0.16554234835E+04  0.00000000000E+00 0.  1.
         21   -1    0    0  503  502 -0.00000000000E+00 -0.00000000000E+00 -0.14495777145E+03  0.14495777145E+03  0.00000000000E+00 0. -1.
         21    1    1    2  503  504  0.51738560292E+02 -0.66061102360E+02  0.81696862194E+02  0.11711244664E+03  0.00000000000E+00 0.  1.
         21    1    1    2  504  501  0.32694441732E+02 -0.75259031641E+02  0.13339093735E+04  0.13364307184E+04  0.00000000000E+00 0.  1.
         21    1    1    2  505  502 -0.48202536662E+02  0.12771810878E+03 -0.86358568053E+02  0.16153390396E+03  0.00000000000E+00 0. -1.
         21    1    1    2  506  505 -0.36230465361E+02  0.13602025222E+02  0.18121804442E+03  0.18530418596E+03  0.00000000000E+00 0.  1.
<scales pt_clust_3="14000.00000" pt_clust_4="62.92296" pt_clust_5="121.22200" pt_clust_6="38.69963"></scales>
<clustering>
<clus scale="   38.700">  1  6  2 -1</clus>
<clus scale="   62.923">  1  4  2 -1</clus>
<clus scale="  121.222">  2  5  1 -1</clus>
<clus scale="   38.700">  1  3  2 -1</clus>
</clustering>
</event>
<event>
 6    0  0.4390142E+002  0.1098354E+03  0.7546771E-02  0.1260875E+00
         21   -1    0    0  506  501  0.00000000000E+00  0.00000000000E+00  0.97613051114E+02  0.97613051114E+02  0.00000000000E+00 0.  1.
         21   -1    0    0  503  502 -0.00000000000E+00 -0.00000000000E+00 -0.30008476604E+03  0.30008476604E+03  0.00000000000E+00 0. -1.
         21    1    1    2  503  505 -0.39539818861E+02 -0.52177393072E+02 -0.13636669150E+03  0.15126715497E+03  0.00000000000E+00 0. -1.
         21    1    1    2  504  501 -0.55316283790E+01 -0.34516287115E+02  0.11857517062E+02  0.36913055950E+02  0.00000000000E+00 0.  1.
         21    1    1    2  505  504 -0.14093640992E+02 -0.46354398106E+02 -0.25455456740E+02  0.54729710561E+02  0.00000000000E+00 0. -1.
         21    1    1    2  506  502  0.59165088232E+02  0.13304807829E+03 -0.52507083752E+02  0.15478789567E+03  0.00000000000E+00 0.  1.
<scales pt_clust_3="65.46661" pt_clust_4="30.48769" pt_clust_5="30.48769" pt_clust_6="103.80531"></scales>
<clustering>
<clus scale="   30.488">  4  5 -1 -1</clus>
<clus scale="   65.467">  2  3  1 -1</clus>
<clus scale="  103.805">  2  6  1 -1</clus>
<clus scale="  109.835">  1  3  2 -1</clus>
</clustering>
</event>
<event>
 6    0  0.4390142E+002  0.9230635E+02  0.7546771E-02  0.1297361E+00
         21   -1    0    0  503  501  0.00000000000E+00  0.00000000000E+00  0.13579323501E+03  0.13579323501E+03  0.00000000000E+00 0.  1.
         21   -1    0    0  504  502 -0.00000000000E+00 -0.00000000000E+00 -0.16969847597E+03  0.16969847597E+03  0.00000000000E+00 0.  1.
         21    1    1    2  503  506 -0.11557373333E+03  0.13280362122E+02 -0.28822593752E+02  0.11985156555E+03  0.00000000000E+00 0.  1.
         21    1    1    2  504  505  0.30687019740E+02  0.51074944341E+01 -0.18001326672E+02  0.35942001083E+02  0.00000000000E+00 0. -1.
         21    1    1    2  505  501  0.82938504688E+02  0.22455666404E+02  0.45670992433E+02  0.97308232249E+02  0.00000000000E+00 0.  1.
         21    1    1    2  506  502  0.19482088996E+01 -0.40843522961E+02 -0.32752312965E+02  0.52389912105E+02  0.00000000000E+00 0.  1.
<scales pt_clust_3="14000.00000" pt_clust_4="31.10916" pt_clust_5="92.30635" pt_clust_6="40.85717"></scales>
<clustering>
<clus scale="   31.109">  2  4  1 -1</clus>
<clus scale="   40.857">  2  6  1 -1</clus>
<clus scale="   92.306">  1  5  2 -1</clus>
<clus scale="   92.306">  1  3  2 -1</clus>
</clustering>
</event>
<event>
 6    0  0.4390142E+002  0.1157796E+03  0.7546771E-02  0.1250226E+00
         21   -1    0    0  503  501  0.00000000000E+00  0.00000000000E+00  0.33719796271E+02  0.33719796271E+02  0.00000000000E+00 0.  1.
         21   -1    0    0  506  502 -0.00000000000E+00 -0.00000000000E+00 -0.31457930639E+04  0.31457930639E+04  0.00000000000E+00 0.  1.
         21    1    1    2  503  505 -0.80225071949E+02  0.16144635995E+02 -0.12022666926E+03  0.14543439566E+03  0.00000000000E+00 0. -1.
         21    1    1    2  504  501  0.33370728712E+02 -0.65620380127E+02 -0.67971351377E+02  0.10019852509E+03  0.00000000000E+00 0.  1.
         21    1    1    2  505  502  0.13202576650E+03 -0.11910397587E+02 -0.19061117559E+04  0.19107157525E+04  0.00000000000E+00 0.  1.
         21    1    1    2  506  504 -0.85171423259E+02  0.61386141719E+02 -0.10177634910E+04  0.10231641869E+04  0.00000000000E+00 0.  1.
<scales pt_clust_3="64.22068" pt_clust_4="73.61820" pt_clust_5="14000.00000" pt_clust_6="115.77961"></scales>
<clustering>
<clus scale="   73.618">  1  4  2 -1</clus>
<clus scale="   64.221">  1  3  2 -1</clus>
<clus scale="  115.780">  1  6  2 -1</clus>
<clus scale="   73.618">  1  3  2 -1</clus>
</clustering>
</event>
<event>
 6    0  0.4390142E+002  0.1088780E+03  0.7546771E-02  0.1262662E+00
         21   -1    0    0  502  501  0.00000000000E+00  0.00000000000E+00  0.72201862552E+03  0.72201862552E+03  0.00000000000E+00 0. -1.
         21   -1    0    0  505  502 -0.00000000000E+00 -0.00000000000E+00 -0.12684301819E+03  0.12684301819E+03  0.00000000000E+00 0. -1.
         21    1    1    2  503  504 -0.90147309785E+02 -0.12901685534E+03  0.21021098621E+03  0.26260339897E+03  0.00000000000E+00 0. -1.
         21    1    1    2  504  506  0.36546947069E+02  0.39500324967E+02  0.35804600836E+03  0.36206753391E+03  0.00000000000E+00 0. -1.
         21    1    1    2  505  503  0.27502521947E+02  0.62081491031E+02 -0.83405235572E+02  0.10754967951E+03  0.00000000000E+00 0. -1.
         21    1    1    2  506  501  0.26097840768E+02  0.27435039346E+02  0.11032384832E+03  0.11664103131E+03  0.00000000000E+00 0.  1.
<scales pt_clust_3="102.31110" pt_clust_4="31.23836" pt_clust_5="67.90066" pt_clust_6="31.23836"></scales>
<clustering>
<clus scale="   31.238">  4  6 -1 -1</clus>
<clus scale="   67.901">  2  5  1 -1</clus>
<clus scale="  102.311">  2  3  1 -1</clus>
<clus scale="  108.878">  1  3  2 -1</clus>
</clustering>
</event>
<event>
 6    0  0.4882957E+002  0.1681752E+03  0.7546771E-02  0.1179764E+00
         21   -1    0    0  505  501  0.00000000000E+00  0.00000000000E+00  0.42996910127E+03  0.42996910127E+03  0.00000000000E+00 0. -1.
         21   -1    0    0  503  502 -0.00000000000E+00 -0.00000000000E+00 -0.84668884056E+03  0.84668884056E+03  0.00000000000E+00 0.  1.
         21    1    1    2  503  506  0.80463280710E+01  0.46244541852E+02 -0.18300693739E+02  0.50380714940E+02  0.00000000000E+00 0. -1.
         21    1    1    2  504  502  0.13059200638E+03  0.59931360690E+02 -0.78169836842E+03  0.79479455164E+03  0.00000000000E+00 0.  1.
         21    1    1    2  505  504 -0.58184934530E+02 -0.46748026849E+02  0.68909027157E+02  0.10158404719E+03  0.00000000000E+00 0. -1.
         21    1    1    2  506  501 -0.80453399916E+02 -0.59427875693E+02  0.31437029571E+03  0.32989862805E+03  0.00000000000E+00 0. -1.
<scales pt_clust_3="46.93933" pt_clust_4="14000.00000" pt_clust_5="73.93219" pt_clust_6="168.17515"></scales>
<clustering>
<clus scale="   46.939">  2  3  1 -1</clus>
<clus scale="   73.932">  1  5  2 -1</clus>
<clus scale="  168.175">  1  6  2 -1</clus>
<clus scale="   73.932">  1  3  2 -1</clus>
</clustering>
</event>
<event>
 6    0  0.4390142E+002  0.1333398E+03  0.7546771E-02  0.1222583E+00
         21   -1    0    0  506  501  0.00000000000E+00  0.00000000000E+00  0.14996582565E+04  0.14996582565E+04  0.00000000000E+00 0.  1.
         21   -1    0    0  505  502 -0.00000000000E+00 -0.00000000000E+00 -0.12139858414E+03  0.12139858414E+03  0.00000000000E+00 0. -1.
         21    1    1    2  503  501  0.79966132611E+02 -0.91014682607E+02  0.12891734363E+04  0.12948538155E+04  0.00000000000E+00 0.  1.
         21    1    1    2  504  503 -0.88381831251E+02  0.30182754827E+02  0.76284182363E+02  0.12058865313E+03  0.00000000000E+00 0. -1.
         21    1    1    2  505  504 -0.30613470399E+02  0.67024594453E+02 -0.77564707112E+02  0.10698488034E+03  0.00000000000E+00 0. -1.
         21    1    1    2  506  502  0.39029169039E+02 -0.61926666734E+01  0.90366760823E+02  0.98629491624E+02  0.00000000000E+00 0. -1.
<scales pt_clust_3="133.33978" pt_clust_4="14000.00000" pt_clust_5="73.45710" pt_clust_6="39.51740"></scales>
<clustering>
<clus scale="   39.517">  1  6  2 -1</clus>
<clus scale="   73.457">  2  5  1 -1</clus>
<clus scale="  133.340">  1  3  2 -1</clus>
<clus scale="   39.517">  1  3  2 -1</clus>
</clustering>
</event>
<event>
 6    0  0.4390142E+002  0.8433310E+02  0.7546771E-02  0.1317186E+00
         21   -1    0    0  506  501  0.00000000000E+00  0.00000000000E+00  0.67975831545E+02  0.67975831545E+02  0.00000000000E+00 0. -1.
         21   -1    0    0  503  502 -0.00000000000E+00 -0.00000000000E+00 -0.10984552810E+04  0.10984552810E+04  0.00000000000E+00 0. -1.
         21    1    1    2  503  504  0.78727072539E+02  0.23681743602E+02 -0.34735614828E+03  0.35695247678E+03  0.00000000000E+00 0. -1.
         21    1    1    2  504  501  0.39409611098E+02 -0.28669291527E+02  0.23649301502E+02  0.54169504198E+02  0.00000000000E+00 0. -1.
         21    1    1    2  505  502 -0.87299239575E+02  0.24381630776E+02 -0.71266559357E+03  0.71840647923E+03  0.00000000000E+00 0. -1.
         21    1    1    2  506  505 -0.30837444062E+02 -0.19394082851E+02  0.58929909103E+01  0.36902652314E+02  0.00000000000E+00 0. -1.
<scales pt_clust_3="84.33310" pt_clust_4="46.90041" pt_clust_5="14000.00000" pt_clust_6="36.42909"></scales>
<clustering>
<clus scale="   36.429">  1  6  2 -1</clus>
<clus scale="   46.900">  1  4  2 -1</clus>
<clus scale="   84.333">  1  3  2 -1</clus>
<clus scale="   36.429">  1  3  2 -1</clus>
</clustering>
</event>
<event>
 6    0  0.4390142E+002  0.1879100E+03  0.7546771E-02  0.1160360E+00
         21   -1    0    0  503  501  0.00000000000E+00  0.00000000000E+00  0.97967531601E+03  0.97967531601E+03  0.00000000000E+00 0. -1.
         21   -1    0    0  505  502 -0.00000000000E+00 -0.00000000000E+00 -0.29645462622E+03  0.29645462622E+03  0.00000000000E+00 0. -1.
         21    1    1    2  503  502  0.57487505087E+02 -0.15214740600E+02  0.78372694242E+02  0.98379778285E+02  0.00000000000E+00 0. -1.
         21    1    1    2  504  501 -0.13667430725E+02 -0.16622894480E+03  0.34623526579E+03  0.38431461074E+03  0.00000000000E+00 0. -1.
         21    1    1    2  505  506  0.12541510683E+03 -0.12395431249E+03 -0.16704665271E+03  0.24289546061E+03  0.00000000000E+00 0. -1.
         21    1    1    2  506  504 -0.16923518119E+03  0.30539799788E+03  0.42565938247E+03  0.55054009259E+03  0.00000000000E+00 0. -1.
<scales pt_clust_3="59.46681" pt_clust_4="172.74777" pt_clust_5="14000.00000" pt_clust_6="187.90998"></scales>
<clustering>
<clus scale="   59.467">  1  3  2 -1</clus>
<clus scale="  172.748">  1  4  2 -1</clus>
<clus scale="  187.910">  1  6  2 -1</clus>
<clus scale="   59.467">  1  3  2 -1</clus>
</clustering>
</event>
<event>
 6    0  0.4390142E+002  0.1714564E+03  0.7546771E-02  0.1176338E+00
         21   -1    0    0  505  501  0.00000000000E+00  0.00000000000E+00  0.17978846431E+03  0.17978846431E+03  0.00000000000E+00 0.  1.
         21   -1    0    0  501  502 -0.00000000000E+00 -0.00000000000E+00 -0.54300131419E+03  0.54300131419E+03  0.00000000000E+00 0.  1.
         21    1    1    2  503  506  0.11014641008E+03  0.42482647556E+02 -0.30555633705E+03  0.32756935465E+03  0.00000000000E+00 0.  1.
         21    1    1    2  504  503 -0.12211059187E+03 -0.63780109635E+02  0.12044936061E+03  0.18299439199E+03  0.00000000000E+00 0.  1.
         21    1    1    2  505  504 -0.13680986499E+02 -0.27458605670E+02 -0.56617023811E+01  0.31196142242E+02  0.00000000000E+00 0.  1.
         21    1    1    2  506  502  0.25645168290E+02  0.48756067749E+02 -0.17244417106E+03  0.18102988961E+03  0.00000000000E+00 0.  1.
<scales pt_clust_3="39.94199" pt_clust_4="161.15964" pt_clust_5="30.67808" pt_clust_6="39.94199"></scales>
<clustering>
<clus scale="   30.678">  1  5  2 -1</clus>
<clus scale="   39.942">  3  6 -1 -1</clus>
<clus scale="  161.160">  1  4  2 -1</clus>
<clus scale="   30.678">  1  3  2 -1</clus>
</clustering>
</event>
<event>
 6    0  0.4390142E+002  0.1420482E+03  0.7546771E-02  0.1210599E+00
         21   -1    0    0  504  501  0.00000000000E+00  0.00000000000E+00  0.18680212413E+03  0.18680212413E+03  0.00000000000E+00 0.  1.
         21   -1    0    0  505  502 -0.00000000000E+00 -0.00000000000E+00 -0.40052997550E+03  0.40052997550E+03  0.00000000000E+00 0.  1.
         21    1    1    2  503  501  0.16483663794E+02  0.45571772200E+02 -0.14033664550E+02  0.50452366983E+02  0.00000000000E+00 0. -1.
         21    1    1    2  504  506 -0.11321510830E+03  0.69430618189E+02  0.10833795142E+03  0.17139248294E+03  0.00000000000E+00 0.  1.
         21    1    1    2  505  503  0.50817753038E+02  0.13442577217E+02 -0.45027286965E+02  0.69214185523E+02  0.00000000000E+00 0. -1.
         21    1    1    2  506  502  0.45913691470E+02 -0.12844496761E+03 -0.26300485128E+03  0.29627306419E+03  0.00000000000E+00 0.  1.
<scales pt_clust_3="48.46130" pt_clust_4="142.04820" pt_clust_5="54.61951" pt_clust_6="14000.00000"></scales>
<clustering>
<clus scale="   48.461">  1  3  2 -1</clus>
<clus scale="   54.620">  2  5  1 -1</clus>
<clus scale="  142.048">  1  4  2 -1</clus>
<clus scale="   48.461">  1  3  2 -1</clus>
</clustering>
</event>
<event>
 6    0  0.4390142E+002  0.1064617E+03  0.7546771E-02  0.1267266E+00
         21   -1    0    0  506  501  0.00000000000E+00  0.00000000000E+00  0.54258448221E+02  0.54258448221E+02  0.00000000000E+00 0. -1.
         21   -1    0    0  503  502 -0.00000000000E+00 -0.00000000000E+00 -0.74603434629E+03  0.74603434629E+03  0.00000000000E+00 0.  1.
         21    1    1    2  503  504  0.94041250332E+01 -0.29684358761E+02 -0.29496088926E+03  0.29659994086E+03  0.00000000000E+00 0.  1.
         21    1    1    2  504  501  0.56081980390E+02 -0.11527770519E+02 -0.55010298294E+02  0.79399061304E+02  0.00000000000E+00 0.  1.
         21    1    1    2  505  502 -0.48186346780E+02 -0.81006150899E+02 -0.25910081759E+03  0.27571208566E+03  0.00000000000E+00 0.  1.
         21    1    1    2  506  505 -0.17299758643E+02  0.12221828018E+03 -0.82703892918E+02  0.14858170669E+03  0.00000000000E+00 0. -1.
<scales pt_clust_3="31.13838" pt_clust_4="59.65962" pt_clust_5="14000.00000" pt_clust_6="106.46171"></scales>
<clustering>
<clus scale="   31.138">  2  3  1 -1</clus>
<clus scale="   59.660">  1  4  2 -1</clus>
<clus scale="  106.462">  1  6  2 -1</clus>
<clus scale="   59.660">  1  3  2 -1</clus>
</clustering>
</event>
<event>
 6    0  0.4390142E+002  0.8911542E+02  0.7546771E-02  0.1305008E+00
         21   -1    0    0  504  501  0.00000000000E+00  0.00000000000E+00  0.28995960200E+03  0.28995960200E+03  0.00000000000E+00 0. -1.
         21   -1    0    0  503  502 -0.00000000000E+00 -0.00000000000E+00 -0.22708472865E+03  0.22708472865E+03  0.00000000000E+00 0. -1.
         21    1    1    2  503  501  0.12625509345E+03 -0.20248817507E+02 -0.16529865731E+03  0.20898327526E+03  0.00000000000E+00 0. -1.
         21    1    1    2  504  505 -0.33584275004E+02  0.11728325690E+02  0.17044962236E+03  0.17412217238E+03  0.00000000000E+00 0. -1.
         21    1    1    2  505  506 -0.57680515896E+02  0.12505429795E+02  0.74405204540E+02  0.94971375430E+02  0.00000000000E+00 0.  1.
         21    1    1    2  506  502 -0.34990302547E+02 -0.39849379786E+01 -0.16681296238E+02  0.38967507582E+02  0.00000000000E+00 0. -1.
<scales pt_clust_3="89.11542" pt_clust_4="35.86586" pt_clust_5="14000.00000" pt_clust_6="35.21649"></scales>
<clustering>
<clus scale="   35.216">  2  6  1 -1</clus>
<clus scale="   35.866">  1  4  2 -1</clus>
<clus scale="   89.115">  2  3  1 -1</clus>
<clus scale="   35.866">  1  3  2 -1</clus>
</clustering>
</event>
<event>
 6    0  0.4390142E+002  0.9563353E+02  0.7546771E-02  0.1289756E+00
         21   -1    0    0  505  501  0.00000000000E+00  0.00000000000E+00  0.50112020964E+02  0.50112020964E+02  0.00000000000E+00 0. -1.
         21   -1    0    0  503  502 -0.00000000000E+00 -0.00000000000E+00 -0.55000077894E+03  0.55000077894E+03  0.00000000000E+00 0. -1.
         21    1    1    2  503  501  0.19108380036E+02  0.26109081348E+02 -0.15859559585E+03  0.16186221715E+03  0.00000000000E+00 0. -1.
         21    1    1    2  504  506 -0.24684964987E+02  0.62777274522E+02 -0.18961276745E+02  0.70070419641E+02  0.00000000000E+00 0. -1.
         21    1    1    2  505  504  0.27290446950E+02  0.38224855747E+02 -0.63257297487E+02  0.78787015281E+02  0.00000000000E+00 0. -1.
         21    1    1    2  506  502 -0.21713861999E+02 -0.12711121162E+03 -0.25907458789E+03  0.28939314783E+03  0.00000000000E+00 0. -1.
<scales pt_clust_3="32.35451" pt_clust_4="14000.00000" pt_clust_5="52.86220" pt_clust_6="95.63353"></scales>
<clustering>
<clus scale="   32.355">  2  3  1 -1</clus>
<clus scale="   52.862">  1  5  2 -1</clus>
<clus scale="   95.634">  2  6  1 -1</clus>
<clus scale="   52.862">  1  3  2 -1</clus>
</clustering>
</event>
<event>
 6    0  0.4390142E+002  0.1887922E+03  0.7546771E-02  0.1159555E+00
         21   -1    0    0  506  501  0.00000000000E+00  0.00000000000E+00  0.73149868924E+02  0.73149868924E+02  0.00000000000E+00 0.  1.
         21   -1    0    0  503  502 -0.00000000000E+00 -0.00000000000E+00 -0.10653768281E+04  0.10653768281E+04  0.00000000000E+00 0. -1.
         21    1    1    2  503  504  0.13014768295E+02 -0.37326845963E+02 -0.38258821774E+03  0.38462504075E+03  0.00000000000E+00 0. -1.
         21    1    1    2  504  501  0.31121857760E+02 -0.15532449900E+03 -0.36850747957E+03  0.40111349082E+03  0.00000000000E+00 0. -1.
         21    1    1    2  505  502 -0.19231008030E+02  0.21941828820E+03 -0.19725332744E+03  0.29567396242E+03  0.00000000000E+00 0.  1.
         21    1    1    2  506  505 -0.24905618025E+02 -0.26766943238E+02 -0.43877934470E+02  0.57114203075E+02  0.00000000000E+00 0.  1.
<scales pt_clust_3="39.79516" pt_clust_4="14000.00000" pt_clust_5="188.79218" pt_clust_6="36.56172"></scales>
<clustering>
<clus scale="   36.562">  1  6  2 -1</clus>
<clus scale="   39.795">  2  3  1 -1</clus>
<clus scale="  188.792">  1  5  2 -1</clus>
<clus scale="   36.562">  1  3  2 -1</clus>
</clustering>
</event>
<event>
 6    0  0.4390142E+002  0.1218300E+03  0.7546771E-02  0.1240108E+00
         21   -1    0    0  503  501  0.00000000000E+00  0.00000000000E+00  0.10712360095E+03  0.10712360095E+03  0.00000000000E+00 0. -1.
         21   -1    0    0  505  502 -0.00000000000E+00 -0.00000000000E+00 -0.40885157501E+03  0.40885157501E+03  0.00000000000E+00 0.  1.
         21    1    1    2  503  504 -0.61045188853E+02 -0.65318808419E+02  0.11327613384E+02  0.90118680863E+02  0.00000000000E+00 0. -1.
         21    1    1    2  504  502  0.82086145278E+02  0.10192819749E+03 -0.29057534543E+03  0.31868718842E+03  0.00000000000E+00 0.  1.
         21    1    1    2  505  506  0.18047728778E+02 -0.49886948185E+02 -0.35557661240E+02  0.63865290934E+02  0.00000000000E+00 0.  1.
         21    1    1    2  506  501 -0.39088685203E+02  0.13277559116E+02  0.13077419224E+02  0.43304015755E+02  0.00000000000E+00 0. -1.
<scales pt_clust_3="121.83002" pt_clust_4="14000.00000" pt_clust_5="48.77169" pt_clust_6="41.28219"></scales>
<clustering>
<clus scale="   41.282">  1  6  2 -1</clus>
<clus scale="   48.772">  1  5  2 -1</clus>
<clus scale="  121.830">  1  3  2 -1</clus>
<clus scale="   41.282">  1  3  2 -1</clus>
</clustering>
</event>
<event>
 6    0  0.4390142E+002  0.9797932E+02  0.7546771E-02  0.1284603E+00
         21   -1    0    0  504  501  0.00000000000E+00  0.00000000000E+00  0.34672607432E+03  0.34672607432E+03  0.00000000000E+00 0. -1.
         21   -1    0    0  505  502 -0.00000000000E+00 -0.00000000000E+00 -0.87126469478E+02  0.87126469478E+02  0.00000000000E+00 0. -1.
         21    1    1    2  503  502  0.48717571544E+01  0.38150216524E+02 -0.14598985192E+02  0.41137615478E+02  0.00000000000E+00 0. -1.
         21    1    1    2  504  506 -0.56523679577E+02  0.22392311018E+01  0.12104924655E+03  0.13361459725E+03  0.00000000000E+00 0. -1.
         21    1    1    2  505  501  0.96192727055E+02 -0.96725124130E+02  0.11067523954E+03  0.17566388081E+03  0.00000000000E+00 0. -1.
         21    1    1    2  506  503 -0.44540804632E+02  0.56335676504E+02  0.42474103951E+02  0.83436450254E+02  0.00000000000E+00 0. -1.
<scales pt_clust_3="38.46002" pt_clust_4="56.35859" pt_clust_5="97.97932" pt_clust_6="14000.00000"></scales>
<clustering>
<clus scale="   38.460">  2  3  1 -1</clus>
<clus scale="   56.359">  1  4  2 -1</clus>
<clus scale="   97.979">  1  5  2 -1</clus>
<clus scale="   56.359">  1  3  2 -1</clus>
</clustering>
</event>
<event>
 6    0  0.4390142E+002  0.2022148E+03  0.7546771E-02  0.1147884E+00
         21   -1    0    0  505  501  0.00000000000E+00  0.00000000000E+00  0.11988130584E+03  0.11988130584E+03  0.00000000000E+00 0. -1.
         21   -1    0    0  501  502 -0.00000000000E+00 -0.00000000000E+00 -0.76607209917E+03  0.76607209917E+03  0.00000000000E+00 0. -1.
         21    1    1    2  503  502 -0.77693150576E+01 -0.51775059658E+02 -0.67546506122E+02  0.85460807089E+02  0.00000000000E+00 0. -1.
         21    1    1    2  504  503  0.18606241110E+03  0.61009499473E+02 -0.56663052676E+03  0.59950941086E+03  0.00000000000E+00 0. -1.
         21    1    1    2  505  506 -0.11779512679E+03 -0.43507187472E+02  0.14838922080E+02  0.12644667202E+03  0.00000000000E+00 0. -1.
         21    1    1    2  506  504 -0.60497969252E+02  0.34272747656E+02 -0.26852682531E+02  0.74536515042E+02  0.00000000000E+00 0. -1.
<scales pt_clust_3="52.35474" pt_clust_4="180.31815" pt_clust_5="66.91501" pt_clust_6="66.91501"></scales>
<clustering>
<clus scale="   52.355">  2  3  1 -1</clus>
<clus scale="   66.915">  5  6 -1 -1</clus>
<clus scale="  180.318">  2  4  1 -1</clus>
<clus scale="  202.215">  1  3  2 -1</clus>
</clustering>
</event>
<event>
 6    0  0.4390142E+002  0.1535569E+03  0.7546771E-02  0.1196169E+00
         21   -1    0    0  503  501  0.00000000000E+00  0.00000000000E+00  0.11439461381E+03  0.11439461381E+03  0.00000000000E+00 0. -1.
         21   -1    0    0  506  502 -0.00000000000E+00 -0.00000000000E+00 -0.19703004370E+04  0.19703004370E+04  0.00000000000E+00 0.  1.
         21    1    1    2  503  504 -0.35279152999E+02 -0.15260540964E+03  0.47619156954E+02  0.16370893011E+03  0.00000000000E+00 0. -1.
         21    1    1    2  504  505  0.10167999977E+02  0.10344400360E+03 -0.94995553739E+03  0.95562522629E+03  0.00000000000E+00 0.  1.
         21    1    1    2  505  502  0.44961196676E+02  0.98773658769E+01 -0.86721993552E+03  0.86844083743E+03  0.00000000000E+00 0.  1.
         21    1    1    2  506  501 -0.19850043654E+02  0.39284040161E+02 -0.86349507216E+02  0.96920056959E+02  0.00000000000E+00 0. -1.
<scales pt_clust_3="153.55694" pt_clust_4="14000.00000" pt_clust_5="45.45768" pt_clust_6="44.01432"></scales>
<clustering>
<clus scale="   44.014">  2  6  1 -1</clus>
<clus scale="   45.458">  2  5  1 -1</clus>
<clus scale="  153.557">  1  3  2 -1</clus>
<clus scale="  153.557">  1  3  2 -1</clus>
</clustering>
</event>
<event>
 6    0  0.4390142E+002  0.1946178E+03  0.7546771E-02  0.1154361E+00
         21   -1    0    0  503  501  0.00000000000E+00  0.00000000000E+00  0.38339623006E+03  0.38339623006E+03  0.00000000000E+00 0. -1.
         21   -1    0    0  505  502 -0.00000000000E+00 -0.00000000000E+00 -0.15683983078E+04  0.15683983078E+04  0.00000000000E+00 0. -1.
         21    1    1    2  503  502 -0.18182243485E+02  0.12279784806E+03 -0.12688699647E+02  0.12478344668E+03  0.00000000000E+00 0. -1.
         21    1    1    2  504  501  0.14828465615E+03  0.22384694968E+02  0.28104096441E+03  0.31854895620E+03  0.00000000000E+00 0. -1.
         21    1    1    2  505  506  0.39053122884E+02  0.80983749875E+01 -0.10008075927E+04  0.10016020007E+04  0.00000000000E+00 0. -1.
         21    1    1    2  506  504 -0.16915553555E+03 -0.15328091802E+03 -0.45254674975E+03  0.50686013430E+03  0.00000000000E+00 0. -1.
<scales pt_clust_3="124.50781" pt_clust_4="194.61780" pt_clust_5="39.88396" pt_clust_6="14000.00000"></scales>
<clustering>
<clus scale="   39.884">  2  5  1 -1</clus>
<clus scale="  124.508">  1  3  2 -1</clus>
<clus scale="  194.618">  1  4  2 -1</clus>
<clus scale="  124.508">  1  3  2 -1</clus>
</clustering>
</event>
<event>
 6    0  0.4390142E+002  0.7306585E+02  0.7546771E-02  0.1349967E+00
         21   -1    0    0  505  501  0.00000000000E+00  0.00000000000E+00  0.42984999801E+03  0.42984999801E+03  0.00000000000E+00 0. -1.
         21   -1    0    0  503  502 -0.00000000000E+00 -0.00000000000E+00 -0.79217076063E+02  0.79217076063E+02  0.00000000000E+00 0. -1.
         21    1    1    2  503  506  0.49838013589E+02  0.38783191922E+01  0.28035924500E+01  0.50067245669E+02  0.00000000000E+00 0. -1.
         21    1    1    2  504  502 -0.97650888595E+02  0.24561538852E+02  0.22732632684E+02  0.10322663330E+03  0.00000000000E+00 0. -1.
         21    1    1    2  505  504 -0.44968603269E+02 -0.11341031845E+01  0.72828159287E+02  0.85600246817E+02  0.00000000000E+00 0. -1.
         21    1    1    2  506  501  0.92781478275E+02 -0.27305754860E+02  0.25226853752E+03  0.27017294828E+03  0.00000000000E+00 0. -1.
<scales pt_clust_3="46.60230" pt_clust_4="73.06585" pt_clust_5="44.98290" pt_clust_6="14000.00000"></scales>
<clustering>
<clus scale="   44.983">  1  5  2 -1</clus>
<clus scale="   46.602">  2  3  1 -1</clus>
<clus scale="   73.066">  2  4  1 -1</clus>
<clus scale="   44.983">  1  3  2 -1</clus>
</clustering>
</event>
<event>
 6    0  0.4390142E+002  0.7836041E+02  0.7546771E-02  0.1333770E+00
         21   -1    0    0  505  501  0.00000000000E+00  0.00000000000E+00  0.12797497450E+04  0.12797497450E+04  0.00000000000E+00 0. -1.
         21   -1    0    0  506  502 -0.00000000000E+00 -0.00000000000E+00 -0.12643481822E+03  0.12643481822E+03  0.00000000000E+00 0.  1.
         21    1    1    2  503  504 -0.42190204103E+02  0.62427959230E+02 -0.67259796079E+02  0.10100071081E+03  0.00000000000E+00 0. -1.
         21    1    1    2  504  501  0.31929306295E+02  0.69768029534E+02  0.86419974803E+03  0.86759913729E+03  0.00000000000E+00 0. -1.
         21    1    1    2  505  502  0.37721765551E+01 -0.90687981622E+02  0.37910395997E+03  0.38981835743E+03  0.00000000000E+00 0. -1.
         21    1    1    2  506  503  0.64887212537E+01 -0.41508007141E+02 -0.22728985141E+02  0.47766357678E+02  0.00000000000E+00 0.  1.
<scales pt_clust_3="43.50940" pt_clust_4="78.36041" pt_clust_5="14000.00000" pt_clust_6="42.01212"></scales>
<clustering>
<clus scale="   42.012">  2  6  1 -1</clus>
<clus scale="   43.509">  2  3  1 -1</clus>
<clus scale="   78.360">  1  4  2 -1</clus>
<clus scale="   78.360">  1  3  2 -1</clus>
</clustering>
</event>
<event>
 6    0  0.4390142E+002  0.9200793E+02  0.7546771E-02  0.1298061E+00
         21   -1    0    0  503  501  0.00000000000E+00  0.00000000000E+00  0.28346821371E+03  0.28346821371E+03  0.00000000000E+00 0. -1.
         21   -1    0    0  505  502 -0.00000000000E+00 -0.00000000000E+00 -0.46646625718E+03  0.46646625718E+03  0.00000000000E+00 0. -1.
         21    1    1    2  503  506  0.31150659168E+02  0.57015524221E+02  0.19293495200E+03  0.20358052282E+03  0.00000000000E+00 0. -1.
         21    1    1    2  504  501 -0.22517470565E+01  0.34211620656E+02  0.40065827794E+02  0.52733062774E+02  0.00000000000E+00 0.  1.
         21    1    1    2  505  504 -0.74705671934E+02 -0.82265477653E+02 -0.45312200098E+02  0.12000725691E+03  0.00000000000E+00 0. -1.
         21    1    1    2  506  502  0.45806759823E+02 -0.89616672237E+01 -0.37068662316E+03  0.37361362839E+03  0.00000000000E+00 0. -1.
<scales pt_clust_3="92.00793" pt_clust_4="34.28564" pt_clust_5="14000.00000" pt_clust_6="46.62142"></scales>
<clustering>
<clus scale="   34.286">  1  4  2 -1</clus>
<clus scale="   46.621">  2  6  1 -1</clus>
<clus scale="   92.008">  1  3  2 -1</clus>
<clus scale="   34.286">  1  3  2 -1</clus>
</clustering>
</event>
<event>
 6    0  0.4390142E+002  0.1996499E+03  0.7546771E-02  0.1150035E+00
         21   -1    0    0  503  501  0.00000000000E+00  0.00000000000E+00  0.14591198079E+03  0.14591198079E+03  0.00000000000E+00 0.  1.
         21   -1    0    0  505  502 -0.00000000000E+00 -0.00000000000E+00 -0.67452151909E+03  0.67452151909E+03  0.00000000000E+00 0.  1.
         21    1    1    2  503  504  0.19898997061E+03  0.91547091618E+02 -0.25370152164E+02  0.22050288662E+03  0.00000000000E+00 0.  1.
         21    1    1    2  504  502 -0.70293604404E+02 -0.10143696536E+02 -0.39676744709E+03  0.40307380524E+03  0.00000000000E+00 0.  1.
         21    1    1    2  505  506 -0.95823984610E+02 -0.32181468821E+02 -0.90186908655E+02  0.13546793515E+03  0.00000000000E+00 0.  1.
         21    1    1    2  506  501 -0.32872381597E+02 -0.49221926261E+02 -0.16285030396E+02  0.61388872865E+02  0.00000000000E+00 0.  1.
<scales pt_clust_3="188.76707" pt_clust_4="71.02172" pt_clust_5="49.75093" pt_clust_6="49.75093"></scales>
<clustering>
<clus scale="   49.751">  5  6 -1 -1</clus>
<clus scale="   71.022">  2  4  1 -1</clus>
<clus scale="  188.767">  1  3  2 -1</clus>
<clus scale="  188.767">  1  3  2 -1</clus>
</clustering>
</event>
<event>
 6    0  0.4390142E+002  0.1462851E+03  0.7546771E-02  0.1205114E+00
         21   -1    0    0  506  501  0.00000000000E+00  0.00000000000E+00  0.13787194520E+03  0.13787194520E+03  0.00000000000E+00 0. -1.
         21   -1    0    0  505  502 -0.00000000000E+00 -0.00000000000E+00 -0.48851417393E+03  0.48851417393E+03  0.00000000000E+00 0. -1.
         21    1    1    2  503  504  0.21746337020E+02  0.70431767459E+02  0.64141207920E+01  0.73991066939E+02  0.00000000000E+00 0. -1.
         21    1    1    2  504  501  0.25623040451E+02  0.55714543015E+02  0.53962782420E+02  0.81686182380E+02  0.00000000000E+00 0.  1.
         21    1    1    2  505  503 -0.49733902577E+00 -0.13887713175E+03 -0.39634259137E+03  0.41996970701E+03  0.00000000000E+00 0. -1.
         21    1    1    2  506  502 -0.46872038445E+02  0.12730821275E+02 -0.14676540569E+02  0.50739162798E+02  0.00000000000E+00 0. -1.
<scales pt_clust_3="44.99266" pt_clust_4="44.99266" pt_clust_5="137.71729" pt_clust_6="48.57017"></scales>
<clustering>
<clus scale="   44.993">  3  4 -1 -1</clus>
<clus scale="   48.570">  1  6  2 -1</clus>
<clus scale="  137.717">  2  5  1 -1</clus>
<clus scale="   48.570">  1  3  2 -1</clus>
</clustering>
</event>
<event>
 6    0  0.4390142E+002  0.1036082E+03  0.7546771E-02  0.1272886E+00
         21   -1    0    0  503  501  0.00000000000E+00  0.00000000000E+00  0.44927374095E+03  0.44927374095E+03  0.00000000000E+00 0. -1.
         21   -1    0    0  504  502 -0.00000000000E+00 -0.00000000000E+00 -0.74696999214E+03  0.74696999214E+03  0.00000000000E+00 0.  1.
         21    1    1    2  503  505  0.45335436316E+02 -0.37586986994E+00  0.49356001664E+02  0.67018340507E+02  0.00000000000E+00 0. -1.
         21    1    1    2  504  501  0.66480618283E+02 -0.30789308467E+02 -0.66139983788E+03  0.66544526422E+03  0.00000000000E+00 0.  1.
         21    1    1    2  505  506 -0.51137293335E+02  0.11058182593E+03  0.33951720267E+03  0.36071497599E+03  0.00000000000E+00 0. -1.
         21    1    1    2  506  502 -0.60678761264E+02 -0.79416647590E+02 -0.25169617645E+02  0.10306515238E+03  0.00000000000E+00 0.  1.
<scales pt_clust_3="45.33699" pt_clust_4="73.47792" pt_clust_5="103.60815" pt_clust_6="14000.00000"></scales>
<clustering>
<clus scale="   45.337">  1  3  2 -1</clus>
<clus scale="   73.478">  2  4  1 -1</clus>
<clus scale="  103.608">  1  5  2 -1</clus>
<clus scale="   45.337">  1  3  2 -1</clus>
</clustering>
</event>
<event>
 6    0  0.4390142E+002  0.1011744E+03  0.7546771E-02  0.1277846E+00
         21   -1    0    0  503  501  0.00000000000E+00  0.00000000000E+00  0.13826328869E+04  0.13826328869E+04  0.00000000000E+00 0.  1.
         21   -1    0    0  504  502 -0.00000000000E+00 -0.00000000000E+00 -0.18984552955E+03  0.18984552955E+03  0.00000000000E+00 0.  1.
         21    1    1    2  503  505 -0.27260050463E+02  0.14463511217E+02  0.48134841879E+03  0.48233660838E+03  0.00000000000E+00 0.  1.
         21    1    1    2  504  501  0.52986332047E+02  0.85227174216E+02 -0.15939915904E+03  0.18835953523E+03  0.00000000000E+00 0.  1.
         21    1    1    2  505  506  0.72466350603E+02 -0.22051451564E+02  0.58303297594E+03  0.58793289542E+03  0.00000000000E+00 0.  1.
         21    1    1    2  506  502 -0.98192632187E+02 -0.77639233869E+02  0.28780512164E+03  0.31384937740E+03  0.00000000000E+00 0.  1.
<scales pt_clust_3="30.85942" pt_clust_4="101.17441" pt_clust_5="56.19084" pt_clust_6="14000.00000"></scales>
<clustering>
<clus scale="   30.859">  1  3  2 -1</clus>
<clus scale="   56.191">  1  5  2 -1</clus>
<clus scale="  101.174">  2  4  1 -1</clus>
<clus scale="   30.859">  1  3  2 -1</clus>
</clustering>
</event>
<event>
 6    0  0.4390142E+002  0.1111651E+03  0.7546771E-02  0.1258427E+00
         21   -1    0    0  502  501  0.00000000000E+00  0.00000000000E+00  0.34587059962E+03  0.34587059962E+03  0.00000000000E+00 0.  1.
         21   -1    0    0  505  502 -0.00000000000E+00 -0.00000000000E+00 -0.33438521797E+03  0.33438521797E+03  0.00000000000E+00 0.  1.
         21    1    1    2  503  504 -0.25235772720E+02  0.38555281800E+02  0.16531738776E+03  0.17161932489E+03  0.00000000000E+00 0.  1.
         21    1    1    2  504  501 -0.30844254024E+02 -0.28563020448E+02  0.12374206823E+03  0.13068784792E+03  0.00000000000E+00 0.  1.
         21    1    1    2  505  506  0.12505054652E+03 -0.19735557277E+02 -0.28100798543E+03  0.30820872681E+03  0.00000000000E+00 0.  1.
         21    1    1    2  506  503 -0.68970519774E+02  0.97432959251E+01  0.34339110957E+01  0.69739917973E+02  0.00000000000E+00 0.  1.
<scales pt_clust_3="51.71932" pt_clust_4="42.03825" pt_clust_5="111.16514" pt_clust_6="14000.00000"></scales>
<clustering>
<clus scale="   42.038">  1  4  2 -1</clus>
<clus scale="   51.719">  1  3  2 -1</clus>
<clus scale="  111.165">  2  5  1 -1</clus>
<clus scale="   42.038">  1  3  2 -1</clus>
</clustering>
</event>
<event>
 6    0  0.4390142E+002  0.9677360E+02  0.7546771E-02  0.1287231E+00
         21   -1    0    0  506  501  0.00000000000E+00  0.00000000000E+00  0.21238769722E+03  0.21238769722E+03  0.00000000000E+00 0. -1.
         21   -1    0    0  505  502 -0.00000000000E+00 -0.00000000000E+00 -0.42087166083E+03  0.42087166083E+03  0.00000000000E+00 0.  1.
         21    1    1    2  503  502 -0.82108634038E+02  0.39767880802E+01 -0.33822461421E+03  0.34807115980E+03  0.00000000000E+00 0.  1.
         21    1    1    2  504  503  0.68927707055E+02 -0.39600343282E+02  0.60575827597E+02  0.99943218264E+02  0.00000000000E+00 0. -1.
         21    1    1    2  505  501 -0.14440682265E+02  0.78775130521E+02 -0.19874637827E+02  0.82517002622E+02  0.00000000000E+00 0. -1.
         21    1    1    2  506  504  0.27621609247E+02 -0.43151575319E+02  0.89039460830E+02  0.10272797737E+03  0.00000000000E+00 0. -1.
<scales pt_clust_3="82.72787" pt_clust_4="40.31096" pt_clust_5="80.08779" pt_clust_6="40.31096"></scales>
<clustering>
<clus scale="   40.311">  4  6 -1 -1</clus>
<clus scale="   80.088">  1  5  2 -1</clus>
<clus scale="   82.728">  2  3  1 -1</clus>
<clus scale="   80.088">  1  3  2 -1</clus>
</clustering>
</event>
<event>
 6    0  0.4390142E+002  0.1141925E+03  0.7546771E-02  0.1252997E+00
         21   -1    0    0  506  501  0.00000000000E+00  0.00000000000E+00  0.55042406076E+03  0.55042406076E+03  0.00000000000E+00 0. -1.
         21   -1    0    0  504  502 -0.00000000000E+00 -0.00000000000E+00 -0.22163880885E+03  0.22163880885E+03  0.00000000000E+00 0.  1.
         21    1    1    2  503  502  0.31912482804E+02  0.46517178714E+01 -0.10032032511E+03  0.10537652807E+03  0.00000000000E+00 0.  1.
         21    1    1    2  504  501  0.35077075589E+02 -0.55033009534E+02  0.91979511044E+02  0.11277971370E+03  0.00000000000E+00 0. -1.
         21    1    1    2  505  503 -0.20351601697E+02  0.11418183134E+03 -0.72466753340E+02  0.13675930915E+03  0.00000000000E+00 0.  1.
         21    1    1    2  506  505 -0.46637956695E+02 -0.63800539678E+02  0.40959281930E+03  0.41714731869E+03  0.00000000000E+00 0. -1.
<scales pt_clust_3="32.24973" pt_clust_4="66.46944" pt_clust_5="114.19251" pt_clust_6="14000.00000"></scales>
<clustering>
<clus scale="   32.250">  2  3  1 -1</clus>
<clus scale="   66.469">  1  4  2 -1</clus>
<clus scale="  114.193">  2  5  1 -1</clus>
<clus scale="   66.469">  1  3  2 -1</clus>
</clustering>
</event>
<event>
 6    0  0.4390142E+002  0.8733133E+02  0.7546771E-02  0.1309446E+00
         21   -1    0    0  506  501  0.00000000000E+00  0.00000000000E+00  0.70764542240E+02  0.70764542240E+02  0.00000000000E+00 0. -1.
         21   -1    0    0  503  502 -0.00000000000E+00 -0.00000000000E+00 -0.85094406242E+03  0.85094406242E+03  0.00000000000E+00 0. -1.
         21    1    1    2  503  501  0.82796237682E+01  0.73200982682E+02 -0.64594329182E+02  0.97976341011E+02  0.00000000000E+00 0. -1.
         21    1    1    2  504  505 -0.32932757060E+02 -0.10814390907E+03 -0.26908435469E+03  0.29186651314E+03  0.00000000000E+00 0. -1.
         21    1    1    2  505  502 -0.12665681757E+02  0.34928154090E+02 -0.48016886828E+03  0.48160412945E+03  0.00000000000E+00 0. -1.
         21    1    1    2  506  504  0.37318815049E+02  0.14772302070E-01  0.33668031964E+02  0.50261621056E+02  0.00000000000E+00 0. -1.
<scales pt_clust_3="14000.00000" pt_clust_4="87.33133" pt_clust_5="37.15367" pt_clust_6="37.04344"></scales>
<clustering>
<clus scale="   37.154">  2  5  1 -1</clus>
<clus scale="   37.043">  1  6  2 -1</clus>
<clus scale="   87.331">  2  4  1 -1</clus>
<clus scale="   37.043">  1  3  2 -1</clus>
</clustering>
</event>
<event>
 6    0  0.4390142E+002  0.1420887E+03  0.7546771E-02  0.1210546E+00
         21   -1    0    0  503  501  0.00000000000E+00  0.00000000000E+00  0.35655895396E+03  0.35655895396E+03  0.00000000000E+00 0.  1.
         21   -1    0    0  505  502 -0.00000000000E+00 -0.00000000000E+00 -0.12344964121E+04  0.12344964121E+04  0.00000000000E+00 0.  1.
         21    1    1    2  503  504 -0.41146455043E+02  0.31258040122E+02  0.11517162869E+03  0.12623232506E+03  0.00000000000E+00 0.  1.
         21    1    1    2  504  506 -0.10079336876E+03 -0.50897454588E+02  0.21554356071E+03  0.24332875011E+03  0.00000000000E+00 0.  1.
         21    1    1    2  505  501  0.29038956475E+01  0.34664646062E+02 -0.17493392237E+03  0.17835904096E+03  0.00000000000E+00 0.  1.
         21    1    1    2  506  502  0.13903592815E+03 -0.15025231597E+02 -0.10337187252E+04  0.10431352499E+04  0.00000000000E+00 0.  1.
<scales pt_clust_3="51.77073" pt_clust_4="14000.00000" pt_clust_5="34.78606" pt_clust_6="142.08866"></scales>
<clustering>
<clus scale="   34.786">  2  5  1 -1</clus>
<clus scale="   51.771">  1  3  2 -1</clus>
<clus scale="  142.089">  2  6  1 -1</clus>
<clus scale="   51.771">  1  3  2 -1</clus>
</clustering>
</event>
<event>
 6    0  0.4390142E+002  0.1234091E+03  0.7546771E-02  0.1237577E+00
         21   -1    0    0  504  501  0.00000000000E+00  0.00000000000E+00  0.11743351995E+04  0.11743351995E+04  0.00000000000E+00 0. -1.
         21   -1    0    0  505  502 -0.00000000000E+00 -0.00000000000E+00 -0.18191623949E+03  0.18191623949E+03  0.00000000000E+00 0. -1.
         21    1    1    2  503  502 -0.25822415011E+02  0.37973729319E+02 -0.66545487127E+02  0.80852353660E+02  0.00000000000E+00 0. -1.
         21    1    1    2  504  503 -0.31411108766E+02 -0.34348655581E+02  0.11330401907E+03  0.12249199416E+03  0.00000000000E+00 0. -1.
         21    1    1    2  505  506  0.14810644638E+03 -0.49027094005E+02 -0.40778389922E+02  0.16125151934E+03  0.00000000000E+00 0. -1.
         21    1    1    2  506  501 -0.90872922604E+02  0.45402020266E+02  0.98643881802E+03  0.99165557186E+03  0.00000000000E+00 0. -1.
<scales pt_clust_3="45.92169" pt_clust_4="46.13471" pt_clust_5="123.40909" pt_clust_6="14000.00000"></scales>
<clustering>
<clus scale="   45.922">  2  3  1 -1</clus>
<clus scale="   46.135">  1  4  2 -1</clus>
<clus scale="  123.409">  2  5  1 -1</clus>
<clus scale="   46.135">  1  3  2 -1</clus>
</clustering>
</event>
<event>
 6    0  0.4390142E+002  0.7828100E+02  0.7546771E-02  0.1334002E+00
         21   -1    0    0  504  501  0.00000000000E+00  0.00000000000E+00  0.41638124407E+03  0.41638124407E+03  0.00000000000E+00 0. -1.
         21   -1    0    0  503  502 -0.00000000000E+00 -0.00000000000E+00 -0.11256309300E+03  0.11256309300E+03  0.00000000000E+00 0. -1.
         21    1    1    2  503  506 -0.33074286516E+02  0.30145018867E+02  0.58039225641E+00  0.44754524310E+02  0.00000000000E+00 0. -1.
         21    1    1    2  504  502 -0.59884713847E+02  0.69483126079E+02  0.30025084861E+03  0.31395008497E+03  0.00000000000E+00 0. -1.
         21    1    1    2  505  501 -0.34787356456E+01 -0.42404636303E+02  0.33355187349E+02  0.54063141832E+02  0.00000000000E+00 0. -1.
         21    1    1    2  506  505  0.96437736009E+02 -0.57223508643E+02 -0.30368277151E+02  0.11617658596E+03  0.00000000000E+00 0. -1.
<scales pt_clust_3="43.21831" pt_clust_4="14000.00000" pt_clust_5="42.54709" pt_clust_6="78.28100"></scales>
<clustering>
<clus scale="   42.547">  1  5  2 -1</clus>
<clus scale="   43.218">  2  3  1 -1</clus>
<clus scale="   78.281">  2  6  1 -1</clus>
<clus scale="   42.547">  1  3  2 -1</clus>
</clustering>
</event>
<event>
 6    0  0.4390142E+002  0.2257128E+03  0.7546771E-02  0.1129694E+00
         21   -1    0    0  503  501  0.00000000000E+00  0.00000000000E+00  0.99726176215E+03  0.99726176215E+03  0.00000000000E+00 0.  1.
         21   -1    0    0  506  502 -0.00000000000E+00 -0.00000000000E+00 -0.22827513524E+03  0.22827513524E+03  0.00000000000E+00 0.  1.
         21    1    1    2  503  504  0.34819558103E+01 -0.66630363316E+02  0.21778796184E+03  0.22777911593E+03  0.00000000000E+00 0.  1.
         21    1    1    2  504  502 -0.20350084794E+02 -0.99678433503E+02  0.10171172656E+03  0.14385823360E+03  0.00000000000E+00 0.  1.
         21    1    1    2  505  501 -0.13122289406E+02 -0.45142461599E+02  0.59411284012E+03  0.59596988440E+03  0.00000000000E+00 0.  1.
         21    1    1    2  506  505  0.29990418390E+02  0.21145125842E+03 -0.14462590160E+03  0.25792966346E+03  0.00000000000E+00 0.  1.
<scales pt_clust_3="79.96632" pt_clust_4="79.96632" pt_clust_5="47.01102" pt_clust_6="207.01482"></scales>
<clustering>
<clus scale="   47.011">  1  5  2 -1</clus>
<clus scale="   79.966">  3  4 -1 -1</clus>
<clus scale="  207.015">  2  6  1 -1</clus>
<clus scale="   47.011">  1  3  2 -1</clus>
</clustering>
</event>
<event>
 6    0  0.4390142E+002  0.8871231E+02  0.7546771E-02  0.1306000E+00
         21   -1    0    0  503  501  0.00000000000E+00  0.00000000000E+00  0.57874651568E+03  0.57874651568E+03  0.00000000000E+00 0.  1.
         21   -1    0    0  506  502 -0.00000000000E+00 -0.00000000000E+00 -0.12868424545E+04  0.12868424545E+04  0.00000000000E+00 0.  1.
         21    1    1    2  503  504 -0.54551848374E+02  0.61805333262E+01  0.14448305198E+03  0.15456214110E+03  0.00000000000E+00 0.  1.
         21    1    1    2  504  502 -0.59669255431E+02 -0.16903349947E+02 -0.11646397302E+04  0.11662897772E+04  0.00000000000E+00 0.  1.
         21    1    1    2  505  501  0.14289668564E+03  0.54879841454E+00  0.41420275122E+03  0.43815942654E+03  0.00000000000E+00 0.  1.
         21    1    1    2  506  505 -0.28675581834E+02  0.10174018206E+02 -0.10214201191E+03  0.10657762541E+03  0.00000000000E+00 0.  1.
<scales pt_clust_3="55.02717" pt_clust_4="88.71231" pt_clust_5="14000.00000" pt_clust_6="30.42696"></scales>
<clustering>
<clus scale="   30.427">  2  6  1 -1</clus>
<clus scale="   55.027">  1  3  2 -1</clus>
<clus scale="   88.712">  2  4  1 -1</clus>
<clus scale="   55.027">  1  3  2 -1</clus>
</clustering>
</event>
<event>
 6    0  0.4390142E+002  0.1411102E+03  0.7546771E-02  0.1211843E+00
         21   -1    0    0  504  501  0.00000000000E+00  0.00000000000E+00  0.63347329912E+03  0.63347329912E+03  0.00000000000E+00 0.  1.
         21   -1    0    0  505  502 -0.00000000000E+00 -0.00000000000E+00 -0.10358566562E+03  0.10358566562E+03  0.00000000000E+00 0.  1.
         21    1    1    2  503  502 -0.68050432706E+01 -0.33411363030E+02  0.11173299210E+02  0.35881337888E+02  0.00000000000E+00 0.  1.
         21    1    1    2  504  503 -0.30623029463E+02 -0.13255915805E+02  0.46594102681E+02  0.57310554368E+02  0.00000000000E+00 0. -1.
         21    1    1    2  505  506  0.12968861822E+03  0.10735270715E+03  0.99091961841E+01  0.16864736463E+03  0.00000000000E+00 0.  1.
         21    1    1    2  506  501 -0.92260545488E+02 -0.60685428316E+02  0.46221103542E+03  0.47521970785E+03  0.00000000000E+00 0.  1.
<scales pt_clust_3="34.88768" pt_clust_4="33.36899" pt_clust_5="141.11019" pt_clust_6="14000.00000"></scales>
<clustering>
<clus scale="   33.369">  1  4  2 -1</clus>
<clus scale="   34.888">  2  3  1 -1</clus>
<clus scale="  141.110">  2  5  1 -1</clus>
<clus scale="   33.369">  1  3  2 -1</clus>
</clustering>
</event>
<event>
 6    0  0.8943030E+002  0.9044540E+02  0.7546771E-02  0.1301777E+00
         21   -1    0    0  506  501  0.00000000000E+00  0.00000000000E+00  0.18452013298E+04  0.18452013298E+04  0.00000000000E+00 0.  1.
         21   -1    0    0  503  502 -0.00000000000E+00 -0.00000000000E+00 -0.54478248330E+03  0.54478248330E+03  0.00000000000E+00 0.  1.
         21    1    1    2  503  505 -0.61173394561E+02 -0.48321661804E+02  0.39774149152E+03  0.40530909351E+03  0.00000000000E+00 0.  1.
         21    1    1    2  504  502  0.57448743912E+02  0.11515782643E+02 -0.53574125030E+03  0.53893567214E+03  0.00000000000E+00 0.  1.
         21    1    1    2  505  501 -0.51955859912E+01 -0.38275178753E+02  0.14327694824E+03  0.14839227513E+03  0.00000000000E+00 0.  1.
         21    1    1    2  506  504  0.89202366399E+01  0.75081057914E+02  0.12951416571E+04  0.12973467723E+04  0.00000000000E+00 0.  1.
<scales pt_clust_3="31.32507" pt_clust_4="58.59156" pt_clust_5="31.32507" pt_clust_6="78.73990"></scales>
<clustering>
<clus scale="   31.325">  3  5 -1 -1</clus>
<clus scale="   58.592">  2  4  1 -1</clus>
<clus scale="   78.740">  1  6  2 -1</clus>
<clus scale="   78.740">  1  3  2 -1</clus>
</clustering>
</event>
<event>
 6    0  0.4390142E+002  0.1312405E+03  0.7546771E-02  0.1225627E+00
         21   -1    0    0  506  501  0.00000000000E+00  0.00000000000E+00  0.73472240929E+02  0.73472240929E+02  0.00000000000E+00 0. -1.
         21   -1    0    0  504  502 -0.00000000000E+00 -0.00000000000E+00 -0.42304848280E+03  0.42304848280E+03  0.00000000000E+00 0. -1.
         21    1    1    2  503  505 -0.39558400771E+02  0.66145220819E+02 -0.12448381830E+03  0.14641133265E+03  0.00000000000E+00 0. -1.
         21    1    1    2  504  501  0.84397491982E+02 -0.13372731850E+03 -0.11299830587E+03  0.19435675829E+03  0.00000000000E+00 0. -1.
         21    1    1    2  505  502 -0.41369472634E+02  0.59992853294E+01 -0.68406021195E+02  0.80167377568E+02  0.00000000000E+00 0. -1.
         21    1    1    2  506  503 -0.34696185772E+01  0.61582812349E+02 -0.43688096500E+02  0.75585255213E+02  0.00000000000E+00 0.  1.
<scales pt_clust_3="35.90801" pt_clust_4="121.84741" pt_clust_5="35.90801" pt_clust_6="61.68048"></scales>
<clustering>
<clus scale="   35.908">  3  5 -1 -1</clus>
<clus scale="   61.680">  1  6  2 -1</clus>
<clus scale="  121.847">  1  4  2 -1</clus>
<clus scale="   61.680">  1  3  2 -1</clus>
</clustering>
</event>
<event>
 6    0  0.4390142E+002  0.1260910E+03  0.7546771E-02  0.1233374E+00
         21   -1    0    0  504  501  0.00000000000E+00  0.00000000000E+00  0.17419030173E+04  0.17419030173E+04  0.00000000000E+00 0.  1.
         21   -1    0    0  506  502 -0.00000000000E+00 -0.00000000000E+00 -0.11249469255E+03  0.11249469255E+03  0.00000000000E+00 0.  1.
         21    1    1    2  503  501 -0.89668502770E+02  0.78940063723E+02  0.12580281444E+04  0.12636877724E+04  0.00000000000E+00 0.  1.
         21    1    1    2  504  502  0.10171380565E+03 -0.17252646708E+03  0.32950213274E+03  0.38559400356E+03  0.00000000000E+00 0.  1.
         21    1    1    2  505  503  0.14615691570E+01  0.55936030051E+02  0.11153907146E+03  0.12478757993E+03  0.00000000000E+00 0.  1.
         21    1    1    2  506  505 -0.13506872039E+02  0.37650373310E+02 -0.69661023853E+02  0.80328353941E+02  0.00000000000E+00 0.  1.
<scales pt_clust_3="126.09100" pt_clust_4="14000.00000" pt_clust_5="62.59367" pt_clust_6="39.99983"></scales>
<clustering>
<clus scale="   40.000">  2  6  1 -1</clus>
<clus scale="   62.594">  2  5  1 -1</clus>
<clus scale="  126.091">  1  3  2 -1</clus>
<clus scale="  126.091">  1  3  2 -1</clus>
</clustering>
</event>
<event>
 6    0  0.4390142E+002  0.1365920E+03  0.7546771E-02  0.1217990E+00
         21   -1    0    0  504  501  0.00000000000E+00  0.00000000000E+00  0.67944672054E+03  0.67944672054E+03  0.00000000000E+00 0. -1.
         21   -1    0    0  506  502 -0.00000000000E+00 -0.00000000000E+00 -0.40064170727E+03  0.40064170727E+03  0.00000000000E+00 0. -1.
         21    1    1    2  503  505 -0.69492452200E+02  0.62294999881E+02  0.91551699947E+01  0.93774650416E+02  0.00000000000E+00 0.  1.
         21    1    1    2  504  502 -0.85371182374E+02  0.63547415797E+02  0.46585335698E+03  0.47785548343E+03  0.00000000000E+00 0. -1.
         21    1    1    2  505  501  0.47212431676E+02 -0.21002210344E+02  0.13511340620E+03  0.14465731602E+03  0.00000000000E+00 0.  1.
         21    1    1    2  506  503  0.10765120290E+03 -0.10484020533E+03 -0.33131691991E+03  0.36380097795E+03  0.00000000000E+00 0. -1.
<scales pt_clust_3="14000.00000" pt_clust_4="63.12387" pt_clust_5="51.67307" pt_clust_6="136.59196"></scales>
<clustering>
<clus scale="   51.673">  1  5  2 -1</clus>
<clus scale="   63.124">  1  4  2 -1</clus>
<clus scale="  136.592">  2  6  1 -1</clus>
<clus scale="   51.673">  1  3  2 -1</clus>
</clustering>
</event>
<event>
 6    0  0.4390142E+002  0.1048435E+03  0.7546771E-02  0.1270428E+00
         21   -1    0    0  503  501  0.00000000000E+00  0.00000000000E+00  0.10727747132E+04  0.10727747132E+04  0.00000000000E+00 0. -1.
         21   -1    0    0  506  502 -0.00000000000E+00 -0.00000000000E+00 -0.13941498389E+03  0.13941498389E+03  0.00000000000E+00 0. -1.
         21    1    1    2  503  502 -0.83615129737E+02 -0.10987335501E+03  0.58619593863E+03  0.60223693221E+03  0.00000000000E+00 0. -1.
         21    1    1    2  504  505  0.63663483763E+02  0.76855995439E+02 -0.64099204150E+02  0.11861109211E+03  0.00000000000E+00 0. -1.
         21    1    1    2  505  501 -0.27430405603E+02  0.10542937093E+03  0.38616801698E+03  0.40123997401E+03  0.00000000000E+00 0. -1.
         21    1    1    2  506  504  0.47382051576E+02 -0.72412011365E+02  0.25094977838E+02  0.90101698730E+02  0.00000000000E+00 0. -1.
<scales pt_clust_3="14000.00000" pt_clust_4="104.84354" pt_clust_5="103.17703" pt_clust_6="86.53646"></scales>
<clustering>
<clus scale="   86.536">  2  6  1 -1</clus>
<clus scale="  103.177">  1  5  2 -1</clus>
<clus scale="  104.844">  2  4  1 -1</clus>
<clus scale="  103.177">  1  3  2 -1</clus>
</clustering>
</event>
<event>
 6    0  0.4390142E+002  0.1255217E+03  0.7546771E-02  0.1234256E+00
         21   -1    0    0  504  501  0.00000000000E+00  0.00000000000E+00  0.14233456885E+04  0.14233456885E+04  0.00000000000E+00 0.  1.
         21   -1    0    0  505  502 -0.00000000000E+00 -0.00000000000E+00 -0.36235939962E+03  0.36235939962E+03  0.00000000000E+00 0. -1.
         21    1    1    2  503  506 -0.69711646746E+02 -0.54772489290E+02  0.21886851125E+03  0.23614225478E+03  0.00000000000E+00 0.  1.
         21    1    1    2  504  502  0.51088267629E+02  0.65307540671E+02 -0.29184040286E+03  0.30339068328E+03  0.00000000000E+00 0. -1.
         21    1    1    2  505  503  0.76074198627E+02 -0.16998834964E+02 -0.27962604347E+02  0.82813956123E+02  0.00000000000E+00 0.  1.
         21    1    1    2  506  501 -0.57450819510E+02  0.64637835824E+01  0.11619207849E+04  0.11633581940E+04  0.00000000000E+00 0.  1.
<scales pt_clust_3="14000.00000" pt_clust_4="125.52169" pt_clust_5="71.90673" pt_clust_6="57.81330"></scales>
<clustering>
<clus scale="   57.813">  1  6  2 -1</clus>
<clus scale="   71.907">  2  5  1 -1</clus>
<clus scale="  125.522">  2  4  1 -1</clus>
<clus scale="   57.813">  1  3  2 -1</clus>
</clustering>
</event>
<event>
 6    0  0.4390142E+002  0.9109399E+02  0.7546771E-02  0.1300224E+00
         21   -1    0    0  505  501  0.00000000000E+00  0.00000000000E+00  0.71771491926E+03  0.71771491926E+03  0.00000000000E+00 0. -1.
         21   -1    0    0  503  502 -0.00000000000E+00 -0.00000000000E+00 -0.28375976447E+03  0.28375976447E+03  0.00000000000E+00 0. -1.
         21    1    1    2  503  501  0.48141938630E+02 -0.62890617997E+02 -0.21553658540E+03  0.22962773293E+03  0.00000000000E+00 0. -1.
         21    1    1    2  504  502 -0.39317658262E+00  0.53610886301E+02  0.19870055851E+02  0.57176051257E+02  0.00000000000E+00 0. -1.
         21    1    1    2  505  506 -0.28608951489E+02 -0.52268900223E+02  0.64553533614E+03  0.64827955408E+03  0.00000000000E+00 0. -1.
         21    1    1    2  506  504 -0.19139810558E+02  0.61548631919E+02 -0.15913651801E+02  0.66391345467E+02  0.00000000000E+00 0. -1.
<scales pt_clust_3="81.78092" pt_clust_4="36.59429" pt_clust_5="59.58616" pt_clust_6="36.59429"></scales>
<clustering>
<clus scale="   36.594">  4  6 -1 -1</clus>
<clus scale="   59.586">  1  5  2 -1</clus>
<clus scale="   81.781">  2  3  1 -1</clus>
<clus scale="   59.586">  1  3  2 -1</clus>
</clustering>
</event>
<event>
 6    0  0.4390142E+002  0.1164101E+03  0.7546771E-02  0.1249140E+00
         21   -1    0    0  503  501  0.00000000000E+00  0.00000000000E+00  0.29103149881E+02  0.29103149881E+02  0.00000000000E+00 0.  1.
         21   -1    0    0  501  502 -0.00000000000E+00 -0.00000000000E+00 -0.88331185803E+03  0.88331185803E+03  0.00000000000E+00 0.  1.
         21    1    1    2  503  504 -0.67357616974E+02 -0.57018481446E+02 -0.10413375901E+03  0.13649906797E+03  0.00000000000E+00 0.  1.
         21    1    1    2  504  506 -0.41373145737E+02  0.10425170304E+02 -0.81484750029E+02  0.91979268596E+02  0.00000000000E+00 0.  1.
         21    1    1    2  505  502  0.32104809382E+02  0.56620168267E+02 -0.35858212801E+03  0.36444163424E+03  0.00000000000E+00 0.  1.
         21    1    1    2  506  505  0.76625953329E+02 -0.10026857125E+02 -0.31000807110E+03  0.31949503710E+03  0.00000000000E+00 0.  1.
<scales pt_clust_3="42.60671" pt_clust_4="42.60671" pt_clust_5="65.08888" pt_clust_6="98.97726"></scales>
<clustering>
<clus scale="   42.607">  3  4 -1 -1</clus>
<clus scale="   65.089">  2  5  1 -1</clus>
<clus scale="   98.977">  2  6  1 -1</clus>
<clus scale="  116.410">  1  3  2 -1</clus>
</clustering>
</event>
<event>
 6    0  0.4390142E+002  0.1398589E+03  0.7546771E-02  0.1213519E+00
         21   -1    0    0  506  501  0.00000000000E+00  0.00000000000E+00  0.15701566391E+03  0.15701566391E+03  0.00000000000E+00 0. -1.
         21   -1    0    0  503  502 -0.00000000000E+00 -0.00000000000E+00 -0.26566592136E+03  0.26566592136E+03  0.00000000000E+00 0. -1.
         21    1    1    2  503  501  0.16633136714E+02 -0.14948772585E+03  0.54302430166E+02  0.15991246149E+03  0.00000000000E+00 0. -1.
         21    1    1    2  504  502  0.57568465425E+02  0.61527534807E+02 -0.78809969246E+02  0.11537234072E+03  0.00000000000E+00 0. -1.
         21    1    1    2  505  504 -0.46086011346E+02  0.47870901619E+02 -0.69803671922E+02  0.96374769922E+02  0.00000000000E+00 0. -1.
         21    1    1    2  506  505 -0.28115590794E+02  0.40089289424E+02 -0.14339046441E+02  0.51022013142E+02  0.00000000000E+00 0. -1.
<scales pt_clust_3="134.75007" pt_clust_4="84.26011" pt_clust_5="32.15286" pt_clust_6="32.15286"></scales>
<clustering>
<clus scale="   32.153">  5  6 -1 -1</clus>
<clus scale="   84.260">  2  4  1 -1</clus>
<clus scale="  134.750">  1  3  2 -1</clus>
<clus scale="  134.750">  1  3  2 -1</clus>
</clustering>
</event>
<event>
 6    0  0.4390142E+002  0.1440065E+03  0.7546771E-02  0.1208037E+00
         21   -1    0    0  503  501  0.00000000000E+00  0.00000000000E+00  0.48286268928E+03  0.48286268928E+03  0.00000000000E+00 0. -1.
         21   -1    0    0  504  502 -0.00000000000E+00 -0.00000000000E+00 -0.14551816298E+04  0.14551816298E+04  0.00000000000E+00 0. -1.
         21    1    1    2  503  506  0.66951214126E+02 -0.12938164103E+03  0.45198048035E+03  0.47487727754E+03  0.00000000000E+00 0. -1.
         21    1    1    2  504  501 -0.12585922342E+02  0.65242870481E+02 -0.44292546061E+02  0.79855289282E+02  0.00000000000E+00 0.  1.
         21    1    1    2  505  502 -0.65238469344E+01  0.32382718543E+02 -0.73905297642E+03  0.73979085084E+03  0.00000000000E+00 0. -1.
         21    1    1    2  506  505 -0.47841444850E+02  0.31756052004E+02 -0.64095389837E+03  0.64352090139E+03  0.00000000000E+00 0. -1.
<scales pt_clust_3="14000.00000" pt_clust_4="69.31046" pt_clust_5="33.03333" pt_clust_6="144.00648"></scales>
<clustering>
<clus scale="   33.033">  2  5  1 -1</clus>
<clus scale="   69.310">  2  4  1 -1</clus>
<clus scale="  144.006">  2  6  1 -1</clus>
<clus scale="  144.006">  1  3  2 -1</clus>
</clustering>
</event>
<event>
 6    0  0.4390142E+002  0.1017703E+03  0.7546771E-02  0.1276617E+00
         21   -1    0    0  503  501  0.00000000000E+00  0.00000000000E+00  0.28895468100E+03  0.28895468100E+03  0.00000000000E+00 0. -1.
         21   -1    0    0  505  502 -0.00000000000E+00 -0.00000000000E+00 -0.12999949180E+04  0.12999949180E+04  0.00000000000E+00 0.  1.
         21    1    1    2  503  506  0.30819162847E+02 -0.51305986752E+02  0.50155722784E+02  0.78087909456E+02  0.00000000000E+00 0. -1.
         21    1    1    2  504  502 -0.10800112180E+02 -0.46603570444E+02 -0.69718091335E+03  0.69882026383E+03  0.00000000000E+00 0.  1.
         21    1    1    2  505  501  0.67231339116E+02  0.20077220807E+02  0.21250281204E+03  0.22378693635E+03  0.00000000000E+00 0. -1.
         21    1    1    2  506  504 -0.87250389783E+02  0.77832336389E+02 -0.57651785849E+03  0.58825448937E+03  0.00000000000E+00 0.  1.
<scales pt_clust_3="60.65357" pt_clust_4="47.83864" pt_clust_5="14000.00000" pt_clust_6="101.77034"></scales>
<clustering>
<clus scale="   47.839">  2  4  1 -1</clus>
<clus scale="   60.654">  1  3  2 -1</clus>
<clus scale="  101.770">  2  6  1 -1</clus>
<clus scale="   60.654">  1  3  2 -1</clus>
</clustering>
</event>
<event>
 6    0  0.4390142E+002  0.1108121E+03  0.7546771E-02  0.1259073E+00
         21   -1    0    0  503  501  0.00000000000E+00  0.00000000000E+00  0.13177700123E+04  0.13177700123E+04  0.00000000000E+00 0.  1.
         21   -1    0    0  505  502 -0.00000000000E+00 -0.00000000000E+00 -0.41383205026E+02  0.41383205026E+02  0.00000000000E+00 0.  1.
         21    1    1    2  503  504 -0.78463482547E+01  0.83959051057E+02  0.29374497886E+03  0.30560890046E+03  0.00000000000E+00 0.  1.
         21    1    1    2  504  502  0.22998207151E+02  0.25794213689E+02  0.56308565311E+02  0.66067492153E+02  0.00000000000E+00 0.  1.
         21    1    1    2  505  506 -0.97243638202E+02 -0.12548525585E+03  0.19531712750E+03  0.25169754647E+03  0.00000000000E+00 0.  1.
         21    1    1    2  506  501  0.82091779305E+02  0.15731991102E+02  0.73101613559E+03  0.73577927822E+03  0.00000000000E+00 0.  1.
<scales pt_clust_3="14000.00000" pt_clust_4="34.55805" pt_clust_5="110.81212" pt_clust_6="85.38698"></scales>
<clustering>
<clus scale="   34.558">  2  4  1 -1</clus>
<clus scale="   85.387">  1  6  2 -1</clus>
<clus scale="  110.812">  2  5  1 -1</clus>
<clus scale="   85.387">  1  3  2 -1</clus>
</clustering>
</event>
<event>
 6    0  0.4501269E+002  0.1073173E+03  0.7546771E-02  0.1265620E+00
         21   -1    0    0  505  501  0.00000000000E+00  0.00000000000E+00  0.27532439650E+03  0.27532439650E+03  0.00000000000E+00 0.  1.
         21   -1    0    0  506  502 -0.00000000000E+00 -0.00000000000E+00 -0.15681829975E+04  0.15681829975E+04  0.00000000000E+00 0. -1.
         21    1    1    2  503  501  0.94125593888E+02 -0.88827376896E+01  0.23035900621E+03  0.24900562683E+03  0.00000000000E+00 0.  1.
         21    1    1    2  504  503 -0.83361271355E+02 -0.34056480263E+02 -0.81915574806E+02  0.12173375376E+03  0.00000000000E+00 0.  1.
         21    1    1    2  505  502  0.20163535165E+02  0.23587940420E+02 -0.27284602666E-01  0.31031594030E+02  0.00000000000E+00 0.  1.
         21    1    1    2  506  504 -0.30927857698E+02  0.19351277532E+02 -0.14412747478E+04  0.14417364194E+04  0.00000000000E+00 0. -1.
<scales pt_clust_3="14000.00000" pt_clust_4="107.31729" pt_clust_5="31.03158" pt_clust_6="36.47887"></scales>
<clustering>
<clus scale="   31.032">  1  5  2 -1</clus>
<clus scale="   36.479">  2  6  1 -1</clus>
<clus scale="  107.317">  2  4  1 -1</clus>
<clus scale="   31.032">  1  3  2 -1</clus>
</clustering>
</event>
<event>
 6    0  0.4602641E+002  0.9750888E+02  0.7546771E-02  0.1285623E+00
         21   -1    0    0  504  501  0.00000000000E+00  0.00000000000E+00  0.41451889790E+03  0.41451889790E+03  0.00000000000E+00 0.  1.
         21   -1    0    0  503  502 -0.00000000000E+00 -0.00000000000E+00 -0.83936415171E+03  0.83936415171E+03  0.00000000000E+00 0.  1.
         21    1    1    2  503  505  0.51232815045E+01  0.32749810835E+02 -0.40197834548E+02  0.52102437807E+02  0.00000000000E+00 0. -1.
         21    1    1    2  504  506  0.60195953424E+02  0.42129705373E+01  0.22781803946E+02  0.64500484652E+02  0.00000000000E+00 0.  1.
         21    1    1    2  505  501 -0.56515979562E+02  0.92195816716E+02  0.35130942312E+03  0.36757643469E+03  0.00000000000E+00 0.  1.
         21    1    1    2  506  502 -0.88032553662E+01 -0.12915859809E+03 -0.75873864633E+03  0.76970369247E+03  0.00000000000E+00 0.  1.
<scales pt_clust_3="33.14812" pt_clust_4="60.54369" pt_clust_5="97.50888" pt_clust_6="14000.00000"></scales>
<clustering>
<clus scale="   33.148">  2  3  1 -1</clus>
<clus scale="   60.544">  1  4  2 -1</clus>
<clus scale="   97.509">  1  5  2 -1</clus>
<clus scale="   60.544">  1  3  2 -1</clus>
</clustering>
</event>
<event>
 6    0  0.4390142E+002  0.1202249E+03  0.7546771E-02  0.1242726E+00
         21   -1    0    0  506  501  0.00000000000E+00  0.00000000000E+00  0.28167765698E+03  0.28167765698E+03  0.00000000000E+00 0.  1.
         21   -1    0    0  503  502 -0.00000000000E+00 -0.00000000000E+00 -0.18639660582E+03  0.18639660582E+03  0.00000000000E+00 0. -1.
         21    1    1    2  503  501 -0.23285858379E+02 -0.19646441018E+02 -0.12847769463E+03  0.13204064473E+03  0.00000000000E+00 0. -1.
         21    1    1    2  504  505  0.44666463786E+02  0.10246758391E+00  0.38413405369E+02  0.58912589477E+02  0.00000000000E+00 0. -1.
         21    1    1    2  505  502  0.57215630420E+02 -0.52174705958E+02  0.19119136882E+02  0.79758195198E+02  0.00000000000E+00 0. -1.
         21    1    1    2  506  504 -0.78596235827E+02  0.71718679393E+02  0.16622620354E+03  0.19736283339E+03  0.00000000000E+00 0.  1.
<scales pt_clust_3="30.46660" pt_clust_4="38.58994" pt_clust_5="38.58994" pt_clust_6="107.82358"></scales>
<clustering>
<clus scale="   30.467">  2  3  1 -1</clus>
<clus scale="   38.590">  4  5 -1 -1</clus>
<clus scale="  107.824">  1  6  2 -1</clus>
<clus scale="  107.824">  1  3  2 -1</clus>
</clustering>
</event>
<event>
 6    0  0.4390142E+002  0.1245118E+03  0.7546771E-02  0.1235834E+00
         21   -1    0    0  504  501  0.00000000000E+00  0.00000000000E+00  0.83205982552E+03  0.83205982552E+03  0.00000000000E+00 0. -1.
         21   -1    0    0  503  502 -0.00000000000E+00 -0.00000000000E+00 -0.34618429846E+02  0.34618429846E+02  0.00000000000E+00 0. -1.
         21    1    1    2  503  505 -0.10371013373E+03  0.79288867108E+02  0.24628194710E+03  0.27874237882E+03  0.00000000000E+00 0. -1.
         21    1    1    2  504  502  0.12107621729E+03 -0.26854125329E+02  0.28423177453E+03  0.31011013543E+03  0.00000000000E+00 0. -1.
         21    1    1    2  505  506  0.14413159801E+02 -0.36008642061E+02  0.17352211260E+03  0.17780406362E+03  0.00000000000E+00 0. -1.
         21    1    1    2  506  501 -0.31779243366E+02 -0.16426099719E+02  0.93405561440E+02  0.10002167749E+03  0.00000000000E+00 0. -1.
<scales pt_clust_3="14000.00000" pt_clust_4="124.51182" pt_clust_5="40.51106" pt_clust_6="35.77341"></scales>
<clustering>
<clus scale="   35.773">  1  6  2 -1</clus>
<clus scale="   40.511">  1  5  2 -1</clus>
<clus scale="  124.512">  1  4  2 -1</clus>
<clus scale="   35.773">  1  3  2 -1</clus>
</clustering>
</event>
<event>
 6    0  0.4390142E+002  0.7677862E+02  0.7546771E-02  0.1338450E+00
         21   -1    0    0  505  501  0.00000000000E+00  0.00000000000E+00  0.19135497647E+03  0.19135497647E+03  0.00000000000E+00 0.  1.
         21   -1    0    0  506  502 -0.00000000000E+00 -0.00000000000E+00 -0.20323569875E+03  0.20323569875E+03  0.00000000000E+00 0.  1.
         21    1    1    2  503  502 -0.37773175599E+02  0.73311272375E+01 -0.10455363008E+03  0.11140924461E+03  0.00000000000E+00 0.  1.
         21    1    1    2  504  501  0.88794568434E+02  0.97421280104E+02  0.29303292213E+02  0.13503356670E+03  0.00000000000E+00 0.  1.
         21    1    1    2  505  503 -0.31226652711E+02 -0.56248282401E+02  0.70310387871E+02  0.95302275708E+02  0.00000000000E+00 0.  1.
         21    1    1    2  506  504 -0.19794740124E+02 -0.48504124941E+02 -0.69407722947E+01  0.52845588207E+02  0.00000000000E+00 0.  1.
<scales pt_clust_3="38.47802" pt_clust_4="76.77862" pt_clust_5="14000.00000" pt_clust_6="56.00367"></scales>
<clustering>
<clus scale="   38.478">  2  3  1 -1</clus>
<clus scale="   56.004">  2  6  1 -1</clus>
<clus scale="   76.779">  2  4  1 -1</clus>
<clus scale="   76.779">  1  3  2 -1</clus>
</clustering>
</event>
<event>
 6    0  0.4390142E+002  0.8909401E+02  0.7546771E-02  0.1305061E+00
         21   -1    0    0  504  501  0.00000000000E+00  0.00000000000E+00  0.88750305840E+02  0.88750305840E+02  0.00000000000E+00 0.  1.
         21   -1    0    0  506  502 -0.00000000000E+00 -0.00000000000E+00 -0.96057854314E+03  0.96057854314E+03  0.00000000000E+00 0.  1.
         21    1    1    2  503  501  0.42505197229E+02  0.73740038807E+01  0.27605931293E+02  0.51216746941E+02  0.00000000000E+00 0.  1.
         21    1    1    2  504  505 -0.78245467333E+02 -0.10796906529E+03 -0.16811624837E+03  0.21457573298E+03  0.00000000000E+00 0.  1.
         21    1    1    2  505  502  0.63400567153E+02  0.56155851250E+02 -0.72599895587E+03  0.73092242780E+03  0.00000000000E+00 0.  1.
         21    1    1    2  506  503 -0.27660297050E+02  0.44439210158E+02 -0.53189643492E+01  0.52613941252E+02  0.00000000000E+00 0.  1.
<scales pt_clust_3="43.14009" pt_clust_4="14000.00000" pt_clust_5="89.09401" pt_clust_6="48.52392"></scales>
<clustering>
<clus scale="   43.140">  1  3  2 -1</clus>
<clus scale="   48.524">  1  6  2 -1</clus>
<clus scale="   89.094">  2  5  1 -1</clus>
<clus scale="   43.140">  1  3  2 -1</clus>
</clustering>
</event>
<event>
 6    0  0.4390142E+002  0.1228338E+03  0.7546771E-02  0.1238494E+00
         21   -1    0    0  505  501  0.00000000000E+00  0.00000000000E+00  0.15774668499E+04  0.15774668499E+04  0.00000000000E+00 0. -1.
         21   -1    0    0  503  502 -0.00000000000E+00 -0.00000000000E+00 -0.78295353349E+02  0.78295353349E+02  0.00000000000E+00 0.  1.
         21    1    1    2  503  506 -0.26417914364E+02  0.37913539907E+02 -0.41962998801E+02  0.62419836399E+02  0.00000000000E+00 0.  1.
         21    1    1    2  504  501  0.11415121701E+03  0.70500980938E+02  0.12401077404E+04  0.12473444177E+04  0.00000000000E+00 0. -1.
         21    1    1    2  505  502 -0.58016997294E+01 -0.59837415837E+02  0.52395884201E+02  0.79746502965E+02  0.00000000000E+00 0. -1.
         21    1    1    2  506  504 -0.81931602921E+02 -0.48577105008E+02  0.24863087082E+03  0.26625144622E+03  0.00000000000E+00 0. -1.
<scales pt_clust_3="46.20977" pt_clust_4="14000.00000" pt_clust_5="44.54002" pt_clust_6="122.83382"></scales>
<clustering>
<clus scale="   46.210">  2  3  1 -1</clus>
<clus scale="   44.540">  2  5  1 -1</clus>
<clus scale="  122.834">  2  6  1 -1</clus>
<clus scale="  122.834">  1  3  2 -1</clus>
</clustering>
</event>
<event>
 6    0  0.4390142E+002  0.1227753E+03  0.7546771E-02  0.1238588E+00
         21   -1    0    0  504  501  0.00000000000E+00  0.00000000000E+00  0.44259328628E+03  0.44259328628E+03  0.00000000000E+00 0.  1.
         21   -1    0    0  505  502 -0.00000000000E+00 -0.00000000000E+00 -0.83039849710E+02  0.83039849710E+02  0.00000000000E+00 0.  1.
         21    1    1    2  503  502  0.30880915020E+02  0.43101677998E+02  0.66597323712E+01  0.53439101733E+02  0.00000000000E+00 0.  1.
         21    1    1    2  504  503 -0.11874108346E+03  0.27611604117E+02  0.28345056353E+02  0.12516104746E+03  0.00000000000E+00 0.  1.
         21    1    1    2  505  506  0.44465956972E+02 -0.67130740301E+01  0.10339675860E+03  0.11275272228E+03  0.00000000000E+00 0.  1.
         21    1    1    2  506  501  0.43394211466E+02 -0.64000208085E+02  0.22115188925E+03  0.23428026452E+03  0.00000000000E+00 0.  1.
<scales pt_clust_3="53.02250" pt_clust_4="112.66541" pt_clust_5="37.20635" pt_clust_6="37.20635"></scales>
<clustering>
<clus scale="   37.206">  5  6 -1 -1</clus>
<clus scale="   53.023">  2  3  1 -1</clus>
<clus scale="  112.665">  2  4  1 -1</clus>
<clus scale="  122.775">  1  3  2 -1</clus>
</clustering>
</event>
<event>
 6    0  0.4390142E+002  0.1324546E+03  0.7546771E-02  0.1223858E+00
         21   -1    0    0  506  501  0.00000000000E+00  0.00000000000E+00  0.46067642108E+03  0.46067642108E+03  0.00000000000E+00 0. -1.
         21   -1    0    0  505  502 -0.00000000000E+00 -0.00000000000E+00 -0.63915749129E+03  0.63915749129E+03  0.00000000000E+00 0. -1.
         21    1    1    2  503  501  0.33099347772E+02  0.84234796075E+02  0.15841054733E+02  0.91880393489E+02  0.00000000000E+00 0. -1.
         21    1    1    2  504  502 -0.53325555854E+02  0.39590482621E+02  0.13783541484E+03  0.15300203530E+03  0.00000000000E+00 0. -1.
         21    1    1    2  505  503  0.65702076574E+02 -0.11946500665E+03 -0.58363997033E+03  0.59935320608E+03  0.00000000000E+00 0. -1.
         21    1    1    2  506  504 -0.45475868492E+02 -0.43602720455E+01  0.25148243055E+03  0.25559827750E+03  0.00000000000E+00 0. -1.
<scales pt_clust_3="85.78100" pt_clust_4="132.45460" pt_clust_5="14000.00000" pt_clust_6="45.68442"></scales>
<clustering>
<clus scale="   45.684">  1  6  2 -1</clus>
<clus scale="   85.781">  1  3  2 -1</clus>
<clus scale="  132.455">  1  4  2 -1</clus>
<clus scale="   45.684">  1  3  2 -1</clus>
</clustering>
</event>
<event>
 6    0  0.4390142E+002  0.2460237E+03  0.7546771E-02  0.1115844E+00
         21   -1    0    0  503  501  0.00000000000E+00  0.00000000000E+00  0.25300339488E+03  0.25300339488E+03  0.00000000000E+00 0. -1.
         21   -1    0    0  506  502 -0.00000000000E+00 -0.00000000000E+00 -0.65045092618E+03  0.65045092618E+03  0.00000000000E+00 0. -1.
         21    1    1    2  503  502 -0.24402874699E+03  0.10053278291E+03 -0.44361120619E+03  0.51618579219E+03  0.00000000000E+00 0. -1.
         21    1    1    2  504  505  0.36577442987E+02  0.55046052781E+02  0.86869082987E+01  0.66659130192E+02  0.00000000000E+00 0.  1.
         21    1    1    2  505  501  0.81719516665E+02  0.27451391725E+02  0.47311683389E+02  0.98336431178E+02  0.00000000000E+00 0.  1.
         21    1    1    2  506  504  0.12573178733E+03 -0.18303022742E+03 -0.98349167900E+01  0.22227296751E+03  0.00000000000E+00 0. -1.
<scales pt_clust_3="246.02373" pt_clust_4="50.20470" pt_clust_5="155.20210" pt_clust_6="14000.00000"></scales>
<clustering>
<clus scale="   50.205">  4  5 -1 -1</clus>
<clus scale="  155.202">  1  4  2 -1</clus>
<clus scale="  246.024">  2  3  1 -1</clus>
<clus scale="  155.202">  1  3  2 -1</clus>
</clustering>
</event>
<event>
 6    0  0.4390142E+002  0.8078574E+02  0.7546771E-02  0.1326836E+00
         21   -1    0    0  503  501  0.00000000000E+00  0.00000000000E+00  0.42311737121E+03  0.42311737121E+03  0.00000000000E+00 0. -1.
         21   -1    0    0  506  502 -0.00000000000E+00 -0.00000000000E+00 -0.15703621148E+03  0.15703621148E+03  0.00000000000E+00 0. -1.
         21    1    1    2  503  502 -0.32371763510E+02 -0.23213176670E+02  0.18218256708E+03  0.18648664936E+03  0.00000000000E+00 0. -1.
         21    1    1    2  504  501  0.47060903965E+02 -0.60591360505E+02  0.15510035569E+03  0.17303803624E+03  0.00000000000E+00 0.  1.
         21    1    1    2  505  504 -0.57876410808E+02  0.66675069158E+02  0.42363083631E+02  0.97927905267E+02  0.00000000000E+00 0. -1.
         21    1    1    2  506  505  0.43187270352E+02  0.17129468017E+02 -0.11356484667E+03  0.12270099182E+03  0.00000000000E+00 0. -1.
<scales pt_clust_3="39.83444" pt_clust_4="14000.00000" pt_clust_5="80.78574" pt_clust_6="45.72127"></scales>
<clustering>
<clus scale="   39.834">  1  3  2 -1</clus>
<clus scale="   45.721">  2  6  1 -1</clus>
<clus scale="   80.786">  2  5  1 -1</clus>
<clus scale="   39.834">  1  3  2 -1</clus>
</clustering>
</event>
<event>
 6    0  0.4390142E+002  0.1257149E+03  0.7546771E-02  0.1233956E+00
         21   -1    0    0  504  501  0.00000000000E+00  0.00000000000E+00  0.15932056919E+03  0.15932056919E+03  0.00000000000E+00 0. -1.
         21   -1    0    0  505  502 -0.00000000000E+00 -0.00000000000E+00 -0.24744080247E+04  0.24744080247E+04  0.00000000000E+00 0.  1.
         21    1    1    2  503  502  0.35416113013E+02 -0.62508578311E+01 -0.23907201947E+03  0.24176187618E+03  0.00000000000E+00 0.  1.
         21    1    1    2  504  503  0.35321141940E+02  0.99488518532E+01  0.12716492961E+02  0.38836476595E+02  0.00000000000E+00 0. -1.
         21    1    1    2  505  506 -0.33087700501E+01 -0.11562710895E+03 -0.21867348801E+04  0.21897922304E+04  0.00000000000E+00 0.  1.
         21    1    1    2  506  501 -0.67428484903E+02  0.11192911493E+03  0.98002951070E+02  0.16333801078E+03  0.00000000000E+00 0. -1.
<scales pt_clust_3="35.96351" pt_clust_4="36.88504" pt_clust_5="14000.00000" pt_clust_6="125.71491"></scales>
<clustering>
<clus scale="   35.964">  2  3  1 -1</clus>
<clus scale="   36.885">  1  4  2 -1</clus>
<clus scale="  125.715">  1  6  2 -1</clus>
<clus scale="   36.885">  1  3  2 -1</clus>
</clustering>
</event>
<event>
 6    0  0.4390142E+002  0.1254452E+03  0.7546771E-02  0.1234375E+00
         21   -1    0    0  503  501  0.00000000000E+00  0.00000000000E+00  0.12868226932E+03  0.12868226932E+03  0.00000000000E+00 0.  1.
         21   -1    0    0  504  502 -0.00000000000E+00 -0.00000000000E+00 -0.15469832315E+04  0.15469832315E+04  0.00000000000E+00 0. -1.
         21    1    1    2  503  502 -0.32454457601E+02  0.73121886082E+02  0.77827783943E+01  0.80378315993E+02  0.00000000000E+00 0.  1.
         21    1    1    2  504  505 -0.50287397925E+02  0.12556068965E+03 -0.84783049413E+03  0.85855160355E+03  0.00000000000E+00 0. -1.
         21    1    1    2  505  506  0.10327731622E+03 -0.71401821184E+02 -0.59375068196E+03  0.60688079261E+03  0.00000000000E+00 0. -1.
         21    1    1    2  506  501 -0.20535460694E+02 -0.12728075455E+03  0.15497435540E+02  0.12985478864E+03  0.00000000000E+00 0.  1.
<scales pt_clust_3="80.00064" pt_clust_4="125.44517" pt_clust_5="14000.00000" pt_clust_6="80.62207"></scales>
<clustering>
<clus scale="   80.001">  1  3  2 -1</clus>
<clus scale="   80.622">  1  6  2 -1</clus>
<clus scale="  125.445">  2  4  1 -1</clus>
<clus scale="   80.001">  1  3  2 -1</clus>
</clustering>
</event>
<event>
 6    0  0.4390142E+002  0.6064989E+02  0.7546771E-02  0.1395125E+00
         21   -1    0    0  503  501  0.00000000000E+00  0.00000000000E+00  0.44456711589E+02  0.44456711589E+02  0.00000000000E+00 0.  1.
         21   -1    0    0  504  502 -0.00000000000E+00 -0.00000000000E+00 -0.12439609476E+04  0.12439609476E+04  0.00000000000E+00 0.  1.
         21    1    1    2  503  502 -0.59669560250E+02 -0.34459620280E+02 -0.32299500003E+02  0.76099799939E+02  0.00000000000E+00 0.  1.
         21    1    1    2  504  505  0.34203172519E+02  0.38562541195E+02 -0.98978167844E+03  0.99112294775E+03  0.00000000000E+00 0.  1.
         21    1    1    2  505  506  0.25372642856E+02 -0.65089167550E+02 -0.10973435323E+03  0.13008458409E+03  0.00000000000E+00 0. -1.
         21    1    1    2  506  501  0.93744875641E-01  0.60986246635E+02 -0.67688704361E+02  0.91110327432E+02  0.00000000000E+00 0.  1.
<scales pt_clust_3="58.55324" pt_clust_4="51.54538" pt_clust_5="60.64989" pt_clust_6="14000.00000"></scales>
<clustering>
<clus scale="   51.545">  2  4  1 -1</clus>
<clus scale="   58.553">  1  3  2 -1</clus>
<clus scale="   60.650">  2  5  1 -1</clus>
<clus scale="   58.553">  1  3  2 -1</clus>
</clustering>
</event>
<event>
 6    0  0.4390142E+002  0.7699148E+02  0.7546771E-02  0.1337813E+00
         21   -1    0    0  506  501  0.00000000000E+00  0.00000000000E+00  0.20740965411E+04  0.20740965411E+04  0.00000000000E+00 0.  1.
         21   -1    0    0  503  502 -0.00000000000E+00 -0.00000000000E+00 -0.42102249463E+02  0.42102249463E+02  0.00000000000E+00 0.  1.
         21    1    1    2  503  504  0.34670586010E+02  0.19354274924E+02 -0.19158730687E+02  0.44087350268E+02  0.00000000000E+00 0.  1.
         21    1    1    2  504  501  0.93748680182E+02  0.23014356233E+02  0.97370227884E+03  0.97847565296E+03  0.00000000000E+00 0.  1.
         21    1    1    2  505  502 -0.96420540666E+02 -0.47614414166E+01  0.31199757712E+03  0.32659161060E+03  0.00000000000E+00 0.  1.
         21    1    1    2  506  505 -0.31998725526E+02 -0.37607189740E+02  0.76545316638E+03  0.76704417675E+03  0.00000000000E+00 0.  1.
<scales pt_clust_3="39.70689" pt_clust_4="14000.00000" pt_clust_5="76.99148" pt_clust_6="46.56565"></scales>
<clustering>
<clus scale="   39.707">  2  3  1 -1</clus>
<clus scale="   46.566">  1  6  2 -1</clus>
<clus scale="   76.991">  2  5  1 -1</clus>
<clus scale="   46.566">  1  3  2 -1</clus>
</clustering>
</event>
<event>
 6    0  0.4390142E+002  0.9135125E+02  0.7546771E-02  0.1299612E+00
         21   -1    0    0  503  501  0.00000000000E+00  0.00000000000E+00  0.91162411186E+03  0.91162411186E+03  0.00000000000E+00 0. -1.
         21   -1    0    0  506  502 -0.00000000000E+00 -0.00000000000E+00 -0.67301705990E+02  0.67301705990E+02  0.00000000000E+00 0.  1.
         21    1    1    2  503  502 -0.82505460053E+02  0.89209500982E+01  0.31471736881E+03  0.32547466341E+03  0.00000000000E+00 0. -1.
         21    1    1    2  504  505  0.73909934118E+02 -0.10289138814E+03  0.26577183913E+03  0.29442144383E+03  0.00000000000E+00 0.  1.
         21    1    1    2  505  501  0.17468462942E+02  0.46018788822E+02  0.29635460696E+03  0.30041459550E+03  0.00000000000E+00 0. -1.
         21    1    1    2  506  504 -0.88729370069E+01  0.47951649221E+02 -0.32521409029E+02  0.58615115110E+02  0.00000000000E+00 0.  1.
<scales pt_clust_3="14000.00000" pt_clust_4="91.35125" pt_clust_5="53.16855" pt_clust_6="48.76566"></scales>
<clustering>
<clus scale="   48.766">  2  6  1 -1</clus>
<clus scale="   53.169">  1  5  2 -1</clus>
<clus scale="   91.351">  2  4  1 -1</clus>
<clus scale="   53.169">  1  3  2 -1</clus>
</clustering>
</event>
<event>
 6    0  0.4390142E+002  0.8103466E+02  0.7546771E-02  0.1326141E+00
         21   -1    0    0  504  501  0.00000000000E+00  0.00000000000E+00  0.39031087280E+03  0.39031087280E+03  0.00000000000E+00 0.  1.
         21   -1    0    0  506  502 -0.00000000000E+00 -0.00000000000E+00 -0.16752199309E+03  0.16752199309E+03  0.00000000000E+00 0. -1.
         21    1    1    2  503  502  0.39694501315E+02  0.29612642625E+02 -0.65172230552E+02  0.81853415769E+02  0.00000000000E+00 0. -1.
         21    1    1    2  504  503 -0.36465874568E+02  0.78385907929E+02  0.32869011966E+03  0.33986954164E+03  0.00000000000E+00 0.  1.
         21    1    1    2  505  501 -0.27768563048E+02 -0.63767826102E+02  0.24639683258E+01  0.69595257593E+02  0.00000000000E+00 0. -1.
         21    1    1    2  506  505  0.24539936301E+02 -0.44230724452E+02 -0.43192977722E+02  0.66514650895E+02  0.00000000000E+00 0. -1.
<scales pt_clust_3="49.52335" pt_clust_4="14000.00000" pt_clust_5="81.03466" pt_clust_6="54.78900"></scales>
<clustering>
<clus scale="   49.523">  2  3  1 -1</clus>
<clus scale="   54.789">  2  6  1 -1</clus>
<clus scale="   81.035">  2  5  1 -1</clus>
<clus scale="   81.035">  1  3  2 -1</clus>
</clustering>
</event>
<event>
 6    0  0.4390142E+002  0.8813601E+02  0.7546771E-02  0.1307429E+00
         21   -1    0    0  506  501  0.00000000000E+00  0.00000000000E+00  0.93172541759E+03  0.93172541759E+03  0.00000000000E+00 0.  1.
         21   -1    0    0  504  502 -0.00000000000E+00 -0.00000000000E+00 -0.83490705034E+03  0.83490705034E+03  0.00000000000E+00 0.  1.
         21    1    1    2  503  501  0.17127316885E+01  0.36045209005E+02  0.15638513023E+03  0.16049454663E+03  0.00000000000E+00 0.  1.
         21    1    1    2  504  505  0.40543212297E+02 -0.11130162764E+03 -0.64398930748E+03  0.65479312193E+03  0.00000000000E+00 0.  1.
         21    1    1    2  505  503 -0.27019077286E+01  0.52289826866E+02  0.76412305995E+03  0.76591486280E+03  0.00000000000E+00 0.  1.
         21    1    1    2  506  502 -0.39554036257E+02  0.22966591768E+02 -0.17970051546E+03  0.18542993657E+03  0.00000000000E+00 0.  1.
<scales pt_clust_3="36.08588" pt_clust_4="14000.00000" pt_clust_5="88.13601" pt_clust_6="45.79995"></scales>
<clustering>
<clus scale="   36.086">  1  3  2 -1</clus>
<clus scale="   45.800">  2  6  1 -1</clus>
<clus scale="   88.136">  1  5  2 -1</clus>
<clus scale="   36.086">  1  3  2 -1</clus>
</clustering>
</event>
<event>
 6    0  0.4390142E+002  0.8083432E+02  0.7546771E-02  0.1326700E+00
         21   -1    0    0  506  501  0.00000000000E+00  0.00000000000E+00  0.29711210195E+04  0.29711210195E+04  0.00000000000E+00 0. -1.
         21   -1    0    0  505  502 -0.00000000000E+00 -0.00000000000E+00 -0.16358750066E+03  0.16358750066E+03  0.00000000000E+00 0.  1.
         21    1    1    2  503  502 -0.38259253274E+02  0.61019789829E+02 -0.78695762833E+02  0.10667805913E+03  0.00000000000E+00 0.  1.
         21    1    1    2  504  503 -0.20891987071E+02  0.37701840572E+02  0.78097625947E+03  0.78216483030E+03  0.00000000000E+00 0.  1.
         21    1    1    2  505  501  0.25318524047E+02 -0.11207729436E+03 -0.23101102555E+02  0.11720071890E+03  0.00000000000E+00 0.  1.
         21    1    1    2  506  504  0.33832716298E+02  0.13355663960E+02  0.21283541248E+04  0.21286649119E+04  0.00000000000E+00 0. -1.
<scales pt_clust_3="14000.00000" pt_clust_4="51.17658" pt_clust_5="80.83432" pt_clust_6="36.37343"></scales>
<clustering>
<clus scale="   36.373">  1  6  2 -1</clus>
<clus scale="   51.177">  1  4  2 -1</clus>
<clus scale="   80.834">  1  5  2 -1</clus>
<clus scale="   36.373">  1  3  2 -1</clus>
</clustering>
</event>
<event>
 6    0  0.4390142E+002  0.1588637E+03  0.7546771E-02  0.1189986E+00
         21   -1    0    0  503  501  0.00000000000E+00  0.00000000000E+00  0.99930424237E+02  0.99930424237E+02  0.00000000000E+00 0. -1.
         21   -1    0    0  505  502 -0.00000000000E+00 -0.00000000000E+00 -0.13616005244E+04  0.13616005244E+04  0.00000000000E+00 0.  1.
         21    1    1    2  503  506  0.72387758515E+02 -0.39705752330E+02 -0.13087928039E+03  0.15474469421E+03  0.00000000000E+00 0. -1.
         21    1    1    2  504  501  0.24324196874E+02  0.64028322149E+02 -0.18926797796E+01  0.68519156646E+02  0.00000000000E+00 0. -1.
         21    1    1    2  505  504  0.69004797048E+02  0.14829802316E+02  0.22705486054E+02  0.74142593355E+02  0.00000000000E+00 0. -1.
         21    1    1    2  506  502 -0.16571675244E+03 -0.39152372135E+02 -0.11516036261E+04  0.11641245045E+04  0.00000000000E+00 0.  1.
<scales pt_clust_3="81.77456" pt_clust_4="68.49301" pt_clust_5="14000.00000" pt_clust_6="158.86366"></scales>
<clustering>
<clus scale="   68.493">  1  4  2 -1</clus>
<clus scale="   81.775">  1  3  2 -1</clus>
<clus scale="  158.864">  2  6  1 -1</clus>
<clus scale="   68.493">  1  3  2 -1</clus>
</clustering>
</event>
<event>
 6    0  0.4390142E+002  0.1176577E+03  0.7546771E-02  0.1247012E+00
         21   -1    0    0  503  501  0.00000000000E+00  0.00000000000E+00  0.86339133972E+02  0.86339133972E+02  0.00000000000E+00 0. -1.
         21   -1    0    0  504  502 -0.00000000000E+00 -0.00000000000E+00 -0.80895346113E+03  0.80895346113E+03  0.00000000000E+00 0.  1.
         21    1    1    2  503  505 -0.19568668499E+02 -0.27915733149E+02  0.43455002171E+02  0.55231858178E+02  0.00000000000E+00 0. -1.
         21    1    1    2  504  506  0.86824704774E+00 -0.85846097172E+02 -0.97002532568E+02  0.12953685799E+03  0.00000000000E+00 0.  1.
         21    1    1    2  505  502  0.53942192441E+02  0.12176561494E+03 -0.65994822494E+03  0.67325202169E+03  0.00000000000E+00 0.  1.
         21    1    1    2  506  501 -0.35241770990E+02 -0.80037846142E+01 -0.91185718204E+01  0.37271857248E+02  0.00000000000E+00 0. -1.
<scales pt_clust_3="34.09136" pt_clust_4="14000.00000" pt_clust_5="117.65766" pt_clust_6="46.57399"></scales>
<clustering>
<clus scale="   34.091">  1  3  2 -1</clus>
<clus scale="   46.574">  1  6  2 -1</clus>
<clus scale="  117.658">  2  5  1 -1</clus>
<clus scale="   34.091">  1  3  2 -1</clus>
</clustering>
</event>
<event>
 6    0  0.4390142E+002  0.6749447E+02  0.7546771E-02  0.1368827E+00
         21   -1    0    0  505  501  0.00000000000E+00  0.00000000000E+00  0.15644695414E+04  0.15644695414E+04  0.00000000000E+00 0.  1.
         21   -1    0    0  506  502 -0.00000000000E+00 -0.00000000000E+00 -0.36823336439E+02  0.36823336439E+02  0.00000000000E+00 0.  1.
         21    1    1    2  503  501  0.44284505991E+02 -0.55119327400E+01  0.73977893150E+03  0.74112371867E+03  0.00000000000E+00 0.  1.
         21    1    1    2  504  503 -0.68098611488E+02  0.69144920353E+02  0.71935146706E+03  0.72586842751E+03  0.00000000000E+00 0.  1.
         21    1    1    2  505  502  0.53574873650E+02 -0.18302988220E+02  0.16046528576E+02  0.58845199836E+02  0.00000000000E+00 0.  1.
         21    1    1    2  506  504 -0.29760768153E+02 -0.45329999393E+02  0.52469277780E+02  0.75455531784E+02  0.00000000000E+00 0.  1.
<scales pt_clust_3="44.62621" pt_clust_4="14000.00000" pt_clust_5="67.49447" pt_clust_6="52.78917"></scales>
<clustering>
<clus scale="   44.626">  1  3  2 -1</clus>
<clus scale="   52.789">  2  6  1 -1</clus>
<clus scale="   67.494">  2  5  1 -1</clus>
<clus scale="   44.626">  1  3  2 -1</clus>
</clustering>
</event>
<event>
 6    0  0.4390142E+002  0.8447981E+02  0.7546771E-02  0.1316799E+00
         21   -1    0    0  505  501  0.00000000000E+00  0.00000000000E+00  0.12159714497E+03  0.12159714497E+03  0.00000000000E+00 0. -1.
         21   -1    0    0  504  502 -0.00000000000E+00 -0.00000000000E+00 -0.42443358110E+03  0.42443358110E+03  0.00000000000E+00 0.  1.
         21    1    1    2  503  501 -0.77392103011E+01 -0.29058428739E+02  0.11851581312E+02  0.32322556156E+02  0.00000000000E+00 0.  1.
         21    1    1    2  504  503  0.13270280192E+03  0.45078328271E+02 -0.13245660813E+03  0.19283890260E+03  0.00000000000E+00 0.  1.
         21    1    1    2  505  506 -0.57019269567E+02  0.13175069143E+02  0.50109245389E+02  0.77043598192E+02  0.00000000000E+00 0. -1.
         21    1    1    2  506  502 -0.67944322056E+02 -0.29194968675E+02 -0.23234065470E+03  0.24382566912E+03  0.00000000000E+00 0.  1.
<scales pt_clust_3="30.07138" pt_clust_4="14000.00000" pt_clust_5="62.19781" pt_clust_6="84.47981"></scales>
<clustering>
<clus scale="   30.071">  1  3  2 -1</clus>
<clus scale="   62.198">  1  5  2 -1</clus>
<clus scale="   84.480">  2  6  1 -1</clus>
<clus scale="   30.071">  1  3  2 -1</clus>
</clustering>
</event>
<event>
 6    0  0.4390142E+002  0.1218018E+03  0.7546771E-02  0.1240154E+00
         21   -1    0    0  502  501  0.00000000000E+00  0.00000000000E+00  0.21492253171E+03  0.21492253171E+03  0.00000000000E+00 0.  1.
         21   -1    0    0  506  502 -0.00000000000E+00 -0.00000000000E+00 -0.20878600218E+03  0.20878600218E+03  0.00000000000E+00 0. -1.
         21    1    1    2  503  501 -0.58288173199E+02 -0.19537141975E+01  0.10590883005E+03  0.12090495613E+03  0.00000000000E+00 0.  1.
         21    1    1    2  504  505 -0.52166123305E+01 -0.53424167547E+02  0.11865315446E+02  0.54973997789E+02  0.00000000000E+00 0.  1.
         21    1    1    2  505  503 -0.24700600253E+02 -0.34330723243E+02  0.34800340834E+02  0.54770265047E+02  0.00000000000E+00 0.  1.
         21    1    1    2  506  504  0.88205385782E+02  0.89708604987E+02 -0.14643795679E+03  0.19305931493E+03  0.00000000000E+00 0. -1.
<scales pt_clust_3="58.32091" pt_clust_4="31.63482" pt_clust_5="31.63482" pt_clust_6="116.47106"></scales>
<clustering>
<clus scale="   31.635">  4  5 -1 -1</clus>
<clus scale="   58.321">  1  3  2 -1</clus>
<clus scale="  116.471">  2  6  1 -1</clus>
<clus scale="   58.321">  1  3  2 -1</clus>
</clustering>
</event>
<event>
 6    0  0.4390142E+002  0.1562016E+03  0.7546771E-02  0.1193053E+00
         21   -1    0    0  506  501  0.00000000000E+00  0.00000000000E+00  0.87353938813E+02  0.87353938813E+02  0.00000000000E+00 0. -1.
         21   -1    0    0  503  502 -0.00000000000E+00 -0.00000000000E+00 -0.16030933176E+04  0.16030933176E+04  0.00000000000E+00 0. -1.
         21    1    1    2  503  504 -0.56935200363E+02 -0.37397875963E+02 -0.70882657235E+03  0.71209221864E+03  0.00000000000E+00 0. -1.
         21    1    1    2  504  505 -0.15968088047E+02 -0.12205977864E+03 -0.70092671656E+03  0.71165429204E+03  0.00000000000E+00 0. -1.
         21    1    1    2  505  501 -0.32002843285E+02  0.72608588448E+02 -0.10359074162E+03  0.13048843184E+03  0.00000000000E+00 0. -1.
         21    1    1    2  506  502  0.10490613170E+03  0.86849066154E+02 -0.23953482409E+01  0.13621231388E+03  0.00000000000E+00 0. -1.
<scales pt_clust_3="68.11915" pt_clust_4="156.20160" pt_clust_5="78.36902" pt_clust_6="14000.00000"></scales>
<clustering>
<clus scale="   68.119">  2  3  1 -1</clus>
<clus scale="   78.369">  1  5  2 -1</clus>
<clus scale="  156.202">  2  4  1 -1</clus>
<clus scale="   78.369">  1  3  2 -1</clus>
</clustering>
</event>
<event>
 6    0  0.4390142E+002  0.1121593E+03  0.7546771E-02  0.1256623E+00
         21   -1    0    0  503  501  0.00000000000E+00  0.00000000000E+00  0.98621214320E+02  0.98621214320E+02  0.00000000000E+00 0.  1.
         21   -1    0    0  505  502 -0.00000000000E+00 -0.00000000000E+00 -0.54912068072E+03  0.54912068072E+03  0.00000000000E+00 0. -1.
         21    1    1    2  503  506 -0.44643554390E+02 -0.46614996769E+02 -0.13434014555E+02  0.65927821285E+02  0.00000000000E+00 0. -1.
         21    1    1    2  504  501  0.36329414020E+02 -0.81395770119E+02  0.22729677008E+02  0.91987694466E+02  0.00000000000E+00 0.  1.
         21    1    1    2  505  504  0.34505440032E+02  0.22068708642E+02 -0.25011397059E+03  0.25344555939E+03  0.00000000000E+00 0. -1.
         21    1    1    2  506  502 -0.26191299662E+02  0.10594205825E+03 -0.20968115827E+03  0.23638081990E+03  0.00000000000E+00 0. -1.
<scales pt_clust_3="59.24657" pt_clust_4="112.15933" pt_clust_5="40.95917" pt_clust_6="14000.00000"></scales>
<clustering>
<clus scale="   40.959">  2  5  1 -1</clus>
<clus scale="   59.247">  1  3  2 -1</clus>
<clus scale="  112.159">  1  4  2 -1</clus>
<clus scale="   59.247">  1  3  2 -1</clus>
</clustering>
</event>
<event>
 6    0  0.4390142E+002  0.1790401E+03  0.7546771E-02  0.1168735E+00
         21   -1    0    0  503  501  0.00000000000E+00  0.00000000000E+00  0.18238216878E+04  0.18238216878E+04  0.00000000000E+00 0.  1.
         21   -1    0    0  501  502 -0.00000000000E+00 -0.00000000000E+00 -0.71714686177E+03  0.71714686177E+03  0.00000000000E+00 0.  1.
         21    1    1    2  503  504 -0.36676483738E+02  0.76799482886E+01  0.20212271449E+03  0.20556686935E+03  0.00000000000E+00 0.  1.
         21    1    1    2  504  505 -0.12749620485E+03  0.33261810852E+02  0.15976568633E+04  0.16030811218E+04  0.00000000000E+00 0.  1.
         21    1    1    2  505  506  0.17442371809E+03 -0.73753078948E+02 -0.47223446306E+03  0.50879125207E+03  0.00000000000E+00 0.  1.
         21    1    1    2  506  502 -0.10251029495E+02  0.32811319807E+02 -0.22087028874E+03  0.22352930627E+03  0.00000000000E+00 0.  1.
<scales pt_clust_3="30.96759" pt_clust_4="30.96759" pt_clust_5="169.36121" pt_clust_6="34.37537"></scales>
<clustering>
<clus scale="   30.968">  3  4 -1 -1</clus>
<clus scale="   34.375">  2  6  1 -1</clus>
<clus scale="  169.361">  2  5  1 -1</clus>
<clus scale="  179.040">  1  3  2 -1</clus>
</clustering>
</event>
<event>
 6    0  0.4390142E+002  0.1484591E+03  0.7546771E-02  0.1202379E+00
         21   -1    0    0  506  501  0.00000000000E+00  0.00000000000E+00  0.10714921263E+04  0.10714921263E+04  0.00000000000E+00 0.  1.
         21   -1    0    0  504  502 -0.00000000000E+00 -0.00000000000E+00 -0.34499691130E+03  0.34499691130E+03  0.00000000000E+00 0.  1.
         21    1    1    2  503  502  0.91615952988E+02 -0.55941763077E+02 -0.30379923168E+03  0.32220635758E+03  0.00000000000E+00 0.  1.
         21    1    1    2  504  501  0.19189003384E+01 -0.65064950071E+02  0.20845602929E+02  0.68349609126E+02  0.00000000000E+00 0. -1.
         21    1    1    2  505  503 -0.93318522957E+02  0.64599218066E+02  0.83275910197E+03  0.84045768937E+03  0.00000000000E+00 0.  1.
         21    1    1    2  506  505 -0.21633036951E+00  0.56407495082E+02  0.17668974183E+03  0.18547538157E+03  0.00000000000E+00 0. -1.
<scales pt_clust_3="14000.00000" pt_clust_4="62.26893" pt_clust_5="148.45909" pt_clust_6="56.40791"></scales>
<clustering>
<clus scale="   56.408">  1  6  2 -1</clus>
<clus scale="   62.269">  2  4  1 -1</clus>
<clus scale="  148.459">  1  5  2 -1</clus>
<clus scale="   56.408">  1  3  2 -1</clus>
</clustering>
</event>
<event>
 6    0  0.4390142E+002  0.1227487E+03  0.7546771E-02  0.1238630E+00
         21   -1    0    0  503  501  0.00000000000E+00  0.00000000000E+00  0.14259671451E+03  0.14259671451E+03  0.00000000000E+00 0. -1.
         21   -1    0    0  504  502 -0.00000000000E+00 -0.00000000000E+00 -0.23906798467E+03  0.23906798467E+03  0.00000000000E+00 0. -1.
         21    1    1    2  503  505  0.58877035041E+02  0.46869613502E+01  0.34476923929E+02  0.68389554360E+02  0.00000000000E+00 0. -1.
         21    1    1    2  504  501 -0.85902456161E+02 -0.56150243788E+02 -0.15681788235E+03  0.18741379372E+03  0.00000000000E+00 0. -1.
         21    1    1    2  505  506  0.55635177213E+02  0.36674601738E+02  0.51890933124E+02  0.84456902007E+02  0.00000000000E+00 0. -1.
         21    1    1    2  506  502 -0.28609756093E+02  0.14788680701E+02 -0.26021244865E+02  0.41404449096E+02  0.00000000000E+00 0. -1.
<scales pt_clust_3="30.92272" pt_clust_4="118.27274" pt_clust_5="30.92272" pt_clust_6="32.20595"></scales>
<clustering>
<clus scale="   30.923">  3  5 -1 -1</clus>
<clus scale="   32.206">  2  6  1 -1</clus>
<clus scale="  118.273">  2  4  1 -1</clus>
<clus scale="  122.749">  1  3  2 -1</clus>
</clustering>
</event>
<event>
 6    0  0.4390142E+002  0.1810603E+03  0.7546771E-02  0.1166781E+00
         21   -1    0    0  506  501  0.00000000000E+00  0.00000000000E+00  0.48230618318E+03  0.48230618318E+03  0.00000000000E+00 0.  1.
         21   -1    0    0  503  502 -0.00000000000E+00 -0.00000000000E+00 -0.63472899188E+03  0.63472899188E+03  0.00000000000E+00 0.  1.
         21    1    1    2  503  504  0.16703984359E+01  0.10067610345E+03 -0.41483901548E+02  0.10890079028E+03  0.00000000000E+00 0. -1.
         21    1    1    2  504  501  0.19200051722E+02 -0.14771016210E+03  0.39614258337E+03  0.42322084109E+03  0.00000000000E+00 0.  1.
         21    1    1    2  505  502 -0.68615320394E+02  0.79756548190E+02 -0.51576259449E+03  0.52638410220E+03  0.00000000000E+00 0.  1.
         21    1    1    2  506  505  0.47744870237E+02 -0.32722489533E+02  0.86811039673E+01  0.58529441491E+02  0.00000000000E+00 0.  1.
<scales pt_clust_3="98.35844" pt_clust_4="14000.00000" pt_clust_5="181.06032" pt_clust_6="57.88207"></scales>
<clustering>
<clus scale="   57.882">  1  6  2 -1</clus>
<clus scale="   98.358">  2  3  1 -1</clus>
<clus scale="  181.060">  2  5  1 -1</clus>
<clus scale="   57.882">  1  3  2 -1</clus>
</clustering>
</event>
<event>
 6    0  0.5732693E+002  0.1594479E+03  0.7546771E-02  0.1189321E+00
         21   -1    0    0  503  501  0.00000000000E+00  0.00000000000E+00  0.24127380860E+03  0.24127380860E+03  0.00000000000E+00 0. -1.
         21   -1    0    0  505  502 -0.00000000000E+00 -0.00000000000E+00 -0.46691219807E+03  0.46691219807E+03  0.00000000000E+00 0. -1.
         21    1    1    2  503  504 -0.17046577899E+03  0.74880237457E+02  0.16147081060E+03  0.24645172842E+03  0.00000000000E+00 0. -1.
         21    1    1    2  504  506  0.13083585316E+03 -0.24178966488E+02 -0.19821251684E+03  0.23872755334E+03  0.00000000000E+00 0. -1.
         21    1    1    2  505  501  0.13258382159E+02 -0.31743159655E+02 -0.32652213347E+01  0.34555383846E+02  0.00000000000E+00 0. -1.
         21    1    1    2  506  502  0.26371543668E+02 -0.18958111313E+02 -0.18563146190E+03  0.18845134106E+03  0.00000000000E+00 0. -1.
<scales pt_clust_3="159.44793" pt_clust_4="14000.00000" pt_clust_5="36.28776" pt_clust_6="32.47874"></scales>
<clustering>
<clus scale="   32.479">  2  6  1 -1</clus>
<clus scale="   36.288">  1  5  2 -1</clus>
<clus scale="  159.448">  1  3  2 -1</clus>
<clus scale="   36.288">  1  3  2 -1</clus>
</clustering>
</event>
<event>
 6    0  0.4390142E+002  0.1682660E+03  0.7546771E-02  0.1179668E+00
         21   -1    0    0  503  501  0.00000000000E+00  0.00000000000E+00  0.18082200057E+04  0.18082200057E+04  0.00000000000E+00 0.  1.
         21   -1    0    0  504  502 -0.00000000000E+00 -0.00000000000E+00 -0.36615912497E+03  0.36615912497E+03  0.00000000000E+00 0. -1.
         21    1    1    2  503  505 -0.23331772385E+02 -0.19792530179E+03  0.16532405151E+04  0.16652095956E+04  0.00000000000E+00 0.  1.
         21    1    1    2  504  506 -0.63734612044E+02  0.12677840401E+03 -0.30204474616E+03  0.33371528760E+03  0.00000000000E+00 0. -1.
         21    1    1    2  505  502  0.90375870934E+02  0.39259998279E+02  0.24172394150E+02  0.10145664173E+03  0.00000000000E+00 0.  1.
         21    1    1    2  506  501 -0.33094865049E+01  0.31886899498E+02  0.66692717681E+02  0.73997605720E+02  0.00000000000E+00 0. -1.
<scales pt_clust_3="168.26602" pt_clust_4="14000.00000" pt_clust_5="98.89067" pt_clust_6="32.05818"></scales>
<clustering>
<clus scale="   32.058">  1  6  2 -1</clus>
<clus scale="   98.891">  2  5  1 -1</clus>
<clus scale="  168.266">  1  3  2 -1</clus>
<clus scale="   32.058">  1  3  2 -1</clus>
</clustering>
</event>
<event>
 6    0  0.4390142E+002  0.9557759E+02  0.7546771E-02  0.1289880E+00
         21   -1    0    0  505  501  0.00000000000E+00  0.00000000000E+00  0.19782321750E+04  0.19782321750E+04  0.00000000000E+00 0. -1.
         21   -1    0    0  503  502 -0.00000000000E+00 -0.00000000000E+00 -0.59773516711E+03  0.59773516711E+03  0.00000000000E+00 0. -1.
         21    1    1    2  503  504 -0.64735575567E+02 -0.24677726899E+02  0.14712673578E+02  0.70824767650E+02  0.00000000000E+00 0. -1.
         21    1    1    2  504  501 -0.44740192286E+02  0.22448112021E+02  0.12546939353E+04  0.12556920298E+04  0.00000000000E+00 0. -1.
         21    1    1    2  505  506  0.13788608566E+02  0.29843598776E+02  0.67551115139E+03  0.67631064000E+03  0.00000000000E+00 0. -1.
         21    1    1    2  506  502  0.95687159287E+02 -0.27613983899E+02 -0.56442075238E+03  0.57313990462E+03  0.00000000000E+00 0. -1.
<scales pt_clust_3="95.57759" pt_clust_4="60.09808" pt_clust_5="32.87501" pt_clust_6="14000.00000"></scales>
<clustering>
<clus scale="   32.875">  1  5  2 -1</clus>
<clus scale="   60.098">  1  4  2 -1</clus>
<clus scale="   95.578">  1  3  2 -1</clus>
<clus scale="   32.875">  1  3  2 -1</clus>
</clustering>
</event>
<event>
 6    0  0.4390142E+002  0.1303256E+03  0.7546771E-02  0.1226973E+00
         21   -1    0    0  504  501  0.00000000000E+00  0.00000000000E+00  0.15262406411E+04  0.15262406411E+04  0.00000000000E+00 0.  1.
         21   -1    0    0  506  502 -0.00000000000E+00 -0.00000000000E+00 -0.71282879644E+02  0.71282879644E+02  0.00000000000E+00 0. -1.
         21    1    1    2  503  505 -0.60400736827E+02  0.55963644805E+02  0.45145313216E+03  0.45890097961E+03  0.00000000000E+00 0.  1.
         21    1    1    2  504  503 -0.31776836843E+02  0.53638328142E+01  0.87244843079E+03  0.87304341384E+03  0.00000000000E+00 0.  1.
         21    1    1    2  505  502  0.62355850596E+02 -0.12606007635E+03  0.33174918081E+02  0.14449903163E+03  0.00000000000E+00 0. -1.
         21    1    1    2  506  501  0.29821723074E+02  0.64732598734E+02  0.97881280391E+02  0.12108009563E+03  0.00000000000E+00 0. -1.
<scales pt_clust_3="14000.00000" pt_clust_4="32.22636" pt_clust_5="130.32562" pt_clust_6="70.05436"></scales>
<clustering>
<clus scale="   32.226">  1  4  2 -1</clus>
<clus scale="   70.054">  1  6  2 -1</clus>
<clus scale="  130.326">  2  5  1 -1</clus>
<clus scale="   32.226">  1  3  2 -1</clus>
</clustering>
</event>
<event>
 6    0  0.4390142E+002  0.5562951E+02  0.7546771E-02  0.1417145E+00
         21   -1    0    0  505  501  0.00000000000E+00  0.00000000000E+00  0.77181940022E+03  0.77181940022E+03  0.00000000000E+00 0. -1.
         21   -1    0    0  504  502 -0.00000000000E+00 -0.00000000000E+00 -0.20370417840E+03  0.20370417840E+03  0.00000000000E+00 0.  1.
         21    1    1    2  503  501  0.30387799762E+02  0.72019789552E+02  0.19787191510E+03  0.21275235192E+03  0.00000000000E+00 0. -1.
         21    1    1    2  504  506  0.42673261683E+02 -0.34600540783E+02 -0.17003009358E+03  0.17868530272E+03  0.00000000000E+00 0.  1.
         21    1    1    2  505  502  0.13853611860E+01 -0.50348989523E+02  0.49166973818E+03  0.49424292753E+03  0.00000000000E+00 0. -1.
         21    1    1    2  506  503 -0.74446422632E+02  0.12929740755E+02  0.48603662123E+02  0.89842996446E+02  0.00000000000E+00 0. -1.
<scales pt_clust_3="46.98920" pt_clust_4="14000.00000" pt_clust_5="50.36805" pt_clust_6="55.62951"></scales>
<clustering>
<clus scale="   50.368">  1  5  2 -1</clus>
<clus scale="   46.989">  1  3  2 -1</clus>
<clus scale="   55.630">  1  6  2 -1</clus>
<clus scale="   50.368">  1  3  2 -1</clus>
</clustering>
</event>
<event>
 6    0  0.4390142E+002  0.9784574E+02  0.7546771E-02  0.1284892E+00
         21   -1    0    0  503  501  0.00000000000E+00  0.00000000000E+00  0.17110288268E+04  0.17110288268E+04  0.00000000000E+00 0. -1.
         21   -1    0    0  505  502 -0.00000000000E+00 -0.00000000000E+00 -0.80127924019E+02  0.80127924019E+02  0.00000000000E+00 0.  1.
         21    1    1    2  503  502  0.44560489649E+02  0.82693296691E+02  0.11481841272E+04  0.11520202292E+04  0.00000000000E+00 0. -1.
         21    1    1    2  504  506  0.96818954258E+02 -0.83600597175E+02  0.73594796968E+02  0.14757765377E+03  0.00000000000E+00 0.  1.
         21    1    1    2  505  504 -0.91076821109E+02  0.54728489890E+01  0.12921200558E+02  0.92151488557E+02  0.00000000000E+00 0.  1.
         21    1    1    2  506  501 -0.50302622799E+02 -0.45655485047E+01  0.39620077809E+03  0.39940737932E+03  0.00000000000E+00 0. -1.
<scales pt_clust_3="78.69649" pt_clust_4="14000.00000" pt_clust_5="97.84574" pt_clust_6="50.50939"></scales>
<clustering>
<clus scale="   50.509">  1  6  2 -1</clus>
<clus scale="   78.696">  1  3  2 -1</clus>
<clus scale="   97.846">  2  5  1 -1</clus>
<clus scale="   50.509">  1  3  2 -1</clus>
</clustering>
</event>
<event>
 6    0  0.4390142E+002  0.1521517E+03  0.7546771E-02  0.1197854E+00
         21   -1    0    0  505  501  0.00000000000E+00  0.00000000000E+00  0.76197153955E+02  0.76197153955E+02  0.00000000000E+00 0.  1.
         21   -1    0    0  503  502 -0.00000000000E+00 -0.00000000000E+00 -0.93218080259E+03  0.93218080259E+03  0.00000000000E+00 0.  1.
         21    1    1    2  503  501  0.12571104942E+03 -0.81254116033E+02 -0.48384365835E+02  0.15731034987E+03  0.00000000000E+00 0.  1.
         21    1    1    2  504  506 -0.10321705371E+03  0.90209511559E+02 -0.34129085857E+03  0.36779201499E+03  0.00000000000E+00 0.  1.
         21    1    1    2  505  504  0.25894928780E+02  0.16714219128E+02 -0.28259531029E+02  0.41815231095E+02  0.00000000000E+00 0.  1.
         21    1    1    2  506  502 -0.48388924492E+02 -0.25669614653E+02 -0.43804889321E+03  0.44146036059E+03  0.00000000000E+00 0.  1.
<scales pt_clust_3="152.15172" pt_clust_4="14000.00000" pt_clust_5="30.82065" pt_clust_6="54.02156"></scales>
<clustering>
<clus scale="   30.821">  1  5  2 -1</clus>
<clus scale="   54.022">  2  6  1 -1</clus>
<clus scale="  152.152">  1  3  2 -1</clus>
<clus scale="   30.821">  1  3  2 -1</clus>
</clustering>
</event>
<event>
 6    0  0.4390142E+002  0.1116284E+03  0.7546771E-02  0.1257584E+00
         21   -1    0    0  504  501  0.00000000000E+00  0.00000000000E+00  0.21198974127E+04  0.21198974127E+04  0.00000000000E+00 0. -1.
         21   -1    0    0  505  502 -0.00000000000E+00 -0.00000000000E+00 -0.15495938252E+03  0.15495938252E+03  0.00000000000E+00 0.  1.
         21    1    1    2  503  506 -0.10448225103E+03 -0.86915201816E+02  0.89047822138E+02  0.16248171501E+03  0.00000000000E+00 0.  1.
         21    1    1    2  504  503  0.22904528495E+02  0.39593123522E+02  0.18997688430E+04  0.19003194179E+04  0.00000000000E+00 0. -1.
         21    1    1    2  505  501  0.68154687776E+02  0.86036838512E+02 -0.84753822361E+02  0.13867447296E+03  0.00000000000E+00 0.  1.
         21    1    1    2  506  502  0.13423034756E+02 -0.38714760218E+02  0.60875187343E+02  0.73381189380E+02  0.00000000000E+00 0.  1.
<scales pt_clust_3="111.62843" pt_clust_4="45.69137" pt_clust_5="14000.00000" pt_clust_6="40.97573"></scales>
<clustering>
<clus scale="   40.976">  2  6  1 -1</clus>
<clus scale="   45.691">  1  4  2 -1</clus>
<clus scale="  111.628">  1  3  2 -1</clus>
<clus scale="   45.691">  1  3  2 -1</clus>
</clustering>
</event>
<event>
 6    0  0.4390142E+002  0.1306388E+03  0.7546771E-02  0.1226511E+00
         21   -1    0    0  505  501  0.00000000000E+00  0.00000000000E+00  0.13856876444E+03  0.13856876444E+03  0.00000000000E+00 0. -1.
         21   -1    0    0  506  502 -0.00000000000E+00 -0.00000000000E+00 -0.97704818771E+03  0.97704818771E+03  0.00000000000E+00 0.  1.
         21    1    1    2  503  501 -0.15546182432E+02  0.76002809232E+02  0.72344343623E+02  0.10607457214E+03  0.00000000000E+00 0. -1.
         21    1    1    2  504  503 -0.37418864872E+02  0.82295433773E+00 -0.27135970081E+01  0.37526155024E+02  0.00000000000E+00 0.  1.
         21    1    1    2  505  502  0.12266421316E+03 -0.20428106247E+02 -0.86250890353E+03  0.87142723471E+03  0.00000000000E+00 0.  1.
         21    1    1    2  506  504 -0.69699165856E+02 -0.56397657323E+02 -0.45601266357E+02  0.10058899028E+03  0.00000000000E+00 0.  1.
<scales pt_clust_3="77.57648" pt_clust_4="30.15749" pt_clust_5="122.01580" pt_clust_6="30.15749"></scales>
<clustering>
<clus scale="   30.157">  4  6 -1 -1</clus>
<clus scale="   77.576">  1  3  2 -1</clus>
<clus scale="  122.016">  2  5  1 -1</clus>
<clus scale="   77.576">  1  3  2 -1</clus>
</clustering>
</event>
<event>
 6    0  0.4390142E+002  0.1851838E+03  0.7546771E-02  0.1162878E+00
         21   -1    0    0  503  501  0.00000000000E+00  0.00000000000E+00  0.31791581490E+02  0.31791581490E+02  0.00000000000E+00 0.  1.
         21   -1    0    0  504  502 -0.00000000000E+00 -0.00000000000E+00 -0.15978464492E+04  0.15978464492E+04  0.00000000000E+00 0.  1.
         21    1    1    2  503  505 -0.15866966995E+03 -0.43615437698E+02 -0.84698291448E+03  0.86282004380E+03  0.00000000000E+00 0.  1.
         21    1    1    2  504  506  0.92238316940E+02  0.76279555013E+02 -0.23254331744E+03  0.26153942745E+03  0.00000000000E+00 0.  1.
         21    1    1    2  505  502 -0.46609650008E+01 -0.35430723172E+02 -0.34527358157E+03  0.34711800136E+03  0.00000000000E+00 0.  1.
         21    1    1    2  506  501  0.71092318006E+02  0.27666058566E+01 -0.14125505420E+03  0.15816055805E+03  0.00000000000E+00 0.  1.
<scales pt_clust_3="175.48611" pt_clust_4="46.39722" pt_clust_5="35.73599" pt_clust_6="46.39722"></scales>
<clustering>
<clus scale="   35.736">  2  5  1 -1</clus>
<clus scale="   46.397">  4  6 -1 -1</clus>
<clus scale="  175.486">  2  3  1 -1</clus>
<clus scale="  185.184">  1  3  2 -1</clus>
</clustering>
</event>
<event>
 6    0  0.4390142E+002  0.1378041E+03  0.7546771E-02  0.1216315E+00
         21   -1    0    0  504  501  0.00000000000E+00  0.00000000000E+00  0.29803226783E+03  0.29803226783E+03  0.00000000000E+00 0. -1.
         21   -1    0    0  505  502 -0.00000000000E+00 -0.00000000000E+00 -0.14037302152E+03  0.14037302152E+03  0.00000000000E+00 0. -1.
         21    1    1    2  503  501 -0.83776289117E+02  0.10068003669E+03  0.12372333699E+03  0.18017325140E+03  0.00000000000E+00 0. -1.
         21    1    1    2  504  506  0.97165939665E+02 -0.11379547627E+03  0.65634946876E+02  0.16339699050E+03  0.00000000000E+00 0. -1.
         21    1    1    2  505  503  0.30643637237E+02 -0.14941542742E+02 -0.24823197582E+02  0.42171949692E+02  0.00000000000E+00 0.  1.
         21    1    1    2  506  502 -0.44033287785E+02  0.28056982330E+02 -0.68758399732E+01  0.52663097763E+02  0.00000000000E+00 0. -1.
<scales pt_clust_3="14000.00000" pt_clust_4="137.80407" pt_clust_5="34.09226" pt_clust_6="42.79092"></scales>
<clustering>
<clus scale="   34.092">  2  5  1 -1</clus>
<clus scale="   42.791">  2  6  1 -1</clus>
<clus scale="  137.804">  2  4  1 -1</clus>
<clus scale="  137.804">  1  3  2 -1</clus>
</clustering>
</event>
<event>
 6    0  0.4390142E+002  0.1479649E+03  0.7546771E-02  0.1202996E+00
         21   -1    0    0  505  501  0.00000000000E+00  0.00000000000E+00  0.29693870165E+03  0.29693870165E+03  0.00000000000E+00 0. -1.
         21   -1    0    0  504  502 -0.00000000000E+00 -0.00000000000E+00 -0.42862233918E+03  0.42862233918E+03  0.00000000000E+00 0. -1.
         21    1    1    2  503  501 -0.59716557482E+00  0.83011944261E+02  0.25971231386E+02  0.86981862227E+02  0.00000000000E+00 0. -1.
         21    1    1    2  504  503 -0.83932347904E+02 -0.11298622167E+03 -0.30060521236E+03  0.33192471889E+03  0.00000000000E+00 0. -1.
         21    1    1    2  505  506  0.14271382457E+03 -0.12267038369E+02  0.17650092314E+03  0.22731100243E+03  0.00000000000E+00 0. -1.
         21    1    1    2  506  502 -0.58184311096E+02  0.42241315777E+02 -0.33550579700E+02  0.79343457288E+02  0.00000000000E+00 0. -1.
<scales pt_clust_3="86.64059" pt_clust_4="14000.00000" pt_clust_5="147.96490" pt_clust_6="71.90092"></scales>
<clustering>
<clus scale="   71.901">  2  6  1 -1</clus>
<clus scale="   86.641">  1  3  2 -1</clus>
<clus scale="  147.965">  1  5  2 -1</clus>
<clus scale="   86.641">  1  3  2 -1</clus>
</clustering>
</event>
<event>
 6    0  0.4390142E+002  0.1366200E+03  0.7546771E-02  0.1217951E+00
         21   -1    0    0  506  501  0.00000000000E+00  0.00000000000E+00  0.58928381163E+03  0.58928381163E+03  0.00000000000E+00 0. -1.
         21   -1    0    0  504  502 -0.00000000000E+00 -0.00000000000E+00 -0.12462444465E+03  0.12462444465E+03  0.00000000000E+00 0. -1.
         21    1    1    2  503  501  0.13914630512E+03 -0.25292252402E+02  0.13336444407E+03  0.19438998740E+03  0.00000000000E+00 0. -1.
         21    1    1    2  504  503  0.41374524567E+02  0.38017367406E+02 -0.31756234762E+02  0.64541691595E+02  0.00000000000E+00 0. -1.
         21    1    1    2  505  502 -0.49455237429E+02 -0.44155226435E+02 -0.14916857622E+01  0.66315380245E+02  0.00000000000E+00 0. -1.
         21    1    1    2  506  505 -0.13106559226E+03  0.31430111430E+02  0.36454284344E+03  0.38866119704E+03  0.00000000000E+00 0. -1.
<scales pt_clust_3="14000.00000" pt_clust_4="56.18871" pt_clust_5="41.39279" pt_clust_6="136.62001"></scales>
<clustering>
<clus scale="   56.189">  2  4  1 -1</clus>
<clus scale="   41.393">  2  5  1 -1</clus>
<clus scale="  136.620">  1  6  2 -1</clus>
<clus scale="  136.620">  1  3  2 -1</clus>
</clustering>
</event>
<event>
 6    0  0.4390142E+002  0.7773767E+02  0.7546771E-02  0.1335597E+00
         21   -1    0    0  504  501  0.00000000000E+00  0.00000000000E+00  0.85512385050E+03  0.85512385050E+03  0.00000000000E+00 0.  1.
         21   -1    0    0  503  502 -0.00000000000E+00 -0.00000000000E+00 -0.72832305492E+02  0.72832305492E+02  0.00000000000E+00 0.  1.
         21    1    1    2  503  505 -0.59694764437E+02 -0.10054238576E+02 -0.33927594363E+01  0.60630548663E+02  0.00000000000E+00 0.  1.
         21    1    1    2  504  506  0.10687418411E+03  0.41361207916E+01  0.27202274382E+03  0.29229363982E+03  0.00000000000E+00 0.  1.
         21    1    1    2  505  501 -0.30792187890E+02 -0.54363886148E+02  0.50852795280E+03  0.51235170512E+03  0.00000000000E+00 0.  1.
         21    1    1    2  506  502 -0.16387231784E+02  0.60282003933E+02  0.51336078153E+01  0.62680262387E+02  0.00000000000E+00 0.  1.
<scales pt_clust_3="60.53555" pt_clust_4="14000.00000" pt_clust_5="64.30405" pt_clust_6="77.73767"></scales>
<clustering>
<clus scale="   60.536">  2  3  1 -1</clus>
<clus scale="   64.304">  1  5  2 -1</clus>
<clus scale="   77.738">  2  6  1 -1</clus>
<clus scale="   64.304">  1  3  2 -1</clus>
</clustering>
</event>
<event>
 6    0  0.4390142E+002  0.1230252E+03  0.7546771E-02  0.1238188E+00
         21   -1    0    0  505  501  0.00000000000E+00  0.00000000000E+00  0.44283882633E+02  0.44283882633E+02  0.00000000000E+00 0.  1.
         21   -1    0    0  504  502 -0.00000000000E+00 -0.00000000000E+00 -0.19104515836E+04  0.19104515836E+04  0.00000000000E+00 0.  1.
         21    1    1    2  503  502  0.70948200286E+02  0.22487207645E+02 -0.11099482798E+04  0.11124407874E+04  0.00000000000E+00 0.  1.
         21    1    1    2  504  506 -0.53539937075E+02  0.23760374795E+00 -0.25009057561E+03  0.25575745800E+03  0.00000000000E+00 0. -1.
         21    1    1    2  505  503  0.66760818483E+02  0.75600763710E+02 -0.41789175445E+03  0.42989068471E+03  0.00000000000E+00 0.  1.
         21    1    1    2  506  501 -0.84169081695E+02 -0.98325575103E+02 -0.88237091106E+02  0.15664653612E+03  0.00000000000E+00 0.  1.
<scales pt_clust_3="41.73423" pt_clust_4="53.54046" pt_clust_5="123.02522" pt_clust_6="14000.00000"></scales>
<clustering>
<clus scale="   53.540">  2  4  1 -1</clus>
<clus scale="   41.734">  2  3  1 -1</clus>
<clus scale="  123.025">  2  5  1 -1</clus>
<clus scale="  123.025">  1  3  2 -1</clus>
</clustering>
</event>
<event>
 6    0  0.4390142E+002  0.1811659E+03  0.7546771E-02  0.1166679E+00
         21   -1    0    0  505  501  0.00000000000E+00  0.00000000000E+00  0.90764410619E+02  0.90764410619E+02  0.00000000000E+00 0. -1.
         21   -1    0    0  506  502 -0.00000000000E+00 -0.00000000000E+00 -0.19564501787E+04  0.19564501787E+04  0.00000000000E+00 0. -1.
         21    1    1    2  503  502 -0.85091194834E+01 -0.37384134293E+02 -0.31689406009E+03  0.31920498732E+03  0.00000000000E+00 0. -1.
         21    1    1    2  504  501  0.24265697153E+02  0.16676481127E+03 -0.95213685791E+01  0.16878975916E+03  0.00000000000E+00 0. -1.
         21    1    1    2  505  503 -0.49383418907E+02 -0.11353207498E+03 -0.38639737913E+03  0.40574769095E+03  0.00000000000E+00 0. -1.
         21    1    1    2  506  504  0.33626841238E+02 -0.15848601995E+02 -0.11528729603E+04  0.11534721519E+04  0.00000000000E+00 0. -1.
<scales pt_clust_3="40.99770" pt_clust_4="167.36425" pt_clust_5="40.99770" pt_clust_6="37.17449"></scales>
<clustering>
<clus scale="   37.174">  2  6  1 -1</clus>
<clus scale="   40.998">  3  5 -1 -1</clus>
<clus scale="  167.364">  1  4  2 -1</clus>
<clus scale="  167.364">  1  3  2 -1</clus>
</clustering>
</event>
<event>
 6    0  0.4390142E+002  0.1105133E+03  0.7546771E-02  0.1259622E+00
         21   -1    0    0  506  501  0.00000000000E+00  0.00000000000E+00  0.18652582989E+03  0.18652582989E+03  0.00000000000E+00 0.  1.
         21   -1    0    0  501  502 -0.00000000000E+00 -0.00000000000E+00 -0.40230060873E+03  0.40230060873E+03  0.00000000000E+00 0.  1.
         21    1    1    2  503  505 -0.51338822868E+02  0.26703704922E+02  0.21553287333E+02  0.61751977983E+02  0.00000000000E+00 0.  1.
         21    1    1    2  504  502  0.18501833773E+02 -0.10700702469E+03 -0.25546281476E+03  0.27758615043E+03  0.00000000000E+00 0.  1.
         21    1    1    2  505  504  0.53672700129E+02  0.12338911515E+03 -0.68141029259E+02  0.15082716050E+03  0.00000000000E+00 0.  1.
         21    1    1    2  506  503 -0.20835711034E+02 -0.43085795383E+02  0.86275777846E+02  0.98661149704E+02  0.00000000000E+00 0.  1.
<scales pt_clust_3="61.04367" pt_clust_4="110.51328" pt_clust_5="14000.00000" pt_clust_6="47.85930"></scales>
<clustering>
<clus scale="   47.859">  1  6  2 -1</clus>
<clus scale="   61.044">  1  3  2 -1</clus>
<clus scale="  110.513">  2  4  1 -1</clus>
<clus scale="   47.859">  1  3  2 -1</clus>
</clustering>
</event>
<event>
 6    0  0.4390142E+002  0.1093980E+03  0.7546771E-02  0.1261689E+00
         21   -1    0    0  504  501  0.00000000000E+00  0.00000000000E+00  0.15771050661E+04  0.15771050661E+04  0.00000000000E+00 0. -1.
         21   -1    0    0  506  502 -0.00000000000E+00 -0.00000000000E+00 -0.16446327996E+02  0.16446327996E+02  0.00000000000E+00 0. -1.
         21    1    1    2  503  505  0.66699192638E+02  0.64111636457E+02  0.42621772553E+03  0.43614290524E+03  0.00000000000E+00 0. -1.
         21    1    1    2  504  502 -0.61827286034E+02 -0.55104506508E+02  0.61312317896E+03  0.61869148411E+03  0.00000000000E+00 0. -1.
         21    1    1    2  505  501  0.91763671381E+01  0.61301282530E+02  0.28965077800E+03  0.29620875435E+03  0.00000000000E+00 0.  1.
         21    1    1    2  506  503 -0.14048273743E+02 -0.70308412478E+02  0.23166705565E+03  0.24250825045E+03  0.00000000000E+00 0. -1.
<scales pt_clust_3="39.98024" pt_clust_4="97.88866" pt_clust_5="39.98024" pt_clust_6="71.69816"></scales>
<clustering>
<clus scale="   39.980">  3  5 -1 -1</clus>
<clus scale="   71.698">  2  6  1 -1</clus>
<clus scale="   97.889">  1  4  2 -1</clus>
<clus scale="   97.889">  1  3  2 -1</clus>
</clustering>
</event>
<event>
 6    0  0.4390142E+002  0.1094688E+03  0.7546771E-02  0.1261557E+00
         21   -1    0    0  503  501  0.00000000000E+00  0.00000000000E+00  0.49406366647E+03  0.49406366647E+03  0.00000000000E+00 0.  1.
         21   -1    0    0  505  502 -0.00000000000E+00 -0.00000000000E+00 -0.44638678996E+02  0.44638678996E+02  0.00000000000E+00 0.  1.
         21    1    1    2  503  504 -0.10194154413E+03 -0.33458267786E+02  0.28899710847E+03  0.30827076217E+03  0.00000000000E+00 0.  1.
         21    1    1    2  504  506  0.36197765329E+02 -0.41348982421E+01  0.35242023564E+01  0.36603218445E+02  0.00000000000E+00 0.  1.
         21    1    1    2  505  501  0.21042831520E+01  0.47481831073E+02  0.84310421290E+02  0.96784293290E+02  0.00000000000E+00 0.  1.
         21    1    1    2  506  502  0.63639495647E+02 -0.98886650443E+01  0.72593255354E+02  0.97044071563E+02  0.00000000000E+00 0.  1.
<scales pt_clust_3="100.39830" pt_clust_4="32.81570" pt_clust_5="47.52844" pt_clust_6="32.81570"></scales>
<clustering>
<clus scale="   32.816">  4  6 -1 -1</clus>
<clus scale="   47.528">  1  5  2 -1</clus>
<clus scale="  100.398">  1  3  2 -1</clus>
<clus scale="   47.528">  1  3  2 -1</clus>
</clustering>
</event>
<event>
 6    0  0.4390142E+002  0.7384457E+02  0.7546771E-02  0.1347487E+00
         21   -1    0    0  505  501  0.00000000000E+00  0.00000000000E+00  0.10716080352E+03  0.10716080352E+03  0.00000000000E+00 0.  1.
         21   -1    0    0  506  502 -0.00000000000E+00 -0.00000000000E+00 -0.12725014391E+04  0.12725014391E+04  0.00000000000E+00 0.  1.
         21    1    1    2  503  504  0.40117734461E+02 -0.36626525604E+02 -0.32171296731E+02  0.63134200949E+02  0.00000000000E+00 0.  1.
         21    1    1    2  504  502  0.47557273554E+02  0.11172945230E+02 -0.96777387342E+03  0.96900608824E+03  0.00000000000E+00 0.  1.
         21    1    1    2  505  503  0.30733662530E+02  0.13005346691E+02  0.73433490910E+02  0.80660861899E+02  0.00000000000E+00 0.  1.
         21    1    1    2  506  501 -0.11840867055E+03  0.12448233682E+02 -0.23882895630E+03  0.26686109149E+03  0.00000000000E+00 0.  1.
<scales pt_clust_3="73.84457" pt_clust_4="49.52523" pt_clust_5="33.37210" pt_clust_6="14000.00000"></scales>
<clustering>
<clus scale="   33.372">  1  5  2 -1</clus>
<clus scale="   49.525">  2  4  1 -1</clus>
<clus scale="   73.845">  1  3  2 -1</clus>
<clus scale="   33.372">  1  3  2 -1</clus>
</clustering>
</event>
<event>
 6    0  0.4390142E+002  0.1399766E+03  0.7546771E-02  0.1213360E+00
         21   -1    0    0  505  501  0.00000000000E+00  0.00000000000E+00  0.17693183999E+04  0.17693183999E+04  0.00000000000E+00 0. -1.
         21   -1    0    0  503  502 -0.00000000000E+00 -0.00000000000E+00 -0.34273898535E+02  0.34273898535E+02  0.00000000000E+00 0.  1.
         21    1    1    2  503  504 -0.12104094697E+03 -0.14841449174E+03  0.42048702189E+03  0.46204665108E+03  0.00000000000E+00 0.  1.
         21    1    1    2  504  501  0.72893931964E+02 -0.63404711819E+00  0.43688590684E+03  0.44292575329E+03  0.00000000000E+00 0. -1.
         21    1    1    2  505  506  0.28993339639E+02  0.40581637715E+02  0.56344378744E+03  0.56564687276E+03  0.00000000000E+00 0. -1.
         21    1    1    2  506  502  0.19153675362E+02  0.10846690114E+03  0.31422778519E+03  0.33297302129E+03  0.00000000000E+00 0.  1.
<scales pt_clust_3="139.97662" pt_clust_4="84.67681" pt_clust_5="49.87467" pt_clust_6="14000.00000"></scales>
<clustering>
<clus scale="   49.875">  1  5  2 -1</clus>
<clus scale="   84.677">  1  4  2 -1</clus>
<clus scale="  139.977">  1  3  2 -1</clus>
<clus scale="   49.875">  1  3  2 -1</clus>
</clustering>
</event>
<event>
 6    0  0.4390142E+002  0.8085072E+02  0.7546771E-02  0.1326654E+00
         21   -1    0    0  506  501  0.00000000000E+00  0.00000000000E+00  0.17992366077E+04  0.17992366077E+04  0.00000000000E+00 0. -1.
         21   -1    0    0  504  502 -0.00000000000E+00 -0.00000000000E+00 -0.18070307761E+02  0.18070307761E+02  0.00000000000E+00 0.  1.
         21    1    1    2  503  502 -0.90465766910E+02 -0.14943059052E+02  0.69957259491E+03  0.70555592659E+03  0.00000000000E+00 0.  1.
         21    1    1    2  504  501  0.46086828898E+02  0.69562292912E+02  0.11606734824E+03  0.14294942365E+03  0.00000000000E+00 0.  1.
         21    1    1    2  505  503  0.97423322252E+01 -0.40312169578E+02  0.44525572783E+03  0.44718301311E+03  0.00000000000E+00 0. -1.
         21    1    1    2  506  505  0.34636605787E+02 -0.14307064282E+02  0.52027062895E+03  0.52161855210E+03  0.00000000000E+00 0. -1.
<scales pt_clust_3="80.85072" pt_clust_4="14000.00000" pt_clust_5="79.59477" pt_clust_6="35.34558"></scales>
<clustering>
<clus scale="   35.346">  5  6 -1 -1</clus>
<clus scale="   79.595">  1  5  2 -1</clus>
<clus scale="   80.851">  1  3  2 -1</clus>
<clus scale="   79.595">  1  3  2 -1</clus>
</clustering>
</event>
<event>
 6    0  0.4390142E+002  0.2613680E+03  0.7546771E-02  0.1106324E+00
         21   -1    0    0  504  501  0.00000000000E+00  0.00000000000E+00  0.17478700942E+04  0.17478700942E+04  0.00000000000E+00 0.  1.
         21   -1    0    0  505  502 -0.00000000000E+00 -0.00000000000E+00 -0.22606185955E+03  0.22606185955E+03  0.00000000000E+00 0. -1.
         21    1    1    2  503  506  0.11990076554E+03  0.22777221973E+03  0.22875048820E+03  0.34435906190E+03  0.00000000000E+00 0. -1.
         21    1    1    2  504  503  0.16261902057E+03 -0.15013008871E+03  0.12555465374E+04  0.12749043482E+04  0.00000000000E+00 0.  1.
         21    1    1    2  505  501  0.26192566878E+02 -0.29955413725E+02  0.10353105243E+02  0.41116470656E+02  0.00000000000E+00 0. -1.
         21    1    1    2  506  502 -0.30871235299E+03 -0.47686717289E+02  0.27158103784E+02  0.31355207302E+03  0.00000000000E+00 0. -1.
<scales pt_clust_3="261.36803" pt_clust_4="223.14101" pt_clust_5="39.79167" pt_clust_6="14000.00000"></scales>
<clustering>
<clus scale="   39.792">  2  5  1 -1</clus>
<clus scale="  223.141">  1  4  2 -1</clus>
<clus scale="  261.368">  1  3  2 -1</clus>
<clus scale="  223.141">  1  3  2 -1</clus>
</clustering>
</event>
<event>
 6    0  0.4390142E+002  0.9255339E+02  0.7546771E-02  0.1296783E+00
         21   -1    0    0  504  501  0.00000000000E+00  0.00000000000E+00  0.96726341608E+03  0.96726341608E+03  0.00000000000E+00 0. -1.
         21   -1    0    0  506  502 -0.00000000000E+00 -0.00000000000E+00 -0.28393994903E+02  0.28393994903E+02  0.00000000000E+00 0. -1.
         21    1    1    2  503  505 -0.72170006968E+02  0.21057543276E+02  0.28200072822E+03  0.29184985995E+03  0.00000000000E+00 0. -1.
         21    1    1    2  504  503  0.12516672788E+01  0.41305025526E+02  0.32246235360E+03  0.32509943294E+03  0.00000000000E+00 0. -1.
         21    1    1    2  505  502  0.77597488061E+02 -0.10700668807E+03  0.23754401439E+03  0.27184363192E+03  0.00000000000E+00 0. -1.
         21    1    1    2  506  501 -0.66791483712E+01  0.44644119266E+02  0.96862324954E+02  0.10686448617E+03  0.00000000000E+00 0. -1.
<scales pt_clust_3="14000.00000" pt_clust_4="41.32399" pt_clust_5="92.55339" pt_clust_6="51.59141"></scales>
<clustering>
<clus scale="   41.324">  1  4  2 -1</clus>
<clus scale="   51.591">  2  6  1 -1</clus>
<clus scale="   92.553">  2  5  1 -1</clus>
<clus scale="   41.324">  1  3  2 -1</clus>
</clustering>
</event>
<event>
 6    0  0.4390142E+002  0.1293548E+03  0.7546771E-02  0.1228416E+00
         21   -1    0    0  503  501  0.00000000000E+00  0.00000000000E+00  0.68899811760E+03  0.68899811760E+03  0.00000000000E+00 0.  1.
         21   -1    0    0  505  502 -0.00000000000E+00 -0.00000000000E+00 -0.63625020399E+02  0.63625020399E+02  0.00000000000E+00 0.  1.
         21    1    1    2  503  502  0.24397319175E+02  0.87560234029E+02  0.18914065407E+03  0.20984806596E+03  0.00000000000E+00 0.  1.
         21    1    1    2  504  501 -0.65095165665E+02 -0.10018558988E+03  0.40216353421E+03  0.41953550655E+03  0.00000000000E+00 0.  1.
         21    1    1    2  505  506  0.38627642003E+02  0.45401675518E+02 -0.17477647409E+02  0.62119844056E+02  0.00000000000E+00 0.  1.
         21    1    1    2  506  504  0.20702044875E+01 -0.32776319672E+02  0.51546556339E+02  0.61119721435E+02  0.00000000000E+00 0. -1.
<scales pt_clust_3="114.92206" pt_clust_4="31.13061" pt_clust_5="59.61046" pt_clust_6="31.13061"></scales>
<clustering>
<clus scale="   31.131">  4  6 -1 -1</clus>
<clus scale="   59.610">  2  5  1 -1</clus>
<clus scale="  114.922">  1  3  2 -1</clus>
<clus scale="  114.922">  1  3  2 -1</clus>
</clustering>
</event>
<event>
 6    0  0.4390142E+002  0.3277574E+03  0.7546771E-02  0.1072133E+00
         21   -1    0    0  505  501  0.00000000000E+00  0.00000000000E+00  0.48861846785E+03  0.48861846785E+03  0.00000000000E+00 0. -1.
         21   -1    0    0  506  502 -0.00000000000E+00 -0.00000000000E+00 -0.18180353514E+04  0.18180353514E+04  0.00000000000E+00 0.  1.
         21    1    1    2  503  502  0.32346657414E+03 -0.55013189505E+02 -0.16644561953E+04  0.16964879904E+04  0.00000000000E+00 0.  1.
         21    1    1    2  504  503 -0.95968563744E+02  0.66244378481E+02  0.14268615234E+03  0.18427593705E+03  0.00000000000E+00 0. -1.
         21    1    1    2  505  504 -0.10550573082E+03  0.65359813052E+02  0.24328043220E+03  0.27310937935E+03  0.00000000000E+00 0. -1.
         21    1    1    2  506  501 -0.12199227958E+03 -0.76591002028E+02 -0.50927272831E+02  0.15278051246E+03  0.00000000000E+00 0.  1.
<scales pt_clust_3="324.19958" pt_clust_4="46.68429" pt_clust_5="46.68429" pt_clust_6="144.04269"></scales>
<clustering>
<clus scale="   46.684">  4  5 -1 -1</clus>
<clus scale="  144.043">  1  6  2 -1</clus>
<clus scale="  324.200">  2  3  1 -1</clus>
<clus scale="  144.043">  1  3  2 -1</clus>
</clustering>
</event>
<event>
 6    0  0.4390142E+002  0.7736667E+02  0.7546771E-02  0.1336695E+00
         21   -1    0    0  504  501  0.00000000000E+00  0.00000000000E+00  0.25057690648E+03  0.25057690648E+03  0.00000000000E+00 0. -1.
         21   -1    0    0  501  502 -0.00000000000E+00 -0.00000000000E+00 -0.98034981502E+02  0.98034981502E+02  0.00000000000E+00 0. -1.
         21    1    1    2  503  506 -0.53084376138E+02  0.13448290252E+02  0.27943400826E+02  0.61478786181E+02  0.00000000000E+00 0. -1.
         21    1    1    2  504  503  0.13450249533E+01 -0.41598055237E+02  0.20492236143E+02  0.46391152538E+02  0.00000000000E+00 0.  1.
         21    1    1    2  505  502 -0.26172706619E+02  0.73786205008E+02 -0.25892953193E+02  0.82461261489E+02  0.00000000000E+00 0. -1.
         21    1    1    2  506  505  0.77912057803E+02 -0.45636440023E+02  0.12999924120E+03  0.15828068777E+03  0.00000000000E+00 0. -1.
<scales pt_clust_3="53.03267" pt_clust_4="41.61979" pt_clust_5="14000.00000" pt_clust_6="77.36667"></scales>
<clustering>
<clus scale="   41.620">  1  4  2 -1</clus>
<clus scale="   53.033">  1  3  2 -1</clus>
<clus scale="   77.367">  1  6  2 -1</clus>
<clus scale="   41.620">  1  3  2 -1</clus>
</clustering>
</event>
<event>
 6    0  0.4390142E+002  0.9490419E+02  0.7546771E-02  0.1291392E+00
         21   -1    0    0  505  501  0.00000000000E+00  0.00000000000E+00  0.44751707944E+03  0.44751707944E+03  0.00000000000E+00 0.  1.
         21   -1    0    0  506  502 -0.00000000000E+00 -0.00000000000E+00 -0.37424190897E+03  0.37424190897E+03  0.00000000000E+00 0.  1.
         21    1    1    2  503  504  0.85807070224E+02  0.29997728376E+02  0.33187597199E+02  0.96768453620E+02  0.00000000000E+00 0.  1.
         21    1    1    2  504  502  0.33632920312E+02  0.16111059027E+02 -0.30786753939E+03  0.31011797975E+03  0.00000000000E+00 0.  1.
         21    1    1    2  505  503 -0.95050586865E+02  0.29228126126E+02  0.31281198249E+03  0.32823807490E+03  0.00000000000E+00 0.  1.
         21    1    1    2  506  501 -0.24389403671E+02 -0.75336913530E+02  0.35143130177E+02  0.86634480147E+02  0.00000000000E+00 0. -1.
<scales pt_clust_3="94.90419" pt_clust_4="37.29262" pt_clust_5="14000.00000" pt_clust_6="69.87025"></scales>
<clustering>
<clus scale="   37.293">  2  4  1 -1</clus>
<clus scale="   69.870">  2  6  1 -1</clus>
<clus scale="   94.904">  2  3  1 -1</clus>
<clus scale="   94.904">  1  3  2 -1</clus>
</clustering>
</event>
<event>
 6    0  0.5705806E+002  0.2011341E+03  0.7546771E-02  0.1148786E+00
         21   -1    0    0  503  501  0.00000000000E+00  0.00000000000E+00  0.84661493595E+03  0.84661493595E+03  0.00000000000E+00 0.  1.
         21   -1    0    0  505  502 -0.00000000000E+00 -0.00000000000E+00 -0.68385653252E+03  0.68385653252E+03  0.00000000000E+00 0. -1.
         21    1    1    2  503  506 -0.94956186834E+01  0.18009697165E+03  0.78843606006E+03  0.80879942308E+03  0.00000000000E+00 0.  1.
         21    1    1    2  504  501  0.33748955596E+02  0.21201765455E+02  0.15178917448E+02  0.42648638866E+02  0.00000000000E+00 0. -1.
         21    1    1    2  505  504 -0.25568615161E+02 -0.22204968405E+02 -0.41960834996E+02  0.53921483443E+02  0.00000000000E+00 0.  1.
         21    1    1    2  506  502  0.13152782484E+01 -0.17909376870E+03 -0.59889573908E+03  0.62510192308E+03  0.00000000000E+00 0. -1.
<scales pt_clust_3="201.13409" pt_clust_4="39.13349" pt_clust_5="33.86465" pt_clust_6="14000.00000"></scales>
<clustering>
<clus scale="   33.865">  2  5  1 -1</clus>
<clus scale="   39.133">  1  4  2 -1</clus>
<clus scale="  201.134">  1  3  2 -1</clus>
<clus scale="   39.133">  1  3  2 -1</clus>
</clustering>
</event>
<event>
 6    0  0.4390142E+002  0.1452232E+03  0.7546771E-02  0.1206469E+00
         21   -1    0    0  504  501  0.00000000000E+00  0.00000000000E+00  0.50225751375E+03  0.50225751375E+03  0.00000000000E+00 0. -1.
         21   -1    0    0  503  502 -0.00000000000E+00 -0.00000000000E+00 -0.21137514485E+03  0.21137514485E+03  0.00000000000E+00 0. -1.
         21    1    1    2  503  505  0.72292152810E+01 -0.46355450368E+02  0.49183473215E+01  0.47172867973E+02  0.00000000000E+00 0. -1.
         21    1    1    2  504  506  0.20892284264E+02  0.35933235794E+02 -0.61968222726E+02  0.74617327775E+02  0.00000000000E+00 0. -1.
         21    1    1    2  505  501 -0.35103584737E+02 -0.12402685689E+03  0.41986131502E+03  0.43920205685E+03  0.00000000000E+00 0. -1.
         21    1    1    2  506  502  0.69820851920E+01  0.13444907146E+03 -0.71929070710E+02  0.15264040600E+03  0.00000000000E+00 0. -1.
<scales pt_clust_3="46.91577" pt_clust_4="34.74641" pt_clust_5="131.06980" pt_clust_6="34.74641"></scales>
<clustering>
<clus scale="   34.746">  4  6 -1 -1</clus>
<clus scale="   46.916">  2  3  1 -1</clus>
<clus scale="  131.070">  1  5  2 -1</clus>
<clus scale="  131.070">  1  3  2 -1</clus>
</clustering>
</event>
<event>
 6    0  0.4390142E+002  0.1021699E+03  0.7546771E-02  0.1275798E+00
         21   -1    0    0  506  501  0.00000000000E+00  0.00000000000E+00  0.62630001703E+03  0.62630001703E+03  0.00000000000E+00 0.  1.
         21   -1    0    0  505  502 -0.00000000000E+00 -0.00000000000E+00 -0.11099680023E+03  0.11099680023E+03  0.00000000000E+00 0. -1.
         21    1    1    2  503  501 -0.88684369206E+01 -0.92037774354E+02  0.36116209440E+02  0.99267223522E+02  0.00000000000E+00 0. -1.
         21    1    1    2  504  503 -0.49752442138E+02 -0.21252733699E+02 -0.47212227558E+02  0.71805143405E+02  0.00000000000E+00 0. -1.
         21    1    1    2  505  504 -0.17876806967E+02  0.38123070062E+02  0.16590297646E+02  0.45256896427E+02  0.00000000000E+00 0.  1.
         21    1    1    2  506  502  0.76497686026E+02  0.75167437992E+02  0.50980893727E+03  0.52096755391E+03  0.00000000000E+00 0.  1.
<scales pt_clust_3="14000.00000" pt_clust_4="60.79832" pt_clust_5="42.10640" pt_clust_6="102.16994"></scales>
<clustering>
<clus scale="   42.106">  2  5  1 -1</clus>
<clus scale="   60.798">  2  4  1 -1</clus>
<clus scale="  102.170">  1  6  2 -1</clus>
<clus scale="  102.170">  1  3  2 -1</clus>
</clustering>
</event>
<event>
 6    0  0.4390142E+002  0.1850581E+03  0.7546771E-02  0.1162996E+00
         21   -1    0    0  504  501  0.00000000000E+00  0.00000000000E+00  0.12516528047E+04  0.12516528047E+04  0.00000000000E+00 0.  1.
         21   -1    0    0  505  502 -0.00000000000E+00 -0.00000000000E+00 -0.24433689229E+04  0.24433689229E+04  0.00000000000E+00 0. -1.
         21    1    1    2  503  501  0.46614749028E+02  0.14475336761E+03  0.11148104815E+04  0.11251350505E+04  0.00000000000E+00 0.  1.
         21    1    1    2  504  506  0.35976986869E+02  0.21643059601E+02  0.84524025452E+02  0.94377309199E+02  0.00000000000E+00 0.  1.
         21    1    1    2  505  503  0.10374935558E+03  0.65067547410E+02 -0.81921336233E+02  0.14733913207E+03  0.00000000000E+00 0. -1.
         21    1    1    2  506  502 -0.18634109148E+03 -0.23146397462E+03 -0.23091292889E+04  0.23281702358E+04  0.00000000000E+00 0. -1.
<scales pt_clust_3="14000.00000" pt_clust_4="41.98530" pt_clust_5="123.64658" pt_clust_6="185.05815"></scales>
<clustering>
<clus scale="   41.985">  1  4  2 -1</clus>
<clus scale="  123.647">  2  5  1 -1</clus>
<clus scale="  185.058">  2  6  1 -1</clus>
<clus scale="   41.985">  1  3  2 -1</clus>
</clustering>
</event>
<event>
 6    0  0.4390142E+002  0.1258085E+03  0.7546771E-02  0.1233811E+00
         21   -1    0    0  504  501  0.00000000000E+00  0.00000000000E+00  0.12313354439E+04  0.12313354439E+04  0.00000000000E+00 0. -1.
         21   -1    0    0  505  502 -0.00000000000E+00 -0.00000000000E+00 -0.19341389932E+02  0.19341389932E+02  0.00000000000E+00 0. -1.
         21    1    1    2  503  501  0.13503167181E+02 -0.10553426270E+03  0.55748199823E+03  0.56754382604E+03  0.00000000000E+00 0. -1.
         21    1    1    2  504  502  0.47134215475E+02 -0.66455577860E+01  0.92077740285E+02  0.10365378895E+03  0.00000000000E+00 0. -1.
         21    1    1    2  505  506 -0.28094403841E+02  0.12611797079E+02  0.19454485070E+03  0.19696713402E+03  0.00000000000E+00 0. -1.
         21    1    1    2  506  503 -0.32542978815E+02  0.99568023406E+02  0.36788946474E+03  0.38251208480E+03  0.00000000000E+00 0. -1.
<scales pt_clust_3="112.36177" pt_clust_4="47.60040" pt_clust_5="30.68416" pt_clust_6="30.68416"></scales>
<clustering>
<clus scale="   30.684">  5  6 -1 -1</clus>
<clus scale="   47.600">  2  4  1 -1</clus>
<clus scale="  112.362">  1  3  2 -1</clus>
<clus scale="  112.362">  1  3  2 -1</clus>
</clustering>
</event>
<event>
 6    0  0.4390142E+002  0.1119290E+03  0.7546771E-02  0.1257039E+00
         21   -1    0    0  505  501  0.00000000000E+00  0.00000000000E+00  0.10111333571E+04  0.10111333571E+04  0.00000000000E+00 0.  1.
         21   -1    0    0  506  502 -0.00000000000E+00 -0.00000000000E+00 -0.55565883768E+02  0.55565883768E+02  0.00000000000E+00 0.  1.
         21    1    1    2  503  504  0.41331225210E+02  0.47072458127E+02  0.34687976679E+03  0.35249065108E+03  0.00000000000E+00 0.  1.
         21    1    1    2  504  501  0.13352748448E+02  0.37928028101E+02  0.48850538135E+03  0.49015746328E+03  0.00000000000E+00 0.  1.
         21    1    1    2  505  502 -0.11090352991E+03 -0.67868134469E+02  0.88505396904E+02  0.15728598763E+03  0.00000000000E+00 0.  1.
         21    1    1    2  506  503  0.56219556255E+02 -0.17132351759E+02  0.31676928281E+02  0.66765138865E+02  0.00000000000E+00 0.  1.
<scales pt_clust_3="35.57900" pt_clust_4="35.57900" pt_clust_5="102.74245" pt_clust_6="58.77207"></scales>
<clustering>
<clus scale="   35.579">  3  4 -1 -1</clus>
<clus scale="   58.772">  2  6  1 -1</clus>
<clus scale="  102.742">  2  5  1 -1</clus>
<clus scale="  111.929">  1  3  2 -1</clus>
</clustering>
</event>
<event>
 6    0  0.4390142E+002  0.9976774E+02  0.7546771E-02  0.1280785E+00
         21   -1    0    0  505  501  0.00000000000E+00  0.00000000000E+00  0.14461689576E+03  0.14461689576E+03  0.00000000000E+00 0.  1.
         21   -1    0    0  506  502 -0.00000000000E+00 -0.00000000000E+00 -0.25006061157E+03  0.25006061157E+03  0.00000000000E+00 0.  1.
         21    1    1    2  503  502 -0.25095325248E+02  0.93774420431E+02  0.67703060251E+02  0.11835168627E+03  0.00000000000E+00 0.  1.
         21    1    1    2  504  501  0.27485276478E+02 -0.15762883937E+02  0.49800057065E+01  0.32073499808E+02  0.00000000000E+00 0.  1.
         21    1    1    2  505  503 -0.44908425102E+02  0.12897397809E+02 -0.89892672718E+01  0.47580630949E+02  0.00000000000E+00 0.  1.
         21    1    1    2  506  504  0.42518473872E+02 -0.90908934303E+02 -0.16913751450E+03  0.19667169030E+03  0.00000000000E+00 0.  1.
<scales pt_clust_3="99.76774" pt_clust_4="31.68452" pt_clust_5="42.03117" pt_clust_6="14000.00000"></scales>
<clustering>
<clus scale="   31.685">  1  4  2 -1</clus>
<clus scale="   42.031">  1  5  2 -1</clus>
<clus scale="   99.768">  1  3  2 -1</clus>
<clus scale="   31.685">  1  3  2 -1</clus>
</clustering>
</event>
<event>
 6    0  0.4390142E+002  0.7956079E+02  0.7546771E-02  0.1330302E+00
         21   -1    0    0  506  501  0.00000000000E+00  0.00000000000E+00  0.17447623145E+04  0.17447623145E+04  0.00000000000E+00 0.  1.
         21   -1    0    0  504  502 -0.00000000000E+00 -0.00000000000E+00 -0.40185903612E+02  0.40185903612E+02  0.00000000000E+00 0.  1.
         21    1    1    2  503  501  0.33599951977E+02  0.68976700355E+02  0.12224861632E+04  0.12248914896E+04  0.00000000000E+00 0.  1.
         21    1    1    2  504  503 -0.79766471287E+02 -0.72191146866E+02  0.51618149965E+02  0.11932596127E+03  0.00000000000E+00 0.  1.
         21    1    1    2  505  502  0.97567892621E+01  0.35194156452E+02  0.95029543068E+02  0.10180588215E+03  0.00000000000E+00 0. -1.
         21    1    1    2  506  505  0.36409730048E+02 -0.31979709941E+02  0.33544255458E+03  0.33892488506E+03  0.00000000000E+00 0.  1.
<scales pt_clust_3="14000.00000" pt_clust_4="79.56079" pt_clust_5="36.52155" pt_clust_6="47.73326"></scales>
<clustering>
<clus scale="   36.522">  2  5  1 -1</clus>
<clus scale="   47.733">  1  6  2 -1</clus>
<clus scale="   79.561">  2  4  1 -1</clus>
<clus scale="   47.733">  1  3  2 -1</clus>
</clustering>
</event>
<event>
 6    0  0.4390142E+002  0.1253781E+03  0.7546771E-02  0.1234480E+00
         21   -1    0    0  505  501  0.00000000000E+00  0.00000000000E+00  0.89077547510E+02  0.89077547510E+02  0.00000000000E+00 0.  1.
         21   -1    0    0  506  502 -0.00000000000E+00 -0.00000000000E+00 -0.75548977794E+03  0.75548977794E+03  0.00000000000E+00 0. -1.
         21    1    1    2  503  504  0.40204216549E+02  0.83546507158E+02  0.18982743530E+02  0.94640067828E+02  0.00000000000E+00 0.  1.
         21    1    1    2  504  501 -0.24978728463E+02  0.44890166959E+02 -0.29146811762E+02  0.59064376752E+02  0.00000000000E+00 0.  1.
         21    1    1    2  505  502 -0.46646243445E+02 -0.14467230251E+03 -0.33741488814E+03  0.37007398433E+03  0.00000000000E+00 0. -1.
         21    1    1    2  506  503  0.31420755359E+02  0.16235628388E+02 -0.31883327405E+03  0.32078889654E+03  0.00000000000E+00 0. -1.
<scales pt_clust_3="14000.00000" pt_clust_4="51.38617" pt_clust_5="125.37808" pt_clust_6="35.36749"></scales>
<clustering>
<clus scale="   35.367">  2  6  1 -1</clus>
<clus scale="   51.386">  1  4  2 -1</clus>
<clus scale="  125.378">  2  5  1 -1</clus>
<clus scale="   51.386">  1  3  2 -1</clus>
</clustering>
</event>
<event>
 6    0  0.4390142E+002  0.1244382E+03  0.7546771E-02  0.1235950E+00
         21   -1    0    0  503  501  0.00000000000E+00  0.00000000000E+00  0.32792242730E+03  0.32792242730E+03  0.00000000000E+00 0. -1.
         21   -1    0    0  506  502 -0.00000000000E+00 -0.00000000000E+00 -0.66518972901E+02  0.66518972901E+02  0.00000000000E+00 0. -1.
         21    1    1    2  503  505  0.44733324803E+02  0.22088176356E+02  0.47158012164E+02  0.68650098280E+02  0.00000000000E+00 0. -1.
         21    1    1    2  504  502 -0.38488843107E+01  0.30597288232E+02 -0.45320168513E+01  0.31169650853E+02  0.00000000000E+00 0. -1.
         21    1    1    2  505  504  0.68869244357E+02 -0.13430510705E+02  0.13134463130E+03  0.14891193239E+03  0.00000000000E+00 0. -1.
         21    1    1    2  506  501 -0.10975368485E+03 -0.39254953883E+02  0.87432827780E+02  0.14570971867E+03  0.00000000000E+00 0. -1.
<scales pt_clust_3="43.64514" pt_clust_4="30.83842" pt_clust_5="43.64514" pt_clust_6="113.99703"></scales>
<clustering>
<clus scale="   30.838">  2  4  1 -1</clus>
<clus scale="   43.645">  3  5 -1 -1</clus>
<clus scale="  113.997">  2  6  1 -1</clus>
<clus scale="  124.438">  1  3  2 -1</clus>
</clustering>
</event>
<event>
 6    0  0.4390142E+002  0.8941994E+02  0.7546771E-02  0.1304263E+00
         21   -1    0    0  505  501  0.00000000000E+00  0.00000000000E+00  0.13701548227E+04  0.13701548227E+04  0.00000000000E+00 0.  1.
         21   -1    0    0  503  502 -0.00000000000E+00 -0.00000000000E+00 -0.70597191164E+02  0.70597191164E+02  0.00000000000E+00 0. -1.
         21    1    1    2  503  504 -0.24948933119E+02  0.31445509503E+02 -0.30365140290E+02  0.50332008468E+02  0.00000000000E+00 0. -1.
         21    1    1    2  504  501  0.46222292993E+02  0.97279854608E+02  0.99806583013E+03  0.10038601854E+04  0.00000000000E+00 0.  1.
         21    1    1    2  505  506 -0.39113652717E+02 -0.53894556039E+02  0.29281481869E+03  0.30029155673E+03  0.00000000000E+00 0.  1.
         21    1    1    2  506  502  0.17840292842E+02 -0.74830808072E+02  0.39042123016E+02  0.86268263313E+02  0.00000000000E+00 0. -1.
<scales pt_clust_3="40.14062" pt_clust_4="89.41994" pt_clust_5="14000.00000" pt_clust_6="50.31000"></scales>
<clustering>
<clus scale="   40.141">  2  3  1 -1</clus>
<clus scale="   50.310">  2  6  1 -1</clus>
<clus scale="   89.420">  1  4  2 -1</clus>
<clus scale="   89.420">  1  3  2 -1</clus>
</clustering>
</event>
<event>
 6    0  0.4390142E+002  0.2251264E+03  0.7546771E-02  0.1130118E+00
         21   -1    0    0  505  501  0.00000000000E+00  0.00000000000E+00  0.15320690124E+04  0.15320690124E+04  0.00000000000E+00 0. -1.
         21   -1    0    0  501  502 -0.00000000000E+00 -0.00000000000E+00 -0.15063708552E+03  0.15063708552E+03  0.00000000000E+00 0.  1.
         21    1    1    2  503  502  0.36957244867E+00 -0.64233385614E+02 -0.97307942374E+02  0.11659717004E+03  0.00000000000E+00 0.  1.
         21    1    1    2  504  506 -0.66130231913E+02  0.84371112708E+02  0.45536408207E+03  0.46781207709E+03  0.00000000000E+00 0. -1.
         21    1    1    2  505  504 -0.98852580069E+02  0.76315105965E+02  0.77553642182E+03  0.78552693751E+03  0.00000000000E+00 0. -1.
         21    1    1    2  506  503  0.16461323953E+03 -0.96452833060E+02  0.24783936536E+03  0.31276991329E+03  0.00000000000E+00 0. -1.
<scales pt_clust_3="64.23445" pt_clust_4="48.17111" pt_clust_5="48.17111" pt_clust_6="219.04026"></scales>
<clustering>
<clus scale="   48.171">  4  5 -1 -1</clus>
<clus scale="   64.234">  2  3  1 -1</clus>
<clus scale="  219.040">  2  6  1 -1</clus>
<clus scale="  225.126">  1  3  2 -1</clus>
</clustering>
</event>
<event>
 6    0  0.4390142E+002  0.1634941E+03  0.7546771E-02  0.1184808E+00
         21   -1    0    0  504  501  0.00000000000E+00  0.00000000000E+00  0.16211849898E+03  0.16211849898E+03  0.00000000000E+00 0.  1.
         21   -1    0    0  503  502 -0.00000000000E+00 -0.00000000000E+00 -0.34429799459E+03  0.34429799459E+03  0.00000000000E+00 0.  1.
         21    1    1    2  503  506 -0.10014064993E+03  0.14030815157E+03 -0.15404707787E+03  0.23118181019E+03  0.00000000000E+00 0.  1.
         21    1    1    2  504  505  0.71347267312E+02 -0.13011310084E+03 -0.15360515700E+02  0.14918376925E+03  0.00000000000E+00 0.  1.
         21    1    1    2  505  502  0.32871333178E+02  0.22448004716E+02 -0.57864762986E+02  0.70233668963E+02  0.00000000000E+00 0.  1.
         21    1    1    2  506  501 -0.40779505602E+01 -0.32643055444E+02  0.45092860943E+02  0.55817245162E+02  0.00000000000E+00 0.  1.
<scales pt_clust_3="14000.00000" pt_clust_4="163.49407" pt_clust_5="38.62305" pt_clust_6="32.89679"></scales>
<clustering>
<clus scale="   32.897">  1  6  2 -1</clus>
<clus scale="   38.623">  2  5  1 -1</clus>
<clus scale="  163.494">  1  4  2 -1</clus>
<clus scale="   32.897">  1  3  2 -1</clus>
</clustering>
</event>
<event>
 6    0  0.4390142E+002  0.1448031E+03  0.7546771E-02  0.1207008E+00
         21   -1    0    0  506  501  0.00000000000E+00  0.00000000000E+00  0.54619379806E+03  0.54619379806E+03  0.00000000000E+00 0. -1.
         21   -1    0    0  504  502 -0.00000000000E+00 -0.00000000000E+00 -0.88488919869E+03  0.88488919869E+03  0.00000000000E+00 0. -1.
         21    1    1    2  503  502 -0.20989010897E+02  0.51000122809E+02 -0.44015158717E+03  0.44359324927E+03  0.00000000000E+00 0. -1.
         21    1    1    2  504  501 -0.31495210369E+02 -0.16336530075E+02 -0.39332382434E+03  0.39492082913E+03  0.00000000000E+00 0. -1.
         21    1    1    2  505  503  0.17349488327E+03 -0.74154068363E+02  0.22060446579E+03  0.29028542971E+03  0.00000000000E+00 0. -1.
         21    1    1    2  506  505 -0.12101066201E+03  0.39490475629E+02  0.27417554509E+03  0.30228348865E+03  0.00000000000E+00 0. -1.
<scales pt_clust_3="61.25452" pt_clust_4="35.48000" pt_clust_5="14000.00000" pt_clust_6="144.80312"></scales>
<clustering>
<clus scale="   35.480">  2  4  1 -1</clus>
<clus scale="   61.255">  2  3  1 -1</clus>
<clus scale="  144.803">  1  6  2 -1</clus>
<clus scale="  144.803">  1  3  2 -1</clus>
</clustering>
</event>
<event>
 6    0  0.4390142E+002  0.1103557E+03  0.7546771E-02  0.1259913E+00
         21   -1    0    0  506  501  0.00000000000E+00  0.00000000000E+00  0.15026218485E+03  0.15026218485E+03  0.00000000000E+00 0.  1.
         21   -1    0    0  503  502 -0.00000000000E+00 -0.00000000000E+00 -0.30286448917E+03  0.30286448917E+03  0.00000000000E+00 0. -1.
         21    1    1    2  503  504  0.54372915111E+02  0.34960355473E+02  0.19989675549E+02  0.67662600312E+02  0.00000000000E+00 0.  1.
         21    1    1    2  504  501  0.28276453806E+02  0.21546004546E+02  0.51655571221E+02  0.62706348880E+02  0.00000000000E+00 0.  1.
         21    1    1    2  505  502  0.34154798895E+02 -0.48538517829E+02 -0.19251753876E+03  0.20145853352E+03  0.00000000000E+00 0. -1.
         21    1    1    2  506  505 -0.11680416781E+03 -0.79678421896E+01 -0.31730012332E+02  0.12129919130E+03  0.00000000000E+00 0.  1.
<scales pt_clust_3="31.80289" pt_clust_4="31.80289" pt_clust_5="59.35097" pt_clust_6="101.68207"></scales>
<clustering>
<clus scale="   31.803">  3  4 -1 -1</clus>
<clus scale="   59.351">  2  5  1 -1</clus>
<clus scale="  101.682">  2  6  1 -1</clus>
<clus scale="  110.356">  1  3  2 -1</clus>
</clustering>
</event>
<event>
 6    0  0.4390142E+002  0.1000739E+03  0.7546771E-02  0.1280141E+00
         21   -1    0    0  503  501  0.00000000000E+00  0.00000000000E+00  0.12133767372E+04  0.12133767372E+04  0.00000000000E+00 0.  1.
         21   -1    0    0  506  502 -0.00000000000E+00 -0.00000000000E+00 -0.45543698811E+03  0.45543698811E+03  0.00000000000E+00 0.  1.
         21    1    1    2  503  504  0.31511682517E+02  0.57500874832E+01  0.72894118641E+03  0.72964464151E+03  0.00000000000E+00 0.  1.
         21    1    1    2  504  505  0.71459977119E+02  0.28334440285E+02  0.43823993581E+03  0.44493101732E+03  0.00000000000E+00 0. -1.
         21    1    1    2  505  502 -0.59520206616E+02  0.39824330711E+02 -0.40185368179E+03  0.40818502407E+03  0.00000000000E+00 0.  1.
         21    1    1    2  506  501 -0.43451453020E+02 -0.73908858479E+02 -0.73876913045E+01  0.86053042445E+02  0.00000000000E+00 0.  1.
<scales pt_clust_3="32.03201" pt_clust_4="100.07387" pt_clust_5="71.46426" pt_clust_6="14000.00000"></scales>
<clustering>
<clus scale="   32.032">  1  3  2 -1</clus>
<clus scale="   71.464">  2  5  1 -1</clus>
<clus scale="  100.074">  1  4  2 -1</clus>
<clus scale="   32.032">  1  3  2 -1</clus>
</clustering>
</event>
<event>
 6    0  0.4390142E+002  0.1184506E+03  0.7546771E-02  0.1245675E+00
         21   -1    0    0  504  501  0.00000000000E+00  0.00000000000E+00  0.48333416463E+03  0.48333416463E+03  0.00000000000E+00 0.  1.
         21   -1    0    0  505  502 -0.00000000000E+00 -0.00000000000E+00 -0.31351938952E+03  0.31351938952E+03  0.00000000000E+00 0.  1.
         21    1    1    2  503  502  0.37096441542E+02 -0.15271127700E+02 -0.17786813718E+02  0.43883072574E+02  0.00000000000E+00 0. -1.
         21    1    1    2  504  503 -0.83836496169E+02 -0.31748834129E+02  0.41352541200E+03  0.42313096427E+03  0.00000000000E+00 0.  1.
         21    1    1    2  505  506  0.76315910168E+02  0.58733099573E+02 -0.26353560444E+03  0.28057924004E+03  0.00000000000E+00 0.  1.
         21    1    1    2  506  501 -0.29575855540E+02 -0.11713137744E+02  0.37611781275E+02  0.49260277277E+02  0.00000000000E+00 0.  1.
<scales pt_clust_3="39.44322" pt_clust_4="14000.00000" pt_clust_5="118.45056" pt_clust_6="31.81083"></scales>
<clustering>
<clus scale="   31.811">  1  6  2 -1</clus>
<clus scale="   39.443">  2  3  1 -1</clus>
<clus scale="  118.451">  2  5  1 -1</clus>
<clus scale="   31.811">  1  3  2 -1</clus>
</clustering>
</event>
<event>
 6    0  0.4390142E+002  0.7076222E+02  0.7546771E-02  0.1357520E+00
         21   -1    0    0  506  501  0.00000000000E+00  0.00000000000E+00  0.88967115099E+02  0.88967115099E+02  0.00000000000E+00 0.  1.
         21   -1    0    0  504  502 -0.00000000000E+00 -0.00000000000E+00 -0.97438439713E+03  0.97438439713E+03  0.00000000000E+00 0. -1.
         21    1    1    2  503  501  0.83535754854E+02  0.84242926753E+01 -0.14001498322E+01  0.83971134717E+02  0.00000000000E+00 0.  1.
         21    1    1    2  504  503  0.30471184160E+02 -0.10523440407E+02 -0.31212115806E+03  0.31378153733E+03  0.00000000000E+00 0. -1.
         21    1    1    2  505  502 -0.92462981424E+02  0.37999177033E+02 -0.60438941536E+03  0.61260093518E+03  0.00000000000E+00 0. -1.
         21    1    1    2  506  505 -0.21543957589E+02 -0.35900029302E+02  0.32493441216E+02  0.52997905001E+02  0.00000000000E+00 0.  1.
<scales pt_clust_3="14000.00000" pt_clust_4="32.23718" pt_clust_5="70.76222" pt_clust_6="41.76799"></scales>
<clustering>
<clus scale="   32.237">  2  4  1 -1</clus>
<clus scale="   41.768">  1  6  2 -1</clus>
<clus scale="   70.762">  2  5  1 -1</clus>
<clus scale="   41.768">  1  3  2 -1</clus>
</clustering>
</event>
<event>
 6    0  0.4390142E+002  0.1057651E+03  0.7546771E-02  0.1268619E+00
         21   -1    0    0  504  501  0.00000000000E+00  0.00000000000E+00  0.18902284886E+04  0.18902284886E+04  0.00000000000E+00 0. -1.
         21   -1    0    0  505  502 -0.00000000000E+00 -0.00000000000E+00 -0.42102712269E+02  0.42102712269E+02  0.00000000000E+00 0. -1.
         21    1    1    2  503  502 -0.28919162274E+02 -0.92628543956E+01  0.17006986745E+03  0.17275959664E+03  0.00000000000E+00 0.  1.
         21    1    1    2  504  503 -0.10064042825E+03  0.18853998923E+02  0.13331902178E+04  0.13371163472E+04  0.00000000000E+00 0. -1.
         21    1    1    2  505  506  0.88268425610E+02 -0.95147933711E+01  0.15027558255E+02  0.90042621906E+02  0.00000000000E+00 0. -1.
         21    1    1    2  506  501  0.41291164918E+02 -0.76351156683E-01  0.32983813282E+03  0.33241263513E+03  0.00000000000E+00 0. -1.
<scales pt_clust_3="30.10919" pt_clust_4="30.10919" pt_clust_5="90.16348" pt_clust_6="41.29124"></scales>
<clustering>
<clus scale="   30.109">  3  4 -1 -1</clus>
<clus scale="   41.291">  1  6  2 -1</clus>
<clus scale="   90.163">  2  5  1 -1</clus>
<clus scale="   41.291">  1  3  2 -1</clus>
</clustering>
</event>
<event>
 6    0  0.4390142E+002  0.6839621E+02  0.7546771E-02  0.1365633E+00
         21   -1    0    0  503  501  0.00000000000E+00  0.00000000000E+00  0.33977541492E+03  0.33977541492E+03  0.00000000000E+00 0.  1.
         21   -1    0    0  506  502 -0.00000000000E+00 -0.00000000000E+00 -0.66021825986E+03  0.66021825986E+03  0.00000000000E+00 0. -1.
         21    1    1    2  503  504 -0.25210094844E+02 -0.48779355925E+02  0.17365979170E+03  0.18213373576E+03  0.00000000000E+00 0.  1.
         21    1    1    2  504  505  0.90279115031E+02  0.50131868192E+02  0.12884270948E+03  0.16511803840E+03  0.00000000000E+00 0.  1.
         21    1    1    2  505  502  0.32792386666E+02 -0.41134421979E+02 -0.59249947977E+02  0.79233437576E+02  0.00000000000E+00 0. -1.
         21    1    1    2  506  501 -0.97861406853E+02  0.39781909713E+02 -0.56369539814E+03  0.57350846304E+03  0.00000000000E+00 0. -1.
<scales pt_clust_3="55.06391" pt_clust_4="14000.00000" pt_clust_5="52.60591" pt_clust_6="68.39621"></scales>
<clustering>
<clus scale="   52.606">  2  5  1 -1</clus>
<clus scale="   55.064">  1  3  2 -1</clus>
<clus scale="   68.396">  2  6  1 -1</clus>
<clus scale="   55.064">  1  3  2 -1</clus>
</clustering>
</event>
<event>
 6    0  0.4390142E+002  0.2704069E+03  0.7546771E-02  0.1101047E+00
         21   -1    0    0  504  501  0.00000000000E+00  0.00000000000E+00  0.40933811463E+03  0.40933811463E+03  0.00000000000E+00 0.  1.
         21   -1    0    0  505  502 -0.00000000000E+00 -0.00000000000E+00 -0.20975200856E+03  0.20975200856E+03  0.00000000000E+00 0.  1.
         21    1    1    2  503  502 -0.32806534506E+02 -0.12916840110E+02 -0.16645418173E+02  0.38989529503E+02  0.00000000000E+00 0.  1.
         21    1    1    2  504  506  0.85958086184E+01  0.21331100772E+03  0.13291294019E+03  0.25147827662E+03  0.00000000000E+00 0.  1.
         21    1    1    2  505  501  0.68686745262E+02 -0.23830750715E+03  0.30552557318E+02  0.24988356428E+03  0.00000000000E+00 0.  1.
         21    1    1    2  506  503 -0.44476019375E+02  0.37913339538E+02  0.52766026729E+02  0.78738752792E+02  0.00000000000E+00 0.  1.
<scales pt_clust_3="35.25781" pt_clust_4="53.85743" pt_clust_5="250.90705" pt_clust_6="53.85743"></scales>
<clustering>
<clus scale="   35.258">  2  3  1 -1</clus>
<clus scale="   53.857">  4  6 -1 -1</clus>
<clus scale="  250.907">  2  5  1 -1</clus>
<clus scale="  270.407">  1  3  2 -1</clus>
</clustering>
</event>
<event>
 6    0  0.4390142E+002  0.8396040E+02  0.7546771E-02  0.1318174E+00
         21   -1    0    0  505  501  0.00000000000E+00  0.00000000000E+00  0.14637413001E+03  0.14637413001E+03  0.00000000000E+00 0.  1.
         21   -1    0    0  506  502 -0.00000000000E+00 -0.00000000000E+00 -0.40144919734E+03  0.40144919734E+03  0.00000000000E+00 0.  1.
         21    1    1    2  503  504 -0.12675059909E+03  0.27807679921E+01  0.18886282900E+02  0.12818010268E+03  0.00000000000E+00 0.  1.
         21    1    1    2  504  501  0.52351749243E+02  0.41656303498E+02  0.34012489460E+02  0.75052000035E+02  0.00000000000E+00 0.  1.
         21    1    1    2  505  502  0.30188942092E+02  0.12963544244E+02 -0.24903677630E+03  0.25119462903E+03  0.00000000000E+00 0.  1.
         21    1    1    2  506  503  0.44209907755E+02 -0.57400615735E+02 -0.58937063388E+02  0.93396595609E+02  0.00000000000E+00 0.  1.
<scales pt_clust_3="14000.00000" pt_clust_4="71.20981" pt_clust_5="32.85461" pt_clust_6="83.96040"></scales>
<clustering>
<clus scale="   32.855">  2  5  1 -1</clus>
<clus scale="   71.210">  1  4  2 -1</clus>
<clus scale="   83.960">  2  6  1 -1</clus>
<clus scale="   71.210">  1  3  2 -1</clus>
</clustering>
</event>
<event>
 6    0  0.4390142E+002  0.1490351E+03  0.7546771E-02  0.1201664E+00
         21   -1    0    0  505  501  0.00000000000E+00  0.00000000000E+00  0.18948424762E+03  0.18948424762E+03  0.00000000000E+00 0.  1.
         21   -1    0    0  504  502 -0.00000000000E+00 -0.00000000000E+00 -0.47181442511E+03  0.47181442511E+03  0.00000000000E+00 0.  1.
         21    1    1    2  503  502  0.55002164535E+02 -0.33336656237E+02 -0.30360182420E+03  0.31033955341E+03  0.00000000000E+00 0.  1.
         21    1    1    2  504  501 -0.12516015839E+03 -0.71419383781E+02  0.11477975544E+03  0.18422862396E+03  0.00000000000E+00 0.  1.
         21    1    1    2  505  506  0.27699702138E+02  0.88097728770E+02 -0.59874803333E+02  0.11006123472E+03  0.00000000000E+00 0.  1.
         21    1    1    2  506  503  0.42458291713E+02  0.16658311248E+02 -0.33633305399E+02  0.56669260634E+02  0.00000000000E+00 0.  1.
<scales pt_clust_3="64.31618" pt_clust_4="138.02951" pt_clust_5="39.50076" pt_clust_6="39.50076"></scales>
<clustering>
<clus scale="   39.501">  5  6 -1 -1</clus>
<clus scale="   64.316">  2  3  1 -1</clus>
<clus scale="  138.030">  1  4  2 -1</clus>
<clus scale="  138.030">  1  3  2 -1</clus>
</clustering>
</event>
<event>
 6    0  0.4390142E+002  0.1101463E+03  0.7546771E-02  0.1260299E+00
         21   -1    0    0  503  501  0.00000000000E+00  0.00000000000E+00  0.22104140630E+04  0.22104140630E+04  0.00000000000E+00 0.  1.
         21   -1    0    0  505  502 -0.00000000000E+00 -0.00000000000E+00 -0.48447497740E+03  0.48447497740E+03  0.00000000000E+00 0. -1.
         21    1    1    2  503  504 -0.93506358024E+02  0.30677287063E+02  0.19990987713E+04  0.20015195308E+04  0.00000000000E+00 0.  1.
         21    1    1    2  504  502 -0.58097589871E+02 -0.31702478595E+02 -0.64089688563E+02  0.92129611299E+02  0.00000000000E+00 0.  1.
         21    1    1    2  505  506  0.13213041105E+03 -0.49967487220E+02 -0.38866114866E+03  0.41353679858E+03  0.00000000000E+00 0. -1.
         21    1    1    2  506  501  0.19473536846E+02  0.50992678752E+02  0.17959115160E+03  0.18770309976E+03  0.00000000000E+00 0.  1.
<scales pt_clust_3="110.14630" pt_clust_4="65.89766" pt_clust_5="14000.00000" pt_clust_6="54.58454"></scales>
<clustering>
<clus scale="   54.585">  1  6  2 -1</clus>
<clus scale="   65.898">  2  4  1 -1</clus>
<clus scale="  110.146">  1  3  2 -1</clus>
<clus scale="   54.585">  1  3  2 -1</clus>
</clustering>
</event>
<event>
 6    0  0.4390142E+002  0.2289495E+03  0.7546771E-02  0.1127381E+00
         21   -1    0    0  503  501  0.00000000000E+00  0.00000000000E+00  0.37983131240E+03  0.37983131240E+03  0.00000000000E+00 0.  1.
         21   -1    0    0  506  502 -0.00000000000E+00 -0.00000000000E+00 -0.20615224119E+03  0.20615224119E+03  0.00000000000E+00 0.  1.
         21    1    1    2  503  504  0.21411173119E+03  0.11443915144E+03 -0.11934120032E+02  0.24306907668E+03  0.00000000000E+00 0.  1.
         21    1    1    2  504  502 -0.33145719159E+02  0.96943728293E+01 -0.19812069096E+02  0.39813787122E+02  0.00000000000E+00 0.  1.
         21    1    1    2  505  501 -0.92288742593E+02 -0.57127971427E+02  0.76006891030E+02  0.13250609274E+03  0.00000000000E+00 0.  1.
         21    1    1    2  506  505 -0.88677269439E+02 -0.67005552845E+02  0.12941836931E+03  0.17059459705E+03  0.00000000000E+00 0.  1.
<scales pt_clust_3="225.62182" pt_clust_4="34.53432" pt_clust_5="38.67239" pt_clust_6="38.67239"></scales>
<clustering>
<clus scale="   34.534">  2  4  1 -1</clus>
<clus scale="   38.672">  5  6 -1 -1</clus>
<clus scale="  225.622">  2  3  1 -1</clus>
<clus scale="  228.949">  1  3  2 -1</clus>
</clustering>
</event>
<event>
 6    0  0.4390142E+002  0.8954263E+02  0.7546771E-02  0.1303963E+00
         21   -1    0    0  503  501  0.00000000000E+00  0.00000000000E+00  0.20613235569E+04  0.20613235569E+04  0.00000000000E+00 0.  1.
         21   -1    0    0  504  502 -0.00000000000E+00 -0.00000000000E+00 -0.16474477585E+02  0.16474477585E+02  0.00000000000E+00 0. -1.
         21    1    1    2  503  506 -0.54104009198E+02  0.77308206421E+02  0.94580692089E+03  0.95050225365E+03  0.00000000000E+00 0.  1.
         21    1    1    2  504  501  0.29436112216E+02 -0.49365063402E+02  0.16067032180E+03  0.17064098714E+03  0.00000000000E+00 0. -1.
         21    1    1    2  505  502  0.92220374033E+02  0.18861266754E+02  0.34468305177E+03  0.35730484316E+03  0.00000000000E+00 0. -1.
         21    1    1    2  506  505 -0.67552477052E+02 -0.46804409772E+02  0.59368878484E+03  0.59934995050E+03  0.00000000000E+00 0.  1.
<scales pt_clust_3="82.65127" pt_clust_4="57.47516" pt_clust_5="89.54263" pt_clust_6="14000.00000"></scales>
<clustering>
<clus scale="   57.475">  2  4  1 -1</clus>
<clus scale="   82.651">  1  3  2 -1</clus>
<clus scale="   89.543">  2  5  1 -1</clus>
<clus scale="   82.651">  1  3  2 -1</clus>
</clustering>
</event>
<event>
 6    0  0.4390142E+002  0.1037754E+03  0.7546771E-02  0.1272551E+00
         21   -1    0    0  504  501  0.00000000000E+00  0.00000000000E+00  0.18965317013E+03  0.18965317013E+03  0.00000000000E+00 0.  1.
         21   -1    0    0  506  502 -0.00000000000E+00 -0.00000000000E+00 -0.26065397987E+03  0.26065397987E+03  0.00000000000E+00 0. -1.
         21    1    1    2  503  502 -0.67471167676E+02  0.93914520208E+02 -0.19693333373E+03  0.22837476548E+03  0.00000000000E+00 0. -1.
         21    1    1    2  504  503  0.38240681831E+02  0.16583395866E+02  0.69342646401E+01  0.42254500251E+02  0.00000000000E+00 0.  1.
         21    1    1    2  505  501  0.27877652820E+02 -0.36951007103E+02  0.88842057512E+02  0.10017710135E+03  0.00000000000E+00 0.  1.
         21    1    1    2  506  505  0.13528330250E+01 -0.73546908970E+02  0.30156201827E+02  0.79500782920E+02  0.00000000000E+00 0.  1.
<scales pt_clust_3="103.77540" pt_clust_4="41.68164" pt_clust_5="56.84382" pt_clust_6="14000.00000"></scales>
<clustering>
<clus scale="   41.682">  1  4  2 -1</clus>
<clus scale="   56.844">  1  5  2 -1</clus>
<clus scale="  103.775">  2  3  1 -1</clus>
<clus scale="   41.682">  1  3  2 -1</clus>
</clustering>
</event>
<event>
 6    0  0.4390142E+002  0.2444947E+03  0.7546771E-02  0.1116834E+00
         21   -1    0    0  506  501  0.00000000000E+00  0.00000000000E+00  0.17635166229E+03  0.17635166229E+03  0.00000000000E+00 0.  1.
         21   -1    0    0  504  502 -0.00000000000E+00 -0.00000000000E+00 -0.50030967053E+03  0.50030967053E+03  0.00000000000E+00 0. -1.
         21    1    1    2  503  505  0.90966643272E+02 -0.55374635646E+02 -0.28042477482E+02  0.11012566006E+03  0.00000000000E+00 0.  1.
         21    1    1    2  504  503  0.10043185216E+02  0.31662864824E+02 -0.71449499445E+02  0.78793613631E+02  0.00000000000E+00 0. -1.
         21    1    1    2  505  501  0.12631499333E+03  0.28008915590E+01  0.45414614555E+02  0.13426023145E+03  0.00000000000E+00 0.  1.
         21    1    1    2  506  502 -0.22732482182E+03  0.20910879263E+02 -0.26988064586E+03  0.35348182768E+03  0.00000000000E+00 0. -1.
<scales pt_clust_3="88.34636" pt_clust_4="33.21750" pt_clust_5="88.34636" pt_clust_6="224.34411"></scales>
<clustering>
<clus scale="   33.218">  2  4  1 -1</clus>
<clus scale="   88.346">  3  5 -1 -1</clus>
<clus scale="  224.344">  2  6  1 -1</clus>
<clus scale="  244.495">  1  3  2 -1</clus>
</clustering>
</event>
<event>
 6    0  0.4390142E+002  0.9404021E+02  0.7546771E-02  0.1293353E+00
         21   -1    0    0  506  501  0.00000000000E+00  0.00000000000E+00  0.20114118789E+02  0.20114118789E+02  0.00000000000E+00 0. -1.
         21   -1    0    0  504  502 -0.00000000000E+00 -0.00000000000E+00 -0.28233770113E+04  0.28233770113E+04  0.00000000000E+00 0. -1.
         21    1    1    2  503  501 -0.35386416527E+02 -0.52642524842E+01 -0.85745057454E+02  0.92909233699E+02  0.00000000000E+00 0. -1.
         21    1    1    2  504  503 -0.91054790447E+02 -0.12274158226E+01 -0.15247987810E+04  0.15275155658E+04  0.00000000000E+00 0. -1.
         21    1    1    2  505  502  0.95774273402E+02 -0.47312521904E+02 -0.11295978871E+04  0.11346376394E+04  0.00000000000E+00 0. -1.
         21    1    1    2  506  505  0.30666933572E+02  0.53804190211E+02 -0.63121166962E+02  0.88428691145E+02  0.00000000000E+00 0. -1.
<scales pt_clust_3="35.77584" pt_clust_4="94.04021" pt_clust_5="14000.00000" pt_clust_6="49.90360"></scales>
<clustering>
<clus scale="   35.776">  1  3  2 -1</clus>
<clus scale="   49.904">  1  6  2 -1</clus>
<clus scale="   94.040">  2  4  1 -1</clus>
<clus scale="   35.776">  1  3  2 -1</clus>
</clustering>
</event>
<event>
 6    0  0.4390142E+002  0.1321576E+03  0.7546771E-02  0.1224289E+00
         21   -1    0    0  503  501  0.00000000000E+00  0.00000000000E+00  0.31021373626E+03  0.31021373626E+03  0.00000000000E+00 0.  1.
         21   -1    0    0  505  502 -0.00000000000E+00 -0.00000000000E+00 -0.16266261138E+03  0.16266261138E+03  0.00000000000E+00 0.  1.
         21    1    1    2  503  504  0.24134789997E+02 -0.57057011021E+02  0.95697490444E+01  0.62686287908E+02  0.00000000000E+00 0.  1.
         21    1    1    2  504  502 -0.26124001120E+02 -0.69852928755E+02  0.66524292882E+00  0.74581080968E+02  0.00000000000E+00 0.  1.
         21    1    1    2  505  506 -0.35515196352E+02  0.11192043300E+02 -0.79056190851E+02  0.87386911588E+02  0.00000000000E+00 0.  1.
         21    1    1    2  506  501  0.37504407475E+02  0.11571789648E+03  0.21637232376E+03  0.24822206717E+03  0.00000000000E+00 0.  1.
<scales pt_clust_3="43.08175" pt_clust_4="43.08175" pt_clust_5="37.23696" pt_clust_6="121.81197"></scales>
<clustering>
<clus scale="   37.237">  2  5  1 -1</clus>
<clus scale="   43.082">  3  4 -1 -1</clus>
<clus scale="  121.812">  1  6  2 -1</clus>
<clus scale="  121.812">  1  3  2 -1</clus>
</clustering>
</event>
<event>
 6    0  0.4390142E+002  0.7232099E+02  0.7546771E-02  0.1352374E+00
         21   -1    0    0  503  501  0.00000000000E+00  0.00000000000E+00  0.11141883538E+04  0.11141883538E+04  0.00000000000E+00 0. -1.
         21   -1    0    0  505  502 -0.00000000000E+00 -0.00000000000E+00 -0.12839280152E+03  0.12839280152E+03  0.00000000000E+00 0.  1.
         21    1    1    2  503  502 -0.98161383498E+01  0.49035236283E+02 -0.77335086280E+02  0.92095203672E+02  0.00000000000E+00 0.  1.
         21    1    1    2  504  506  0.47369616186E+02  0.32456905297E+02  0.82201856555E+03  0.82402175538E+03  0.00000000000E+00 0. -1.
         21    1    1    2  505  504 -0.22919055907E+02 -0.11254565019E+03  0.38757892651E+02  0.12121873100E+03  0.00000000000E+00 0.  1.
         21    1    1    2  506  501 -0.14634421929E+02  0.31053508615E+02  0.20235418038E+03  0.20524546529E+03  0.00000000000E+00 0. -1.
<scales pt_clust_3="50.27828" pt_clust_4="72.32099" pt_clust_5="14000.00000" pt_clust_6="34.32909"></scales>
<clustering>
<clus scale="   34.329">  1  6  2 -1</clus>
<clus scale="   50.278">  2  3  1 -1</clus>
<clus scale="   72.321">  1  4  2 -1</clus>
<clus scale="   34.329">  1  3  2 -1</clus>
</clustering>
</event>
<event>
 6    0  0.4390142E+002  0.1009745E+03  0.7546771E-02  0.1278260E+00
         21   -1    0    0  502  501  0.00000000000E+00  0.00000000000E+00  0.27363444317E+03  0.27363444317E+03  0.00000000000E+00 0. -1.
         21   -1    0    0  504  502 -0.00000000000E+00 -0.00000000000E+00 -0.11655428947E+03  0.11655428947E+03  0.00000000000E+00 0. -1.
         21    1    1    2  503  501  0.32835915985E+02  0.46218516073E+02  0.16446378936E+03  0.17396173895E+03  0.00000000000E+00 0. -1.
         21    1    1    2  504  506 -0.26076496096E+02  0.36735614653E+02 -0.23299634543E+02  0.50718458202E+02  0.00000000000E+00 0. -1.
         21    1    1    2  505  503  0.16343489695E+02  0.29539703676E+02  0.35522043190E+02  0.49005298704E+02  0.00000000000E+00 0. -1.
         21    1    1    2  506  505 -0.23102909584E+02 -0.11249383440E+03 -0.19606044311E+02  0.11650323679E+03  0.00000000000E+00 0. -1.
<scales pt_clust_3="30.49801" pt_clust_4="45.04985" pt_clust_5="30.49801" pt_clust_6="92.91827"></scales>
<clustering>
<clus scale="   30.498">  3  5 -1 -1</clus>
<clus scale="   45.050">  2  4  1 -1</clus>
<clus scale="   92.918">  2  6  1 -1</clus>
<clus scale="  100.974">  1  3  2 -1</clus>
</clustering>
</event>
<event>
 6    0  0.4390142E+002  0.1106446E+03  0.7546771E-02  0.1259381E+00
         21   -1    0    0  504  501  0.00000000000E+00  0.00000000000E+00  0.11026456235E+03  0.11026456235E+03  0.00000000000E+00 0. -1.
         21   -1    0    0  506  502 -0.00000000000E+00 -0.00000000000E+00 -0.37844671673E+03  0.37844671673E+03  0.00000000000E+00 0. -1.
         21    1    1    2  503  502 -0.40599687390E+02 -0.10676881599E+03 -0.39673326159E+02  0.12092099691E+03  0.00000000000E+00 0. -1.
         21    1    1    2  504  503 -0.44426782116E+02  0.30532455255E+02  0.17246838998E+02  0.56598791935E+02  0.00000000000E+00 0. -1.
         21    1    1    2  505  501  0.30665864064E+02  0.10697089315E+03 -0.89124174379E+02  0.14257028322E+03  0.00000000000E+00 0. -1.
         21    1    1    2  506  505  0.54360605443E+02 -0.30734532409E+02 -0.15663149284E+03  0.16862120702E+03  0.00000000000E+00 0. -1.
<scales pt_clust_3="110.64460" pt_clust_4="53.90705" pt_clust_5="14000.00000" pt_clust_6="58.05933"></scales>
<clustering>
<clus scale="   53.907">  1  4  2 -1</clus>
<clus scale="   58.059">  2  6  1 -1</clus>
<clus scale="  110.645">  1  3  2 -1</clus>
<clus scale="   53.907">  1  3  2 -1</clus>
</clustering>
</event>
<event>
 6    0  0.4390142E+002  0.8186162E+02  0.7546771E-02  0.1323850E+00
         21   -1    0    0  503  501  0.00000000000E+00  0.00000000000E+00  0.66925622491E+03  0.66925622491E+03  0.00000000000E+00 0.  1.
         21   -1    0    0  506  502 -0.00000000000E+00 -0.00000000000E+00 -0.26563667835E+03  0.26563667835E+03  0.00000000000E+00 0. -1.
         21    1    1    2  503  505 -0.38830442103E+02  0.40035915530E+02  0.84029580465E+02  0.10085458918E+03  0.00000000000E+00 0. -1.
         21    1    1    2  504  501  0.70227165210E+02 -0.73569905408E+01  0.31736681231E+03  0.32512716528E+03  0.00000000000E+00 0.  1.
         21    1    1    2  505  502 -0.64403279413E+01  0.80794125273E+02 -0.23292616353E+03  0.24662474766E+03  0.00000000000E+00 0. -1.
         21    1    1    2  506  504 -0.24956395166E+02 -0.11347305026E+03  0.23514931731E+03  0.26228640114E+03  0.00000000000E+00 0.  1.
<scales pt_clust_3="55.77345" pt_clust_4="50.84575" pt_clust_5="14000.00000" pt_clust_6="81.86162"></scales>
<clustering>
<clus scale="   55.773">  1  3  2 -1</clus>
<clus scale="   50.846">  1  4  2 -1</clus>
<clus scale="   81.862">  1  6  2 -1</clus>
<clus scale="   55.773">  1  3  2 -1</clus>
</clustering>
</event>
<event>
 6    0  0.4390142E+002  0.1420154E+03  0.7546771E-02  0.1210642E+00
         21   -1    0    0  506  501  0.00000000000E+00  0.00000000000E+00  0.16555019236E+04  0.16555019236E+04  0.00000000000E+00 0. -1.
         21   -1    0    0  504  502 -0.00000000000E+00 -0.00000000000E+00 -0.77949609853E+02  0.77949609853E+02  0.00000000000E+00 0. -1.
         21    1    1    2  503  505 -0.46162066224E+02  0.57495207030E+02 -0.14176943152E+02  0.75084092234E+02  0.00000000000E+00 0.  1.
         21    1    1    2  504  501  0.11782377753E+03 -0.13092877513E+03  0.14281447956E+04  0.14389657202E+04  0.00000000000E+00 0. -1.
         21    1    1    2  505  502 -0.28037185884E+02  0.56455234631E+02  0.16657674026E+02  0.65197817552E+02  0.00000000000E+00 0. -1.
         21    1    1    2  506  503 -0.43624525426E+02  0.16978333473E+02  0.14692678728E+03  0.15420390347E+03  0.00000000000E+00 0. -1.
<scales pt_clust_3="31.79646" pt_clust_4="137.78880" pt_clust_5="31.79646" pt_clust_6="46.81200"></scales>
<clustering>
<clus scale="   31.796">  3  5 -1 -1</clus>
<clus scale="   46.812">  1  6  2 -1</clus>
<clus scale="  137.789">  1  4  2 -1</clus>
<clus scale="   46.812">  1  3  2 -1</clus>
</clustering>
</event>
<event>
 6    0  0.4390142E+002  0.1359320E+03  0.7546771E-02  0.1218910E+00
         21   -1    0    0  504  501  0.00000000000E+00  0.00000000000E+00  0.69579058495E+03  0.69579058495E+03  0.00000000000E+00 0. -1.
         21   -1    0    0  506  502 -0.00000000000E+00 -0.00000000000E+00 -0.11845311806E+04  0.11845311806E+04  0.00000000000E+00 0. -1.
         21    1    1    2  503  505  0.18670464868E+02  0.91676895633E+02  0.51049547228E+03  0.51899794476E+03  0.00000000000E+00 0. -1.
         21    1    1    2  504  503  0.36409631025E+02  0.19725563420E+02  0.16906154001E+03  0.17405908018E+03  0.00000000000E+00 0. -1.
         21    1    1    2  505  502 -0.13136723019E+02 -0.92951195085E+02 -0.11057532036E+04  0.11097308888E+04  0.00000000000E+00 0. -1.
         21    1    1    2  506  501 -0.41943372874E+02 -0.18451263968E+02 -0.62544404367E+02  0.77533851882E+02  0.00000000000E+00 0. -1.
<scales pt_clust_3="36.95773" pt_clust_4="36.95773" pt_clust_5="124.06256" pt_clust_6="45.82244"></scales>
<clustering>
<clus scale="   36.958">  3  4 -1 -1</clus>
<clus scale="   45.822">  2  6  1 -1</clus>
<clus scale="  124.063">  2  5  1 -1</clus>
<clus scale="  135.932">  1  3  2 -1</clus>
</clustering>
</event>
<event>
 6    0  0.4390142E+002  0.1119861E+03  0.7546771E-02  0.1256936E+00
         21   -1    0    0  504  501  0.00000000000E+00  0.00000000000E+00  0.53626067375E+03  0.53626067375E+03  0.00000000000E+00 0.  1.
         21   -1    0    0  501  502 -0.00000000000E+00 -0.00000000000E+00 -0.12866887447E+03  0.12866887447E+03  0.00000000000E+00 0.  1.
         21    1    1    2  503  505 -0.90595046178E+02  0.63668550878E+02  0.25605325378E+03  0.27897027715E+03  0.00000000000E+00 0.  1.
         21    1    1    2  504  503 -0.28967969803E+02 -0.30335734606E+02  0.22350584466E+03  0.22740770142E+03  0.00000000000E+00 0.  1.
         21    1    1    2  505  506  0.72972516013E+02  0.59960370250E+01 -0.63648670281E+02  0.97015946018E+02  0.00000000000E+00 0.  1.
         21    1    1    2  506  502  0.46590499968E+02 -0.39328853298E+02 -0.83186288839E+01  0.61535623629E+02  0.00000000000E+00 0.  1.
<scales pt_clust_3="14000.00000" pt_clust_4="41.94520" pt_clust_5="111.98611" pt_clust_6="60.85656"></scales>
<clustering>
<clus scale="   41.945">  1  4  2 -1</clus>
<clus scale="   60.857">  2  6  1 -1</clus>
<clus scale="  111.986">  2  5  1 -1</clus>
<clus scale="   41.945">  1  3  2 -1</clus>
</clustering>
</event>
<event>
 6    0  0.4390142E+002  0.1031821E+03  0.7546771E-02  0.1273743E+00
         21   -1    0    0  505  501  0.00000000000E+00  0.00000000000E+00  0.14834151899E+04  0.14834151899E+04  0.00000000000E+00 0.  1.
         21   -1    0    0  504  502 -0.00000000000E+00 -0.00000000000E+00 -0.37133536524E+03  0.37133536524E+03  0.00000000000E+00 0.  1.
         21    1    1    2  503  506 -0.46207550938E+02 -0.65851309852E+01  0.51692629019E+03  0.51902918145E+03  0.00000000000E+00 0.  1.
         21    1    1    2  504  503 -0.39307802336E+02  0.29145505114E+02 -0.23248933670E+03  0.23758336531E+03  0.00000000000E+00 0.  1.
         21    1    1    2  505  502  0.12509079554E+03  0.13746239803E+02 -0.10503341911E+03  0.16391670253E+03  0.00000000000E+00 0.  1.
         21    1    1    2  506  501 -0.39575442265E+02 -0.36306613931E+02  0.93267629033E+03  0.93422130589E+03  0.00000000000E+00 0.  1.
<scales pt_clust_3="34.76772" pt_clust_4="48.93428" pt_clust_5="96.20624" pt_clust_6="34.76772"></scales>
<clustering>
<clus scale="   34.768">  3  6 -1 -1</clus>
<clus scale="   48.934">  2  4  1 -1</clus>
<clus scale="   96.206">  2  5  1 -1</clus>
<clus scale="  103.182">  1  3  2 -1</clus>
</clustering>
</event>
<event>
 6    0  0.4390142E+002  0.8173513E+02  0.7546771E-02  0.1324198E+00
         21   -1    0    0  506  501  0.00000000000E+00  0.00000000000E+00  0.74717372575E+03  0.74717372575E+03  0.00000000000E+00 0.  1.
         21   -1    0    0  503  502 -0.00000000000E+00 -0.00000000000E+00 -0.84712597121E+03  0.84712597121E+03  0.00000000000E+00 0. -1.
         21    1    1    2  503  501  0.15252723193E+02  0.51026319166E+02 -0.68918704315E+02  0.87098327291E+02  0.00000000000E+00 0. -1.
         21    1    1    2  504  505  0.10898026050E+03 -0.75355652854E+02  0.15241984833E+03  0.20195787126E+03  0.00000000000E+00 0.  1.
         21    1    1    2  505  502 -0.81322815028E+02 -0.80138020239E+01 -0.74080965085E+03  0.74530299882E+03  0.00000000000E+00 0. -1.
         21    1    1    2  506  504 -0.42910168668E+02  0.32343135712E+02  0.55735626137E+03  0.55994049959E+03  0.00000000000E+00 0.  1.
<scales pt_clust_3="53.25721" pt_clust_4="81.73513" pt_clust_5="14000.00000" pt_clust_6="53.76537"></scales>
<clustering>
<clus scale="   53.257">  2  3  1 -1</clus>
<clus scale="   53.765">  1  6  2 -1</clus>
<clus scale="   81.735">  1  4  2 -1</clus>
<clus scale="   53.765">  1  3  2 -1</clus>
</clustering>
</event>
<event>
 6    0  0.4390142E+002  0.1071360E+03  0.7546771E-02  0.1265967E+00
         21   -1    0    0  503  501  0.00000000000E+00  0.00000000000E+00  0.31907120590E+03  0.31907120590E+03  0.00000000000E+00 0. -1.
         21   -1    0    0  505  502 -0.00000000000E+00 -0.00000000000E+00 -0.38300759333E+03  0.38300759333E+03  0.00000000000E+00 0. -1.
         21    1    1    2  503  506 -0.94618990190E+02 -0.97820509646E+02  0.22448736076E+03  0.26251891466E+03  0.00000000000E+00 0. -1.
         21    1    1    2  504  501  0.75180263379E+01  0.47755282970E+02  0.38447717310E+02  0.61768234052E+02  0.00000000000E+00 0. -1.
         21    1    1    2  505  504  0.12287055136E+03  0.71927435521E+02 -0.21075249986E+03  0.25433706881E+03  0.00000000000E+00 0. -1.
         21    1    1    2  506  502 -0.35769587504E+02 -0.21862208845E+02 -0.11611896563E+03  0.12345458171E+03  0.00000000000E+00 0. -1.
<scales pt_clust_3="14000.00000" pt_clust_4="47.16156" pt_clust_5="107.13597" pt_clust_6="41.92159"></scales>
<clustering>
<clus scale="   41.922">  2  6  1 -1</clus>
<clus scale="   47.162">  1  4  2 -1</clus>
<clus scale="  107.136">  2  5  1 -1</clus>
<clus scale="   47.162">  1  3  2 -1</clus>
</clustering>
</event>
<event>
 6    0  0.4390142E+002  0.7379146E+02  0.7546771E-02  0.1347655E+00
         21   -1    0    0  506  501  0.00000000000E+00  0.00000000000E+00  0.12044259727E+03  0.12044259727E+03  0.00000000000E+00 0.  1.
         21   -1    0    0  505  502 -0.00000000000E+00 -0.00000000000E+00 -0.29250142281E+04  0.29250142281E+04  0.00000000000E+00 0.  1.
         21    1    1    2  503  502  0.32211996996E+02  0.31529929717E+02 -0.22245205228E+04  0.22249771472E+04  0.00000000000E+00 0.  1.
         21    1    1    2  504  503 -0.85027283681E+02 -0.15248995141E+03 -0.54369596421E+03  0.57104126449E+03  0.00000000000E+00 0.  1.
         21    1    1    2  505  501  0.27803680525E+02  0.53966394059E+02 -0.12295759850E+03  0.13712763167E+03  0.00000000000E+00 0.  1.
         21    1    1    2  506  504  0.25011606160E+02  0.66993627638E+02  0.86602454710E+02  0.11231078198E+03  0.00000000000E+00 0.  1.
<scales pt_clust_3="45.07493" pt_clust_4="73.79146" pt_clust_5="68.70296" pt_clust_6="14000.00000"></scales>
<clustering>
<clus scale="   45.075">  2  3  1 -1</clus>
<clus scale="   68.703">  2  5  1 -1</clus>
<clus scale="   73.791">  2  4  1 -1</clus>
<clus scale="   73.791">  1  3  2 -1</clus>
</clustering>
</event>
<event>
 6    0  0.4390142E+002  0.1098712E+03  0.7546771E-02  0.1260809E+00
         21   -1    0    0  506  501  0.00000000000E+00  0.00000000000E+00  0.20056661721E+03  0.20056661721E+03  0.00000000000E+00 0.  1.
         21   -1    0    0  503  502 -0.00000000000E+00 -0.00000000000E+00 -0.20161301728E+03  0.20161301728E+03  0.00000000000E+00 0.  1.
         21    1    1    2  503  501 -0.94078652064E+02  0.38186775353E+02  0.49801800159E+02  0.11308953040E+03  0.00000000000E+00 0.  1.
         21    1    1    2  504  505  0.73610865322E+02  0.54591574715E+01  0.34265024744E+02  0.81378460383E+02  0.00000000000E+00 0.  1.
         21    1    1    2  505  502 -0.15373601134E+02 -0.76234665532E+02 -0.12347122281E+03  0.14592194730E+03  0.00000000000E+00 0.  1.
         21    1    1    2  506  504  0.35841387876E+02  0.32588732708E+02  0.38357997837E+02  0.61789696411E+02  0.00000000000E+00 0.  1.
<scales pt_clust_3="101.37113" pt_clust_4="34.32789" pt_clust_5="77.76935" pt_clust_6="34.32789"></scales>
<clustering>
<clus scale="   34.328">  4  6 -1 -1</clus>
<clus scale="   77.769">  2  5  1 -1</clus>
<clus scale="  101.371">  1  3  2 -1</clus>
<clus scale="  101.371">  1  3  2 -1</clus>
</clustering>
</event>
<event>
 6    0  0.4390142E+002  0.6826234E+02  0.7546771E-02  0.1366104E+00
         21   -1    0    0  503  501  0.00000000000E+00  0.00000000000E+00  0.90284338088E+03  0.90284338088E+03  0.00000000000E+00 0.  1.
         21   -1    0    0  505  502 -0.00000000000E+00 -0.00000000000E+00 -0.47378921338E+03  0.47378921338E+03  0.00000000000E+00 0.  1.
         21    1    1    2  503  504  0.48215952789E+02 -0.99099936008E+01  0.31304305812E+03  0.31688947966E+03  0.00000000000E+00 0.  1.
         21    1    1    2  504  502 -0.53395445269E+01 -0.65276268577E+02 -0.39040857083E+03  0.39586406019E+03  0.00000000000E+00 0.  1.
         21    1    1    2  505  506  0.10883009130E+02  0.10309424135E+03 -0.42198905930E+02  0.11192680711E+03  0.00000000000E+00 0.  1.
         21    1    1    2  506  501 -0.53759417393E+02 -0.27907979173E+02  0.54861858614E+03  0.55195224731E+03  0.00000000000E+00 0.  1.
<scales pt_clust_3="49.22384" pt_clust_4="14000.00000" pt_clust_5="68.26234" pt_clust_6="38.17184"></scales>
<clustering>
<clus scale="   49.224">  1  3  2 -1</clus>
<clus scale="   38.172">  1  6  2 -1</clus>
<clus scale="   68.262">  1  5  2 -1</clus>
<clus scale="   49.224">  1  3  2 -1</clus>
</clustering>
</event>
<event>
 6    0  0.4390142E+002  0.9067830E+02  0.7546771E-02  0.1301217E+00
         21   -1    0    0  505  501  0.00000000000E+00  0.00000000000E+00  0.88472438550E+02  0.88472438550E+02  0.00000000000E+00 0.  1.
         21   -1    0    0  506  502 -0.00000000000E+00 -0.00000000000E+00 -0.37489707540E+03  0.37489707540E+03  0.00000000000E+00 0.  1.
         21    1    1    2  503  502  0.48120208941E+02 -0.32469542257E+02 -0.18858275570E+03  0.19731518297E+03  0.00000000000E+00 0.  1.
         21    1    1    2  504  501  0.17705685027E+02  0.44098531554E+02 -0.71437479719E+01  0.48054187150E+02  0.00000000000E+00 0.  1.
         21    1    1    2  505  503  0.63862419596E+02 -0.21014251928E+02 -0.20794709839E+02  0.70373484907E+02  0.00000000000E+00 0.  1.
         21    1    1    2  506  504 -0.12968831356E+03  0.93852626303E+01 -0.69903423334E+02  0.14762665892E+03  0.00000000000E+00 0.  1.
<scales pt_clust_3="57.48639" pt_clust_4="47.52022" pt_clust_5="14000.00000" pt_clust_6="90.67830"></scales>
<clustering>
<clus scale="   47.520">  1  4  2 -1</clus>
<clus scale="   57.486">  2  3  1 -1</clus>
<clus scale="   90.678">  2  6  1 -1</clus>
<clus scale="   47.520">  1  3  2 -1</clus>
</clustering>
</event>
<event>
 6    0  0.4390142E+002  0.8756750E+02  0.7546771E-02  0.1308852E+00
         21   -1    0    0  505  501  0.00000000000E+00  0.00000000000E+00  0.11485197932E+03  0.11485197932E+03  0.00000000000E+00 0. -1.
         21   -1    0    0  503  502 -0.00000000000E+00 -0.00000000000E+00 -0.28612064720E+03  0.28612064720E+03  0.00000000000E+00 0. -1.
         21    1    1    2  503  501 -0.84858484210E+02 -0.93613163445E+02 -0.13864777459E+03  0.18758356034E+03  0.00000000000E+00 0. -1.
         21    1    1    2  504  506  0.17958207661E+02  0.69888061829E+02  0.14583714211E+02  0.73617410500E+02  0.00000000000E+00 0. -1.
         21    1    1    2  505  504  0.38857811831E+02 -0.62310052605E+01  0.31898980638E+02  0.50658660983E+02  0.00000000000E+00 0. -1.
         21    1    1    2  506  502  0.28042464718E+02  0.29956106877E+02 -0.79103588146E+02  0.89112994699E+02  0.00000000000E+00 0.  1.
<scales pt_clust_3="14000.00000" pt_clust_4="87.56750" pt_clust_5="39.35422" pt_clust_6="42.58834"></scales>
<clustering>
<clus scale="   39.354">  1  5  2 -1</clus>
<clus scale="   42.588">  2  6  1 -1</clus>
<clus scale="   87.567">  1  4  2 -1</clus>
<clus scale="   39.354">  1  3  2 -1</clus>
</clustering>
</event>
<event>
 6    0  0.4390142E+002  0.1095689E+03  0.7546771E-02  0.1261370E+00
         21   -1    0    0  506  501  0.00000000000E+00  0.00000000000E+00  0.24350548789E+02  0.24350548789E+02  0.00000000000E+00 0. -1.
         21   -1    0    0  503  502 -0.00000000000E+00 -0.00000000000E+00 -0.23333943178E+04  0.23333943178E+04  0.00000000000E+00 0. -1.
         21    1    1    2  503  504  0.11664944986E+02 -0.28823189286E+02 -0.11609824299E+04  0.11613987471E+04  0.00000000000E+00 0. -1.
         21    1    1    2  504  501  0.12829155872E+03  0.58104818139E+02 -0.30451972624E+03  0.33551029433E+03  0.00000000000E+00 0. -1.
         21    1    1    2  505  502 -0.52359464784E+02 -0.28492535415E+02 -0.58133047694E+03  0.58437869703E+03  0.00000000000E+00 0. -1.
         21    1    1    2  506  505 -0.87597038927E+02 -0.78909343860E+00 -0.26221113594E+03  0.27645712815E+03  0.00000000000E+00 0. -1.
<scales pt_clust_3="31.09417" pt_clust_4="109.56887" pt_clust_5="63.25890" pt_clust_6="14000.00000"></scales>
<clustering>
<clus scale="   31.094">  2  3  1 -1</clus>
<clus scale="   63.259">  2  5  1 -1</clus>
<clus scale="  109.569">  2  4  1 -1</clus>
<clus scale="  109.569">  1  3  2 -1</clus>
</clustering>
</event>
<event>
 6    0  0.4390142E+002  0.1219380E+03  0.7546771E-02  0.1239934E+00
         21   -1    0    0  503  501  0.00000000000E+00  0.00000000000E+00  0.25246743654E+03  0.25246743654E+03  0.00000000000E+00 0.  1.
         21   -1    0    0  506  502 -0.00000000000E+00 -0.00000000000E+00 -0.11794403570E+03  0.11794403570E+03  0.00000000000E+00 0. -1.
         21    1    1    2  503  504 -0.95528948233E+01  0.83372567072E+02  0.96602467608E+02  0.12796202361E+03  0.00000000000E+00 0.  1.
         21    1    1    2  504  502  0.29100974852E+02  0.32098363453E+02  0.76953176278E+02  0.88311737685E+02  0.00000000000E+00 0.  1.
         21    1    1    2  505  501 -0.40738362733E+02 -0.86289686331E+02  0.69786042855E+01  0.95677714662E+02  0.00000000000E+00 0. -1.
         21    1    1    2  506  505  0.21190282703E+02 -0.29181244194E+02 -0.46010847327E+02  0.58459996284E+02  0.00000000000E+00 0. -1.
<scales pt_clust_3="40.52456" pt_clust_4="40.52456" pt_clust_5="109.23262" pt_clust_6="36.06346"></scales>
<clustering>
<clus scale="   36.063">  2  6  1 -1</clus>
<clus scale="   40.525">  3  4 -1 -1</clus>
<clus scale="  109.233">  2  5  1 -1</clus>
<clus scale="  121.938">  1  3  2 -1</clus>
</clustering>
</event>
<event>
 6    0  0.4390142E+002  0.1496585E+03  0.7546771E-02  0.1200893E+00
         21   -1    0    0  503  501  0.00000000000E+00  0.00000000000E+00  0.40691338857E+03  0.40691338857E+03  0.00000000000E+00 0.  1.
         21   -1    0    0  505  502 -0.00000000000E+00 -0.00000000000E+00 -0.23642516025E+03  0.23642516025E+03  0.00000000000E+00 0. -1.
         21    1    1    2  503  506  0.41790713528E+02  0.10508930943E+03  0.28931446870E+03  0.31063336667E+03  0.00000000000E+00 0.  1.
         21    1    1    2  504  502 -0.10270700578E+03 -0.42650862575E+02 -0.11791046875E+03  0.16208239805E+03  0.00000000000E+00 0. -1.
         21    1    1    2  505  501  0.52572703186E+02 -0.10007543193E+03 -0.35855744386E+02  0.11859433208E+03  0.00000000000E+00 0.  1.
         21    1    1    2  506  504  0.83435890696E+01  0.37636985076E+02  0.34939972756E+02  0.52028452027E+02  0.00000000000E+00 0.  1.
<scales pt_clust_3="34.53281" pt_clust_4="111.21072" pt_clust_5="137.47459" pt_clust_6="34.53281"></scales>
<clustering>
<clus scale="   34.533">  3  6 -1 -1</clus>
<clus scale="  111.211">  2  4  1 -1</clus>
<clus scale="  137.475">  2  5  1 -1</clus>
<clus scale="  149.659">  1  3  2 -1</clus>
</clustering>
</event>
<event>
 6    0  0.4390142E+002  0.9466409E+02  0.7546771E-02  0.1291934E+00
         21   -1    0    0  504  501  0.00000000000E+00  0.00000000000E+00  0.22568733231E+03  0.22568733231E+03  0.00000000000E+00 0.  1.
         21   -1    0    0  505  502 -0.00000000000E+00 -0.00000000000E+00 -0.85952757150E+03  0.85952757150E+03  0.00000000000E+00 0.  1.
         21    1    1    2  503  501  0.68774917604E+02 -0.57782382434E+01 -0.21048300100E+02  0.72155445156E+02  0.00000000000E+00 0. -1.
         21    1    1    2  504  506 -0.74726621510E+02 -0.85796272306E+01  0.11093224301E+03  0.13402850631E+03  0.00000000000E+00 0.  1.
         21    1    1    2  505  503 -0.29953760682E+02  0.90263011116E+02 -0.77488799271E+03  0.78070227372E+03  0.00000000000E+00 0.  1.
         21    1    1    2  506  502  0.35905464589E+02 -0.75905145642E+02  0.51163810617E+02  0.98328678620E+02  0.00000000000E+00 0. -1.
<scales pt_clust_3="69.01722" pt_clust_4="34.81322" pt_clust_5="14000.00000" pt_clust_6="94.66409"></scales>
<clustering>
<clus scale="   69.017">  1  3  2 -1</clus>
<clus scale="   34.813">  1  4  2 -1</clus>
<clus scale="   94.664">  1  6  2 -1</clus>
<clus scale="   69.017">  1  3  2 -1</clus>
</clustering>
</event>
<event>
 6    0  0.4390142E+002  0.1357816E+03  0.7546771E-02  0.1219121E+00
         21   -1    0    0  505  501  0.00000000000E+00  0.00000000000E+00  0.29434542419E+03  0.29434542419E+03  0.00000000000E+00 0.  1.
         21   -1    0    0  506  502 -0.00000000000E+00 -0.00000000000E+00 -0.16776785824E+03  0.16776785824E+03  0.00000000000E+00 0.  1.
         21    1    1    2  503  504  0.26539388071E+02  0.20554649553E+02  0.18124976154E+02  0.38149016999E+02  0.00000000000E+00 0.  1.
         21    1    1    2  504  502 -0.29492984282E+01  0.66265600878E+02  0.11176192526E+02  0.67266154196E+02  0.00000000000E+00 0.  1.
         21    1    1    2  505  503  0.25755179176E+02  0.59718794387E+02  0.17278687975E+03  0.18462115120E+03  0.00000000000E+00 0.  1.
         21    1    1    2  506  501 -0.49345268819E+02 -0.14653904482E+03 -0.75510482475E+02  0.17207696003E+03  0.00000000000E+00 0.  1.
<scales pt_clust_3="33.05885" pt_clust_4="33.05885" pt_clust_5="65.03586" pt_clust_6="127.58169"></scales>
<clustering>
<clus scale="   33.059">  3  4 -1 -1</clus>
<clus scale="   65.036">  1  5  2 -1</clus>
<clus scale="  127.582">  2  6  1 -1</clus>
<clus scale="   65.036">  1  3  2 -1</clus>
</clustering>
</event>
<event>
 6    0  0.4390142E+002  0.2023309E+03  0.7546771E-02  0.1147787E+00
         21   -1    0    0  506  501  0.00000000000E+00  0.00000000000E+00  0.48015230267E+03  0.48015230267E+03  0.00000000000E+00 0.  1.
         21   -1    0    0  505  502 -0.00000000000E+00 -0.00000000000E+00 -0.13179902518E+03  0.13179902518E+03  0.00000000000E+00 0.  1.
         21    1    1    2  503  501 -0.43297947733E+02  0.22499286879E+02  0.26098724725E+02  0.55336006544E+02  0.00000000000E+00 0.  1.
         21    1    1    2  504  503 -0.11959886399E+03  0.52835812527E+02  0.26850487769E+03  0.29864758612E+03  0.00000000000E+00 0.  1.
         21    1    1    2  505  504  0.20047784781E+03 -0.50554494863E+02  0.50518724104E+02  0.21283624198E+03  0.00000000000E+00 0.  1.
         21    1    1    2  506  502 -0.37581036091E+02 -0.24780604543E+02  0.32309509802E+01  0.45131493211E+02  0.00000000000E+00 0.  1.
<scales pt_clust_3="49.39817" pt_clust_4="49.39817" pt_clust_5="186.10602" pt_clust_6="45.01569"></scales>
<clustering>
<clus scale="   45.016">  2  6  1 -1</clus>
<clus scale="   49.398">  3  4 -1 -1</clus>
<clus scale="  186.106">  2  5  1 -1</clus>
<clus scale="  202.331">  1  3  2 -1</clus>
</clustering>
</event>
<event>
 6    0  0.4390142E+002  0.8761221E+02  0.7546771E-02  0.1308739E+00
         21   -1    0    0  506  501  0.00000000000E+00  0.00000000000E+00  0.35644601992E+03  0.35644601992E+03  0.00000000000E+00 0. -1.
         21   -1    0    0  504  502 -0.00000000000E+00 -0.00000000000E+00 -0.14680005185E+03  0.14680005185E+03  0.00000000000E+00 0.  1.
         21    1    1    2  503  501  0.64122125677E+02  0.95047096493E+02  0.14770057364E+03  0.18697876085E+03  0.00000000000E+00 0. -1.
         21    1    1    2  504  503 -0.34278773828E+02  0.11301313544E+02 -0.14674355311E+02  0.38962683772E+02  0.00000000000E+00 0. -1.
         21    1    1    2  505  502 -0.21328287041E+02 -0.27865039190E+02 -0.87997958203E+02  0.94736460168E+02  0.00000000000E+00 0.  1.
         21    1    1    2  506  505 -0.85150648093E+01 -0.78483370847E+02  0.16461770794E+03  0.18256816699E+03  0.00000000000E+00 0. -1.
<scales pt_clust_3="14000.00000" pt_clust_4="44.65068" pt_clust_5="35.09069" pt_clust_6="87.61221"></scales>
<clustering>
<clus scale="   35.091">  2  5  1 -1</clus>
<clus scale="   44.651">  2  4  1 -1</clus>
<clus scale="   87.612">  1  6  2 -1</clus>
<clus scale="   87.612">  1  3  2 -1</clus>
</clustering>
</event>
<event>
 6    0  0.4390142E+002  0.1444909E+03  0.7546771E-02  0.1207411E+00
         21   -1    0    0  503  501  0.00000000000E+00  0.00000000000E+00  0.53228331678E+03  0.53228331678E+03  0.00000000000E+00 0.  1.
         21   -1    0    0  505  502 -0.00000000000E+00 -0.00000000000E+00 -0.14745075254E+03  0.14745075254E+03  0.00000000000E+00 0.  1.
         21    1    1    2  503  506 -0.11764966201E+03 -0.37817855167E+02  0.34686530835E+03  0.36822163879E+03  0.00000000000E+00 0.  1.
         21    1    1    2  504  501  0.11201611314E+03  0.28504622885E+02  0.10308650026E+03  0.15487720834E+03  0.00000000000E+00 0.  1.
         21    1    1    2  505  504  0.39709826458E+02 -0.27513546108E+02  0.24318150249E+02  0.54085469105E+02  0.00000000000E+00 0.  1.
         21    1    1    2  506  502 -0.34076277587E+02  0.36826778390E+02 -0.89437394622E+02  0.10254975308E+03  0.00000000000E+00 0.  1.
<scales pt_clust_3="128.31955" pt_clust_4="42.94078" pt_clust_5="42.94078" pt_clust_6="50.17374"></scales>
<clustering>
<clus scale="   42.941">  4  5 -1 -1</clus>
<clus scale="   50.174">  2  6  1 -1</clus>
<clus scale="  128.320">  1  3  2 -1</clus>
<clus scale="  128.320">  1  3  2 -1</clus>
</clustering>
</event>
<event>
 6    0  0.4390142E+002  0.9646874E+02  0.7546771E-02  0.1287902E+00
         21   -1    0    0  505  501  0.00000000000E+00  0.00000000000E+00  0.88509382994E+03  0.88509382994E+03  0.00000000000E+00 0.  1.
         21   -1    0    0  506  502 -0.00000000000E+00 -0.00000000000E+00 -0.11924414995E+03  0.11924414995E+03  0.00000000000E+00 0.  1.
         21    1    1    2  503  504 -0.55388446963E+02 -0.33301038656E+00  0.12118094076E+03  0.13323967636E+03  0.00000000000E+00 0.  1.
         21    1    1    2  504  502  0.51059634441E+02 -0.91692752782E+02  0.12092414421E+03  0.16011650707E+03  0.00000000000E+00 0.  1.
         21    1    1    2  505  503 -0.50833263153E+02  0.33538918149E+01  0.58678986040E+03  0.58899712181E+03  0.00000000000E+00 0.  1.
         21    1    1    2  506  501  0.55162075676E+02  0.88671871354E+02 -0.63045265390E+02  0.12198467465E+03  0.00000000000E+00 0.  1.
<scales pt_clust_3="77.15443" pt_clust_4="14000.00000" pt_clust_5="50.94379" pt_clust_6="96.46874"></scales>
<clustering>
<clus scale="   50.944">  1  5  2 -1</clus>
<clus scale="   77.154">  1  3  2 -1</clus>
<clus scale="   96.469">  2  6  1 -1</clus>
<clus scale="   50.944">  1  3  2 -1</clus>
</clustering>
</event>
<event>
 6    0  0.4390142E+002  0.9960441E+02  0.7546771E-02  0.1281130E+00
         21   -1    0    0  506  501  0.00000000000E+00  0.00000000000E+00  0.64880839555E+02  0.64880839555E+02  0.00000000000E+00 0. -1.
         21   -1    0    0  503  502 -0.00000000000E+00 -0.00000000000E+00 -0.69453304809E+03  0.69453304809E+03  0.00000000000E+00 0. -1.
         21    1    1    2  503  504 -0.50090451173E+02 -0.58253789099E+01 -0.26477318324E+03  0.26953260824E+03  0.00000000000E+00 0. -1.
         21    1    1    2  504  501 -0.48875919107E+02 -0.74809892895E+02  0.12061754747E+02  0.90171289616E+02  0.00000000000E+00 0. -1.
         21    1    1    2  505  502  0.34551214526E+02  0.42373152448E+02 -0.20478061665E+03  0.21195370114E+03  0.00000000000E+00 0. -1.
         21    1    1    2  506  505  0.64415155754E+02  0.38262119357E+02 -0.17216016339E+03  0.18775628865E+03  0.00000000000E+00 0. -1.
<scales pt_clust_3="50.42805" pt_clust_4="92.37805" pt_clust_5="31.81833" pt_clust_6="31.81833"></scales>
<clustering>
<clus scale="   31.818">  5  6 -1 -1</clus>
<clus scale="   50.428">  2  3  1 -1</clus>
<clus scale="   92.378">  1  4  2 -1</clus>
<clus scale="   92.378">  1  3  2 -1</clus>
</clustering>
</event>
<event>
 6    0  0.4390142E+002  0.1259693E+03  0.7546771E-02  0.1233562E+00
         21   -1    0    0  503  501  0.00000000000E+00  0.00000000000E+00  0.42484832262E+03  0.42484832262E+03  0.00000000000E+00 0. -1.
         21   -1    0    0  505  502 -0.00000000000E+00 -0.00000000000E+00 -0.46456369395E+03  0.46456369395E+03  0.00000000000E+00 0. -1.
         21    1    1    2  503  502  0.13691623424E+00  0.37543505717E+02 -0.40915428077E+02  0.55530224404E+02  0.00000000000E+00 0. -1.
         21    1    1    2  504  501  0.90411183151E+01 -0.60301227744E+02  0.16389083126E+03  0.17486619015E+03  0.00000000000E+00 0. -1.
         21    1    1    2  505  506 -0.46859089135E+02  0.74815926247E+02 -0.40181921712E+03  0.41140233386E+03  0.00000000000E+00 0. -1.
         21    1    1    2  506  504  0.37681054586E+02 -0.52058204221E+02  0.23912844261E+03  0.24761326815E+03  0.00000000000E+00 0. -1.
<scales pt_clust_3="37.54376" pt_clust_4="34.53159" pt_clust_5="120.87804" pt_clust_6="34.53159"></scales>
<clustering>
<clus scale="   34.532">  4  6 -1 -1</clus>
<clus scale="   37.544">  2  3  1 -1</clus>
<clus scale="  120.878">  2  5  1 -1</clus>
<clus scale="  125.969">  1  3  2 -1</clus>
</clustering>
</event>
<event>
 6    0  0.4390142E+002  0.1999576E+03  0.7546771E-02  0.1149775E+00
         21   -1    0    0  506  501  0.00000000000E+00  0.00000000000E+00  0.32052015641E+03  0.32052015641E+03  0.00000000000E+00 0.  1.
         21   -1    0    0  503  502 -0.00000000000E+00 -0.00000000000E+00 -0.16000603763E+04  0.16000603763E+04  0.00000000000E+00 0.  1.
         21    1    1    2  503  505  0.82593984168E+02  0.75494507221E+02 -0.79677477587E+03  0.80459382940E+03  0.00000000000E+00 0.  1.
         21    1    1    2  504  502  0.12247153010E+03 -0.90850534437E+02 -0.73948670544E+03  0.75504548394E+03  0.00000000000E+00 0.  1.
         21    1    1    2  505  501 -0.16206438777E+02 -0.29058210158E+02 -0.65452135274E+01  0.33909704445E+02  0.00000000000E+00 0.  1.
         21    1    1    2  506  504 -0.18885907549E+03  0.44414237373E+02  0.26326647499E+03  0.32703151489E+03  0.00000000000E+00 0.  1.
<scales pt_clust_3="111.49598" pt_clust_4="14000.00000" pt_clust_5="33.27203" pt_clust_6="199.95761"></scales>
<clustering>
<clus scale="   33.272">  1  5  2 -1</clus>
<clus scale="  111.496">  2  3  1 -1</clus>
<clus scale="  199.958">  1  6  2 -1</clus>
<clus scale="   33.272">  1  3  2 -1</clus>
</clustering>
</event>
<event>
 6    0  0.4390142E+002  0.8927499E+02  0.7546771E-02  0.1304617E+00
         21   -1    0    0  505  501  0.00000000000E+00  0.00000000000E+00  0.13252484485E+03  0.13252484485E+03  0.00000000000E+00 0.  1.
         21   -1    0    0  506  502 -0.00000000000E+00 -0.00000000000E+00 -0.14652887884E+04  0.14652887884E+04  0.00000000000E+00 0.  1.
         21    1    1    2  503  502  0.70168888745E+02 -0.43753878545E+02 -0.48428763083E+02  0.95830161897E+02  0.00000000000E+00 0.  1.
         21    1    1    2  504  501 -0.14808162686E+01 -0.34563719821E+02 -0.15537092245E+02  0.37924197818E+02  0.00000000000E+00 0.  1.
         21    1    1    2  505  503 -0.98307267098E+02  0.11489188850E+02  0.71290766647E+02  0.12197825066E+03  0.00000000000E+00 0.  1.
         21    1    1    2  506  504  0.29619194622E+02  0.66828409516E+02 -0.13400888549E+04  0.13420810229E+04  0.00000000000E+00 0.  1.
<scales pt_clust_3="14000.00000" pt_clust_4="34.59543" pt_clust_5="89.27499" pt_clust_6="72.83384"></scales>
<clustering>
<clus scale="   34.595">  1  4  2 -1</clus>
<clus scale="   72.834">  2  6  1 -1</clus>
<clus scale="   89.275">  1  5  2 -1</clus>
<clus scale="   34.595">  1  3  2 -1</clus>
</clustering>
</event>
<event>
 6    0  0.4390142E+002  0.9789132E+02  0.7546771E-02  0.1284794E+00
         21   -1    0    0  505  501  0.00000000000E+00  0.00000000000E+00  0.53771266562E+03  0.53771266562E+03  0.00000000000E+00 0.  1.
         21   -1    0    0  503  502 -0.00000000000E+00 -0.00000000000E+00 -0.23723314088E+03  0.23723314088E+03  0.00000000000E+00 0. -1.
         21    1    1    2  503  504 -0.71764385639E+02  0.33135432531E+02 -0.11189333555E+02  0.79832857400E+02  0.00000000000E+00 0.  1.
         21    1    1    2  504  501 -0.31763672534E+02 -0.24276849403E+02  0.80679929100E+02  0.90041919512E+02  0.00000000000E+00 0.  1.
         21    1    1    2  505  506 -0.72697793786E+01 -0.29655407387E+02  0.40040931455E+03  0.40157180187E+03  0.00000000000E+00 0.  1.
         21    1    1    2  506  502  0.11079783755E+03  0.20796824259E+02 -0.16942038536E+03  0.20349922772E+03  0.00000000000E+00 0. -1.
<scales pt_clust_3="14000.00000" pt_clust_4="56.11608" pt_clust_5="30.53347" pt_clust_6="97.89132"></scales>
<clustering>
<clus scale="   30.533">  1  5  2 -1</clus>
<clus scale="   56.116">  1  4  2 -1</clus>
<clus scale="   97.891">  2  6  1 -1</clus>
<clus scale="   30.533">  1  3  2 -1</clus>
</clustering>
</event>
<event>
 6    0  0.4390142E+002  0.1764724E+03  0.7546771E-02  0.1171261E+00
         21   -1    0    0  506  501  0.00000000000E+00  0.00000000000E+00  0.32539851502E+03  0.32539851502E+03  0.00000000000E+00 0. -1.
         21   -1    0    0  504  502 -0.00000000000E+00 -0.00000000000E+00 -0.19829774201E+03  0.19829774201E+03  0.00000000000E+00 0.  1.
         21    1    1    2  503  502 -0.29248965070E+02 -0.15271447057E+02 -0.65979040145E+01  0.33648943375E+02  0.00000000000E+00 0. -1.
         21    1    1    2  504  505 -0.26205449160E+01 -0.35488640332E+02  0.80923986607E+02  0.88402502547E+02  0.00000000000E+00 0. -1.
         21    1    1    2  505  501  0.70571578096E+02 -0.11564031225E+03  0.15237452250E+03  0.20388973627E+03  0.00000000000E+00 0. -1.
         21    1    1    2  506  503 -0.38702068110E+02  0.16640039964E+03 -0.99599832071E+02  0.19775507484E+03  0.00000000000E+00 0.  1.
<scales pt_clust_3="32.99574" pt_clust_4="30.53351" pt_clust_5="30.53351" pt_clust_6="166.11215"></scales>
<clustering>
<clus scale="   30.534">  4  5 -1 -1</clus>
<clus scale="   32.996">  2  3  1 -1</clus>
<clus scale="  166.112">  2  6  1 -1</clus>
<clus scale="  176.472">  1  3  2 -1</clus>
</clustering>
</event>
<event>
 6    0  0.4390142E+002  0.1498800E+03  0.7546771E-02  0.1200621E+00
         21   -1    0    0  504  501  0.00000000000E+00  0.00000000000E+00  0.54421087705E+02  0.54421087705E+02  0.00000000000E+00 0.  1.
         21   -1    0    0  503  502 -0.00000000000E+00 -0.00000000000E+00 -0.69515955994E+03  0.69515955994E+03  0.00000000000E+00 0. -1.
         21    1    1    2  503  505  0.23784979162E+02 -0.19132228007E+02 -0.44739825911E+02  0.54161050624E+02  0.00000000000E+00 0. -1.
         21    1    1    2  504  502 -0.70562278660E+02  0.10185030025E+03 -0.57096679260E+03  0.58425644805E+03  0.00000000000E+00 0. -1.
         21    1    1    2  505  506  0.98077530613E+01 -0.58585130743E+02 -0.30332665543E+02  0.66696927689E+02  0.00000000000E+00 0.  1.
         21    1    1    2  506  501  0.36969546438E+02 -0.24132941500E+02  0.53008118215E+01  0.44466221283E+02  0.00000000000E+00 0.  1.
<scales pt_clust_3="30.43317" pt_clust_4="123.90528" pt_clust_5="43.85060" pt_clust_6="43.85060"></scales>
<clustering>
<clus scale="   30.433">  3  5 -1 -1</clus>
<clus scale="   43.851">  3  6 -1 -1</clus>
<clus scale="  123.905">  2  4  1 -1</clus>
<clus scale="  149.880">  1  3  2 -1</clus>
</clustering>
</event>
<event>
 6    0  0.4390142E+002  0.1133997E+03  0.7546771E-02  0.1254401E+00
         21   -1    0    0  503  501  0.00000000000E+00  0.00000000000E+00  0.64789144627E+02  0.64789144627E+02  0.00000000000E+00 0. -1.
         21   -1    0    0  505  502 -0.00000000000E+00 -0.00000000000E+00 -0.31103240294E+03  0.31103240294E+03  0.00000000000E+00 0. -1.
         21    1    1    2  503  502  0.40421023391E+02  0.99477720383E+02 -0.75614276436E+02  0.13132857566E+03  0.00000000000E+00 0. -1.
         21    1    1    2  504  501  0.13970306764E+02 -0.65683142154E+02 -0.71631321000E+02  0.98186000950E+02  0.00000000000E+00 0. -1.
         21    1    1    2  505  506 -0.48605028460E+02  0.13889364456E+02 -0.80041932914E+02  0.94668232588E+02  0.00000000000E+00 0. -1.
         21    1    1    2  506  504 -0.57863016953E+01 -0.47683942685E+02 -0.18955727959E+02  0.51638738363E+02  0.00000000000E+00 0. -1.
<scales pt_clust_3="107.41106" pt_clust_4="30.75517" pt_clust_5="50.55060" pt_clust_6="30.75517"></scales>
<clustering>
<clus scale="   30.755">  4  6 -1 -1</clus>
<clus scale="   50.551">  2  5  1 -1</clus>
<clus scale="  107.411">  1  3  2 -1</clus>
<clus scale="  107.411">  1  3  2 -1</clus>
</clustering>
</event>
<event>
 6    0  0.4390142E+002  0.5286740E+02  0.7546771E-02  0.1430462E+00
         21   -1    0    0  504  501  0.00000000000E+00  0.00000000000E+00  0.57480739235E+03  0.57480739235E+03  0.00000000000E+00 0. -1.
         21   -1    0    0  503  502 -0.00000000000E+00 -0.00000000000E+00 -0.17542301488E+04  0.17542301488E+04  0.00000000000E+00 0. -1.
         21    1    1    2  503  505  0.81172124533E+02 -0.53782540264E+02 -0.16338093203E+04  0.16367083951E+04  0.00000000000E+00 0. -1.
         21    1    1    2  504  502 -0.41100518901E+02  0.20390820113E+02 -0.10595167330E+03  0.11545906320E+03  0.00000000000E+00 0.  1.
         21    1    1    2  505  506 -0.72947496897E+02  0.21088101976E+02  0.18619312328E+03  0.20108188507E+03  0.00000000000E+00 0. -1.
         21    1    1    2  506  501  0.32875891265E+02  0.12303618175E+02  0.37414511395E+03  0.37578819771E+03  0.00000000000E+00 0. -1.
<scales pt_clust_3="52.86740" pt_clust_4="45.31432" pt_clust_5="14000.00000" pt_clust_6="35.10275"></scales>
<clustering>
<clus scale="   35.103">  1  6  2 -1</clus>
<clus scale="   45.314">  2  4  1 -1</clus>
<clus scale="   52.867">  2  3  1 -1</clus>
<clus scale="   35.103">  1  3  2 -1</clus>
</clustering>
</event>
<event>
 6    0  0.4390142E+002  0.1059936E+03  0.7546771E-02  0.1268174E+00
         21   -1    0    0  506  501  0.00000000000E+00  0.00000000000E+00  0.27477763574E+02  0.27477763574E+02  0.00000000000E+00 0. -1.
         21   -1    0    0  504  502 -0.00000000000E+00 -0.00000000000E+00 -0.73901552858E+03  0.73901552858E+03  0.00000000000E+00 0. -1.
         21    1    1    2  503  502 -0.41980791399E+02 -0.24880694906E+02 -0.13681229648E+03  0.14525508698E+03  0.00000000000E+00 0.  1.
         21    1    1    2  504  505 -0.30382160918E+02  0.55319360855E+02 -0.22332564997E+03  0.23207251738E+03  0.00000000000E+00 0. -1.
         21    1    1    2  505  501  0.11620024005E+03 -0.36457646267E+02 -0.27721487851E+03  0.30278663218E+03  0.00000000000E+00 0. -1.
         21    1    1    2  506  503 -0.43837287734E+02  0.60189803178E+01 -0.74184940054E+02  0.86379055625E+02  0.00000000000E+00 0. -1.
<scales pt_clust_3="35.80717" pt_clust_4="63.11345" pt_clust_5="99.09896" pt_clust_6="35.80717"></scales>
<clustering>
<clus scale="   35.807">  3  6 -1 -1</clus>
<clus scale="   63.113">  2  4  1 -1</clus>
<clus scale="   99.099">  2  5  1 -1</clus>
<clus scale="  105.994">  1  3  2 -1</clus>
</clustering>
</event>
<event>
 6    0  0.4390142E+002  0.2316322E+03  0.7546771E-02  0.1125496E+00
         21   -1    0    0  505  501  0.00000000000E+00  0.00000000000E+00  0.23735692707E+04  0.23735692707E+04  0.00000000000E+00 0. -1.
         21   -1    0    0  501  502 -0.00000000000E+00 -0.00000000000E+00 -0.70708506505E+02  0.70708506505E+02  0.00000000000E+00 0. -1.
         21    1    1    2  503  504  0.43620672378E+02 -0.23348184777E+03  0.33516035160E+03  0.41079069802E+03  0.00000000000E+00 0. -1.
         21    1    1    2  504  502  0.42789657742E+02  0.28776378900E+02 -0.81507351632E+00  0.51572271010E+02  0.00000000000E+00 0. -1.
         21    1    1    2  505  506 -0.30610487517E+02  0.46008187152E+02  0.71998447123E+03  0.72210206622E+03  0.00000000000E+00 0. -1.
         21    1    1    2  506  503 -0.55799842604E+02  0.15869728172E+03  0.12485310149E+04  0.12598127420E+04  0.00000000000E+00 0. -1.
<scales pt_clust_3="223.81126" pt_clust_4="51.56583" pt_clust_5="34.20705" pt_clust_6="34.20705"></scales>
<clustering>
<clus scale="   34.207">  5  6 -1 -1</clus>
<clus scale="   51.566">  2  4  1 -1</clus>
<clus scale="  223.811">  2  3  1 -1</clus>
<clus scale="  231.632">  1  3  2 -1</clus>
</clustering>
</event>
<event>
 6    0  0.4390142E+002  0.6087504E+02  0.7546771E-02  0.1394196E+00
         21   -1    0    0  504  501  0.00000000000E+00  0.00000000000E+00  0.13167615437E+03  0.13167615437E+03  0.00000000000E+00 0.  1.
         21   -1    0    0  506  502 -0.00000000000E+00 -0.00000000000E+00 -0.19902825358E+03  0.19902825358E+03  0.00000000000E+00 0.  1.
         21    1    1    2  503  502  0.83229542442E+01 -0.59355297515E+02 -0.62698953411E+02  0.86738005910E+02  0.00000000000E+00 0.  1.
         21    1    1    2  504  503  0.50073594013E+02 -0.23190000063E+02  0.58023672500E+02  0.80074262349E+02  0.00000000000E+00 0. -1.
         21    1    1    2  505  501 -0.78026396783E+02  0.31050203781E+02 -0.50104037485E+01  0.84126915405E+02  0.00000000000E+00 0.  1.
         21    1    1    2  506  505  0.19629848526E+02  0.51495093797E+02 -0.57666414548E+02  0.79765224284E+02  0.00000000000E+00 0.  1.
<scales pt_clust_3="35.68029" pt_clust_4="14000.00000" pt_clust_5="60.87504" pt_clust_6="55.10967"></scales>
<clustering>
<clus scale="   55.110">  2  6  1 -1</clus>
<clus scale="   35.680">  2  3  1 -1</clus>
<clus scale="   60.875">  2  5  1 -1</clus>
<clus scale="   60.875">  1  3  2 -1</clus>
</clustering>
</event>
<event>
 6    0  0.4390142E+002  0.7711060E+02  0.7546771E-02  0.1337457E+00
         21   -1    0    0  505  501  0.00000000000E+00  0.00000000000E+00  0.59154037332E+03  0.59154037332E+03  0.00000000000E+00 0.  1.
         21   -1    0    0  504  502 -0.00000000000E+00 -0.00000000000E+00 -0.96202646413E+02  0.96202646413E+02  0.00000000000E+00 0. -1.
         21    1    1    2  503  501 -0.85891208991E+02  0.41096374750E+02  0.94163290497E+02  0.13391391667E+03  0.00000000000E+00 0. -1.
         21    1    1    2  504  503  0.68888897986E+02  0.43188191011E+02 -0.36767694472E+02  0.89234317755E+02  0.00000000000E+00 0. -1.
         21    1    1    2  505  506  0.32718203375E+02 -0.30407468961E+02  0.38453959631E+03  0.38712503940E+03  0.00000000000E+00 0.  1.
         21    1    1    2  506  502 -0.15715892371E+02 -0.53877096800E+02  0.53402534568E+02  0.77469745907E+02  0.00000000000E+00 0. -1.
<scales pt_clust_3="14000.00000" pt_clust_4="77.11060" pt_clust_5="44.66649" pt_clust_6="63.77108"></scales>
<clustering>
<clus scale="   44.666">  1  5  2 -1</clus>
<clus scale="   63.771">  1  6  2 -1</clus>
<clus scale="   77.111">  2  4  1 -1</clus>
<clus scale="   44.666">  1  3  2 -1</clus>
</clustering>
</event>
<event>
 6    0  0.4390142E+002  0.2232847E+03  0.7546771E-02  0.1131458E+00
         21   -1    0    0  505  501  0.00000000000E+00  0.00000000000E+00  0.19671334083E+04  0.19671334083E+04  0.00000000000E+00 0.  1.
         21   -1    0    0  504  502 -0.00000000000E+00 -0.00000000000E+00 -0.29934324632E+03  0.29934324632E+03  0.00000000000E+00 0.  1.
         21    1    1    2  503  502  0.90790649123E+02 -0.75545356407E+02  0.10375362439E+04  0.10442372816E+04  0.00000000000E+00 0.  1.
         21    1    1    2  504  506 -0.42534375418E+02  0.36404070491E+02 -0.23841331783E+02  0.60850953499E+02  0.00000000000E+00 0.  1.
         21    1    1    2  505  503  0.42878940997E+02 -0.86453317022E+02  0.88112487803E+03  0.88639372194E+03  0.00000000000E+00 0.  1.
         21    1    1    2  506  501 -0.91135214702E+02  0.12559460294E+03 -0.22702962817E+03  0.27499469761E+03  0.00000000000E+00 0.  1.
<scales pt_clust_3="214.65221" pt_clust_4="45.52707" pt_clust_5="40.06319" pt_clust_6="45.52707"></scales>
<clustering>
<clus scale="   40.063">  3  5 -1 -1</clus>
<clus scale="   45.527">  4  6 -1 -1</clus>
<clus scale="  214.652">  1  3  2 -1</clus>
<clus scale="  214.652">  1  3  2 -1</clus>
</clustering>
</event>
<event>
 6    0  0.4390142E+002  0.1345066E+03  0.7546771E-02  0.1220918E+00
         21   -1    0    0  505  501  0.00000000000E+00  0.00000000000E+00  0.40728772817E+03  0.40728772817E+03  0.00000000000E+00 0.  1.
         21   -1    0    0  506  502 -0.00000000000E+00 -0.00000000000E+00 -0.12599203319E+03  0.12599203319E+03  0.00000000000E+00 0.  1.
         21    1    1    2  503  504  0.58843795293E+02 -0.20982038055E+01  0.88617659734E+02  0.10639588488E+03  0.00000000000E+00 0.  1.
         21    1    1    2  504  502  0.69835543591E+02 -0.64046674273E+02 -0.34276930100E+02  0.10076650024E+03  0.00000000000E+00 0.  1.
         21    1    1    2  505  503  0.34210907830E+02 -0.29249744385E+02  0.36331279559E+02  0.57843717338E+02  0.00000000000E+00 0.  1.
         21    1    1    2  506  501 -0.16289024671E+03  0.95394622463E+02  0.19062368579E+03  0.26827365889E+03  0.00000000000E+00 0.  1.
<scales pt_clust_3="36.26604" pt_clust_4="94.75748" pt_clust_5="36.26604" pt_clust_6="127.95114"></scales>
<clustering>
<clus scale="   36.266">  3  5 -1 -1</clus>
<clus scale="   94.757">  2  4  1 -1</clus>
<clus scale="  127.951">  2  6  1 -1</clus>
<clus scale="  134.507">  1  3  2 -1</clus>
</clustering>
</event>
<event>
 6    0  0.4390142E+002  0.3649642E+03  0.7546771E-02  0.1056635E+00
         21   -1    0    0  503  501  0.00000000000E+00  0.00000000000E+00  0.16402711013E+04  0.16402711013E+04  0.00000000000E+00 0.  1.
         21   -1    0    0  505  502 -0.00000000000E+00 -0.00000000000E+00 -0.29190186542E+03  0.29190186542E+03  0.00000000000E+00 0.  1.
         21    1    1    2  503  506  0.46234699233E+01  0.24479397673E+03  0.50310682287E+03  0.55951938548E+03  0.00000000000E+00 0.  1.
         21    1    1    2  504  501  0.17167310720E+03 -0.26688675660E+03  0.72329019375E+03  0.78984106057E+03  0.00000000000E+00 0.  1.
         21    1    1    2  505  504 -0.93888296799E+02 -0.13866512399E+03 -0.17054084239E+03  0.23901298670E+03  0.00000000000E+00 0.  1.
         21    1    1    2  506  502 -0.82408280324E+02  0.16075790386E+03  0.29251306169E+03  0.34379953400E+03  0.00000000000E+00 0.  1.
<scales pt_clust_3="95.84865" pt_clust_4="347.48752" pt_clust_5="167.46053" pt_clust_6="95.84865"></scales>
<clustering>
<clus scale="   95.849">  3  6 -1 -1</clus>
<clus scale="  167.461">  2  5  1 -1</clus>
<clus scale="  347.488">  1  4  2 -1</clus>
<clus scale="  347.488">  1  3  2 -1</clus>
</clustering>
</event>
<event>
 6    0  0.4390142E+002  0.7547325E+02  0.7546771E-02  0.1342412E+00
         21   -1    0    0  506  501  0.00000000000E+00  0.00000000000E+00  0.20533712706E+04  0.20533712706E+04  0.00000000000E+00 0. -1.
         21   -1    0    0  504  502 -0.00000000000E+00 -0.00000000000E+00 -0.12881921194E+03  0.12881921194E+03  0.00000000000E+00 0. -1.
         21    1    1    2  503  502  0.72135312385E+02 -0.59309090281E+02 -0.93267488020E+02  0.13198445289E+03  0.00000000000E+00 0. -1.
         21    1    1    2  504  505  0.66474469700E+01  0.49639057785E+02  0.77800392096E+02  0.92526350945E+02  0.00000000000E+00 0. -1.
         21    1    1    2  505  501 -0.20740961404E+02  0.72244884434E+02  0.17206686842E+04  0.17223095633E+04  0.00000000000E+00 0. -1.
         21    1    1    2  506  503 -0.58041797951E+02 -0.62574851938E+02  0.21935047033E+03  0.23537011543E+03  0.00000000000E+00 0. -1.
<scales pt_clust_3="72.52794" pt_clust_4="50.08218" pt_clust_5="75.47325" pt_clust_6="14000.00000"></scales>
<clustering>
<clus scale="   50.082">  2  4  1 -1</clus>
<clus scale="   75.473">  1  5  2 -1</clus>
<clus scale="   72.528">  2  3  1 -1</clus>
<clus scale="   75.473">  1  3  2 -1</clus>
</clustering>
</event>
<event>
 6    0  0.4390142E+002  0.2484835E+03  0.7546771E-02  0.1114267E+00
         21   -1    0    0  503  501  0.00000000000E+00  0.00000000000E+00  0.64208269236E+03  0.64208269236E+03  0.00000000000E+00 0.  1.
         21   -1    0    0  505  502 -0.00000000000E+00 -0.00000000000E+00 -0.12211948401E+03  0.12211948401E+03  0.00000000000E+00 0.  1.
         21    1    1    2  503  502  0.32043477819E+02  0.11515031275E+02  0.12907583695E+03  0.13349139336E+03  0.00000000000E+00 0. -1.
         21    1    1    2  504  506  0.37534077377E+02  0.33473447310E+02  0.46738518953E+02  0.68656884530E+02  0.00000000000E+00 0.  1.
         21    1    1    2  505  504  0.18296440162E+03 -0.11142914091E+02  0.98356083000E+02  0.20802417133E+03  0.00000000000E+00 0.  1.
         21    1    1    2  506  501 -0.25254195682E+03 -0.33845564494E+02  0.24579276945E+03  0.35402972715E+03  0.00000000000E+00 0.  1.
<scales pt_clust_3="34.04968" pt_clust_4="42.23801" pt_clust_5="42.23801" pt_clust_6="235.29197"></scales>
<clustering>
<clus scale="   34.050">  1  3  2 -1</clus>
<clus scale="   42.238">  4  5 -1 -1</clus>
<clus scale="  235.292">  1  6  2 -1</clus>
<clus scale="   34.050">  1  3  2 -1</clus>
</clustering>
</event>
<event>
 6    0  0.4390142E+002  0.1472092E+03  0.7546771E-02  0.1203945E+00
         21   -1    0    0  503  501  0.00000000000E+00  0.00000000000E+00  0.23488516572E+03  0.23488516572E+03  0.00000000000E+00 0.  1.
         21   -1    0    0  504  502 -0.00000000000E+00 -0.00000000000E+00 -0.16275733120E+04  0.16275733120E+04  0.00000000000E+00 0.  1.
         21    1    1    2  503  506 -0.12640577437E+01  0.33311426839E+02  0.65916420561E+02  0.73866254133E+02  0.00000000000E+00 0.  1.
         21    1    1    2  504  501 -0.51808100724E+02  0.15208057392E+02  0.13249415360E+03  0.14307363506E+03  0.00000000000E+00 0.  1.
         21    1    1    2  505  502  0.12199387006E+03 -0.10025383824E+03 -0.15340803971E+04  0.15421854626E+04  0.00000000000E+00 0.  1.
         21    1    1    2  506  505 -0.68921711593E+02  0.51734354007E+02 -0.57018323389E+02  0.10333312594E+03  0.00000000000E+00 0.  1.
<scales pt_clust_3="33.33540" pt_clust_4="68.16012" pt_clust_5="147.20919" pt_clust_6="14000.00000"></scales>
<clustering>
<clus scale="   33.335">  1  3  2 -1</clus>
<clus scale="   68.160">  1  4  2 -1</clus>
<clus scale="  147.209">  2  5  1 -1</clus>
<clus scale="   33.335">  1  3  2 -1</clus>
</clustering>
</event>
<event>
 6    0  0.4390142E+002  0.1480289E+03  0.7546771E-02  0.1202916E+00
         21   -1    0    0  506  501  0.00000000000E+00  0.00000000000E+00  0.84140772230E+02  0.84140772230E+02  0.00000000000E+00 0.  1.
         21   -1    0    0  505  502 -0.00000000000E+00 -0.00000000000E+00 -0.17505504009E+04  0.17505504009E+04  0.00000000000E+00 0. -1.
         21    1    1    2  503  504 -0.58574174442E+02 -0.40875429758E+02 -0.61255336905E+03  0.61670362785E+03  0.00000000000E+00 0. -1.
         21    1    1    2  504  502 -0.47791411482E+02 -0.55088920368E+02 -0.10440857493E+04  0.10466297627E+04  0.00000000000E+00 0. -1.
         21    1    1    2  505  501  0.24473179242E+01  0.34847313066E+02 -0.33597278607E+02  0.48467532666E+02  0.00000000000E+00 0.  1.
         21    1    1    2  506  503  0.10391826800E+03  0.61117037060E+02  0.23826768312E+02  0.12289024994E+03  0.00000000000E+00 0.  1.
<scales pt_clust_3="40.78834" pt_clust_4="40.78834" pt_clust_5="34.93314" pt_clust_6="142.16382"></scales>
<clustering>
<clus scale="   34.933">  1  5  2 -1</clus>
<clus scale="   40.788">  3  4 -1 -1</clus>
<clus scale="  142.164">  1  6  2 -1</clus>
<clus scale="   34.933">  1  3  2 -1</clus>
</clustering>
</event>
<event>
 6    0  0.4390142E+002  0.6993811E+02  0.7546771E-02  0.1360304E+00
         21   -1    0    0  505  501  0.00000000000E+00  0.00000000000E+00  0.35259305053E+03  0.35259305053E+03  0.00000000000E+00 0.  1.
         21   -1    0    0  501  502 -0.00000000000E+00 -0.00000000000E+00 -0.18465106970E+03  0.18465106970E+03  0.00000000000E+00 0. -1.
         21    1    1    2  503  506 -0.20757187837E+02  0.11367553958E+03  0.26880807197E+02  0.11864049452E+03  0.00000000000E+00 0.  1.
         21    1    1    2  504  503  0.43888988244E+01 -0.50594352745E+02  0.10701818921E+03  0.11845650587E+03  0.00000000000E+00 0.  1.
         21    1    1    2  505  504  0.32728363134E+02 -0.91790104654E+01  0.15925792565E+03  0.16284497803E+03  0.00000000000E+00 0.  1.
         21    1    1    2  506  502 -0.16360074121E+02 -0.53902176364E+02 -0.12521494122E+03  0.13730214181E+03  0.00000000000E+00 0. -1.
<scales pt_clust_3="69.93811" pt_clust_4="14000.00000" pt_clust_5="33.99118" pt_clust_6="56.31767"></scales>
<clustering>
<clus scale="   33.991">  1  5  2 -1</clus>
<clus scale="   56.318">  2  6  1 -1</clus>
<clus scale="   69.938">  2  3  1 -1</clus>
<clus scale="   33.991">  1  3  2 -1</clus>
</clustering>
</event>
<event>
 6    0  0.4390142E+002  0.1102642E+03  0.7546771E-02  0.1260081E+00
         21   -1    0    0  506  501  0.00000000000E+00  0.00000000000E+00  0.13507317761E+02  0.13507317761E+02  0.00000000000E+00 0.  1.
         21   -1    0    0  504  502 -0.00000000000E+00 -0.00000000000E+00 -0.24639309170E+04  0.24639309170E+04  0.00000000000E+00 0.  1.
         21    1    1    2  503  505  0.46569927084E+02 -0.42843064260E+02 -0.15661275765E+03  0.16891371207E+03  0.00000000000E+00 0.  1.
         21    1    1    2  504  503  0.11815506390E+01  0.87207190851E+02 -0.16976247744E+04  0.16998636313E+04  0.00000000000E+00 0.  1.
         21    1    1    2  505  501  0.14008936196E+02 -0.50018608047E+02 -0.16350206813E+03  0.17155476597E+03  0.00000000000E+00 0.  1.
         21    1    1    2  506  502 -0.61760413918E+02  0.56544814551E+01 -0.43268399899E+03  0.43710612541E+03  0.00000000000E+00 0.  1.
<scales pt_clust_3="30.75364" pt_clust_4="104.90948" pt_clust_5="30.75364" pt_clust_6="62.01872"></scales>
<clustering>
<clus scale="   30.754">  3  5 -1 -1</clus>
<clus scale="   62.019">  2  6  1 -1</clus>
<clus scale="  104.909">  2  4  1 -1</clus>
<clus scale="  110.264">  1  3  2 -1</clus>
</clustering>
</event>
<event>
 6    0  0.4390142E+002  0.9439563E+02  0.7546771E-02  0.1292543E+00
         21   -1    0    0  506  501  0.00000000000E+00  0.00000000000E+00  0.24493196099E+03  0.24493196099E+03  0.00000000000E+00 0.  1.
         21   -1    0    0  504  502 -0.00000000000E+00 -0.00000000000E+00 -0.61654736297E+03  0.61654736297E+03  0.00000000000E+00 0.  1.
         21    1    1    2  503  501  0.82949837702E+01 -0.94515906688E+02  0.19770290758E+03  0.21929090961E+03  0.00000000000E+00 0.  1.
         21    1    1    2  504  505  0.43900572861E+02  0.14852676110E+02 -0.23193458978E+02  0.51824693193E+02  0.00000000000E+00 0. -1.
         21    1    1    2  505  503 -0.59148007796E+02  0.78296850568E+01 -0.25708359516E+02  0.64966995801E+02  0.00000000000E+00 0.  1.
         21    1    1    2  506  502  0.69524511648E+01  0.71833545520E+02 -0.52041649107E+03  0.52539672536E+03  0.00000000000E+00 0.  1.
<scales pt_clust_3="94.39563" pt_clust_4="46.34504" pt_clust_5="56.43178" pt_clust_6="14000.00000"></scales>
<clustering>
<clus scale="   46.345">  2  4  1 -1</clus>
<clus scale="   56.432">  2  5  1 -1</clus>
<clus scale="   94.396">  1  3  2 -1</clus>
<clus scale="   94.396">  1  3  2 -1</clus>
</clustering>
</event>
<event>
 6    0  0.4390142E+002  0.9534286E+02  0.7546771E-02  0.1290406E+00
         21   -1    0    0  503  501  0.00000000000E+00  0.00000000000E+00  0.88747547768E+02  0.88747547768E+02  0.00000000000E+00 0. -1.
         21   -1    0    0  504  502 -0.00000000000E+00 -0.00000000000E+00 -0.91508418340E+03  0.91508418340E+03  0.00000000000E+00 0. -1.
         21    1    1    2  503  505 -0.46831735555E+02 -0.16155918098E+02 -0.10388796871E+02  0.50617706833E+02  0.00000000000E+00 0. -1.
         21    1    1    2  504  501  0.23136913204E+02  0.10900111583E+03  0.12225997283E+02  0.11209832744E+03  0.00000000000E+00 0. -1.
         21    1    1    2  505  506 -0.24972336669E+02 -0.93447630963E+02 -0.48981604592E+03  0.49927531100E+03  0.00000000000E+00 0. -1.
         21    1    1    2  506  502  0.48667159019E+02  0.60243322897E+00 -0.33835779012E+03  0.34184038590E+03  0.00000000000E+00 0. -1.
<scales pt_clust_3="47.09604" pt_clust_4="95.34286" pt_clust_5="14000.00000" pt_clust_6="48.67089"></scales>
<clustering>
<clus scale="   48.671">  2  6  1 -1</clus>
<clus scale="   47.096">  1  3  2 -1</clus>
<clus scale="   95.343">  1  4  2 -1</clus>
<clus scale="   47.096">  1  3  2 -1</clus>
</clustering>
</event>
<event>
 6    0  0.4390142E+002  0.8171558E+02  0.7546771E-02  0.1324252E+00
         21   -1    0    0  505  501  0.00000000000E+00  0.00000000000E+00  0.18922352897E+03  0.18922352897E+03  0.00000000000E+00 0.  1.
         21   -1    0    0  503  502 -0.00000000000E+00 -0.00000000000E+00 -0.19653177688E+03  0.19653177688E+03  0.00000000000E+00 0.  1.
         21    1    1    2  503  504  0.99811093660E+02  0.64267608086E+02 -0.59426294849E+02  0.13275565670E+03  0.00000000000E+00 0.  1.
         21    1    1    2  504  506 -0.33055991129E+01 -0.66988372131E+02  0.55178950755E+02  0.86850938929E+02  0.00000000000E+00 0.  1.
         21    1    1    2  505  502 -0.60678048941E+02  0.15240546323E+02 -0.67079192256E+02  0.91726320701E+02  0.00000000000E+00 0.  1.
         21    1    1    2  506  501 -0.35827445606E+02 -0.12519782278E+02  0.64018288445E+02  0.74422389523E+02  0.00000000000E+00 0.  1.
<scales pt_clust_3="81.71558" pt_clust_4="14000.00000" pt_clust_5="65.85286" pt_clust_6="37.95195"></scales>
<clustering>
<clus scale="   37.952">  1  6  2 -1</clus>
<clus scale="   65.853">  2  5  1 -1</clus>
<clus scale="   81.716">  2  3  1 -1</clus>
<clus scale="   37.952">  1  3  2 -1</clus>
</clustering>
</event>
<event>
 6    0  0.5656733E+002  0.9633853E+02  0.7546771E-02  0.1288190E+00
         21   -1    0    0  504  501  0.00000000000E+00  0.00000000000E+00  0.76402511485E+03  0.76402511485E+03  0.00000000000E+00 0.  1.
         21   -1    0    0  501  502 -0.00000000000E+00 -0.00000000000E+00 -0.59823630967E+03  0.59823630967E+03  0.00000000000E+00 0.  1.
         21    1    1    2  503  505 -0.32876206858E+02 -0.37975152001E+02 -0.95685559709E+01  0.51132322559E+02  0.00000000000E+00 0.  1.
         21    1    1    2  504  506  0.92436303615E+02  0.49718514970E+02  0.65416105548E+03  0.66252780127E+03  0.00000000000E+00 0.  1.
         21    1    1    2  505  502 -0.12260285519E+02  0.39520579177E+02 -0.54846376805E+03  0.55002245012E+03  0.00000000000E+00 0.  1.
         21    1    1    2  506  503 -0.47299811238E+02 -0.51263942146E+02  0.69660073723E+02  0.98578850564E+02  0.00000000000E+00 0.  1.
<scales pt_clust_3="42.66120" pt_clust_4="14000.00000" pt_clust_5="41.37863" pt_clust_6="96.33853"></scales>
<clustering>
<clus scale="   41.379">  2  5  1 -1</clus>
<clus scale="   42.661">  2  3  1 -1</clus>
<clus scale="   96.339">  2  6  1 -1</clus>
<clus scale="   96.339">  1  3  2 -1</clus>
</clustering>
</event>
<event>
 6    0  0.4390142E+002  0.1930127E+03  0.7546771E-02  0.1155772E+00
         21   -1    0    0  506  501  0.00000000000E+00  0.00000000000E+00  0.48370785215E+03  0.48370785215E+03  0.00000000000E+00 0. -1.
         21   -1    0    0  501  502 -0.00000000000E+00 -0.00000000000E+00 -0.14588042164E+04  0.14588042164E+04  0.00000000000E+00 0. -1.
         21    1    1    2  503  505 -0.46733779197E+02 -0.11707268002E+02  0.93665099574E+02  0.10532927950E+03  0.00000000000E+00 0. -1.
         21    1    1    2  504  502 -0.14306272830E+02  0.36406703610E+02 -0.43161132924E+03  0.43338026840E+03  0.00000000000E+00 0. -1.
         21    1    1    2  505  504  0.15008085871E+03  0.88609405706E+02 -0.99911665443E+03  0.10142041117E+04  0.00000000000E+00 0. -1.
         21    1    1    2  506  503 -0.89040806686E+02 -0.11330884131E+03  0.36196651987E+03  0.38959840898E+03  0.00000000000E+00 0. -1.
<scales pt_clust_3="33.16217" pt_clust_4="39.11672" pt_clust_5="184.29441" pt_clust_6="33.16217"></scales>
<clustering>
<clus scale="   33.162">  3  6 -1 -1</clus>
<clus scale="   39.117">  2  4  1 -1</clus>
<clus scale="  184.294">  2  5  1 -1</clus>
<clus scale="  193.013">  1  3  2 -1</clus>
</clustering>
</event>
<event>
 6    0  0.4390142E+002  0.1936096E+03  0.7546771E-02  0.1155245E+00
         21   -1    0    0  503  501  0.00000000000E+00  0.00000000000E+00  0.42348882833E+03  0.42348882833E+03  0.00000000000E+00 0. -1.
         21   -1    0    0  504  502 -0.00000000000E+00 -0.00000000000E+00 -0.27755474869E+04  0.27755474869E+04  0.00000000000E+00 0.  1.
         21    1    1    2  503  502  0.15060449797E+02 -0.31535194742E+02 -0.17958165973E+03  0.18295042544E+03  0.00000000000E+00 0.  1.
         21    1    1    2  504  505  0.14541192101E+03  0.10964627904E+03 -0.25686700147E+04  0.25751179735E+04  0.00000000000E+00 0.  1.
         21    1    1    2  505  506 -0.55390741215E+02 -0.54278214678E+02  0.10541988795E+03  0.13087250122E+03  0.00000000000E+00 0. -1.
         21    1    1    2  506  501 -0.10508162960E+03 -0.23832869622E+02  0.29077312787E+03  0.31009541507E+03  0.00000000000E+00 0. -1.
<scales pt_clust_3="34.94690" pt_clust_4="178.47581" pt_clust_5="63.69352" pt_clust_6="63.69352"></scales>
<clustering>
<clus scale="   34.947">  2  3  1 -1</clus>
<clus scale="   63.694">  5  6 -1 -1</clus>
<clus scale="  178.476">  2  4  1 -1</clus>
<clus scale="  193.610">  1  3  2 -1</clus>
</clustering>
</event>
<event>
 6    0  0.4390142E+002  0.4041787E+03  0.7546771E-02  0.1042342E+00
         21   -1    0    0  505  501  0.00000000000E+00  0.00000000000E+00  0.37676971307E+03  0.37676971307E+03  0.00000000000E+00 0. -1.
         21   -1    0    0  503  502 -0.00000000000E+00 -0.00000000000E+00 -0.52281822135E+03  0.52281822135E+03  0.00000000000E+00 0. -1.
         21    1    1    2  503  506 -0.12852120128E+02  0.40576335500E+02 -0.49609077246E+02  0.65365713793E+02  0.00000000000E+00 0. -1.
         21    1    1    2  504  501 -0.10657267376E+03  0.12007128022E+03 -0.49768014881E+01  0.16062258770E+03  0.00000000000E+00 0. -1.
         21    1    1    2  505  502  0.28276418810E+03 -0.31880130805E+03 -0.12427339044E+03  0.44388482251E+03  0.00000000000E+00 0. -1.
         21    1    1    2  506  504 -0.16333939421E+03  0.15815369232E+03  0.32810760898E+02  0.22971481042E+03  0.00000000000E+00 0. -1.
<scales pt_clust_3="42.56308" pt_clust_4="30.60982" pt_clust_5="402.53393" pt_clust_6="30.60982"></scales>
<clustering>
<clus scale="   30.610">  4  6 -1 -1</clus>
<clus scale="   42.563">  2  3  1 -1</clus>
<clus scale="  402.534">  2  5  1 -1</clus>
<clus scale="  404.179">  1  3  2 -1</clus>
</clustering>
</event>
<event>
 6    0  0.4390142E+002  0.7189319E+02  0.7546771E-02  0.1353771E+00
         21   -1    0    0  504  501  0.00000000000E+00  0.00000000000E+00  0.36152132879E+03  0.36152132879E+03  0.00000000000E+00 0.  1.
         21   -1    0    0  506  502 -0.00000000000E+00 -0.00000000000E+00 -0.64164055782E+03  0.64164055782E+03  0.00000000000E+00 0.  1.
         21    1    1    2  503  505 -0.91450728226E+02 -0.50578922112E+02 -0.12075475788E+03  0.15969713400E+03  0.00000000000E+00 0.  1.
         21    1    1    2  504  503 -0.23973493499E+02  0.18570435213E+02  0.13884624019E+03  0.14211920303E+03  0.00000000000E+00 0.  1.
         21    1    1    2  505  502  0.34262947972E+02  0.12026823636E+02 -0.49041279548E+03  0.49175532947E+03  0.00000000000E+00 0.  1.
         21    1    1    2  506  501  0.81161273753E+02  0.19981663262E+02  0.19220208413E+03  0.20959022012E+03  0.00000000000E+00 0.  1.
<scales pt_clust_3="71.89319" pt_clust_4="30.32473" pt_clust_5="36.26252" pt_clust_6="14000.00000"></scales>
<clustering>
<clus scale="   30.325">  1  4  2 -1</clus>
<clus scale="   36.263">  2  5  1 -1</clus>
<clus scale="   71.893">  2  3  1 -1</clus>
<clus scale="   30.325">  1  3  2 -1</clus>
</clustering>
</event>
<event>
 6    0  0.4390142E+002  0.1131636E+03  0.7546771E-02  0.1254821E+00
         21   -1    0    0  503  501  0.00000000000E+00  0.00000000000E+00  0.32725649082E+03  0.32725649082E+03  0.00000000000E+00 0. -1.
         21   -1    0    0  504  502 -0.00000000000E+00 -0.00000000000E+00 -0.14248433669E+03  0.14248433669E+03  0.00000000000E+00 0. -1.
         21    1    1    2  503  502  0.49696204009E+02 -0.91196200521E+02 -0.95209152619E+02  0.14089443717E+03  0.00000000000E+00 0. -1.
         21    1    1    2  504  506 -0.46349118886E+02  0.85873380253E+01  0.11047841318E+03  0.12011437456E+03  0.00000000000E+00 0. -1.
         21    1    1    2  505  501  0.32413485999E+02  0.24873218012E+02  0.22134202627E+02  0.46467558306E+02  0.00000000000E+00 0. -1.
         21    1    1    2  506  505 -0.35760571122E+02  0.57735644483E+02  0.14736869094E+03  0.16226445748E+03  0.00000000000E+00 0.  1.
<scales pt_clust_3="103.41215" pt_clust_4="38.28671" pt_clust_5="40.85720" pt_clust_6="38.28671"></scales>
<clustering>
<clus scale="   38.287">  4  6 -1 -1</clus>
<clus scale="   40.857">  1  5  2 -1</clus>
<clus scale="  103.412">  2  3  1 -1</clus>
<clus scale="   40.857">  1  3  2 -1</clus>
</clustering>
</event>
<event>
 6    0  0.4390142E+002  0.1340562E+03  0.7546771E-02  0.1221558E+00
         21   -1    0    0  506  501  0.00000000000E+00  0.00000000000E+00  0.28455340410E+03  0.28455340410E+03  0.00000000000E+00 0. -1.
         21   -1    0    0  501  502 -0.00000000000E+00 -0.00000000000E+00 -0.85179674228E+03  0.85179674228E+03  0.00000000000E+00 0.  1.
         21    1    1    2  503  505 -0.10618224487E+03  0.27384693902E+02 -0.70815682093E+03  0.71659659057E+03  0.00000000000E+00 0.  1.
         21    1    1    2  504  503  0.11614149976E+03 -0.37513670245E+01  0.56675168918E+02  0.12928648612E+03  0.00000000000E+00 0. -1.
         21    1    1    2  505  502 -0.19527768352E+02  0.31446114615E+02 -0.95400666844E+02  0.10233024526E+03  0.00000000000E+00 0. -1.
         21    1    1    2  506  504  0.95685134570E+01 -0.55079441493E+02  0.17963898067E+03  0.18813682442E+03  0.00000000000E+00 0. -1.
<scales pt_clust_3="14000.00000" pt_clust_4="134.05616" pt_clust_5="37.01610" pt_clust_6="55.71075"></scales>
<clustering>
<clus scale="   37.016">  2  5  1 -1</clus>
<clus scale="   55.711">  1  6  2 -1</clus>
<clus scale="  134.056">  1  4  2 -1</clus>
<clus scale="   55.711">  1  3  2 -1</clus>
</clustering>
</event>
<event>
 6    0  0.4390142E+002  0.1675271E+03  0.7546771E-02  0.1180451E+00
         21   -1    0    0  504  501  0.00000000000E+00  0.00000000000E+00  0.26281820722E+03  0.26281820722E+03  0.00000000000E+00 0. -1.
         21   -1    0    0  503  502 -0.00000000000E+00 -0.00000000000E+00 -0.89580295846E+03  0.89580295846E+03  0.00000000000E+00 0. -1.
         21    1    1    2  503  501 -0.53849270181E+02  0.15620093842E+03 -0.16502808484E+03  0.23352247397E+03  0.00000000000E+00 0. -1.
         21    1    1    2  504  506  0.23019951740E+02  0.20290780522E+02  0.23615244588E+02  0.38720972731E+02  0.00000000000E+00 0. -1.
         21    1    1    2  505  502  0.13535521554E+03 -0.11038352067E+03 -0.65700532403E+03  0.67982464784E+03  0.00000000000E+00 0. -1.
         21    1    1    2  506  505 -0.10452589710E+03 -0.66108198267E+02  0.16543341305E+03  0.20655307113E+03  0.00000000000E+00 0. -1.
<scales pt_clust_3="14000.00000" pt_clust_4="30.68605" pt_clust_5="167.52711" pt_clust_6="99.42384"></scales>
<clustering>
<clus scale="   30.686">  1  4  2 -1</clus>
<clus scale="   99.424">  1  6  2 -1</clus>
<clus scale="  167.527">  2  5  1 -1</clus>
<clus scale="   30.686">  1  3  2 -1</clus>
</clustering>
</event>
<event>
 6    0  0.4390142E+002  0.6118582E+02  0.7546771E-02  0.1392922E+00
         21   -1    0    0  504  501  0.00000000000E+00  0.00000000000E+00  0.42033884637E+03  0.42033884637E+03  0.00000000000E+00 0. -1.
         21   -1    0    0  505  502 -0.00000000000E+00 -0.00000000000E+00 -0.19167958000E+03  0.19167958000E+03  0.00000000000E+00 0. -1.
         21    1    1    2  503  502 -0.63065590792E+02  0.64144116033E+01  0.17207039781E+02  0.65684820440E+02  0.00000000000E+00 0.  1.
         21    1    1    2  504  503 -0.27024233032E+02  0.70819789155E+02  0.31721419026E+03  0.32614505088E+03  0.00000000000E+00 0. -1.
         21    1    1    2  505  506  0.58091635457E+02 -0.65595557192E+02 -0.14426539021E+03  0.16878956735E+03  0.00000000000E+00 0. -1.
         21    1    1    2  506  501  0.31998188368E+02 -0.11638643566E+02  0.38503426527E+02  0.51398987706E+02  0.00000000000E+00 0. -1.
<scales pt_clust_3="59.75329" pt_clust_4="61.18582" pt_clust_5="14000.00000" pt_clust_6="34.04911"></scales>
<clustering>
<clus scale="   34.049">  1  6  2 -1</clus>
<clus scale="   59.753">  2  3  1 -1</clus>
<clus scale="   61.186">  1  4  2 -1</clus>
<clus scale="   34.049">  1  3  2 -1</clus>
</clustering>
</event>
<event>
 6    0  0.4390142E+002  0.8578605E+02  0.7546771E-02  0.1313390E+00
         21   -1    0    0  506  501  0.00000000000E+00  0.00000000000E+00  0.27532475661E+03  0.27532475661E+03  0.00000000000E+00 0.  1.
         21   -1    0    0  504  502 -0.00000000000E+00 -0.00000000000E+00 -0.51659107171E+03  0.51659107171E+03  0.00000000000E+00 0. -1.
         21    1    1    2  503  502  0.24227778079E+02 -0.32031616441E+02 -0.46603521192E+02  0.61521523632E+02  0.00000000000E+00 0.  1.
         21    1    1    2  504  505 -0.99315167874E+02  0.75053989288E+02 -0.43851574620E+03  0.45584280574E+03  0.00000000000E+00 0. -1.
         21    1    1    2  505  501  0.38925823364E+02 -0.28639998090E+02  0.22709486180E+03  0.23217998508E+03  0.00000000000E+00 0.  1.
         21    1    1    2  506  503  0.36161566430E+02 -0.14382374756E+02  0.16758090494E+02  0.42371513866E+02  0.00000000000E+00 0.  1.
<scales pt_clust_3="41.17707" pt_clust_4="85.78605" pt_clust_5="14000.00000" pt_clust_6="38.91673"></scales>
<clustering>
<clus scale="   38.917">  1  6  2 -1</clus>
<clus scale="   41.177">  2  3  1 -1</clus>
<clus scale="   85.786">  2  4  1 -1</clus>
<clus scale="   38.917">  1  3  2 -1</clus>
</clustering>
</event>
<event>
 6    0  0.4390142E+002  0.1522565E+03  0.7546771E-02  0.1197727E+00
         21   -1    0    0  506  501  0.00000000000E+00  0.00000000000E+00  0.26248682997E+03  0.26248682997E+03  0.00000000000E+00 0. -1.
         21   -1    0    0  503  502 -0.00000000000E+00 -0.00000000000E+00 -0.36888820216E+03  0.36888820216E+03  0.00000000000E+00 0.  1.
         21    1    1    2  503  501 -0.73530474526E+02  0.17038895529E+03 -0.23895925387E+03  0.30255685710E+03  0.00000000000E+00 0.  1.
         21    1    1    2  504  502  0.17705998502E+02 -0.44172718054E+02 -0.65673484637E+02  0.81103255098E+02  0.00000000000E+00 0.  1.
         21    1    1    2  505  504  0.56187334103E+02 -0.85868871541E+02  0.10856384594E+03  0.14938737650E+03  0.00000000000E+00 0. -1.
         21    1    1    2  506  505 -0.36285807885E+00 -0.40347365699E+02  0.89667520373E+02  0.98327543418E+02  0.00000000000E+00 0. -1.
<scales pt_clust_3="141.99272" pt_clust_4="47.58919" pt_clust_5="34.45996" pt_clust_6="34.45996"></scales>
<clustering>
<clus scale="   34.460">  5  6 -1 -1</clus>
<clus scale="   47.589">  2  4  1 -1</clus>
<clus scale="  141.993">  2  3  1 -1</clus>
<clus scale="  152.256">  1  3  2 -1</clus>
</clustering>
</event>
<event>
 6    0  0.4390142E+002  0.9221317E+02  0.7546771E-02  0.1297579E+00
         21   -1    0    0  505  501  0.00000000000E+00  0.00000000000E+00  0.16236340258E+04  0.16236340258E+04  0.00000000000E+00 0. -1.
         21   -1    0    0  504  502 -0.00000000000E+00 -0.00000000000E+00 -0.83317031658E+02  0.83317031658E+02  0.00000000000E+00 0. -1.
         21    1    1    2  503  502  0.86694670839E+02  0.22472772720E+02 -0.38834477272E+02  0.97617150597E+02  0.00000000000E+00 0. -1.
         21    1    1    2  504  501  0.61107222479E+02 -0.33928633142E+01  0.99321608368E+03  0.99509989098E+03  0.00000000000E+00 0. -1.
         21    1    1    2  505  506 -0.27056944773E+02 -0.20597686304E+02  0.32428382481E+03  0.32606186832E+03  0.00000000000E+00 0. -1.
         21    1    1    2  506  503 -0.12074494854E+03  0.15177768985E+01  0.26165156297E+03  0.28817214760E+03  0.00000000000E+00 0. -1.
<scales pt_clust_3="92.21317" pt_clust_4="44.70668" pt_clust_5="34.00504" pt_clust_6="14000.00000"></scales>
<clustering>
<clus scale="   34.005">  1  5  2 -1</clus>
<clus scale="   44.707">  1  4  2 -1</clus>
<clus scale="   92.213">  2  3  1 -1</clus>
<clus scale="   34.005">  1  3  2 -1</clus>
</clustering>
</event>
<event>
 6    0  0.4390142E+002  0.3797324E+03  0.7546771E-02  0.1051033E+00
         21   -1    0    0  506  501  0.00000000000E+00  0.00000000000E+00  0.15257858629E+04  0.15257858629E+04  0.00000000000E+00 0.  1.
         21   -1    0    0  505  502 -0.00000000000E+00 -0.00000000000E+00 -0.14895550796E+04  0.14895550796E+04  0.00000000000E+00 0. -1.
         21    1    1    2  503  501 -0.15071822102E+03  0.37029075706E+03 -0.89865847030E+03  0.98357423368E+03  0.00000000000E+00 0. -1.
         21    1    1    2  504  502  0.27943373876E+01 -0.68373862451E+02  0.13724981835E+03  0.15336331382E+03  0.00000000000E+00 0. -1.
         21    1    1    2  505  503 -0.15714219474E+02 -0.57970352347E+02 -0.52251868382E+03  0.52595938378E+03  0.00000000000E+00 0. -1.
         21    1    1    2  506  504  0.16363810310E+03 -0.24394654226E+03  0.13201581191E+04  0.13524440113E+04  0.00000000000E+00 0.  1.
<scales pt_clust_3="354.99676" pt_clust_4="65.22139" pt_clust_5="60.06245" pt_clust_6="65.22139"></scales>
<clustering>
<clus scale="   60.062">  2  5  1 -1</clus>
<clus scale="   65.221">  4  6 -1 -1</clus>
<clus scale="  354.997">  2  3  1 -1</clus>
<clus scale="  379.732">  1  3  2 -1</clus>
</clustering>
</event>
<event>
 6    0  0.4390142E+002  0.1510501E+03  0.7546771E-02  0.1199189E+00
         21   -1    0    0  506  501  0.00000000000E+00  0.00000000000E+00  0.75498186199E+02  0.75498186199E+02  0.00000000000E+00 0.  1.
         21   -1    0    0  505  502 -0.00000000000E+00 -0.00000000000E+00 -0.14220795376E+04  0.14220795376E+04  0.00000000000E+00 0.  1.
         21    1    1    2  503  502 -0.13907052742E+03  0.38517556275E+02 -0.12897457342E+04  0.12977936171E+04  0.00000000000E+00 0.  1.
         21    1    1    2  504  503  0.60390692480E+02 -0.12936897358E+02  0.33131347013E+02  0.70086269742E+02  0.00000000000E+00 0.  1.
         21    1    1    2  505  501  0.35375480745E+02 -0.10297776704E+02 -0.71044652325E+02  0.80030066019E+02  0.00000000000E+00 0. -1.
         21    1    1    2  506  504  0.43304354191E+02 -0.15282882213E+02 -0.18922311879E+02  0.49667770913E+02  0.00000000000E+00 0. -1.
<scales pt_clust_3="142.21818" pt_clust_4="39.71511" pt_clust_5="36.84384" pt_clust_6="39.71511"></scales>
<clustering>
<clus scale="   36.844">  1  5  2 -1</clus>
<clus scale="   39.715">  4  6 -1 -1</clus>
<clus scale="  142.218">  2  3  1 -1</clus>
<clus scale="   36.844">  1  3  2 -1</clus>
</clustering>
</event>
<event>
 6    0  0.4390142E+002  0.9771404E+02  0.7546771E-02  0.1285178E+00
         21   -1    0    0  506  501  0.00000000000E+00  0.00000000000E+00  0.32054550108E+03  0.32054550108E+03  0.00000000000E+00 0. -1.
         21   -1    0    0  504  502 -0.00000000000E+00 -0.00000000000E+00 -0.84262627306E+02  0.84262627306E+02  0.00000000000E+00 0.  1.
         21    1    1    2  503  505  0.53334239727E+02  0.14604851505E+02  0.39365285906E+02  0.67878336376E+02  0.00000000000E+00 0.  1.
         21    1    1    2  504  503  0.14435804990E+01 -0.78553661647E+02  0.11676145386E+03  0.14073378695E+03  0.00000000000E+00 0. -1.
         21    1    1    2  505  501  0.27792357286E+02 -0.16190710304E+02  0.74320629967E+02  0.80982160149E+02  0.00000000000E+00 0. -1.
         21    1    1    2  506  502 -0.82570177512E+02  0.80139520446E+02  0.58355040448E+01  0.11521384491E+03  0.00000000000E+00 0.  1.
<scales pt_clust_3="60.48407" pt_clust_4="97.71404" pt_clust_5="32.16449" pt_clust_6="14000.00000"></scales>
<clustering>
<clus scale="   32.164">  1  5  2 -1</clus>
<clus scale="   60.484">  1  3  2 -1</clus>
<clus scale="   97.714">  1  4  2 -1</clus>
<clus scale="   32.164">  1  3  2 -1</clus>
</clustering>
</event>
<event>
 6    0  0.4390142E+002  0.1423971E+03  0.7546771E-02  0.1210139E+00
         21   -1    0    0  505  501  0.00000000000E+00  0.00000000000E+00  0.89700083887E+03  0.89700083887E+03  0.00000000000E+00 0.  1.
         21   -1    0    0  504  502 -0.00000000000E+00 -0.00000000000E+00 -0.61946966464E+03  0.61946966464E+03  0.00000000000E+00 0.  1.
         21    1    1    2  503  502 -0.57729600278E+02 -0.20119824608E+01 -0.55762978384E+03  0.56061370893E+03  0.00000000000E+00 0.  1.
         21    1    1    2  504  506  0.22629132679E+02 -0.23984578504E+02 -0.28820806069E+01  0.33100514202E+02  0.00000000000E+00 0. -1.
         21    1    1    2  505  503 -0.11790045117E+03 -0.66269817614E+02  0.64780030770E+03  0.66176842156E+03  0.00000000000E+00 0.  1.
         21    1    1    2  506  501  0.15300091877E+03  0.92266378579E+02  0.19024273097E+03  0.26098785881E+03  0.00000000000E+00 0.  1.
<scales pt_clust_3="44.01487" pt_clust_4="32.97480" pt_clust_5="14000.00000" pt_clust_6="142.39709"></scales>
<clustering>
<clus scale="   32.975">  2  4  1 -1</clus>
<clus scale="   44.015">  2  3  1 -1</clus>
<clus scale="  142.397">  2  6  1 -1</clus>
<clus scale="  142.397">  1  3  2 -1</clus>
</clustering>
</event>
<event>
 6    0  0.4390142E+002  0.6029231E+02  0.7546771E-02  0.1396609E+00
         21   -1    0    0  506  501  0.00000000000E+00  0.00000000000E+00  0.19108053318E+03  0.19108053318E+03  0.00000000000E+00 0. -1.
         21   -1    0    0  505  502 -0.00000000000E+00 -0.00000000000E+00 -0.24318041038E+03  0.24318041038E+03  0.00000000000E+00 0. -1.
         21    1    1    2  503  502 -0.57525103792E+02  0.78534654719E+02 -0.16098560359E+03  0.18813078994E+03  0.00000000000E+00 0. -1.
         21    1    1    2  504  501  0.63819799544E+02  0.17827332030E+02  0.13532211858E+02  0.67630624268E+02  0.00000000000E+00 0. -1.
         21    1    1    2  505  504  0.29972404751E+02 -0.46241116377E+02 -0.10305747534E+02  0.56060630772E+02  0.00000000000E+00 0. -1.
         21    1    1    2  506  503 -0.36267100503E+02 -0.50120870372E+02  0.10565926207E+03  0.12243889858E+03  0.00000000000E+00 0. -1.
<scales pt_clust_3="51.68412" pt_clust_4="60.29231" pt_clust_5="55.10523" pt_clust_6="14000.00000"></scales>
<clustering>
<clus scale="   55.105">  2  5  1 -1</clus>
<clus scale="   51.684">  2  3  1 -1</clus>
<clus scale="   60.292">  2  4  1 -1</clus>
<clus scale="   60.292">  1  3  2 -1</clus>
</clustering>
</event>
<event>
 6    0  0.4390142E+002  0.1108423E+03  0.7546771E-02  0.1259018E+00
         21   -1    0    0  503  501  0.00000000000E+00  0.00000000000E+00  0.35857857888E+04  0.35857857888E+04  0.00000000000E+00 0. -1.
         21   -1    0    0  506  502 -0.00000000000E+00 -0.00000000000E+00 -0.57920812461E+02  0.57920812461E+02  0.00000000000E+00 0.  1.
         21    1    1    2  503  502  0.84359012148E+02 -0.49638770752E+02  0.32189016525E+04  0.32203894638E+04  0.00000000000E+00 0. -1.
         21    1    1    2  504  505 -0.59877303237E+02 -0.22143150078E+02  0.88014856066E+02  0.10873005760E+03  0.00000000000E+00 0.  1.
         21    1    1    2  505  501 -0.62333299311E+02 -0.12909217604E+02  0.21204750510E+03  0.22139609871E+03  0.00000000000E+00 0.  1.
         21    1    1    2  506  504  0.37851590400E+02  0.84691138434E+02  0.89009627015E+01  0.93190981119E+02  0.00000000000E+00 0.  1.
<scales pt_clust_3="97.48976" pt_clust_4="52.66611" pt_clust_5="52.66611" pt_clust_6="92.76493"></scales>
<clustering>
<clus scale="   52.666">  4  5 -1 -1</clus>
<clus scale="   92.765">  2  6  1 -1</clus>
<clus scale="   97.490">  1  3  2 -1</clus>
<clus scale="   97.490">  1  3  2 -1</clus>
</clustering>
</event>
<event>
 6    0  0.4698453E+002  0.1399522E+03  0.7546771E-02  0.1213393E+00
         21   -1    0    0  502  501  0.00000000000E+00  0.00000000000E+00  0.13563782967E+04  0.13563782967E+04  0.00000000000E+00 0.  1.
         21   -1    0    0  506  502 -0.00000000000E+00 -0.00000000000E+00 -0.23294808407E+03  0.23294808407E+03  0.00000000000E+00 0.  1.
         21    1    1    2  503  505  0.22224329021E+02  0.78426310540E+02  0.85430569289E+03  0.85818577469E+03  0.00000000000E+00 0.  1.
         21    1    1    2  504  503 -0.12452614632E+03 -0.10774686023E+03  0.30394154957E+03  0.34568282075E+03  0.00000000000E+00 0.  1.
         21    1    1    2  505  501 -0.33636356887E+02 -0.18031312223E+01  0.15010943158E+03  0.15384244290E+03  0.00000000000E+00 0.  1.
         21    1    1    2  506  504  0.13593817418E+03  0.31123680913E+02 -0.18492646142E+03  0.23161534242E+03  0.00000000000E+00 0.  1.
<scales pt_clust_3="77.16289" pt_clust_4="14000.00000" pt_clust_5="33.68465" pt_clust_6="139.95221"></scales>
<clustering>
<clus scale="   33.685">  1  5  2 -1</clus>
<clus scale="   77.163">  1  3  2 -1</clus>
<clus scale="  139.952">  2  6  1 -1</clus>
<clus scale="   33.685">  1  3  2 -1</clus>
</clustering>
</event>
<event>
 6    0  0.4390142E+002  0.1470110E+03  0.7546771E-02  0.1204195E+00
         21   -1    0    0  505  501  0.00000000000E+00  0.00000000000E+00  0.37493319521E+03  0.37493319521E+03  0.00000000000E+00 0.  1.
         21   -1    0    0  503  502 -0.00000000000E+00 -0.00000000000E+00 -0.11707547914E+03  0.11707547914E+03  0.00000000000E+00 0.  1.
         21    1    1    2  503  504 -0.34350681341E+02 -0.54279012269E+02 -0.71229773770E+01  0.64629074635E+02  0.00000000000E+00 0.  1.
         21    1    1    2  504  506 -0.11077873801E+02 -0.62900925682E+02  0.10738145752E+03  0.12494007827E+03  0.00000000000E+00 0. -1.
         21    1    1    2  505  502  0.18594550117E+02  0.18038133800E+03  0.78229849414E+02  0.19749200928E+03  0.00000000000E+00 0.  1.
         21    1    1    2  506  501  0.26834005024E+02 -0.63201400048E+02  0.79369386518E+02  0.10494751217E+03  0.00000000000E+00 0.  1.
<scales pt_clust_3="64.23535" pt_clust_4="41.17231" pt_clust_5="140.67644" pt_clust_6="41.17231"></scales>
<clustering>
<clus scale="   41.172">  4  6 -1 -1</clus>
<clus scale="   64.235">  2  3  1 -1</clus>
<clus scale="  140.676">  2  5  1 -1</clus>
<clus scale="  147.011">  1  3  2 -1</clus>
</clustering>
</event>
<event>
 6    0  0.4390142E+002  0.1133847E+03  0.7546771E-02  0.1254427E+00
         21   -1    0    0  506  501  0.00000000000E+00  0.00000000000E+00  0.26939371787E+03  0.26939371787E+03  0.00000000000E+00 0.  1.
         21   -1    0    0  505  502 -0.00000000000E+00 -0.00000000000E+00 -0.54008305163E+03  0.54008305163E+03  0.00000000000E+00 0.  1.
         21    1    1    2  503  504  0.34481468901E+02  0.10639786561E+03 -0.32032422746E+03  0.33928909237E+03  0.00000000000E+00 0.  1.
         21    1    1    2  504  502  0.38772336456E+02 -0.14928929923E+02 -0.18730593905E+03  0.19185849428E+03  0.00000000000E+00 0.  1.
         21    1    1    2  505  501  0.63778240847E+01 -0.58041485822E+02  0.77926210076E+02  0.97375484252E+02  0.00000000000E+00 0. -1.
         21    1    1    2  506  503 -0.79631629442E+02 -0.33427449869E+02  0.15901462267E+03  0.18095369860E+03  0.00000000000E+00 0.  1.
<scales pt_clust_3="14000.00000" pt_clust_4="41.54717" pt_clust_5="58.92897" pt_clust_6="113.38474"></scales>
<clustering>
<clus scale="   41.547">  2  4  1 -1</clus>
<clus scale="   58.929">  1  5  2 -1</clus>
<clus scale="  113.385">  1  6  2 -1</clus>
<clus scale="   58.929">  1  3  2 -1</clus>
</clustering>
</event>
<event>
 6    0  0.4390142E+002  0.1085917E+03  0.7546771E-02  0.1263200E+00
         21   -1    0    0  502  501  0.00000000000E+00  0.00000000000E+00  0.10100368629E+03  0.10100368629E+03  0.00000000000E+00 0.  1.
         21   -1    0    0  504  502 -0.00000000000E+00 -0.00000000000E+00 -0.17210465473E+04  0.17210465473E+04  0.00000000000E+00 0.  1.
         21    1    1    2  503  506 -0.92006774322E+02 -0.33783120705E+02 -0.18089090769E+03  0.20573785809E+03  0.00000000000E+00 0. -1.
         21    1    1    2  504  503  0.11132325160E+03 -0.34483060088E+00 -0.14498289936E+04  0.14540966598E+04  0.00000000000E+00 0.  1.
         21    1    1    2  505  501 -0.61163967971E+02 -0.28427528199E+02  0.43339619603E+02  0.80171553339E+02  0.00000000000E+00 0.  1.
         21    1    1    2  506  505  0.41847490698E+02  0.62555479505E+02 -0.32662579293E+02  0.82044162375E+02  0.00000000000E+00 0. -1.
<scales pt_clust_3="14000.00000" pt_clust_4="108.59175" pt_clust_5="67.44743" pt_clust_6="44.79876"></scales>
<clustering>
<clus scale="   67.447">  1  5  2 -1</clus>
<clus scale="   44.799">  1  6  2 -1</clus>
<clus scale="  108.592">  2  4  1 -1</clus>
<clus scale="   67.447">  1  3  2 -1</clus>
</clustering>
</event>
<event>
 6    0  0.4390142E+002  0.1465360E+03  0.7546771E-02  0.1204795E+00
         21   -1    0    0  506  501  0.00000000000E+00  0.00000000000E+00  0.10406030842E+03  0.10406030842E+03  0.00000000000E+00 0.  1.
         21   -1    0    0  504  502 -0.00000000000E+00 -0.00000000000E+00 -0.14321003192E+04  0.14321003192E+04  0.00000000000E+00 0.  1.
         21    1    1    2  503  502  0.54431740035E+02  0.53297944868E+02 -0.27605260315E+01  0.76230609039E+02  0.00000000000E+00 0.  1.
         21    1    1    2  504  505  0.10043510273E+03 -0.13248995075E+02 -0.64224930986E+03  0.65018991206E+03  0.00000000000E+00 0.  1.
         21    1    1    2  505  501 -0.18555328433E+03 -0.94542308638E+02 -0.71126315340E+03  0.74112316306E+03  0.00000000000E+00 0.  1.
         21    1    1    2  506  503  0.30686441571E+02  0.54493358845E+02  0.28232978504E+02  0.68616943459E+02  0.00000000000E+00 0.  1.
<scales pt_clust_3="34.71385" pt_clust_4="101.30521" pt_clust_5="141.43870" pt_clust_6="34.71385"></scales>
<clustering>
<clus scale="   34.714">  3  6 -1 -1</clus>
<clus scale="  101.305">  2  4  1 -1</clus>
<clus scale="  141.439">  2  5  1 -1</clus>
<clus scale="  146.536">  1  3  2 -1</clus>
</clustering>
</event>
<event>
 6    0  0.4390142E+002  0.1164144E+03  0.7546771E-02  0.1249132E+00
         21   -1    0    0  505  501  0.00000000000E+00  0.00000000000E+00  0.22397128759E+03  0.22397128759E+03  0.00000000000E+00 0. -1.
         21   -1    0    0  506  502 -0.00000000000E+00 -0.00000000000E+00 -0.23142816094E+03  0.23142816094E+03  0.00000000000E+00 0.  1.
         21    1    1    2  503  502  0.48870932222E+02 -0.24641376087E+02 -0.30037381113E+02  0.62432441053E+02  0.00000000000E+00 0.  1.
         21    1    1    2  504  501 -0.14858690108E+03 -0.38234307065E+02  0.13872165568E+03  0.20684203433E+03  0.00000000000E+00 0. -1.
         21    1    1    2  505  503  0.29571495459E+02  0.19143851738E+02  0.88048997089E+01  0.36310971647E+02  0.00000000000E+00 0.  1.
         21    1    1    2  506  504  0.70144473399E+02  0.43731831414E+02 -0.12494604763E+03  0.14981400150E+03  0.00000000000E+00 0.  1.
<scales pt_clust_3="56.21530" pt_clust_4="116.41441" pt_clust_5="35.22727" pt_clust_6="14000.00000"></scales>
<clustering>
<clus scale="   35.227">  1  5  2 -1</clus>
<clus scale="   56.215">  2  3  1 -1</clus>
<clus scale="  116.414">  1  4  2 -1</clus>
<clus scale="   35.227">  1  3  2 -1</clus>
</clustering>
</event>
<event>
 6    0  0.4390142E+002  0.1842016E+03  0.7546771E-02  0.1163798E+00
         21   -1    0    0  504  501  0.00000000000E+00  0.00000000000E+00  0.32553367329E+02  0.32553367329E+02  0.00000000000E+00 0. -1.
         21   -1    0    0  505  502 -0.00000000000E+00 -0.00000000000E+00 -0.19760982989E+04  0.19760982989E+04  0.00000000000E+00 0. -1.
         21    1    1    2  503  502  0.24025701300E+00 -0.58322671707E+02 -0.18516248810E+03  0.19413072595E+03  0.00000000000E+00 0. -1.
         21    1    1    2  504  503  0.34961483648E+02 -0.12306076282E+03 -0.22779878277E+03  0.26126335777E+03  0.00000000000E+00 0. -1.
         21    1    1    2  505  506 -0.43395464997E+02  0.13998331236E+02 -0.88833378643E+03  0.88950325226E+03  0.00000000000E+00 0. -1.
         21    1    1    2  506  501  0.81937243360E+01  0.16738510329E+03 -0.64224987426E+03  0.66375433024E+03  0.00000000000E+00 0. -1.
<scales pt_clust_3="35.13413" pt_clust_4="35.13413" pt_clust_5="45.59736" pt_clust_6="176.69911"></scales>
<clustering>
<clus scale="   35.134">  3  4 -1 -1</clus>
<clus scale="   45.597">  2  5  1 -1</clus>
<clus scale="  176.699">  2  6  1 -1</clus>
<clus scale="  184.202">  1  3  2 -1</clus>
</clustering>
</event>
<event>
 6    0  0.4390142E+002  0.9715885E+02  0.7546771E-02  0.1286387E+00
         21   -1    0    0  506  501  0.00000000000E+00  0.00000000000E+00  0.34691556906E+03  0.34691556906E+03  0.00000000000E+00 0. -1.
         21   -1    0    0  504  502 -0.00000000000E+00 -0.00000000000E+00 -0.31633672456E+03  0.31633672456E+03  0.00000000000E+00 0. -1.
         21    1    1    2  503  505 -0.11326392872E+03 -0.62839750514E+02  0.46381413081E+02  0.13758192931E+03  0.00000000000E+00 0. -1.
         21    1    1    2  504  501  0.28622343931E+02  0.11766552558E+02 -0.16756714539E+02  0.35192013488E+02  0.00000000000E+00 0. -1.
         21    1    1    2  505  502 -0.91720788780E+01  0.66672615256E+02 -0.23056555111E+03  0.24018708961E+03  0.00000000000E+00 0. -1.
         21    1    1    2  506  503  0.93813663663E+02 -0.15599417300E+02  0.23151969707E+03  0.25029126122E+03  0.00000000000E+00 0. -1.
<scales pt_clust_3="14000.00000" pt_clust_4="30.94657" pt_clust_5="77.49160" pt_clust_6="97.15885"></scales>
<clustering>
<clus scale="   30.947">  2  4  1 -1</clus>
<clus scale="   77.492">  2  5  1 -1</clus>
<clus scale="   97.159">  1  6  2 -1</clus>
<clus scale="   97.159">  1  3  2 -1</clus>
</clustering>
</event>
<event>
 6    0  0.4390142E+002  0.7547013E+02  0.7546771E-02  0.1342421E+00
         21   -1    0    0  506  501  0.00000000000E+00  0.00000000000E+00  0.11218559052E+04  0.11218559052E+04  0.00000000000E+00 0. -1.
         21   -1    0    0  504  502 -0.00000000000E+00 -0.00000000000E+00 -0.30726073886E+03  0.30726073886E+03  0.00000000000E+00 0.  1.
         21    1    1    2  503  505 -0.79454898137E+02  0.84913494891E+02  0.46790230234E+01  0.11638417293E+03  0.00000000000E+00 0.  1.
         21    1    1    2  504  501  0.64449838195E+01 -0.59931515840E+02  0.11171738861E+03  0.12694132237E+03  0.00000000000E+00 0.  1.
         21    1    1    2  505  502  0.22332157014E+02 -0.34207885339E+02 -0.24137438801E+03  0.24480706657E+03  0.00000000000E+00 0.  1.
         21    1    1    2  506  503  0.50677757304E+02  0.92259062886E+01  0.93957314269E+03  0.94098408217E+03  0.00000000000E+00 0. -1.
<scales pt_clust_3="75.47013" pt_clust_4="14000.00000" pt_clust_5="40.85223" pt_clust_6="51.68655"></scales>
<clustering>
<clus scale="   40.852">  2  5  1 -1</clus>
<clus scale="   51.687">  1  6  2 -1</clus>
<clus scale="   75.470">  2  3  1 -1</clus>
<clus scale="   51.687">  1  3  2 -1</clus>
</clustering>
</event>
<event>
 6    0  0.4390142E+002  0.1331965E+03  0.7546771E-02  0.1222788E+00
         21   -1    0    0  506  501  0.00000000000E+00  0.00000000000E+00  0.51803807108E+02  0.51803807108E+02  0.00000000000E+00 0. -1.
         21   -1    0    0  504  502 -0.00000000000E+00 -0.00000000000E+00 -0.19927151889E+04  0.19927151889E+04  0.00000000000E+00 0. -1.
         21    1    1    2  503  502  0.93189676930E+02  0.22106155402E+02 -0.11012561593E+04  0.11054131021E+04  0.00000000000E+00 0. -1.
         21    1    1    2  504  505 -0.20235214825E+02 -0.35025129151E+02 -0.14358301367E+03  0.14917206644E+03  0.00000000000E+00 0. -1.
         21    1    1    2  505  501 -0.12738222849E+03  0.67629026345E+02 -0.72159697855E+02  0.16126667149E+03  0.00000000000E+00 0. -1.
         21    1    1    2  506  503  0.54427766385E+02 -0.54710052596E+02 -0.62391251097E+03  0.62866715593E+03  0.00000000000E+00 0. -1.
<scales pt_clust_3="81.10604" pt_clust_4="40.45026" pt_clust_5="14000.00000" pt_clust_6="133.19648"></scales>
<clustering>
<clus scale="   40.450">  2  4  1 -1</clus>
<clus scale="   81.106">  2  3  1 -1</clus>
<clus scale="  133.196">  2  6  1 -1</clus>
<clus scale="  133.196">  1  3  2 -1</clus>
</clustering>
</event>
<event>
 6    0  0.4390142E+002  0.9790566E+02  0.7546771E-02  0.1284763E+00
         21   -1    0    0  504  501  0.00000000000E+00  0.00000000000E+00  0.35120364925E+03  0.35120364925E+03  0.00000000000E+00 0.  1.
         21   -1    0    0  506  502 -0.00000000000E+00 -0.00000000000E+00 -0.19717418515E+03  0.19717418515E+03  0.00000000000E+00 0.  1.
         21    1    1    2  503  502  0.27290615626E+02  0.36291269090E+02 -0.94849409838E+02  0.10515818779E+03  0.00000000000E+00 0.  1.
         21    1    1    2  504  505  0.40636325093E+01 -0.73786261802E+02  0.21263165896E+03  0.22510696998E+03  0.00000000000E+00 0.  1.
         21    1    1    2  505  503  0.69455632383E+02  0.38475799628E+02 -0.42618050963E+02  0.90115316649E+02  0.00000000000E+00 0.  1.
         21    1    1    2  506  501 -0.10080988052E+03 -0.98080691606E+00  0.78865265939E+02  0.12799735999E+03  0.00000000000E+00 0.  1.
<scales pt_clust_3="45.40742" pt_clust_4="71.69287" pt_clust_5="14000.00000" pt_clust_6="97.90566"></scales>
<clustering>
<clus scale="   45.407">  2  3  1 -1</clus>
<clus scale="   71.693">  1  4  2 -1</clus>
<clus scale="   97.906">  1  6  2 -1</clus>
<clus scale="   71.693">  1  3  2 -1</clus>
</clustering>
</event>
<event>
 6    0  0.4390142E+002  0.9861772E+02  0.7546771E-02  0.1283230E+00
         21   -1    0    0  504  501  0.00000000000E+00  0.00000000000E+00  0.90665955985E+02  0.90665955985E+02  0.00000000000E+00 0. -1.
         21   -1    0    0  505  502 -0.00000000000E+00 -0.00000000000E+00 -0.50520986725E+03  0.50520986725E+03  0.00000000000E+00 0. -1.
         21    1    1    2  503  502  0.24991101372E+02  0.25473467283E+02 -0.24599450900E+03  0.24856940910E+03  0.00000000000E+00 0. -1.
         21    1    1    2  504  506 -0.27475157855E+02  0.43390934545E+02 -0.30722488019E+01  0.51449938897E+02  0.00000000000E+00 0. -1.
         21    1    1    2  505  501  0.49714696115E+01 -0.14258237435E+03 -0.36477880396E+02  0.14725856425E+03  0.00000000000E+00 0. -1.
         21    1    1    2  506  503 -0.24874131286E+01  0.73717972527E+02 -0.12899927306E+03  0.14859791098E+03  0.00000000000E+00 0. -1.
<scales pt_clust_3="35.68547" pt_clust_4="52.34870" pt_clust_5="14000.00000" pt_clust_6="98.61772"></scales>
<clustering>
<clus scale="   35.685">  2  3  1 -1</clus>
<clus scale="   52.349">  1  4  2 -1</clus>
<clus scale="   98.618">  2  6  1 -1</clus>
<clus scale="   52.349">  1  3  2 -1</clus>
</clustering>
</event>
<event>
 6    0  0.4390142E+002  0.7091527E+02  0.7546771E-02  0.1357008E+00
         21   -1    0    0  505  501  0.00000000000E+00  0.00000000000E+00  0.29767772920E+03  0.29767772920E+03  0.00000000000E+00 0.  1.
         21   -1    0    0  506  502 -0.00000000000E+00 -0.00000000000E+00 -0.16859755820E+03  0.16859755820E+03  0.00000000000E+00 0.  1.
         21    1    1    2  503  501 -0.98203214702E+01 -0.59892223619E+02  0.75126583319E+02  0.96579090310E+02  0.00000000000E+00 0.  1.
         21    1    1    2  504  502 -0.68123517058E+02  0.78820920980E+02  0.11248669928E+03  0.15331930301E+03  0.00000000000E+00 0.  1.
         21    1    1    2  505  504  0.49382431845E+02  0.17488616473E+02  0.65568165848E+02  0.83926519371E+02  0.00000000000E+00 0.  1.
         21    1    1    2  506  503  0.28561406683E+02 -0.36417313834E+02 -0.12410127744E+03  0.13245037471E+03  0.00000000000E+00 0.  1.
<scales pt_clust_3="70.91527" pt_clust_4="14000.00000" pt_clust_5="56.63632" pt_clust_6="46.28147"></scales>
<clustering>
<clus scale="   46.281">  2  6  1 -1</clus>
<clus scale="   56.636">  1  5  2 -1</clus>
<clus scale="   70.915">  1  3  2 -1</clus>
<clus scale="   56.636">  1  3  2 -1</clus>
</clustering>
</event>
<event>
 6    0  0.4390142E+002  0.1236076E+03  0.7546771E-02  0.1237262E+00
         21   -1    0    0  502  501  0.00000000000E+00  0.00000000000E+00  0.56685823507E+03  0.56685823507E+03  0.00000000000E+00 0.  1.
         21   -1    0    0  505  502 -0.00000000000E+00 -0.00000000000E+00 -0.91135473319E+02  0.91135473319E+02  0.00000000000E+00 0.  1.
         21    1    1    2  503  504 -0.82541893470E+02  0.54359805729E+02  0.13626594629E+02  0.99768916692E+02  0.00000000000E+00 0.  1.
         21    1    1    2  504  506  0.59254110035E+02  0.87518345151E+00  0.33327774388E+03  0.33850534717E+03  0.00000000000E+00 0.  1.
         21    1    1    2  505  503 -0.28480860612E+02 -0.25797276190E+02 -0.30867833205E+02  0.49289775885E+02  0.00000000000E+00 0.  1.
         21    1    1    2  506  501  0.51768644048E+02 -0.29437712991E+02  0.15968625645E+03  0.17042966864E+03  0.00000000000E+00 0.  1.
<scales pt_clust_3="111.44223" pt_clust_4="53.19020" pt_clust_5="38.42732" pt_clust_6="53.19020"></scales>
<clustering>
<clus scale="   38.427">  2  5  1 -1</clus>
<clus scale="   53.190">  4  6 -1 -1</clus>
<clus scale="  111.442">  2  3  1 -1</clus>
<clus scale="  123.608">  1  3  2 -1</clus>
</clustering>
</event>
<event>
 6    0  0.4390142E+002  0.1387983E+03  0.7546771E-02  0.1214955E+00
         21   -1    0    0  504  501  0.00000000000E+00  0.00000000000E+00  0.72213445361E+02  0.72213445361E+02  0.00000000000E+00 0. -1.
         21   -1    0    0  506  502 -0.00000000000E+00 -0.00000000000E+00 -0.15060585354E+04  0.15060585354E+04  0.00000000000E+00 0. -1.
         21    1    1    2  503  502 -0.11650258257E+03 -0.11117748109E+03 -0.18367756664E+03  0.24427593523E+03  0.00000000000E+00 0. -1.
         21    1    1    2  504  503  0.31358475935E+02  0.13127433649E+03 -0.86678766443E+02  0.16040422060E+03  0.00000000000E+00 0. -1.
         21    1    1    2  505  501  0.79775761021E+02  0.31242807061E+02 -0.43998162194E+03  0.44824559416E+03  0.00000000000E+00 0. -1.
         21    1    1    2  506  505  0.53683456147E+01 -0.51339662456E+02 -0.72350713506E+03  0.72534623082E+03  0.00000000000E+00 0. -1.
<scales pt_clust_3="138.79826" pt_clust_4="14000.00000" pt_clust_5="82.85191" pt_clust_6="51.61957"></scales>
<clustering>
<clus scale="   51.620">  2  6  1 -1</clus>
<clus scale="   82.852">  2  5  1 -1</clus>
<clus scale="  138.798">  2  3  1 -1</clus>
<clus scale="  138.798">  1  3  2 -1</clus>
</clustering>
</event>
<event>
 6    0  0.4390142E+002  0.9076827E+02  0.7546771E-02  0.1301002E+00
         21   -1    0    0  505  501  0.00000000000E+00  0.00000000000E+00  0.43110810374E+02  0.43110810374E+02  0.00000000000E+00 0.  1.
         21   -1    0    0  504  502 -0.00000000000E+00 -0.00000000000E+00 -0.84773337317E+03  0.84773337317E+03  0.00000000000E+00 0.  1.
         21    1    1    2  503  502  0.50218633367E+02 -0.45195850238E+02 -0.41471454762E+03  0.42018178449E+03  0.00000000000E+00 0.  1.
         21    1    1    2  504  501  0.45319178543E+02  0.11651474269E+03 -0.21336632924E+03  0.24729477080E+03  0.00000000000E+00 0.  1.
         21    1    1    2  505  506 -0.55763469331E+02 -0.15918903268E+02 -0.39116816099E+02  0.69950706178E+02  0.00000000000E+00 0.  1.
         21    1    1    2  506  503 -0.39774342579E+02 -0.55399989185E+02 -0.13742486983E+03  0.15341692207E+03  0.00000000000E+00 0. -1.
<scales pt_clust_3="64.70347" pt_clust_4="90.76827" pt_clust_5="57.99117" pt_clust_6="14000.00000"></scales>
<clustering>
<clus scale="   57.991">  1  5  2 -1</clus>
<clus scale="   64.703">  2  3  1 -1</clus>
<clus scale="   90.768">  1  4  2 -1</clus>
<clus scale="   57.991">  1  3  2 -1</clus>
</clustering>
</event>
<event>
 6    0  0.4390142E+002  0.7176717E+02  0.7546771E-02  0.1354185E+00
         21   -1    0    0  506  501  0.00000000000E+00  0.00000000000E+00  0.28828149486E+04  0.28828149486E+04  0.00000000000E+00 0. -1.
         21   -1    0    0  504  502 -0.00000000000E+00 -0.00000000000E+00 -0.97361434994E+02  0.97361434994E+02  0.00000000000E+00 0. -1.
         21    1    1    2  503  501 -0.23046337441E+02  0.33190521064E+02  0.15740561526E+04  0.15745747095E+04  0.00000000000E+00 0. -1.
         21    1    1    2  504  505  0.10950880028E+03 -0.57765551786E+02  0.10576644144E+03  0.16283604161E+03  0.00000000000E+00 0. -1.
         21    1    1    2  505  503 -0.45306913043E+02 -0.86257493274E+01  0.11634783956E+04  0.11643921577E+04  0.00000000000E+00 0. -1.
         21    1    1    2  506  502 -0.41155549796E+02  0.33200780049E+02 -0.57847475975E+02  0.78373474796E+02  0.00000000000E+00 0. -1.
<scales pt_clust_3="40.40723" pt_clust_4="71.76717" pt_clust_5="14000.00000" pt_clust_6="53.18210"></scales>
<clustering>
<clus scale="   40.407">  1  3  2 -1</clus>
<clus scale="   53.182">  2  6  1 -1</clus>
<clus scale="   71.767">  2  4  1 -1</clus>
<clus scale="   40.407">  1  3  2 -1</clus>
</clustering>
</event>
<event>
 6    0  0.4390142E+002  0.7461350E+02  0.7546771E-02  0.1345072E+00
         21   -1    0    0  506  501  0.00000000000E+00  0.00000000000E+00  0.89049963141E+02  0.89049963141E+02  0.00000000000E+00 0. -1.
         21   -1    0    0  503  502 -0.00000000000E+00 -0.00000000000E+00 -0.37626466913E+03  0.37626466913E+03  0.00000000000E+00 0. -1.
         21    1    1    2  503  504 -0.33118401459E+02 -0.34076286002E+02 -0.16909735399E+03  0.17564719442E+03  0.00000000000E+00 0. -1.
         21    1    1    2  504  501 -0.36884288749E+02 -0.70499681584E+01  0.39687595178E+02  0.54637514755E+02  0.00000000000E+00 0. -1.
         21    1    1    2  505  502  0.10363328741E+03  0.72182255195E+02 -0.13108425481E+03  0.18202532265E+03  0.00000000000E+00 0. -1.
         21    1    1    2  506  505 -0.33630597201E+02 -0.31056001034E+02 -0.26720692367E+02  0.53004600451E+02  0.00000000000E+00 0. -1.
<scales pt_clust_3="49.95215" pt_clust_4="37.55200" pt_clust_5="74.61350" pt_clust_6="14000.00000"></scales>
<clustering>
<clus scale="   37.552">  1  4  2 -1</clus>
<clus scale="   49.952">  2  3  1 -1</clus>
<clus scale="   74.613">  2  5  1 -1</clus>
<clus scale="   37.552">  1  3  2 -1</clus>
</clustering>
</event>
<event>
 6    0  0.4390142E+002  0.9154362E+02  0.7546771E-02  0.1299156E+00
         21   -1    0    0  503  501  0.00000000000E+00  0.00000000000E+00  0.31301903032E+03  0.31301903032E+03  0.00000000000E+00 0.  1.
         21   -1    0    0  506  502 -0.00000000000E+00 -0.00000000000E+00 -0.32566874777E+03  0.32566874777E+03  0.00000000000E+00 0. -1.
         21    1    1    2  503  504 -0.31960751132E+02  0.26055649188E+02  0.16521555657E+03  0.17028378255E+03  0.00000000000E+00 0.  1.
         21    1    1    2  504  505 -0.47489899367E+02  0.10023821072E+00  0.11221044497E+03  0.12184615115E+03  0.00000000000E+00 0.  1.
         21    1    1    2  505  502 -0.20711399648E+02 -0.61326188252E+02 -0.43187205356E+02  0.77813868606E+02  0.00000000000E+00 0. -1.
         21    1    1    2  506  501  0.10016205015E+03  0.35170300854E+02 -0.24688851364E+03  0.26874397578E+03  0.00000000000E+00 0. -1.
<scales pt_clust_3="34.59299" pt_clust_4="34.59299" pt_clust_5="64.72915" pt_clust_6="83.67830"></scales>
<clustering>
<clus scale="   34.593">  3  4 -1 -1</clus>
<clus scale="   64.729">  2  5  1 -1</clus>
<clus scale="   83.678">  2  6  1 -1</clus>
<clus scale="   91.544">  1  3  2 -1</clus>
</clustering>
</event>
<event>
 6    0  0.4390142E+002  0.7972045E+02  0.7546771E-02  0.1329847E+00
         21   -1    0    0  506  501  0.00000000000E+00  0.00000000000E+00  0.23493243246E+03  0.23493243246E+03  0.00000000000E+00 0.  1.
         21   -1    0    0  505  502 -0.00000000000E+00 -0.00000000000E+00 -0.54653749401E+03  0.54653749401E+03  0.00000000000E+00 0.  1.
         21    1    1    2  503  501  0.53010828298E+02  0.98070611280E+01  0.99260772093E+02  0.11295586413E+03  0.00000000000E+00 0.  1.
         21    1    1    2  504  502 -0.85855858089E+02 -0.55107526409E+02 -0.27954150224E+03  0.29757607315E+03  0.00000000000E+00 0.  1.
         21    1    1    2  505  503  0.40236001791E+02 -0.12865077654E+02 -0.24201668759E+03  0.24567564620E+03  0.00000000000E+00 0.  1.
         21    1    1    2  506  504 -0.73909720003E+01  0.58165542935E+02  0.11069235619E+03  0.12526234299E+03  0.00000000000E+00 0.  1.
<scales pt_clust_3="54.75431" pt_clust_4="79.72045" pt_clust_5="42.24270" pt_clust_6="14000.00000"></scales>
<clustering>
<clus scale="   42.243">  2  5  1 -1</clus>
<clus scale="   54.754">  1  3  2 -1</clus>
<clus scale="   79.720">  2  4  1 -1</clus>
<clus scale="   54.754">  1  3  2 -1</clus>
</clustering>
</event>
<event>
 6    0  0.4390142E+002  0.6079218E+02  0.7546771E-02  0.1394537E+00
         21   -1    0    0  506  501  0.00000000000E+00  0.00000000000E+00  0.32239899328E+03  0.32239899328E+03  0.00000000000E+00 0.  1.
         21   -1    0    0  504  502 -0.00000000000E+00 -0.00000000000E+00 -0.34799179257E+03  0.34799179257E+03  0.00000000000E+00 0.  1.
         21    1    1    2  503  502  0.20439352615E+02 -0.30183328036E+02 -0.22645838220E+03  0.22937349301E+03  0.00000000000E+00 0.  1.
         21    1    1    2  504  501  0.60231550595E+01  0.79939984925E+02 -0.85248393473E+02  0.11702122960E+03  0.00000000000E+00 0.  1.
         21    1    1    2  505  503 -0.81339782411E+02 -0.51698237637E+02  0.16656331401E+03  0.19243753676E+03  0.00000000000E+00 0.  1.
         21    1    1    2  506  505  0.54877274737E+02  0.19415807479E+01  0.11955066237E+03  0.13155852648E+03  0.00000000000E+00 0.  1.
<scales pt_clust_3="36.45271" pt_clust_4="14000.00000" pt_clust_5="60.79218" pt_clust_6="55.90094"></scales>
<clustering>
<clus scale="   36.453">  2  3  1 -1</clus>
<clus scale="   55.901">  1  6  2 -1</clus>
<clus scale="   60.792">  1  5  2 -1</clus>
<clus scale="   55.901">  1  3  2 -1</clus>
</clustering>
</event>
<event>
 6    0  0.4390142E+002  0.1399887E+03  0.7546771E-02  0.1213344E+00
         21   -1    0    0  506  501  0.00000000000E+00  0.00000000000E+00  0.47786881601E+03  0.47786881601E+03  0.00000000000E+00 0.  1.
         21   -1    0    0  505  502 -0.00000000000E+00 -0.00000000000E+00 -0.23570374419E+03  0.23570374419E+03  0.00000000000E+00 0.  1.
         21    1    1    2  503  501 -0.46792914835E+02  0.93306210459E+02  0.97474721749E+02  0.14281788113E+03  0.00000000000E+00 0.  1.
         21    1    1    2  504  502 -0.84506038227E+01 -0.11064378403E+03  0.24431692084E+03  0.26833601595E+03  0.00000000000E+00 0.  1.
         21    1    1    2  505  503  0.27982090977E+02  0.61817803267E+02 -0.18795799545E+03  0.19983154473E+03  0.00000000000E+00 0.  1.
         21    1    1    2  506  504  0.27261427681E+02 -0.44480229701E+02  0.88331424679E+02  0.10258711839E+03  0.00000000000E+00 0.  1.
<scales pt_clust_3="130.70994" pt_clust_4="34.36384" pt_clust_5="67.85601" pt_clust_6="34.36384"></scales>
<clustering>
<clus scale="   34.364">  4  6 -1 -1</clus>
<clus scale="   67.856">  2  5  1 -1</clus>
<clus scale="  130.710">  2  3  1 -1</clus>
<clus scale="  139.989">  1  3  2 -1</clus>
</clustering>
</event>
<event>
 6    0  0.4390142E+002  0.9048421E+02  0.7546771E-02  0.1301683E+00
         21   -1    0    0  505  501  0.00000000000E+00  0.00000000000E+00  0.18984394994E+04  0.18984394994E+04  0.00000000000E+00 0. -1.
         21   -1    0    0  503  502 -0.00000000000E+00 -0.00000000000E+00 -0.11531031909E+03  0.11531031909E+03  0.00000000000E+00 0. -1.
         21    1    1    2  503  504  0.68570961022E+02 -0.11866201407E+03  0.16897521017E+04  0.16953008039E+04  0.00000000000E+00 0. -1.
         21    1    1    2  504  501 -0.42664165339E+02  0.30958903153E+02  0.16213766386E+03  0.17049136849E+03  0.00000000000E+00 0. -1.
         21    1    1    2  505  506 -0.52036827714E+02  0.60212440880E+02 -0.13175701579E+02  0.80665783250E+02  0.00000000000E+00 0. -1.
         21    1    1    2  506  502  0.26130032031E+02  0.27490670033E+02 -0.55584883702E+02  0.67291862874E+02  0.00000000000E+00 0. -1.
<scales pt_clust_3="90.48421" pt_clust_4="52.40645" pt_clust_5="14000.00000" pt_clust_6="37.92777"></scales>
<clustering>
<clus scale="   37.928">  2  6  1 -1</clus>
<clus scale="   52.406">  1  4  2 -1</clus>
<clus scale="   90.484">  1  3  2 -1</clus>
<clus scale="   52.406">  1  3  2 -1</clus>
</clustering>
</event>
<event>
 6    0  0.4390142E+002  0.1356671E+03  0.7546771E-02  0.1219281E+00
         21   -1    0    0  505  501  0.00000000000E+00  0.00000000000E+00  0.11244368428E+03  0.11244368428E+03  0.00000000000E+00 0.  1.
         21   -1    0    0  503  502 -0.00000000000E+00 -0.00000000000E+00 -0.24434104787E+03  0.24434104787E+03  0.00000000000E+00 0.  1.
         21    1    1    2  503  501  0.44730100462E+02  0.13793167289E+03 -0.48135621878E+02  0.15278405141E+03  0.00000000000E+00 0.  1.
         21    1    1    2  504  506 -0.25510709716E+02 -0.72325402546E+02 -0.25847849917E+02  0.80931276458E+02  0.00000000000E+00 0.  1.
         21    1    1    2  505  504 -0.37593284009E+02 -0.26489576437E+02  0.55137612239E+01  0.46317968708E+02  0.00000000000E+00 0.  1.
         21    1    1    2  506  502  0.18373893263E+02 -0.39116693903E+02 -0.63427653018E+02  0.76751435575E+02  0.00000000000E+00 0.  1.
<scales pt_clust_3="127.95778" pt_clust_4="34.91009" pt_clust_5="34.91009" pt_clust_6="43.21708"></scales>
<clustering>
<clus scale="   34.910">  4  5 -1 -1</clus>
<clus scale="   43.217">  2  6  1 -1</clus>
<clus scale="  127.958">  2  3  1 -1</clus>
<clus scale="  135.667">  1  3  2 -1</clus>
</clustering>
</event>
<event>
 6    0  0.4390142E+002  0.6961910E+02  0.7546771E-02  0.1361393E+00
         21   -1    0    0  504  501  0.00000000000E+00  0.00000000000E+00  0.16245624273E+04  0.16245624273E+04  0.00000000000E+00 0. -1.
         21   -1    0    0  503  502 -0.00000000000E+00 -0.00000000000E+00 -0.41422324282E+02  0.41422324282E+02  0.00000000000E+00 0. -1.
         21    1    1    2  503  505 -0.10298873593E+02  0.54972701663E+02  0.87048950470E+02  0.10346779452E+03  0.00000000000E+00 0. -1.
         21    1    1    2  504  502  0.66641262094E+02 -0.10999478376E+03  0.99664872086E+02  0.16270524575E+03  0.00000000000E+00 0. -1.
         21    1    1    2  505  506 -0.37734745358E+02  0.18555474066E+02  0.33970513679E+03  0.34229781855E+03  0.00000000000E+00 0. -1.
         21    1    1    2  506  501 -0.18607643143E+02  0.36466608030E+02  0.10567211437E+04  0.10575138928E+04  0.00000000000E+00 0. -1.
<scales pt_clust_3="62.55155" pt_clust_4="14000.00000" pt_clust_5="69.61910" pt_clust_6="40.93969"></scales>
<clustering>
<clus scale="   40.940">  1  6  2 -1</clus>
<clus scale="   62.552">  2  3  1 -1</clus>
<clus scale="   69.619">  1  5  2 -1</clus>
<clus scale="   40.940">  1  3  2 -1</clus>
</clustering>
</event>
<event>
 6    0  0.4390142E+002  0.7761702E+02  0.7546771E-02  0.1335953E+00
         21   -1    0    0  505  501  0.00000000000E+00  0.00000000000E+00  0.31339451269E+02  0.31339451269E+02  0.00000000000E+00 0. -1.
         21   -1    0    0  503  502 -0.00000000000E+00 -0.00000000000E+00 -0.86311339425E+03  0.86311339425E+03  0.00000000000E+00 0. -1.
         21    1    1    2  503  501  0.11014751271E+03  0.37173816264E+02 -0.28086555014E+03  0.30397339427E+03  0.00000000000E+00 0. -1.
         21    1    1    2  504  506 -0.51154220958E+02 -0.16272489567E+02 -0.49775420304E+02  0.73206152098E+02  0.00000000000E+00 0. -1.
         21    1    1    2  505  504  0.10699434267E+02 -0.33664380725E+02 -0.53773061143E+02  0.64337473745E+02  0.00000000000E+00 0.  1.
         21    1    1    2  506  502 -0.69692726019E+02  0.12763054028E+02 -0.44735991140E+03  0.45293582540E+03  0.00000000000E+00 0. -1.
<scales pt_clust_3="77.61702" pt_clust_4="55.98399" pt_clust_5="35.32377" pt_clust_6="14000.00000"></scales>
<clustering>
<clus scale="   35.324">  1  5  2 -1</clus>
<clus scale="   55.984">  1  4  2 -1</clus>
<clus scale="   77.617">  1  3  2 -1</clus>
<clus scale="   35.324">  1  3  2 -1</clus>
</clustering>
</event>
<event>
 6    0  0.4390142E+002  0.1658998E+03  0.7546771E-02  0.1182192E+00
         21   -1    0    0  506  501  0.00000000000E+00  0.00000000000E+00  0.13823475094E+04  0.13823475094E+04  0.00000000000E+00 0. -1.
         21   -1    0    0  505  502 -0.00000000000E+00 -0.00000000000E+00 -0.21391269727E+03  0.21391269727E+03  0.00000000000E+00 0. -1.
         21    1    1    2  503  501 -0.32836368092E+02  0.65558434863E+02  0.52822960642E+03  0.53329415200E+03  0.00000000000E+00 0. -1.
         21    1    1    2  504  503 -0.77105805200E+02  0.77245940568E+02  0.22803200481E+03  0.25280592506E+03  0.00000000000E+00 0. -1.
         21    1    1    2  505  504  0.19926872548E+03  0.14324588451E+01  0.55417746416E+03  0.58891658040E+03  0.00000000000E+00 0. -1.
         21    1    1    2  506  502 -0.89326552187E+02 -0.14423683428E+03 -0.14200426326E+03  0.22124354922E+03  0.00000000000E+00 0. -1.
<scales pt_clust_3="73.32213" pt_clust_4="128.95632" pt_clust_5="165.89980" pt_clust_6="14000.00000"></scales>
<clustering>
<clus scale="   73.322">  1  3  2 -1</clus>
<clus scale="  128.956">  1  4  2 -1</clus>
<clus scale="  165.900">  1  5  2 -1</clus>
<clus scale="   73.322">  1  3  2 -1</clus>
</clustering>
</event>
<event>
 6    0  0.4390142E+002  0.1265118E+03  0.7546771E-02  0.1232725E+00
         21   -1    0    0  505  501  0.00000000000E+00  0.00000000000E+00  0.27978610069E+03  0.27978610069E+03  0.00000000000E+00 0. -1.
         21   -1    0    0  506  502 -0.00000000000E+00 -0.00000000000E+00 -0.37838225614E+03  0.37838225614E+03  0.00000000000E+00 0. -1.
         21    1    1    2  503  502  0.18604924415E+02 -0.34281050238E+02 -0.82408958676E+02  0.91173297011E+02  0.00000000000E+00 0. -1.
         21    1    1    2  504  501  0.11991080326E+03  0.59221817077E+02  0.12859078844E+03  0.18553009251E+03  0.00000000000E+00 0. -1.
         21    1    1    2  505  503 -0.60228254235E+02 -0.11707033021E+03  0.59197812359E+02  0.14435125843E+03  0.00000000000E+00 0. -1.
         21    1    1    2  506  504 -0.78287473437E+02  0.92129563365E+02 -0.20397579757E+03  0.23711370888E+03  0.00000000000E+00 0. -1.
<scales pt_clust_3="39.00428" pt_clust_4="14000.00000" pt_clust_5="126.51181" pt_clust_6="92.22927"></scales>
<clustering>
<clus scale="   39.004">  2  3  1 -1</clus>
<clus scale="   92.229">  2  6  1 -1</clus>
<clus scale="  126.512">  2  5  1 -1</clus>
<clus scale="  126.512">  1  3  2 -1</clus>
</clustering>
</event>
<event>
 6    0  0.4390142E+002  0.2260812E+03  0.7546771E-02  0.1129429E+00
         21   -1    0    0  502  501  0.00000000000E+00  0.00000000000E+00  0.21081744895E+04  0.21081744895E+04  0.00000000000E+00 0.  1.
         21   -1    0    0  504  502 -0.00000000000E+00 -0.00000000000E+00 -0.11897889697E+03  0.11897889697E+03  0.00000000000E+00 0. -1.
         21    1    1    2  503  506 -0.23759076175E+03  0.65977208183E+02  0.15806355578E+04  0.15997534587E+04  0.00000000000E+00 0.  1.
         21    1    1    2  504  505  0.11916632965E+03 -0.12369840617E+03 -0.49692371445E+01  0.17183306762E+03  0.00000000000E+00 0. -1.
         21    1    1    2  505  503  0.48506598140E+02  0.57290449621E+01  0.20459003095E+02  0.52955479669E+02  0.00000000000E+00 0.  1.
         21    1    1    2  506  501  0.69917833956E+02  0.51992153026E+02  0.39307026876E+03  0.40261138044E+03  0.00000000000E+00 0.  1.
<scales pt_clust_3="207.01144" pt_clust_4="48.46242" pt_clust_5="48.46242" pt_clust_6="87.13029"></scales>
<clustering>
<clus scale="   48.462">  4  5 -1 -1</clus>
<clus scale="   87.130">  1  6  2 -1</clus>
<clus scale="  207.011">  1  3  2 -1</clus>
<clus scale="   87.130">  1  3  2 -1</clus>
</clustering>
</event>
<event>
 6    0  0.4390142E+002  0.7009915E+02  0.7546771E-02  0.1359756E+00
         21   -1    0    0  504  501  0.00000000000E+00  0.00000000000E+00  0.14720067966E+03  0.14720067966E+03  0.00000000000E+00 0. -1.
         21   -1    0    0  503  502 -0.00000000000E+00 -0.00000000000E+00 -0.24831010675E+03  0.24831010675E+03  0.00000000000E+00 0. -1.
         21    1    1    2  503  501  0.26868570320E+02  0.16260103665E+02 -0.13431467921E+03  0.13793746443E+03  0.00000000000E+00 0. -1.
         21    1    1    2  504  505  0.58878126992E+02 -0.32482626334E+02  0.62980369174E+02  0.92131871538E+02  0.00000000000E+00 0. -1.
         21    1    1    2  505  506 -0.45950084644E+02  0.77249479588E+02 -0.16723766045E+02  0.91425252125E+02  0.00000000000E+00 0. -1.
         21    1    1    2  506  502 -0.39796612669E+02 -0.61026956919E+02 -0.13051351010E+02  0.74016198321E+02  0.00000000000E+00 0. -1.
<scales pt_clust_3="31.40559" pt_clust_4="14000.00000" pt_clust_5="70.09915" pt_clust_6="62.10124"></scales>
<clustering>
<clus scale="   31.406">  2  3  1 -1</clus>
<clus scale="   62.101">  2  6  1 -1</clus>
<clus scale="   70.099">  2  5  1 -1</clus>
<clus scale="   70.099">  1  3  2 -1</clus>
</clustering>
</event>
<event>
 6    0  0.4390142E+002  0.1074933E+03  0.7546771E-02  0.1265284E+00
         21   -1    0    0  503  501  0.00000000000E+00  0.00000000000E+00  0.18068828434E+03  0.18068828434E+03  0.00000000000E+00 0. -1.
         21   -1    0    0  504  502 -0.00000000000E+00 -0.00000000000E+00 -0.29930531580E+03  0.29930531580E+03  0.00000000000E+00 0. -1.
         21    1    1    2  503  505 -0.32693027264E+02 -0.33690751129E+02  0.82382345366E+02  0.94819573778E+02  0.00000000000E+00 0. -1.
         21    1    1    2  504  506 -0.76815086151E+01 -0.74094777043E+02 -0.50260442619E+02  0.89861858717E+02  0.00000000000E+00 0. -1.
         21    1    1    2  505  502  0.34693355966E+02  0.15163724950E+03 -0.18329268564E+03  0.24040318841E+03  0.00000000000E+00 0. -1.
         21    1    1    2  506  501  0.56811799124E+01 -0.43851721331E+02  0.32553751429E+02  0.54908979238E+02  0.00000000000E+00 0. -1.
<scales pt_clust_3="68.50852" pt_clust_4="107.49326" pt_clust_5="14000.00000" pt_clust_6="44.21820"></scales>
<clustering>
<clus scale="   44.218">  1  6  2 -1</clus>
<clus scale="   68.509">  1  3  2 -1</clus>
<clus scale="  107.493">  2  4  1 -1</clus>
<clus scale="   44.218">  1  3  2 -1</clus>
</clustering>
</event>
<event>
 6    0  0.4390142E+002  0.1406326E+03  0.7546771E-02  0.1212480E+00
         21   -1    0    0  505  501  0.00000000000E+00  0.00000000000E+00  0.99747909816E+03  0.99747909816E+03  0.00000000000E+00 0. -1.
         21   -1    0    0  504  502 -0.00000000000E+00 -0.00000000000E+00 -0.21114354896E+02  0.21114354896E+02  0.00000000000E+00 0. -1.
         21    1    1    2  503  501 -0.89676154132E+02 -0.33197479392E+02  0.28175397287E+03  0.29753854621E+03  0.00000000000E+00 0. -1.
         21    1    1    2  504  503 -0.39615042956E+02  0.73731965342E+01  0.62865058510E+02  0.74670819179E+02  0.00000000000E+00 0. -1.
         21    1    1    2  505  506  0.63583972855E+02  0.22797838048E+02  0.24764010699E+03  0.25668713567E+03  0.00000000000E+00 0. -1.
         21    1    1    2  506  502  0.65707224234E+02  0.30264448098E+01  0.38410560489E+03  0.38969695199E+03  0.00000000000E+00 0. -1.
<scales pt_clust_3="31.76477" pt_clust_4="31.76477" pt_clust_5="136.78357" pt_clust_6="35.94249"></scales>
<clustering>
<clus scale="   31.765">  3  4 -1 -1</clus>
<clus scale="   35.942">  5  6 -1 -1</clus>
<clus scale="  136.784">  1  5  2 -1</clus>
<clus scale="  136.784">  1  3  2 -1</clus>
</clustering>
</event>
<event>
 6    0  0.4390142E+002  0.1839296E+03  0.7546771E-02  0.1164053E+00
         21   -1    0    0  505  501  0.00000000000E+00  0.00000000000E+00  0.13669449233E+04  0.13669449233E+04  0.00000000000E+00 0.  1.
         21   -1    0    0  504  502 -0.00000000000E+00 -0.00000000000E+00 -0.70497362586E+03  0.70497362586E+03  0.00000000000E+00 0.  1.
         21    1    1    2  503  501 -0.12321750235E+03 -0.76071947320E+02  0.10611128702E+04  0.10709481861E+04  0.00000000000E+00 0.  1.
         21    1    1    2  504  503  0.14829222605E+03  0.51406268942E+02 -0.22604336411E+03  0.27518864666E+03  0.00000000000E+00 0.  1.
         21    1    1    2  505  506 -0.61639892138E+02  0.13620415679E+03  0.24747935304E+03  0.28913159428E+03  0.00000000000E+00 0. -1.
         21    1    1    2  506  502  0.36565168429E+02 -0.11153847842E+03 -0.42057756170E+03  0.43665012209E+03  0.00000000000E+00 0.  1.
<scales pt_clust_3="183.92958" pt_clust_4="14000.00000" pt_clust_5="140.71210" pt_clust_6="117.37906"></scales>
<clustering>
<clus scale="  117.379">  2  6  1 -1</clus>
<clus scale="  140.712">  1  5  2 -1</clus>
<clus scale="  183.930">  1  3  2 -1</clus>
<clus scale="  140.712">  1  3  2 -1</clus>
</clustering>
</event>
<event>
 6    0  0.4390142E+002  0.1664752E+03  0.7546771E-02  0.1181574E+00
         21   -1    0    0  505  501  0.00000000000E+00  0.00000000000E+00  0.13655905340E+04  0.13655905340E+04  0.00000000000E+00 0.  1.
         21   -1    0    0  503  502 -0.00000000000E+00 -0.00000000000E+00 -0.56729530412E+02  0.56729530412E+02  0.00000000000E+00 0.  1.
         21    1    1    2  503  504 -0.13626353393E+03  0.31650050004E+02  0.59689603033E+03  0.61306961054E+03  0.00000000000E+00 0.  1.
         21    1    1    2  504  501 -0.50286149238E+02 -0.45521871523E+02  0.50088771396E+03  0.50545963201E+03  0.00000000000E+00 0.  1.
         21    1    1    2  505  506  0.16490264900E+03  0.53183734301E+02  0.16061351838E+03  0.23625853535E+03  0.00000000000E+00 0.  1.
         21    1    1    2  506  502  0.21647034169E+02 -0.39311912781E+02  0.50463740923E+02  0.67532286521E+02  0.00000000000E+00 0.  1.
<scales pt_clust_3="166.47517" pt_clust_4="68.35179" pt_clust_5="14000.00000" pt_clust_6="44.87784"></scales>
<clustering>
<clus scale="   44.878">  2  6  1 -1</clus>
<clus scale="   68.352">  1  4  2 -1</clus>
<clus scale="  166.475">  1  3  2 -1</clus>
<clus scale="   68.352">  1  3  2 -1</clus>
</clustering>
</event>
<event>
 6    0  0.4390142E+002  0.2091301E+03  0.7546771E-02  0.1142257E+00
         21   -1    0    0  505  501  0.00000000000E+00  0.00000000000E+00  0.12880694313E+03  0.12880694313E+03  0.00000000000E+00 0. -1.
         21   -1    0    0  503  502 -0.00000000000E+00 -0.00000000000E+00 -0.54187781984E+03  0.54187781984E+03  0.00000000000E+00 0. -1.
         21    1    1    2  503  504 -0.60432767569E+02  0.18857497754E+02 -0.60194623583E+02  0.87356266666E+02  0.00000000000E+00 0. -1.
         21    1    1    2  504  506 -0.12698654525E+03 -0.30562947570E+01 -0.27104555730E+03  0.29933362281E+03  0.00000000000E+00 0. -1.
         21    1    1    2  505  502  0.22803976556E+03 -0.51273724385E+01 -0.80790723976E+02  0.24198257314E+03  0.00000000000E+00 0. -1.
         21    1    1    2  506  501 -0.40620452735E+02 -0.10673830559E+02 -0.10399718560E+01  0.42012300349E+02  0.00000000000E+00 0. -1.
<scales pt_clust_3="47.66285" pt_clust_4="47.66285" pt_clust_5="198.24743" pt_clust_6="41.99943"></scales>
<clustering>
<clus scale="   41.999">  1  6  2 -1</clus>
<clus scale="   47.663">  3  4 -1 -1</clus>
<clus scale="  198.247">  1  5  2 -1</clus>
<clus scale="   41.999">  1  3  2 -1</clus>
</clustering>
</event>
<event>
 6    0  0.4390142E+002  0.1791082E+03  0.7546771E-02  0.1168669E+00
         21   -1    0    0  504  501  0.00000000000E+00  0.00000000000E+00  0.90560562144E+03  0.90560562144E+03  0.00000000000E+00 0. -1.
         21   -1    0    0  506  502 -0.00000000000E+00 -0.00000000000E+00 -0.39638356746E+03  0.39638356746E+03  0.00000000000E+00 0.  1.
         21    1    1    2  503  501 -0.13226955498E+03  0.15880453970E+03  0.61077162527E+03  0.64479151300E+03  0.00000000000E+00 0. -1.
         21    1    1    2  504  505  0.12399200822E+03 -0.81165915888E+02  0.23203174212E+03  0.27531918451E+03  0.00000000000E+00 0. -1.
         21    1    1    2  505  502  0.17275692324E+02 -0.31769244005E+02  0.80635718593E+01  0.37050716606E+02  0.00000000000E+00 0. -1.
         21    1    1    2  506  503 -0.89981455600E+01 -0.45869379805E+02 -0.34164488528E+03  0.34482777479E+03  0.00000000000E+00 0.  1.
<scales pt_clust_3="179.10816" pt_clust_4="14000.00000" pt_clust_5="36.16261" pt_clust_6="74.70888"></scales>
<clustering>
<clus scale="   36.163">  2  5  1 -1</clus>
<clus scale="   74.709">  2  6  1 -1</clus>
<clus scale="  179.108">  1  3  2 -1</clus>
<clus scale="  179.108">  1  3  2 -1</clus>
</clustering>
</event>
<event>
 6    0  0.4390142E+002  0.2293159E+03  0.7546771E-02  0.1127122E+00
         21   -1    0    0  504  501  0.00000000000E+00  0.00000000000E+00  0.72107308005E+03  0.72107308005E+03  0.00000000000E+00 0.  1.
         21   -1    0    0  505  502 -0.00000000000E+00 -0.00000000000E+00 -0.10211014828E+03  0.10211014828E+03  0.00000000000E+00 0.  1.
         21    1    1    2  503  501 -0.47679692244E+02  0.11072340482E+03  0.24545219040E+03  0.27345896072E+03  0.00000000000E+00 0. -1.
         21    1    1    2  504  506  0.33205428240E+02 -0.42218366359E+02  0.35876891996E+02  0.64592122599E+02  0.00000000000E+00 0. -1.
         21    1    1    2  505  503  0.11775832479E+02  0.10487318182E+03  0.28501448254E+03  0.30392484228E+03  0.00000000000E+00 0.  1.
         21    1    1    2  506  502  0.26984315246E+01 -0.17337822028E+03  0.52619366831E+02  0.18120730274E+03  0.00000000000E+00 0.  1.
<scales pt_clust_3="227.98501" pt_clust_4="38.61903" pt_clust_5="60.68034" pt_clust_6="38.61903"></scales>
<clustering>
<clus scale="   38.619">  4  6 -1 -1</clus>
<clus scale="   60.680">  3  5 -1 -1</clus>
<clus scale="  227.985">  1  3  2 -1</clus>
<clus scale="  227.985">  1  3  2 -1</clus>
</clustering>
</event>
<event>
 6    0  0.4390142E+002  0.1409390E+03  0.7546771E-02  0.1212071E+00
         21   -1    0    0  503  501  0.00000000000E+00  0.00000000000E+00  0.71874163669E+02  0.71874163669E+02  0.00000000000E+00 0.  1.
         21   -1    0    0  504  502 -0.00000000000E+00 -0.00000000000E+00 -0.13682619040E+04  0.13682619040E+04  0.00000000000E+00 0. -1.
         21    1    1    2  503  502 -0.80891326740E+02 -0.12404512769E+03 -0.30216117864E+02  0.15114104083E+03  0.00000000000E+00 0.  1.
         21    1    1    2  504  505  0.58763932781E+02  0.27724743208E+02 -0.99934237497E+03  0.10014524670E+04  0.00000000000E+00 0. -1.
         21    1    1    2  505  506  0.21277869416E+02  0.45955728661E+02 -0.18171389579E+03  0.18863885243E+03  0.00000000000E+00 0.  1.
         21    1    1    2  506  501  0.84952454310E+00  0.50364655820E+02 -0.85115351664E+02  0.98903707396E+02  0.00000000000E+00 0.  1.
<scales pt_clust_3="134.71516" pt_clust_4="64.97585" pt_clust_5="41.30937" pt_clust_6="41.30937"></scales>
<clustering>
<clus scale="   41.309">  5  6 -1 -1</clus>
<clus scale="   64.976">  2  4  1 -1</clus>
<clus scale="  134.715">  1  3  2 -1</clus>
<clus scale="  134.715">  1  3  2 -1</clus>
</clustering>
</event>
<event>
 6    0  0.4390142E+002  0.1043397E+03  0.7546771E-02  0.1271426E+00
         21   -1    0    0  503  501  0.00000000000E+00  0.00000000000E+00  0.46795182056E+03  0.46795182056E+03  0.00000000000E+00 0.  1.
         21   -1    0    0  505  502 -0.00000000000E+00 -0.00000000000E+00 -0.14251721623E+03  0.14251721623E+03  0.00000000000E+00 0.  1.
         21    1    1    2  503  504 -0.47369595783E+00  0.37928486379E+02  0.28094634010E+03  0.28349539764E+03  0.00000000000E+00 0.  1.
         21    1    1    2  504  506  0.41902481980E+02  0.47833125877E+02  0.70381609916E+02  0.94854609491E+02  0.00000000000E+00 0.  1.
         21    1    1    2  505  501 -0.71778424505E+02  0.44453956678E+02  0.26536316761E+02  0.88501257596E+02  0.00000000000E+00 0.  1.
         21    1    1    2  506  502  0.30349638483E+02 -0.13021556893E+03 -0.52429662440E+02  0.14361777206E+03  0.00000000000E+00 0.  1.
<scales pt_clust_3="37.93144" pt_clust_4="76.97341" pt_clust_5="14000.00000" pt_clust_6="104.33968"></scales>
<clustering>
<clus scale="   37.931">  1  3  2 -1</clus>
<clus scale="   76.973">  1  4  2 -1</clus>
<clus scale="  104.340">  2  6  1 -1</clus>
<clus scale="   37.931">  1  3  2 -1</clus>
</clustering>
</event>
<event>
 6    0  0.4390142E+002  0.8949956E+02  0.7546771E-02  0.1304068E+00
         21   -1    0    0  503  501  0.00000000000E+00  0.00000000000E+00  0.86345600511E+03  0.86345600511E+03  0.00000000000E+00 0.  1.
         21   -1    0    0  505  502 -0.00000000000E+00 -0.00000000000E+00 -0.15874521961E+03  0.15874521961E+03  0.00000000000E+00 0.  1.
         21    1    1    2  503  504 -0.36486498592E+02 -0.16973354463E+01  0.34705724722E+03  0.34897403682E+03  0.00000000000E+00 0.  1.
         21    1    1    2  504  506 -0.52241118453E+02 -0.43389411769E+02  0.24950331574E+03  0.25858012312E+03  0.00000000000E+00 0.  1.
         21    1    1    2  505  501  0.75127923153E+02  0.87973648346E+02  0.24481177980E+03  0.27076996726E+03  0.00000000000E+00 0.  1.
         21    1    1    2  506  502  0.13599693892E+02 -0.42886901130E+02 -0.13666155725E+03  0.14387709752E+03  0.00000000000E+00 0.  1.
<scales pt_clust_3="36.52596" pt_clust_4="14000.00000" pt_clust_5="89.49956" pt_clust_6="44.92634"></scales>
<clustering>
<clus scale="   36.526">  1  3  2 -1</clus>
<clus scale="   44.926">  2  6  1 -1</clus>
<clus scale="   89.500">  2  5  1 -1</clus>
<clus scale="   36.526">  1  3  2 -1</clus>
</clustering>
</event>
<event>
 6    0  0.4390142E+002  0.1548875E+03  0.7546771E-02  0.1194593E+00
         21   -1    0    0  504  501  0.00000000000E+00  0.00000000000E+00  0.11095883527E+03  0.11095883527E+03  0.00000000000E+00 0. -1.
         21   -1    0    0  503  502 -0.00000000000E+00 -0.00000000000E+00 -0.13102752058E+04  0.13102752058E+04  0.00000000000E+00 0.  1.
         21    1    1    2  503  505  0.14709713059E+02  0.29338600558E+02 -0.13686585064E+03  0.14074583550E+03  0.00000000000E+00 0.  1.
         21    1    1    2  504  502  0.78412705798E+01 -0.18517885308E+03 -0.10737839063E+04  0.10896625949E+04  0.00000000000E+00 0.  1.
         21    1    1    2  505  506 -0.42879461930E+02  0.11813853173E+03 -0.32214946619E+02  0.12974268273E+03  0.00000000000E+00 0. -1.
         21    1    1    2  506  501  0.20328478290E+02  0.37701720788E+02  0.43548333053E+02  0.61082927989E+02  0.00000000000E+00 0. -1.
<scales pt_clust_3="32.81965" pt_clust_4="154.88754" pt_clust_5="14000.00000" pt_clust_6="43.07853"></scales>
<clustering>
<clus scale="   32.820">  2  3  1 -1</clus>
<clus scale="   43.079">  1  6  2 -1</clus>
<clus scale="  154.888">  2  4  1 -1</clus>
<clus scale="   43.079">  1  3  2 -1</clus>
</clustering>
</event>
<event>
 6    0  0.4390142E+002  0.2354183E+03  0.7546771E-02  0.1122883E+00
         21   -1    0    0  506  501  0.00000000000E+00  0.00000000000E+00  0.55764882705E+03  0.55764882705E+03  0.00000000000E+00 0.  1.
         21   -1    0    0  505  502 -0.00000000000E+00 -0.00000000000E+00 -0.22327815214E+03  0.22327815214E+03  0.00000000000E+00 0. -1.
         21    1    1    2  503  501 -0.11657542852E+03  0.19886654109E+03  0.36467580274E+03  0.43142342635E+03  0.00000000000E+00 0.  1.
         21    1    1    2  504  503 -0.34606015642E+02  0.14687037475E+02  0.16140708385E+02  0.40912196905E+02  0.00000000000E+00 0.  1.
         21    1    1    2  505  504 -0.24342792943E+02 -0.21963773781E+02 -0.35787168272E+02  0.48535557480E+02  0.00000000000E+00 0.  1.
         21    1    1    2  506  502  0.17552423711E+03 -0.19158980478E+03 -0.10658667948E+02  0.26005579845E+03  0.00000000000E+00 0. -1.
<scales pt_clust_3="235.41826" pt_clust_4="38.59287" pt_clust_5="32.78687" pt_clust_6="14000.00000"></scales>
<clustering>
<clus scale="   32.787">  2  5  1 -1</clus>
<clus scale="   38.593">  2  4  1 -1</clus>
<clus scale="  235.418">  1  3  2 -1</clus>
<clus scale="  235.418">  1  3  2 -1</clus>
</clustering>
</event>
<event>
 6    0  0.4390142E+002  0.1389726E+03  0.7546771E-02  0.1214718E+00
         21   -1    0    0  506  501  0.00000000000E+00  0.00000000000E+00  0.11097395900E+04  0.11097395900E+04  0.00000000000E+00 0. -1.
         21   -1    0    0  505  502 -0.00000000000E+00 -0.00000000000E+00 -0.11195050559E+03  0.11195050559E+03  0.00000000000E+00 0. -1.
         21    1    1    2  503  501  0.38830883512E+02 -0.66316338213E+02  0.46579657339E+03  0.47209336154E+03  0.00000000000E+00 0. -1.
         21    1    1    2  504  503  0.24072876237E+02 -0.23470780596E+02  0.80113950334E+02  0.86882828857E+02  0.00000000000E+00 0. -1.
         21    1    1    2  505  504  0.41734109896E+02 -0.47307097297E+02 -0.80973356449E+02  0.10264687934E+03  0.00000000000E+00 0. -1.
         21    1    1    2  506  502 -0.10463786965E+03  0.13709421611E+03  0.53285191715E+03  0.56006702587E+03  0.00000000000E+00 0. -1.
<scales pt_clust_3="32.52140" pt_clust_4="32.52140" pt_clust_5="63.08484" pt_clust_6="129.98428"></scales>
<clustering>
<clus scale="   32.521">  3  4 -1 -1</clus>
<clus scale="   63.085">  2  5  1 -1</clus>
<clus scale="  129.984">  2  6  1 -1</clus>
<clus scale="  138.973">  1  3  2 -1</clus>
</clustering>
</event>
<event>
 6    0  0.4390142E+002  0.9799752E+02  0.7546771E-02  0.1284564E+00
         21   -1    0    0  505  501  0.00000000000E+00  0.00000000000E+00  0.90911199595E+02  0.90911199595E+02  0.00000000000E+00 0.  1.
         21   -1    0    0  501  502 -0.00000000000E+00 -0.00000000000E+00 -0.17721016924E+04  0.17721016924E+04  0.00000000000E+00 0. -1.
         21    1    1    2  503  502 -0.37960625200E+02 -0.42589853008E+02 -0.15295680482E+04  0.15306316731E+04  0.00000000000E+00 0. -1.
         21    1    1    2  504  506  0.30887396086E+02  0.72215628802E+02 -0.69540118972E+02  0.10490451099E+03  0.00000000000E+00 0. -1.
         21    1    1    2  505  504 -0.15915762841E+02 -0.72790643462E+02  0.47913484269E+02  0.88586066947E+02  0.00000000000E+00 0.  1.
         21    1    1    2  506  503  0.22988991955E+02  0.43164867667E+02 -0.12999580997E+03  0.13889064102E+03  0.00000000000E+00 0. -1.
<scales pt_clust_3="57.05177" pt_clust_4="46.05254" pt_clust_5="78.72324" pt_clust_6="46.05254"></scales>
<clustering>
<clus scale="   46.053">  4  6 -1 -1</clus>
<clus scale="   57.052">  2  3  1 -1</clus>
<clus scale="   78.723">  1  5  2 -1</clus>
<clus scale="   78.723">  1  3  2 -1</clus>
</clustering>
</event>
<event>
 6    0  0.4390142E+002  0.8545769E+02  0.7546771E-02  0.1314240E+00
         21   -1    0    0  503  501  0.00000000000E+00  0.00000000000E+00  0.11579607255E+04  0.11579607255E+04  0.00000000000E+00 0.  1.
         21   -1    0    0  504  502 -0.00000000000E+00 -0.00000000000E+00 -0.46919015505E+02  0.46919015505E+02  0.00000000000E+00 0.  1.
         21    1    1    2  503  502  0.43459520844E+02 -0.73108021367E+02  0.72425950103E+02  0.11170958324E+03  0.00000000000E+00 0.  1.
         21    1    1    2  504  505  0.47230931870E+02  0.41882128230E+02  0.18031897463E+02  0.65650764782E+02  0.00000000000E+00 0.  1.
         21    1    1    2  505  506 -0.55226736868E+02  0.47770748438E+02  0.48017055427E+03  0.48569105207E+03  0.00000000000E+00 0.  1.
         21    1    1    2  506  501 -0.35463715846E+02 -0.16544855302E+02  0.54041330818E+03  0.54182834093E+03  0.00000000000E+00 0.  1.
<scales pt_clust_3="85.45769" pt_clust_4="60.58614" pt_clust_5="14000.00000" pt_clust_6="39.13320"></scales>
<clustering>
<clus scale="   39.133">  1  6  2 -1</clus>
<clus scale="   60.586">  2  4  1 -1</clus>
<clus scale="   85.458">  2  3  1 -1</clus>
<clus scale="   39.133">  1  3  2 -1</clus>
</clustering>
</event>
<event>
 6    0  0.4390142E+002  0.9474832E+02  0.7546771E-02  0.1291744E+00
         21   -1    0    0  506  501  0.00000000000E+00  0.00000000000E+00  0.13928128330E+03  0.13928128330E+03  0.00000000000E+00 0. -1.
         21   -1    0    0  505  502 -0.00000000000E+00 -0.00000000000E+00 -0.17644982469E+03  0.17644982469E+03  0.00000000000E+00 0. -1.
         21    1    1    2  503  501 -0.26243892345E+01 -0.40906242161E+02  0.19729980613E+02  0.45491539890E+02  0.00000000000E+00 0.  1.
         21    1    1    2  504  503 -0.19781756100E+02  0.65927272431E+02 -0.19444338841E+02  0.71524858878E+02  0.00000000000E+00 0. -1.
         21    1    1    2  505  504 -0.81490865676E+02 -0.89749764410E+01  0.11429460472E+02  0.82776469830E+02  0.00000000000E+00 0. -1.
         21    1    1    2  506  502  0.10389701101E+03 -0.16046053830E+02 -0.48883643633E+02  0.11593823940E+03  0.00000000000E+00 0. -1.
<scales pt_clust_3="40.99034" pt_clust_4="59.55253" pt_clust_5="14000.00000" pt_clust_6="94.74832"></scales>
<clustering>
<clus scale="   40.990">  1  3  2 -1</clus>
<clus scale="   59.553">  1  4  2 -1</clus>
<clus scale="   94.748">  2  6  1 -1</clus>
<clus scale="   40.990">  1  3  2 -1</clus>
</clustering>
</event>
<event>
 6    0  0.4390142E+002  0.1970205E+03  0.7546771E-02  0.1152277E+00
         21   -1    0    0  505  501  0.00000000000E+00  0.00000000000E+00  0.98306237327E+03  0.98306237327E+03  0.00000000000E+00 0.  1.
         21   -1    0    0  503  502 -0.00000000000E+00 -0.00000000000E+00 -0.12698029473E+03  0.12698029473E+03  0.00000000000E+00 0. -1.
         21    1    1    2  503  504  0.12549379662E+03  0.13844013909E+03  0.21106097000E+02  0.18804210281E+03  0.00000000000E+00 0. -1.
         21    1    1    2  504  501  0.37594149465E+02 -0.13707657033E+02  0.57727382518E+02  0.70240092737E+02  0.00000000000E+00 0. -1.
         21    1    1    2  505  506 -0.19065143906E+03 -0.10959162533E+03  0.78832238512E+03  0.81841950028E+03  0.00000000000E+00 0.  1.
         21    1    1    2  506  502  0.27563492974E+02 -0.15140856729E+02 -0.11073786096E+02  0.33340972180E+02  0.00000000000E+00 0. -1.
<scales pt_clust_3="197.02051" pt_clust_4="41.87226" pt_clust_5="14000.00000" pt_clust_6="31.44824"></scales>
<clustering>
<clus scale="   31.448">  2  6  1 -1</clus>
<clus scale="   41.872">  1  4  2 -1</clus>
<clus scale="  197.021">  2  3  1 -1</clus>
<clus scale="   41.872">  1  3  2 -1</clus>
</clustering>
</event>
<event>
 6    0  0.4390142E+002  0.8197279E+02  0.7546771E-02  0.1323544E+00
         21   -1    0    0  504  501  0.00000000000E+00  0.00000000000E+00  0.20350074686E+03  0.20350074686E+03  0.00000000000E+00 0.  1.
         21   -1    0    0  503  502 -0.00000000000E+00 -0.00000000000E+00 -0.11407434980E+04  0.11407434980E+04  0.00000000000E+00 0.  1.
         21    1    1    2  503  505  0.84909419625E+01  0.49902615968E+02 -0.95197490605E+03  0.95331977265E+03  0.00000000000E+00 0.  1.
         21    1    1    2  504  506  0.53655887851E+02  0.60352493250E+02  0.94655313837E+02  0.12442269158E+03  0.00000000000E+00 0.  1.
         21    1    1    2  505  501 -0.87292392480E+02 -0.28505571379E+02  0.54788989057E+02  0.10693157956E+03  0.00000000000E+00 0.  1.
         21    1    1    2  506  502  0.25145562667E+02 -0.81749537839E+02 -0.13471214800E+03  0.15957020109E+03  0.00000000000E+00 0.  1.
<scales pt_clust_3="50.61983" pt_clust_4="14000.00000" pt_clust_5="81.97279" pt_clust_6="53.24295"></scales>
<clustering>
<clus scale="   50.620">  2  3  1 -1</clus>
<clus scale="   53.243">  2  6  1 -1</clus>
<clus scale="   81.973">  2  5  1 -1</clus>
<clus scale="   81.973">  1  3  2 -1</clus>
</clustering>
</event>
<event>
 6    0  0.4390142E+002  0.9005381E+02  0.7546771E-02  0.1302721E+00
         21   -1    0    0  503  501  0.00000000000E+00  0.00000000000E+00  0.62527456134E+03  0.62527456134E+03  0.00000000000E+00 0.  1.
         21   -1    0    0  505  502 -0.00000000000E+00 -0.00000000000E+00 -0.16732802136E+03  0.16732802136E+03  0.00000000000E+00 0. -1.
         21    1    1    2  503  504 -0.62214892214E+02 -0.64157802843E+02  0.19722547032E+03  0.21652898795E+03  0.00000000000E+00 0.  1.
         21    1    1    2  504  502  0.23855511151E+02  0.14121561187E+03  0.34871913153E+03  0.37698271465E+03  0.00000000000E+00 0.  1.
         21    1    1    2  505  506  0.53646179344E+02  0.12592097053E+02 -0.92901777414E+02  0.10801487728E+03  0.00000000000E+00 0. -1.
         21    1    1    2  506  501 -0.15286798281E+02 -0.89649906084E+02  0.49037155301E+01  0.91076002814E+02  0.00000000000E+00 0.  1.
<scales pt_clust_3="82.78579" pt_clust_4="90.05381" pt_clust_5="55.10421" pt_clust_6="14000.00000"></scales>
<clustering>
<clus scale="   55.104">  2  5  1 -1</clus>
<clus scale="   82.786">  1  3  2 -1</clus>
<clus scale="   90.054">  1  4  2 -1</clus>
<clus scale="   82.786">  1  3  2 -1</clus>
</clustering>
</event>
<event>
 6    0  0.4390142E+002  0.1243408E+03  0.7546771E-02  0.1236103E+00
         21   -1    0    0  504  501  0.00000000000E+00  0.00000000000E+00  0.33898639270E+02  0.33898639270E+02  0.00000000000E+00 0. -1.
         21   -1    0    0  505  502 -0.00000000000E+00 -0.00000000000E+00 -0.27602233939E+04  0.27602233939E+04  0.00000000000E+00 0. -1.
         21    1    1    2  503  502 -0.70373832514E+00 -0.34556362474E+02 -0.10563127242E+04  0.10568780482E+04  0.00000000000E+00 0. -1.
         21    1    1    2  504  503 -0.41241677961E+02  0.14739462934E+02 -0.10711901391E+03  0.11572644862E+03  0.00000000000E+00 0. -1.
         21    1    1    2  505  506  0.58316335171E+02  0.14031553375E+03 -0.14422087328E+04  0.14501914608E+04  0.00000000000E+00 0. -1.
         21    1    1    2  506  501 -0.16370918886E+02 -0.12049863421E+03 -0.12068428366E+03  0.17132607552E+03  0.00000000000E+00 0. -1.
<scales pt_clust_3="34.56353" pt_clust_4="43.13246" pt_clust_5="124.34078" pt_clust_6="14000.00000"></scales>
<clustering>
<clus scale="   34.564">  2  3  1 -1</clus>
<clus scale="   43.132">  1  4  2 -1</clus>
<clus scale="  124.341">  2  5  1 -1</clus>
<clus scale="   43.132">  1  3  2 -1</clus>
</clustering>
</event>
<event>
 6    0  0.4390142E+002  0.2479295E+03  0.7546771E-02  0.1114620E+00
         21   -1    0    0  505  501  0.00000000000E+00  0.00000000000E+00  0.52206142403E+03  0.52206142403E+03  0.00000000000E+00 0.  1.
         21   -1    0    0  504  502 -0.00000000000E+00 -0.00000000000E+00 -0.12925340140E+04  0.12925340140E+04  0.00000000000E+00 0.  1.
         21    1    1    2  503  502 -0.87442464607E+02  0.76882224615E+02 -0.11253292163E+04  0.11313367784E+04  0.00000000000E+00 0.  1.
         21    1    1    2  504  506  0.64528696720E+02 -0.12338625518E+02  0.83509955137E+02  0.10625491512E+03  0.00000000000E+00 0. -1.
         21    1    1    2  505  503 -0.83979011280E+02  0.11138461136E+03 -0.86523589604E+02  0.16415035042E+03  0.00000000000E+00 0.  1.
         21    1    1    2  506  501  0.10689277917E+03 -0.17592821046E+03  0.35787026079E+03  0.41285339411E+03  0.00000000000E+00 0.  1.
<scales pt_clust_3="116.43479" pt_clust_4="56.00264" pt_clust_5="227.24838" pt_clust_6="56.00264"></scales>
<clustering>
<clus scale="   56.003">  4  6 -1 -1</clus>
<clus scale="  116.435">  2  3  1 -1</clus>
<clus scale="  227.248">  2  5  1 -1</clus>
<clus scale="  247.930">  1  3  2 -1</clus>
</clustering>
</event>
<event>
 6    0  0.4390142E+002  0.6169390E+02  0.7546771E-02  0.1390858E+00
         21   -1    0    0  505  501  0.00000000000E+00  0.00000000000E+00  0.12065929489E+03  0.12065929489E+03  0.00000000000E+00 0. -1.
         21   -1    0    0  506  502 -0.00000000000E+00 -0.00000000000E+00 -0.95196364772E+03  0.95196364772E+03  0.00000000000E+00 0. -1.
         21    1    1    2  503  501 -0.58653959399E+02  0.96751530553E+01 -0.71489200488E+02  0.92976348209E+02  0.00000000000E+00 0. -1.
         21    1    1    2  504  502  0.94335014193E+02  0.21691719727E+02  0.15466257542E+02  0.98024643482E+02  0.00000000000E+00 0. -1.
         21    1    1    2  505  504  0.25306817845E+02 -0.29195884515E+02  0.44864560963E+02  0.59208644069E+02  0.00000000000E+00 0. -1.
         21    1    1    2  506  503 -0.60987872639E+02 -0.21709882675E+01 -0.82014597084E+03  0.82241330685E+03  0.00000000000E+00 0. -1.
<scales pt_clust_3="54.92959" pt_clust_4="14000.00000" pt_clust_5="38.63722" pt_clust_6="61.69390"></scales>
<clustering>
<clus scale="   38.637">  1  5  2 -1</clus>
<clus scale="   54.930">  1  3  2 -1</clus>
<clus scale="   61.694">  2  6  1 -1</clus>
<clus scale="   38.637">  1  3  2 -1</clus>
</clustering>
</event>
<event>
 6    0  0.4390142E+002  0.1918716E+03  0.7546771E-02  0.1156784E+00
         21   -1    0    0  505  501  0.00000000000E+00  0.00000000000E+00  0.60262698882E+03  0.60262698882E+03  0.00000000000E+00 0.  1.
         21   -1    0    0  503  502 -0.00000000000E+00 -0.00000000000E+00 -0.10680115665E+04  0.10680115665E+04  0.00000000000E+00 0. -1.
         21    1    1    2  503  506 -0.13171094331E+03 -0.14711259955E+03 -0.81682186140E+03  0.84034983358E+03  0.00000000000E+00 0. -1.
         21    1    1    2  504  502  0.57501936441E+02 -0.24647724538E+02  0.15711121247E+03  0.16910918397E+03  0.00000000000E+00 0.  1.
         21    1    1    2  505  504  0.58485640440E+02 -0.31734875708E+02  0.37968434511E+03  0.38547097737E+03  0.00000000000E+00 0.  1.
         21    1    1    2  506  501  0.15723366433E+02  0.20349519980E+03 -0.18535827385E+03  0.27570856040E+03  0.00000000000E+00 0. -1.
<scales pt_clust_3="191.87157" pt_clust_4="51.10264" pt_clust_5="139.31864" pt_clust_6="14000.00000"></scales>
<clustering>
<clus scale="   51.103">  4  5 -1 -1</clus>
<clus scale="  139.319">  1  4  2 -1</clus>
<clus scale="  191.872">  2  3  1 -1</clus>
<clus scale="  139.319">  1  3  2 -1</clus>
</clustering>
</event>
<event>
 6    0  0.4390142E+002  0.9981176E+02  0.7546771E-02  0.1280692E+00
         21   -1    0    0  504  501  0.00000000000E+00  0.00000000000E+00  0.14315611452E+04  0.14315611452E+04  0.00000000000E+00 0. -1.
         21   -1    0    0  503  502 -0.00000000000E+00 -0.00000000000E+00 -0.84182747526E+02  0.84182747526E+02  0.00000000000E+00 0. -1.
         21    1    1    2  503  505 -0.47844933351E+02 -0.37745518011E+02  0.78273023920E+02  0.99199435738E+02  0.00000000000E+00 0. -1.
         21    1    1    2  504  502 -0.62019890345E+02 -0.55070732365E+00 -0.44625706517E+02  0.76408270227E+02  0.00000000000E+00 0. -1.
         21    1    1    2  505  506  0.15081813859E+03  0.43826228777E+02  0.47306404180E+03  0.49845404693E+03  0.00000000000E+00 0. -1.
         21    1    1    2  506  501 -0.40953314895E+02 -0.55300034429E+01  0.84066703845E+03  0.84168213981E+03  0.00000000000E+00 0. -1.
<scales pt_clust_3="14000.00000" pt_clust_4="63.12610" pt_clust_5="99.81176" pt_clust_6="41.32499"></scales>
<clustering>
<clus scale="   41.325">  1  6  2 -1</clus>
<clus scale="   63.126">  2  4  1 -1</clus>
<clus scale="   99.812">  1  5  2 -1</clus>
<clus scale="   41.325">  1  3  2 -1</clus>
</clustering>
</event>
<event>
 6    0  0.4390142E+002  0.2254522E+03  0.7546771E-02  0.1129882E+00
         21   -1    0    0  506  501  0.00000000000E+00  0.00000000000E+00  0.26905814517E+04  0.26905814517E+04  0.00000000000E+00 0. -1.
         21   -1    0    0  504  502 -0.00000000000E+00 -0.00000000000E+00 -0.38674711453E+02  0.38674711453E+02  0.00000000000E+00 0. -1.
         21    1    1    2  503  501  0.62394210450E+02  0.11175908714E+02  0.78394594377E+03  0.78650440634E+03  0.00000000000E+00 0. -1.
         21    1    1    2  504  505  0.26726055751E+02  0.15393074018E+02 -0.27531225696E+01  0.30964632529E+02  0.00000000000E+00 0. -1.
         21    1    1    2  505  503  0.14541461083E+03 -0.58328587765E+01  0.96772724347E+03  0.97860893571E+03  0.00000000000E+00 0. -1.
         21    1    1    2  506  502 -0.23453487703E+03 -0.20736123955E+02  0.90298667557E+03  0.93317818857E+03  0.00000000000E+00 0. -1.
<scales pt_clust_3="41.64877" pt_clust_4="30.84200" pt_clust_5="41.64877" pt_clust_6="216.27667"></scales>
<clustering>
<clus scale="   30.842">  2  4  1 -1</clus>
<clus scale="   41.649">  3  5 -1 -1</clus>
<clus scale="  216.277">  2  6  1 -1</clus>
<clus scale="  225.452">  1  3  2 -1</clus>
</clustering>
</event>
<event>
 6    0  0.4390142E+002  0.1526997E+03  0.7546771E-02  0.1197194E+00
         21   -1    0    0  505  501  0.00000000000E+00  0.00000000000E+00  0.32423719631E+03  0.32423719631E+03  0.00000000000E+00 0. -1.
         21   -1    0    0  506  502 -0.00000000000E+00 -0.00000000000E+00 -0.20807544159E+03  0.20807544159E+03  0.00000000000E+00 0. -1.
         21    1    1    2  503  501 -0.12592719112E+03  0.34528312380E+02 -0.97375811181E+02  0.16288618856E+03  0.00000000000E+00 0. -1.
         21    1    1    2  504  502  0.48183598293E+02 -0.29465979291E+00  0.61200218682E+02  0.77892314997E+02  0.00000000000E+00 0. -1.
         21    1    1    2  505  504  0.80775305479E+02 -0.66326204541E+02  0.20481803017E+03  0.22994399507E+03  0.00000000000E+00 0. -1.
         21    1    1    2  506  503 -0.30317126508E+01  0.32092551954E+02 -0.52480682958E+02  0.61590139277E+02  0.00000000000E+00 0. -1.
<scales pt_clust_3="142.78815" pt_clust_4="37.02256" pt_clust_5="37.02256" pt_clust_6="32.23543"></scales>
<clustering>
<clus scale="   32.235">  2  6  1 -1</clus>
<clus scale="   37.023">  4  5 -1 -1</clus>
<clus scale="  142.788">  2  3  1 -1</clus>
<clus scale="  152.700">  1  3  2 -1</clus>
</clustering>
</event>
<event>
 6    0  0.4390142E+002  0.1317545E+03  0.7546771E-02  0.1224875E+00
         21   -1    0    0  506  501  0.00000000000E+00  0.00000000000E+00  0.23681964804E+02  0.23681964804E+02  0.00000000000E+00 0. -1.
         21   -1    0    0  504  502 -0.00000000000E+00 -0.00000000000E+00 -0.16532707482E+04  0.16532707482E+04  0.00000000000E+00 0. -1.
         21    1    1    2  503  502 -0.10626262354E+03  0.55552620203E+02 -0.84230868760E+03  0.85080066054E+03  0.00000000000E+00 0. -1.
         21    1    1    2  504  501  0.23306293645E+02  0.33188550225E+02 -0.56924171819E+03  0.57068449858E+03  0.00000000000E+00 0. -1.
         21    1    1    2  505  503  0.34635414266E+02 -0.12292214090E+02 -0.10152733747E+03  0.10797458360E+03  0.00000000000E+00 0.  1.
         21    1    1    2  506  505  0.48320915627E+02 -0.76448956337E+02 -0.11651104014E+03  0.14749297030E+03  0.00000000000E+00 0. -1.
<scales pt_clust_3="119.97107" pt_clust_4="40.55445" pt_clust_5="34.71844" pt_clust_6="34.71844"></scales>
<clustering>
<clus scale="   34.718">  5  6 -1 -1</clus>
<clus scale="   40.554">  2  4  1 -1</clus>
<clus scale="  119.971">  2  3  1 -1</clus>
<clus scale="  131.754">  1  3  2 -1</clus>
</clustering>
</event>
<event>
 6    0  0.4390142E+002  0.2126673E+03  0.7546771E-02  0.1139471E+00
         21   -1    0    0  504  501  0.00000000000E+00  0.00000000000E+00  0.33832629718E+03  0.33832629718E+03  0.00000000000E+00 0. -1.
         21   -1    0    0  501  502 -0.00000000000E+00 -0.00000000000E+00 -0.99187306239E+03  0.99187306239E+03  0.00000000000E+00 0. -1.
         21    1    1    2  503  502  0.42555456365E+02  0.11026370648E+02 -0.64585288859E+03  0.64734728038E+03  0.00000000000E+00 0. -1.
         21    1    1    2  504  505 -0.39286327658E+02  0.42530515354E+02  0.96432499961E+02  0.11247883057E+03  0.00000000000E+00 0. -1.
         21    1    1    2  505  506 -0.48578556419E+02  0.14540042490E+03  0.16982266997E+03  0.22878133434E+03  0.00000000000E+00 0. -1.
         21    1    1    2  506  503  0.45309427713E+02 -0.19895731090E+03 -0.27394904655E+03  0.34159191429E+03  0.00000000000E+00 0. -1.
<scales pt_clust_3="43.96075" pt_clust_4="30.90194" pt_clust_5="30.90194" pt_clust_6="206.63727"></scales>
<clustering>
<clus scale="   30.902">  4  5 -1 -1</clus>
<clus scale="   43.961">  2  3  1 -1</clus>
<clus scale="  206.637">  2  6  1 -1</clus>
<clus scale="  212.667">  1  3  2 -1</clus>
</clustering>
</event>
<event>
 6    0  0.4390142E+002  0.1306585E+03  0.7546771E-02  0.1226482E+00
         21   -1    0    0  504  501  0.00000000000E+00  0.00000000000E+00  0.14253058611E+03  0.14253058611E+03  0.00000000000E+00 0. -1.
         21   -1    0    0  505  502 -0.00000000000E+00 -0.00000000000E+00 -0.75110819309E+03  0.75110819309E+03  0.00000000000E+00 0. -1.
         21    1    1    2  503  502  0.90645050398E+02 -0.22581877810E+02 -0.53549986762E+03  0.54358676823E+03  0.00000000000E+00 0. -1.
         21    1    1    2  504  503  0.86278833786E+02 -0.65595293417E+02 -0.30537491846E+01  0.10842557384E+03  0.00000000000E+00 0. -1.
         21    1    1    2  505  506 -0.26100132327E+02  0.18522775293E+02 -0.68366579014E+02  0.75487079942E+02  0.00000000000E+00 0. -1.
         21    1    1    2  506  501 -0.15082375186E+03  0.69654395934E+02 -0.16574111540E+01  0.16613935719E+03  0.00000000000E+00 0. -1.
<scales pt_clust_3="70.35232" pt_clust_4="130.65854" pt_clust_5="32.00485" pt_clust_6="14000.00000"></scales>
<clustering>
<clus scale="   32.005">  2  5  1 -1</clus>
<clus scale="   70.352">  2  3  1 -1</clus>
<clus scale="  130.659">  1  4  2 -1</clus>
<clus scale="  130.659">  1  3  2 -1</clus>
</clustering>
</event>
<event>
 6    0  0.4390142E+002  0.1630634E+03  0.7546771E-02  0.1185281E+00
         21   -1    0    0  503  501  0.00000000000E+00  0.00000000000E+00  0.12614137629E+04  0.12614137629E+04  0.00000000000E+00 0. -1.
         21   -1    0    0  505  502 -0.00000000000E+00 -0.00000000000E+00 -0.82337945841E+02  0.82337945841E+02  0.00000000000E+00 0.  1.
         21    1    1    2  503  502 -0.11934875481E+03  0.12333723340E+03  0.63115436012E+03  0.65407340928E+03  0.00000000000E+00 0. -1.
         21    1    1    2  504  501 -0.45123034434E+01 -0.61407698986E+02  0.27920221377E+03  0.28591107455E+03  0.00000000000E+00 0. -1.
         21    1    1    2  505  506  0.16130600434E+03 -0.37263131799E+02  0.39496820470E+02  0.17020037266E+03  0.00000000000E+00 0.  1.
         21    1    1    2  506  504 -0.37444946081E+02 -0.24666402615E+02  0.22922242265E+03  0.23356685221E+03  0.00000000000E+00 0. -1.
<scales pt_clust_3="14000.00000" pt_clust_4="106.59130" pt_clust_5="163.06344" pt_clust_6="39.95831"></scales>
<clustering>
<clus scale="   39.958">  4  6 -1 -1</clus>
<clus scale="  106.591">  1  4  2 -1</clus>
<clus scale="  163.063">  2  5  1 -1</clus>
<clus scale="  106.591">  1  3  2 -1</clus>
</clustering>
</event>
<event>
 6    0  0.4390142E+002  0.6867896E+02  0.7546771E-02  0.1364644E+00
         21   -1    0    0  504  501  0.00000000000E+00  0.00000000000E+00  0.17848547232E+03  0.17848547232E+03  0.00000000000E+00 0.  1.
         21   -1    0    0  503  502 -0.00000000000E+00 -0.00000000000E+00 -0.29797591169E+03  0.29797591169E+03  0.00000000000E+00 0.  1.
         21    1    1    2  503  501 -0.30682393463E+01 -0.56597377480E+02 -0.16228490692E+03  0.17189842421E+03  0.00000000000E+00 0.  1.
         21    1    1    2  504  505  0.35426519715E+02  0.62552229635E+02  0.11428533705E+03  0.13501465845E+03  0.00000000000E+00 0.  1.
         21    1    1    2  505  506 -0.33458540589E+01 -0.65017103496E+02  0.88465399142E+01  0.65701444085E+02  0.00000000000E+00 0. -1.
         21    1    1    2  506  502 -0.29012426310E+02  0.59062251341E+02 -0.80337409408E+02  0.10384685727E+03  0.00000000000E+00 0. -1.
<scales pt_clust_3="56.68048" pt_clust_4="68.67896" pt_clust_5="14000.00000" pt_clust_6="36.63068"></scales>
<clustering>
<clus scale="   56.680">  2  3  1 -1</clus>
<clus scale="   36.631">  2  6  1 -1</clus>
<clus scale="   68.679">  1  4  2 -1</clus>
<clus scale="   68.679">  1  3  2 -1</clus>
</clustering>
</event>
<event>
 6    0  0.4390142E+002  0.1193896E+03  0.7546771E-02  0.1244107E+00
         21   -1    0    0  505  501  0.00000000000E+00  0.00000000000E+00  0.35169277340E+03  0.35169277340E+03  0.00000000000E+00 0.  1.
         21   -1    0    0  506  502 -0.00000000000E+00 -0.00000000000E+00 -0.15772652094E+03  0.15772652094E+03  0.00000000000E+00 0.  1.
         21    1    1    2  503  501 -0.39918535236E+01  0.68198197051E+02  0.46514608325E+02  0.82647067481E+02  0.00000000000E+00 0. -1.
         21    1    1    2  504  502  0.53399854673E+02  0.13447131856E+02 -0.59937139947E+02  0.81393062230E+02  0.00000000000E+00 0.  1.
         21    1    1    2  505  504  0.86151576744E+02  0.10279982925E+02  0.76889181857E+01  0.87102765096E+02  0.00000000000E+00 0.  1.
         21    1    1    2  506  503 -0.13555957789E+03 -0.91925311832E+02  0.19969986589E+03  0.25827639953E+03  0.00000000000E+00 0.  1.
<scales pt_clust_3="71.34173" pt_clust_4="55.06696" pt_clust_5="14000.00000" pt_clust_6="119.38960"></scales>
<clustering>
<clus scale="   55.067">  2  4  1 -1</clus>
<clus scale="   71.342">  1  3  2 -1</clus>
<clus scale="  119.390">  1  6  2 -1</clus>
<clus scale="   71.342">  1  3  2 -1</clus>
</clustering>
</event>
<event>
 6    0  0.4390142E+002  0.1132491E+03  0.7546771E-02  0.1254669E+00
         21   -1    0    0  504  501  0.00000000000E+00  0.00000000000E+00  0.65915410755E+03  0.65915410755E+03  0.00000000000E+00 0.  1.
         21   -1    0    0  506  502 -0.00000000000E+00 -0.00000000000E+00 -0.10421302560E+03  0.10421302560E+03  0.00000000000E+00 0. -1.
         21    1    1    2  503  505 -0.73028142055E+02 -0.23195104949E+02  0.53602616756E+02  0.93511298508E+02  0.00000000000E+00 0. -1.
         21    1    1    2  504  503  0.11223157391E+03  0.58408552574E+02  0.56055746962E+03  0.57465830016E+03  0.00000000000E+00 0.  1.
         21    1    1    2  505  502 -0.43804115812E+02 -0.52362417726E+01 -0.37406763236E+02  0.57840165334E+02  0.00000000000E+00 0. -1.
         21    1    1    2  506  501  0.46006839554E+01 -0.29977205853E+02 -0.21812241189E+02  0.37357369143E+02  0.00000000000E+00 0. -1.
<scales pt_clust_3="113.24914" pt_clust_4="14000.00000" pt_clust_5="47.58059" pt_clust_6="30.32819"></scales>
<clustering>
<clus scale="   30.328">  2  6  1 -1</clus>
<clus scale="   47.581">  2  5  1 -1</clus>
<clus scale="  113.249">  2  3  1 -1</clus>
<clus scale="  113.249">  1  3  2 -1</clus>
</clustering>
</event>
<event>
 6    0  0.4390142E+002  0.1074754E+03  0.7546771E-02  0.1265318E+00
         21   -1    0    0  506  501  0.00000000000E+00  0.00000000000E+00  0.92200629764E+03  0.92200629764E+03  0.00000000000E+00 0.  1.
         21   -1    0    0  504  502 -0.00000000000E+00 -0.00000000000E+00 -0.93235075758E+02  0.93235075758E+02  0.00000000000E+00 0. -1.
         21    1    1    2  503  505  0.13197828397E+03 -0.25904413958E+02  0.16603389245E+02  0.13551744772E+03  0.00000000000E+00 0.  1.
         21    1    1    2  504  503 -0.46506254046E+02 -0.50523064446E+02  0.13657382173E+02  0.70013825736E+02  0.00000000000E+00 0. -1.
         21    1    1    2  505  501 -0.49136623492E+02  0.38896709550E+02  0.63436242326E+03  0.63745042617E+03  0.00000000000E+00 0.  1.
         21    1    1    2  506  502 -0.36335406435E+02  0.37530768853E+02  0.16414802720E+03  0.17225967376E+03  0.00000000000E+00 0.  1.
<scales pt_clust_3="107.47538" pt_clust_4="68.56320" pt_clust_5="14000.00000" pt_clust_6="52.23811"></scales>
<clustering>
<clus scale="   52.238">  1  6  2 -1</clus>
<clus scale="   68.563">  2  4  1 -1</clus>
<clus scale="  107.475">  2  3  1 -1</clus>
<clus scale="   52.238">  1  3  2 -1</clus>
</clustering>
</event>
<event>
 6    0  0.4390142E+002  0.6360062E+02  0.7546771E-02  0.1383314E+00
         21   -1    0    0  505  501  0.00000000000E+00  0.00000000000E+00  0.16279138913E+03  0.16279138913E+03  0.00000000000E+00 0.  1.
         21   -1    0    0  506  502 -0.00000000000E+00 -0.00000000000E+00 -0.26161431746E+04  0.26161431746E+04  0.00000000000E+00 0.  1.
         21    1    1    2  503  504 -0.68928672380E+02 -0.21385838100E+02 -0.18002316052E+03  0.19395064906E+03  0.00000000000E+00 0.  1.
         21    1    1    2  504  501  0.61872667591E+02 -0.14913010070E+02  0.14547270474E+03  0.15878580758E+03  0.00000000000E+00 0.  1.
         21    1    1    2  505  502  0.39972648349E+02  0.76705116481E+02 -0.55773432386E+03  0.56440150914E+03  0.00000000000E+00 0.  1.
         21    1    1    2  506  503 -0.32916643561E+02 -0.40406268311E+02 -0.18610670059E+04  0.18617965980E+04  0.00000000000E+00 0.  1.
<scales pt_clust_3="63.60062" pt_clust_4="14000.00000" pt_clust_5="49.17362" pt_clust_6="52.11691"></scales>
<clustering>
<clus scale="   52.117">  2  6  1 -1</clus>
<clus scale="   49.174">  2  5  1 -1</clus>
<clus scale="   63.601">  2  3  1 -1</clus>
<clus scale="   63.601">  1  3  2 -1</clus>
</clustering>
</event>
<event>
 6    0  0.4390142E+002  0.7901279E+02  0.7546771E-02  0.1331877E+00
         21   -1    0    0  505  501  0.00000000000E+00  0.00000000000E+00  0.16176823050E+03  0.16176823050E+03  0.00000000000E+00 0.  1.
         21   -1    0    0  504  502 -0.00000000000E+00 -0.00000000000E+00 -0.25605273189E+03  0.25605273189E+03  0.00000000000E+00 0.  1.
         21    1    1    2  503  501  0.30896252459E+02  0.27086684755E+02  0.37332254064E+02  0.55515440199E+02  0.00000000000E+00 0.  1.
         21    1    1    2  504  503  0.41186510927E+02  0.58431751684E+02 -0.34358136702E+02  0.79316327732E+02  0.00000000000E+00 0. -1.
         21    1    1    2  505  506  0.99750782039E+01 -0.56427036690E+02  0.72378326861E+02  0.92315409624E+02  0.00000000000E+00 0.  1.
         21    1    1    2  506  502 -0.82057841590E+02 -0.29091399750E+02 -0.16963694561E+03  0.19067378483E+03  0.00000000000E+00 0.  1.
<scales pt_clust_3="41.08853" pt_clust_4="79.01279" pt_clust_5="49.00714" pt_clust_6="14000.00000"></scales>
<clustering>
<clus scale="   41.089">  1  3  2 -1</clus>
<clus scale="   49.007">  1  5  2 -1</clus>
<clus scale="   79.013">  1  4  2 -1</clus>
<clus scale="   41.089">  1  3  2 -1</clus>
</clustering>
</event>
<event>
 6    0  0.4390142E+002  0.3067636E+03  0.7546771E-02  0.1081908E+00
         21   -1    0    0  503  501  0.00000000000E+00  0.00000000000E+00  0.72497967066E+03  0.72497967066E+03  0.00000000000E+00 0.  1.
         21   -1    0    0  501  502 -0.00000000000E+00 -0.00000000000E+00 -0.29459519363E+03  0.29459519363E+03  0.00000000000E+00 0. -1.
         21    1    1    2  503  504  0.28095659748E+02  0.38907143777E+02  0.59904022279E+02  0.76756913817E+02  0.00000000000E+00 0. -1.
         21    1    1    2  504  506  0.25698653547E+03 -0.17594737624E+03  0.47516757792E+03  0.56814063904E+03  0.00000000000E+00 0.  1.
         21    1    1    2  505  502 -0.30148917527E+02  0.83711787023E+01 -0.82521686358E+02  0.88254532916E+02  0.00000000000E+00 0.  1.
         21    1    1    2  506  505 -0.25493327769E+03  0.12866905376E+03 -0.22165436811E+02  0.28642277852E+03  0.00000000000E+00 0. -1.
<scales pt_clust_3="47.56808" pt_clust_4="306.76356" pt_clust_5="31.28952" pt_clust_6="14000.00000"></scales>
<clustering>
<clus scale="   31.290">  2  5  1 -1</clus>
<clus scale="   47.568">  1  3  2 -1</clus>
<clus scale="  306.764">  1  4  2 -1</clus>
<clus scale="   47.568">  1  3  2 -1</clus>
</clustering>
</event>
<event>
 6    0  0.4390142E+002  0.2329079E+03  0.7546771E-02  0.1124610E+00
         21   -1    0    0  504  501  0.00000000000E+00  0.00000000000E+00  0.64925720388E+02  0.64925720388E+02  0.00000000000E+00 0. -1.
         21   -1    0    0  501  502 -0.00000000000E+00 -0.00000000000E+00 -0.16564628565E+04  0.16564628565E+04  0.00000000000E+00 0. -1.
         21    1    1    2  503  502 -0.10517803886E+02 -0.14739339299E+03 -0.67781502707E+03  0.69373528627E+03  0.00000000000E+00 0. -1.
         21    1    1    2  504  506 -0.28445982376E+02  0.47955909064E+02 -0.42420819546E+02  0.70060467158E+02  0.00000000000E+00 0. -1.
         21    1    1    2  505  503 -0.13944888694E+02 -0.67298970858E+02 -0.72861730407E+03  0.73185161556E+03  0.00000000000E+00 0. -1.
         21    1    1    2  506  505  0.52908674957E+02  0.16673645479E+03 -0.14268398538E+03  0.22574120785E+03  0.00000000000E+00 0. -1.
<scales pt_clust_3="59.27776" pt_clust_4="45.66991" pt_clust_5="59.27776" pt_clust_6="230.72677"></scales>
<clustering>
<clus scale="   45.670">  4  6 -1 -1</clus>
<clus scale="   59.278">  3  5 -1 -1</clus>
<clus scale="  230.727">  1  4  2 -1</clus>
<clus scale="  230.727">  1  3  2 -1</clus>
</clustering>
</event>
<event>
 6    0  0.4390142E+002  0.4839520E+03  0.7546771E-02  0.1018055E+00
         21   -1    0    0  506  501  0.00000000000E+00  0.00000000000E+00  0.16765519778E+03  0.16765519778E+03  0.00000000000E+00 0.  1.
         21   -1    0    0  503  502 -0.00000000000E+00 -0.00000000000E+00 -0.17582179418E+04  0.17582179418E+04  0.00000000000E+00 0.  1.
         21    1    1    2  503  501 -0.20125780736E+03 -0.47348051593E+03 -0.98207115211E+03  0.11086713904E+04  0.00000000000E+00 0.  1.
         21    1    1    2  504  502  0.88314187862E+01  0.55884086848E+02 -0.16430033475E+03  0.17376888421E+03  0.00000000000E+00 0. -1.
         21    1    1    2  505  504  0.11984918404E+03  0.33331617430E+03 -0.33295148420E+03  0.48612775049E+03  0.00000000000E+00 0.  1.
         21    1    1    2  506  505  0.72577204528E+02  0.84280254775E+02 -0.11123977293E+03  0.15730511448E+03  0.00000000000E+00 0. -1.
<scales pt_clust_3="478.46027" pt_clust_4="56.57760" pt_clust_5="40.73828" pt_clust_6="40.73828"></scales>
<clustering>
<clus scale="   40.738">  5  6 -1 -1</clus>
<clus scale="   56.578">  2  4  1 -1</clus>
<clus scale="  478.460">  2  3  1 -1</clus>
<clus scale="  483.952">  1  3  2 -1</clus>
</clustering>
</event>
<event>
 6    0  0.4390142E+002  0.1162281E+03  0.7546771E-02  0.1249452E+00
         21   -1    0    0  503  501  0.00000000000E+00  0.00000000000E+00  0.15425857528E+03  0.15425857528E+03  0.00000000000E+00 0.  1.
         21   -1    0    0  504  502 -0.00000000000E+00 -0.00000000000E+00 -0.77554310013E+03  0.77554310013E+03  0.00000000000E+00 0.  1.
         21    1    1    2  503  505 -0.56198837070E+02  0.78252840556E+02  0.11228286007E+03  0.14795018421E+03  0.00000000000E+00 0.  1.
         21    1    1    2  504  506  0.92432993098E+02 -0.34769456790E+02 -0.66765729609E+03  0.67492150533E+03  0.00000000000E+00 0.  1.
         21    1    1    2  505  502  0.85743714205E+01 -0.30022463515E+02 -0.47088066132E+02  0.56499151611E+02  0.00000000000E+00 0. -1.
         21    1    1    2  506  501 -0.44808527448E+02 -0.13460920252E+02 -0.18822022701E+02  0.50430834265E+02  0.00000000000E+00 0. -1.
<scales pt_clust_3="116.22812" pt_clust_4="14000.00000" pt_clust_5="31.22288" pt_clust_6="46.83096"></scales>
<clustering>
<clus scale="   31.223">  2  5  1 -1</clus>
<clus scale="   46.831">  1  6  2 -1</clus>
<clus scale="  116.228">  1  3  2 -1</clus>
<clus scale="   46.831">  1  3  2 -1</clus>
</clustering>
</event>
<event>
 6    0  0.4390142E+002  0.8546247E+02  0.7546771E-02  0.1314228E+00
         21   -1    0    0  503  501  0.00000000000E+00  0.00000000000E+00  0.12778341578E+03  0.12778341578E+03  0.00000000000E+00 0. -1.
         21   -1    0    0  506  502 -0.00000000000E+00 -0.00000000000E+00 -0.29319810796E+03  0.29319810796E+03  0.00000000000E+00 0. -1.
         21    1    1    2  503  502 -0.83828861352E+01 -0.32271146310E+02  0.25383820603E+01  0.33438646020E+02  0.00000000000E+00 0. -1.
         21    1    1    2  504  501  0.87555833809E+02  0.76980160779E+02  0.61762999118E+02  0.13193421561E+03  0.00000000000E+00 0. -1.
         21    1    1    2  505  504 -0.63879747504E+02 -0.28060036491E+01 -0.10260332198E+03  0.12089639150E+03  0.00000000000E+00 0. -1.
         21    1    1    2  506  505 -0.15293200169E+02 -0.41903010820E+02 -0.12711275139E+03  0.13471227061E+03  0.00000000000E+00 0. -1.
<scales pt_clust_3="33.34216" pt_clust_4="14000.00000" pt_clust_5="85.46247" pt_clust_6="45.75529"></scales>
<clustering>
<clus scale="   33.342">  1  3  2 -1</clus>
<clus scale="   45.755">  2  6  1 -1</clus>
<clus scale="   85.462">  2  5  1 -1</clus>
<clus scale="   33.342">  1  3  2 -1</clus>
</clustering>
</event>
<event>
 6    0  0.4390142E+002  0.3070229E+03  0.7546771E-02  0.1081782E+00
         21   -1    0    0  502  501  0.00000000000E+00  0.00000000000E+00  0.13733914619E+04  0.13733914619E+04  0.00000000000E+00 0.  1.
         21   -1    0    0  503  502 -0.00000000000E+00 -0.00000000000E+00 -0.99601724223E+02  0.99601724223E+02  0.00000000000E+00 0.  1.
         21    1    1    2  503  506  0.21909492220E+02  0.56533486933E+02 -0.12093299088E+01  0.60642587948E+02  0.00000000000E+00 0.  1.
         21    1    1    2  504  501 -0.12610687027E+03  0.14835303505E+02  0.40262998302E+03  0.42217760740E+03  0.00000000000E+00 0.  1.
         21    1    1    2  505  504 -0.16029010216E+03  0.62342738591E+02  0.31243384372E+03  0.35664329604E+03  0.00000000000E+00 0.  1.
         21    1    1    2  506  505  0.26448748022E+03 -0.13371152903E+03  0.55993524089E+03  0.63352969479E+03  0.00000000000E+00 0.  1.
<scales pt_clust_3="60.63053" pt_clust_4="72.46194" pt_clust_5="72.46194" pt_clust_6="294.95256"></scales>
<clustering>
<clus scale="   60.631">  2  3  1 -1</clus>
<clus scale="   72.462">  4  5 -1 -1</clus>
<clus scale="  294.953">  2  6  1 -1</clus>
<clus scale="  307.023">  1  3  2 -1</clus>
</clustering>
</event>
<event>
 6    0  0.4390142E+002  0.9442846E+02  0.7546771E-02  0.1292469E+00
         21   -1    0    0  505  501  0.00000000000E+00  0.00000000000E+00  0.18324434145E+03  0.18324434145E+03  0.00000000000E+00 0.  1.
         21   -1    0    0  503  502 -0.00000000000E+00 -0.00000000000E+00 -0.17177104906E+03  0.17177104906E+03  0.00000000000E+00 0.  1.
         21    1    1    2  503  506 -0.36157427295E+02  0.20870731162E+02 -0.30440258927E+02  0.51667749432E+02  0.00000000000E+00 0.  1.
         21    1    1    2  504  502 -0.10927117852E+01 -0.31402177569E+02 -0.68917777734E+02  0.75742662106E+02  0.00000000000E+00 0.  1.
         21    1    1    2  505  504 -0.51175291326E+02 -0.51527707464E+02 -0.29479087960E+00  0.72623012747E+02  0.00000000000E+00 0.  1.
         21    1    1    2  506  501  0.88425430407E+02  0.62059153870E+02  0.11112611993E+03  0.15498196622E+03  0.00000000000E+00 0.  1.
<scales pt_clust_3="37.45260" pt_clust_4="31.42118" pt_clust_5="14000.00000" pt_clust_6="94.42846"></scales>
<clustering>
<clus scale="   31.421">  2  4  1 -1</clus>
<clus scale="   37.453">  2  3  1 -1</clus>
<clus scale="   94.428">  1  6  2 -1</clus>
<clus scale="   94.428">  1  3  2 -1</clus>
</clustering>
</event>
<event>
 6    0  0.4390142E+002  0.8741667E+02  0.7546771E-02  0.1309231E+00
         21   -1    0    0  506  501  0.00000000000E+00  0.00000000000E+00  0.33108386354E+03  0.33108386354E+03  0.00000000000E+00 0.  1.
         21   -1    0    0  503  502 -0.00000000000E+00 -0.00000000000E+00 -0.28839179952E+03  0.28839179952E+03  0.00000000000E+00 0. -1.
         21    1    1    2  503  505 -0.28838727046E+02 -0.56825571573E+02 -0.22520068141E+03  0.23404308294E+03  0.00000000000E+00 0. -1.
         21    1    1    2  504  502 -0.30706720198E+02 -0.97206372108E+01 -0.24379356968E+02  0.40394882093E+02  0.00000000000E+00 0.  1.
         21    1    1    2  505  501  0.41970173778E+02 -0.46046894117E+02  0.15224614618E+03  0.16450137073E+03  0.00000000000E+00 0.  1.
         21    1    1    2  506  504  0.17575273467E+02  0.11259310290E+03  0.14002595623E+03  0.18053632730E+03  0.00000000000E+00 0.  1.
<scales pt_clust_3="87.41667" pt_clust_4="32.20859" pt_clust_5="61.98499" pt_clust_6="14000.00000"></scales>
<clustering>
<clus scale="   32.209">  2  4  1 -1</clus>
<clus scale="   61.985">  1  5  2 -1</clus>
<clus scale="   87.417">  2  3  1 -1</clus>
<clus scale="   61.985">  1  3  2 -1</clus>
</clustering>
</event>
<event>
 6    0  0.4390142E+002  0.1231674E+03  0.7546771E-02  0.1237961E+00
         21   -1    0    0  503  501  0.00000000000E+00  0.00000000000E+00  0.16753481147E+03  0.16753481147E+03  0.00000000000E+00 0. -1.
         21   -1    0    0  504  502 -0.00000000000E+00 -0.00000000000E+00 -0.16405327223E+03  0.16405327223E+03  0.00000000000E+00 0. -1.
         21    1    1    2  503  502 -0.19657376114E+02  0.10643360382E+03  0.32755759384E+02  0.11308167062E+03  0.00000000000E+00 0. -1.
         21    1    1    2  504  506 -0.30751478766E+02  0.71721666465E+01 -0.72870335010E+02  0.79417750820E+02  0.00000000000E+00 0. -1.
         21    1    1    2  505  501  0.35562650236E+02 -0.71075187048E+02  0.49539154191E+02  0.93651012294E+02  0.00000000000E+00 0. -1.
         21    1    1    2  506  505  0.14846204644E+02 -0.42530583416E+02 -0.59430393168E+01  0.45437649965E+02  0.00000000000E+00 0. -1.
<scales pt_clust_3="114.77153" pt_clust_4="31.57679" pt_clust_5="33.06328" pt_clust_6="33.06328"></scales>
<clustering>
<clus scale="   31.577">  2  4  1 -1</clus>
<clus scale="   33.063">  5  6 -1 -1</clus>
<clus scale="  114.772">  1  3  2 -1</clus>
<clus scale="  114.772">  1  3  2 -1</clus>
</clustering>
</event>
<event>
 6    0  0.4390142E+002  0.6873179E+02  0.7546771E-02  0.1364460E+00
         21   -1    0    0  504  501  0.00000000000E+00  0.00000000000E+00  0.87296610710E+02  0.87296610710E+02  0.00000000000E+00 0.  1.
         21   -1    0    0  503  502 -0.00000000000E+00 -0.00000000000E+00 -0.46724432670E+03  0.46724432670E+03  0.00000000000E+00 0.  1.
         21    1    1    2  503  506  0.26013490944E+02 -0.19934912844E+02 -0.56635047281E+02  0.65434173348E+02  0.00000000000E+00 0.  1.
         21    1    1    2  504  505  0.40941201718E+02  0.38843550388E+02 -0.42198099245E+02  0.70467602377E+02  0.00000000000E+00 0.  1.
         21    1    1    2  505  502  0.35952154290E+02  0.45419962223E+02 -0.29115884204E+03  0.29686529212E+03  0.00000000000E+00 0.  1.
         21    1    1    2  506  501 -0.10290684695E+03 -0.64328599767E+02  0.10044272577E+02  0.12177386957E+03  0.00000000000E+00 0.  1.
<scales pt_clust_3="32.77350" pt_clust_4="57.32611" pt_clust_5="68.73179" pt_clust_6="14000.00000"></scales>
<clustering>
<clus scale="   32.774">  2  3  1 -1</clus>
<clus scale="   57.326">  1  4  2 -1</clus>
<clus scale="   68.732">  2  5  1 -1</clus>
<clus scale="   57.326">  1  3  2 -1</clus>
</clustering>
</event>
<event>
 6    0  0.4390142E+002  0.1946645E+03  0.7546771E-02  0.1154320E+00
         21   -1    0    0  504  501  0.00000000000E+00  0.00000000000E+00  0.13509650573E+04  0.13509650573E+04  0.00000000000E+00 0. -1.
         21   -1    0    0  506  502 -0.00000000000E+00 -0.00000000000E+00 -0.12594016302E+03  0.12594016302E+03  0.00000000000E+00 0.  1.
         21    1    1    2  503  501 -0.76666101869E+02  0.43864345260E+02  0.78346460513E+03  0.78842790378E+03  0.00000000000E+00 0. -1.
         21    1    1    2  504  502  0.45573954621E+01 -0.50574724771E+02  0.20241709139E+02  0.54665340280E+02  0.00000000000E+00 0.  1.
         21    1    1    2  505  503 -0.57625153430E+02  0.81111364668E+02  0.46696475582E+03  0.47744716458E+03  0.00000000000E+00 0. -1.
         21    1    1    2  506  505  0.12973385984E+03 -0.74400985157E+02 -0.45646175780E+02  0.15636481172E+03  0.00000000000E+00 0.  1.
<scales pt_clust_3="68.50318" pt_clust_4="50.77965" pt_clust_5="68.50318" pt_clust_6="180.77955"></scales>
<clustering>
<clus scale="   50.780">  2  4  1 -1</clus>
<clus scale="   68.503">  3  5 -1 -1</clus>
<clus scale="  180.780">  2  6  1 -1</clus>
<clus scale="  194.665">  1  3  2 -1</clus>
</clustering>
</event>
<event>
 6    0  0.4390142E+002  0.7004570E+02  0.7546771E-02  0.1359938E+00
         21   -1    0    0  505  501  0.00000000000E+00  0.00000000000E+00  0.27735924375E+03  0.27735924375E+03  0.00000000000E+00 0. -1.
         21   -1    0    0  504  502 -0.00000000000E+00 -0.00000000000E+00 -0.32852542396E+03  0.32852542396E+03  0.00000000000E+00 0. -1.
         21    1    1    2  503  501  0.80285148234E+02  0.38186676252E+02  0.15579910891E+03  0.17938029325E+03  0.00000000000E+00 0. -1.
         21    1    1    2  504  503  0.41039387189E+02  0.14774532569E+02 -0.14319989343E+03  0.14969544947E+03  0.00000000000E+00 0. -1.
         21    1    1    2  505  506 -0.33652720232E+02 -0.49078074754E+02  0.85194966572E+02  0.10391989862E+03  0.00000000000E+00 0. -1.
         21    1    1    2  506  502 -0.87671815191E+02 -0.38831340664E+01 -0.14896036227E+03  0.17288902636E+03  0.00000000000E+00 0. -1.
<scales pt_clust_3="14000.00000" pt_clust_4="43.61786" pt_clust_5="70.04570" pt_clust_6="52.21266"></scales>
<clustering>
<clus scale="   43.618">  2  4  1 -1</clus>
<clus scale="   52.213">  2  6  1 -1</clus>
<clus scale="   70.046">  1  5  2 -1</clus>
<clus scale="   70.046">  1  3  2 -1</clus>
</clustering>
</event>
<event>
 6    0  0.4390142E+002  0.8888333E+02  0.7546771E-02  0.1305579E+00
         21   -1    0    0  505  501  0.00000000000E+00  0.00000000000E+00  0.15235737297E+03  0.15235737297E+03  0.00000000000E+00 0. -1.
         21   -1    0    0  506  502 -0.00000000000E+00 -0.00000000000E+00 -0.67441790352E+03  0.67441790352E+03  0.00000000000E+00 0. -1.
         21    1    1    2  503  502 -0.50972405888E+02  0.71096706027E+02 -0.43990395753E+02  0.97918755550E+02  0.00000000000E+00 0. -1.
         21    1    1    2  504  501  0.39810021003E+02 -0.72908477813E+01  0.93088992423E+02  0.10150642711E+03  0.00000000000E+00 0. -1.
         21    1    1    2  505  503  0.19857004009E+02  0.27415464258E+02  0.12840677048E+02  0.36204851550E+02  0.00000000000E+00 0. -1.
         21    1    1    2  506  504 -0.86946191246E+01 -0.91221322504E+02 -0.58399980427E+03  0.59114524228E+03  0.00000000000E+00 0. -1.
<scales pt_clust_3="88.88333" pt_clust_4="56.57652" pt_clust_5="33.85127" pt_clust_6="14000.00000"></scales>
<clustering>
<clus scale="   33.851">  1  5  2 -1</clus>
<clus scale="   56.577">  1  4  2 -1</clus>
<clus scale="   88.883">  1  3  2 -1</clus>
<clus scale="   33.851">  1  3  2 -1</clus>
</clustering>
</event>
<event>
 6    0  0.4390142E+002  0.1544144E+03  0.7546771E-02  0.1195151E+00
         21   -1    0    0  504  501  0.00000000000E+00  0.00000000000E+00  0.38909469953E+03  0.38909469953E+03  0.00000000000E+00 0. -1.
         21   -1    0    0  506  502 -0.00000000000E+00 -0.00000000000E+00 -0.53375566567E+03  0.53375566567E+03  0.00000000000E+00 0.  1.
         21    1    1    2  503  502 -0.84889699654E+01 -0.86850266507E+02 -0.13324442658E+03  0.15927683014E+03  0.00000000000E+00 0.  1.
         21    1    1    2  504  505 -0.42937599447E+02  0.18200310378E+02  0.10503947420E+01  0.46647530194E+02  0.00000000000E+00 0. -1.
         21    1    1    2  505  503  0.12237965012E+03 -0.29606669729E+02 -0.34273050186E+03  0.36512673220E+03  0.00000000000E+00 0.  1.
         21    1    1    2  506  501 -0.70953080709E+02  0.98256625858E+02  0.33026356757E+03  0.35179927267E+03  0.00000000000E+00 0. -1.
<scales pt_clust_3="86.78197" pt_clust_4="46.63570" pt_clust_5="154.41439" pt_clust_6="14000.00000"></scales>
<clustering>
<clus scale="   46.636">  1  4  2 -1</clus>
<clus scale="   86.782">  2  3  1 -1</clus>
<clus scale="  154.414">  2  5  1 -1</clus>
<clus scale="   46.636">  1  3  2 -1</clus>
</clustering>
</event>
<event>
 6    0  0.4390142E+002  0.2365292E+03  0.7546771E-02  0.1122127E+00
         21   -1    0    0  502  501  0.00000000000E+00  0.00000000000E+00  0.30904033881E+03  0.30904033881E+03  0.00000000000E+00 0. -1.
         21   -1    0    0  503  502 -0.00000000000E+00 -0.00000000000E+00 -0.15733004743E+03  0.15733004743E+03  0.00000000000E+00 0.  1.
         21    1    1    2  503  504  0.12529892334E+03 -0.16134325370E+03  0.63434063068E+02  0.21390499307E+03  0.00000000000E+00 0. -1.
         21    1    1    2  504  505 -0.20723352209E+02  0.10028662224E+03  0.61727119953E+02  0.11957048660E+03  0.00000000000E+00 0.  1.
         21    1    1    2  505  506 -0.65677146788E+02  0.44722910840E+02 -0.58905868698E+01  0.79676379046E+02  0.00000000000E+00 0.  1.
         21    1    1    2  506  501 -0.38898424339E+02  0.16333720621E+02  0.32439695231E+02  0.53218527526E+02  0.00000000000E+00 0.  1.
<scales pt_clust_3="204.28281" pt_clust_4="92.05972" pt_clust_5="92.05972" pt_clust_6="34.88653"></scales>
<clustering>
<clus scale="   34.887">  5  6 -1 -1</clus>
<clus scale="   92.060">  4  5 -1 -1</clus>
<clus scale="  204.283">  2  3  1 -1</clus>
<clus scale="  236.529">  1  3  2 -1</clus>
</clustering>
</event>
<event>
 6    0  0.4390142E+002  0.1558418E+03  0.7546771E-02  0.1193473E+00
         21   -1    0    0  506  501  0.00000000000E+00  0.00000000000E+00  0.47385028633E+03  0.47385028633E+03  0.00000000000E+00 0. -1.
         21   -1    0    0  505  502 -0.00000000000E+00 -0.00000000000E+00 -0.63766790465E+03  0.63766790465E+03  0.00000000000E+00 0.  1.
         21    1    1    2  503  501  0.12825922847E+03  0.10294505814E+03  0.35662804860E+03  0.39272341378E+03  0.00000000000E+00 0. -1.
         21    1    1    2  504  503 -0.34028393907E+02 -0.12759538900E+03 -0.52110089230E+02  0.14196470084E+03  0.00000000000E+00 0.  1.
         21    1    1    2  505  504  0.87000492840E+02 -0.84906698943E+02 -0.13266697502E+03  0.17994098905E+03  0.00000000000E+00 0. -1.
         21    1    1    2  506  502 -0.18123132740E+03  0.10955702980E+03 -0.33566860266E+03  0.39688908731E+03  0.00000000000E+00 0.  1.
<scales pt_clust_3="14000.00000" pt_clust_4="155.84184" pt_clust_5="121.56576" pt_clust_6="123.50154"></scales>
<clustering>
<clus scale="  121.566">  2  5  1 -1</clus>
<clus scale="  123.502">  2  6  1 -1</clus>
<clus scale="  155.842">  2  4  1 -1</clus>
<clus scale="  155.842">  1  3  2 -1</clus>
</clustering>
</event>
<event>
 6    0  0.4390142E+002  0.2477830E+03  0.7546771E-02  0.1114714E+00
         21   -1    0    0  506  501  0.00000000000E+00  0.00000000000E+00  0.11948907068E+04  0.11948907068E+04  0.00000000000E+00 0. -1.
         21   -1    0    0  504  502 -0.00000000000E+00 -0.00000000000E+00 -0.35634626109E+03  0.35634626109E+03  0.00000000000E+00 0. -1.
         21    1    1    2  503  501  0.67985969258E+02  0.17038154448E+03  0.44755047682E+03  0.48368728742E+03  0.00000000000E+00 0.  1.
         21    1    1    2  504  505  0.12659995125E+03 -0.87837673559E+02 -0.28497420495E+03  0.32396497039E+03  0.00000000000E+00 0. -1.
         21    1    1    2  505  503 -0.40472898483E+02  0.74485196234E+02  0.13283765141E+03  0.15758153954E+03  0.00000000000E+00 0.  1.
         21    1    1    2  506  502 -0.15411302202E+03 -0.15702906715E+03  0.54313052238E+03  0.58600317050E+03  0.00000000000E+00 0. -1.
<scales pt_clust_3="79.44644" pt_clust_4="154.08765" pt_clust_5="79.44644" pt_clust_6="218.48978"></scales>
<clustering>
<clus scale="   79.446">  3  5 -1 -1</clus>
<clus scale="  154.088">  2  4  1 -1</clus>
<clus scale="  218.490">  1  6  2 -1</clus>
<clus scale="  218.490">  1  3  2 -1</clus>
</clustering>
</event>
<event>
 6    0  0.4390142E+002  0.2036720E+03  0.7546771E-02  0.1146677E+00
         21   -1    0    0  503  501  0.00000000000E+00  0.00000000000E+00  0.64815389424E+02  0.64815389424E+02  0.00000000000E+00 0. -1.
         21   -1    0    0  505  502 -0.00000000000E+00 -0.00000000000E+00 -0.11619499112E+04  0.11619499112E+04  0.00000000000E+00 0. -1.
         21    1    1    2  503  504  0.80144835273E+02 -0.16703569451E+03 -0.20541051036E+03  0.27661814045E+03  0.00000000000E+00 0. -1.
         21    1    1    2  504  502  0.44770087665E+02 -0.22679538783E+02 -0.43748002291E+03  0.44034928486E+03  0.00000000000E+00 0. -1.
         21    1    1    2  505  506 -0.52267121860E+02  0.10368726093E+03 -0.26940541496E+03  0.29336355894E+03  0.00000000000E+00 0. -1.
         21    1    1    2  506  501 -0.72647801077E+02  0.86027972357E+02 -0.18483857351E+03  0.21643431633E+03  0.00000000000E+00 0.  1.
<scales pt_clust_3="198.80046" pt_clust_4="50.18687" pt_clust_5="43.60366" pt_clust_6="43.60366"></scales>
<clustering>
<clus scale="   43.604">  5  6 -1 -1</clus>
<clus scale="   50.187">  2  4  1 -1</clus>
<clus scale="  198.800">  1  3  2 -1</clus>
<clus scale="  198.800">  1  3  2 -1</clus>
</clustering>
</event>
<event>
 6    0  0.4390142E+002  0.2952755E+03  0.7546771E-02  0.1087626E+00
         21   -1    0    0  504  501  0.00000000000E+00  0.00000000000E+00  0.17932605137E+03  0.17932605137E+03  0.00000000000E+00 0.  1.
         21   -1    0    0  503  502 -0.00000000000E+00 -0.00000000000E+00 -0.13360005788E+04  0.13360005788E+04  0.00000000000E+00 0.  1.
         21    1    1    2  503  506  0.33536356591E+02 -0.11333724723E+03 -0.16035879966E+03  0.19921085174E+03  0.00000000000E+00 0.  1.
         21    1    1    2  504  502 -0.21958381064E+03  0.23423762341E+03 -0.88542231409E+03  0.94183702858E+03  0.00000000000E+00 0.  1.
         21    1    1    2  505  501  0.21701076122E+03  0.85684445864E+01 -0.31966760533E+02  0.21951984536E+03  0.00000000000E+00 0.  1.
         21    1    1    2  506  505 -0.30963307170E+02 -0.12946882076E+03 -0.78926653124E+02  0.15475890447E+03  0.00000000000E+00 0.  1.
<scales pt_clust_3="89.76701" pt_clust_4="279.48520" pt_clust_5="217.17985" pt_clust_6="89.76701"></scales>
<clustering>
<clus scale="   89.767">  3  6 -1 -1</clus>
<clus scale="  217.180">  1  5  2 -1</clus>
<clus scale="  279.485">  2  4  1 -1</clus>
<clus scale="  217.180">  1  3  2 -1</clus>
</clustering>
</event>
<event>
 6    0  0.4390142E+002  0.1665764E+03  0.7546771E-02  0.1181466E+00
         21   -1    0    0  504  501  0.00000000000E+00  0.00000000000E+00  0.27275973104E+02  0.27275973104E+02  0.00000000000E+00 0.  1.
         21   -1    0    0  503  502 -0.00000000000E+00 -0.00000000000E+00 -0.14025051606E+04  0.14025051606E+04  0.00000000000E+00 0.  1.
         21    1    1    2  503  506  0.10897207412E+02  0.89333192487E+02 -0.15789687389E+03  0.18174320123E+03  0.00000000000E+00 0.  1.
         21    1    1    2  504  505  0.44670901892E+02 -0.57769288962E+01 -0.97543874263E+02  0.10744147146E+03  0.00000000000E+00 0.  1.
         21    1    1    2  505  502 -0.83641002927E+02 -0.13385446302E+03 -0.87501030893E+03  0.88913209108E+03  0.00000000000E+00 0.  1.
         21    1    1    2  506  501  0.28072893623E+02  0.50298199426E+02 -0.24477813038E+03  0.25146436991E+03  0.00000000000E+00 0.  1.
<scales pt_clust_3="54.11542" pt_clust_4="45.04289" pt_clust_5="152.45208" pt_clust_6="54.11542"></scales>
<clustering>
<clus scale="   45.043">  1  4  2 -1</clus>
<clus scale="   54.115">  3  6 -1 -1</clus>
<clus scale="  152.452">  2  5  1 -1</clus>
<clus scale="   45.043">  1  3  2 -1</clus>
</clustering>
</event>
<event>
 6    0  0.4390142E+002  0.3054865E+03  0.7546771E-02  0.1082530E+00
         21   -1    0    0  506  501  0.00000000000E+00  0.00000000000E+00  0.47670731227E+03  0.47670731227E+03  0.00000000000E+00 0. -1.
         21   -1    0    0  504  502 -0.00000000000E+00 -0.00000000000E+00 -0.16536875862E+04  0.16536875862E+04  0.00000000000E+00 0.  1.
         21    1    1    2  503  501  0.52089508399E+01  0.62286472226E+02  0.24829792638E+03  0.25604413298E+03  0.00000000000E+00 0. -1.
         21    1    1    2  504  505  0.30534777449E+03 -0.92120385868E+02 -0.12233469252E+04  0.12642393477E+04  0.00000000000E+00 0.  1.
         21    1    1    2  505  503 -0.27688752753E+03  0.25695409349E+02 -0.35635078783E+03  0.45200977971E+03  0.00000000000E+00 0. -1.
         21    1    1    2  506  502 -0.33669197795E+02  0.41385042934E+01  0.15441951265E+03  0.15810163815E+03  0.00000000000E+00 0. -1.
<scales pt_clust_3="68.91320" pt_clust_4="305.48645" pt_clust_5="14000.00000" pt_clust_6="33.92259"></scales>
<clustering>
<clus scale="   33.923">  1  6  2 -1</clus>
<clus scale="   68.913">  1  3  2 -1</clus>
<clus scale="  305.486">  2  4  1 -1</clus>
<clus scale="   33.923">  1  3  2 -1</clus>
</clustering>
</event>
<event>
 6    0  0.4390142E+002  0.1505764E+03  0.7546771E-02  0.1199766E+00
         21   -1    0    0  504  501  0.00000000000E+00  0.00000000000E+00  0.11112022837E+04  0.11112022837E+04  0.00000000000E+00 0.  1.
         21   -1    0    0  503  502 -0.00000000000E+00 -0.00000000000E+00 -0.34872554950E+02  0.34872554950E+02  0.00000000000E+00 0.  1.
         21    1    1    2  503  506  0.96718048926E+01  0.74401693428E+02  0.11501628593E+03  0.13732407591E+03  0.00000000000E+00 0.  1.
         21    1    1    2  504  502  0.39379118648E+02 -0.15708334420E+03  0.72308227154E+03  0.74099518448E+03  0.00000000000E+00 0.  1.
         21    1    1    2  505  501 -0.29820681050E+01  0.33138354976E+02  0.16391568677E+03  0.16725846965E+03  0.00000000000E+00 0.  1.
         21    1    1    2  506  505 -0.46068855436E+02  0.49543295796E+02  0.74315484481E+02  0.10049710858E+03  0.00000000000E+00 0.  1.
<scales pt_clust_3="59.63005" pt_clust_4="136.55757" pt_clust_5="33.27226" pt_clust_6="59.63005"></scales>
<clustering>
<clus scale="   33.272">  1  5  2 -1</clus>
<clus scale="   59.630">  3  6 -1 -1</clus>
<clus scale="  136.558">  1  4  2 -1</clus>
<clus scale="   33.272">  1  3  2 -1</clus>
</clustering>
</event>
<event>
 6    0  0.4390142E+002  0.1080614E+03  0.7546771E-02  0.1264203E+00
         21   -1    0    0  503  501  0.00000000000E+00  0.00000000000E+00  0.11310230505E+04  0.11310230505E+04  0.00000000000E+00 0. -1.
         21   -1    0    0  504  502 -0.00000000000E+00 -0.00000000000E+00 -0.49847633413E+02  0.49847633413E+02  0.00000000000E+00 0. -1.
         21    1    1    2  503  506 -0.28304249637E+01  0.34349524142E+02  0.14025074284E+03  0.14442358527E+03  0.00000000000E+00 0. -1.
         21    1    1    2  504  501  0.69077753767E+02  0.67026545197E+02  0.86031893705E+03  0.86568641394E+03  0.00000000000E+00 0. -1.
         21    1    1    2  505  502  0.87629523114E+01 -0.66982836550E+02  0.29629947878E+02  0.73766005292E+02  0.00000000000E+00 0. -1.
         21    1    1    2  506  505 -0.75010281114E+02 -0.34393232788E+02  0.50975789272E+02  0.96994679371E+02  0.00000000000E+00 0. -1.
<scales pt_clust_3="34.46594" pt_clust_4="14000.00000" pt_clust_5="65.75352" pt_clust_6="108.06142"></scales>
<clustering>
<clus scale="   34.466">  1  3  2 -1</clus>
<clus scale="   65.754">  2  5  1 -1</clus>
<clus scale="  108.061">  2  6  1 -1</clus>
<clus scale="   34.466">  1  3  2 -1</clus>
</clustering>
</event>
<event>
 6    0  0.4390142E+002  0.9679204E+02  0.7546771E-02  0.1287190E+00
         21   -1    0    0  504  501  0.00000000000E+00  0.00000000000E+00  0.47122749357E+03  0.47122749357E+03  0.00000000000E+00 0. -1.
         21   -1    0    0  501  502 -0.00000000000E+00 -0.00000000000E+00 -0.24518503761E+03  0.24518503761E+03  0.00000000000E+00 0. -1.
         21    1    1    2  503  502  0.67742012008E+02  0.66906582984E+02 -0.18434867620E+03  0.20748471137E+03  0.00000000000E+00 0. -1.
         21    1    1    2  504  506  0.22401455634E+02  0.64911722559E+02  0.14522142201E+03  0.16063815969E+03  0.00000000000E+00 0. -1.
         21    1    1    2  505  503 -0.20123721738E+02 -0.14655856683E+03  0.13766521511E+03  0.20207941295E+03  0.00000000000E+00 0. -1.
         21    1    1    2  506  505 -0.70019745904E+02  0.14740261290E+02  0.12750449504E+03  0.14621024716E+03  0.00000000000E+00 0. -1.
<scales pt_clust_3="14000.00000" pt_clust_4="68.66846" pt_clust_5="96.79204" pt_clust_6="73.93057"></scales>
<clustering>
<clus scale="   68.668">  1  4  2 -1</clus>
<clus scale="   73.931">  1  6  2 -1</clus>
<clus scale="   96.792">  1  5  2 -1</clus>
<clus scale="   68.668">  1  3  2 -1</clus>
</clustering>
</event>
<event>
 6    0  0.4390142E+002  0.2540639E+03  0.7546771E-02  0.1110763E+00
         21   -1    0    0  502  501  0.00000000000E+00  0.00000000000E+00  0.89810554856E+03  0.89810554856E+03  0.00000000000E+00 0. -1.
         21   -1    0    0  506  502 -0.00000000000E+00 -0.00000000000E+00 -0.19097459800E+03  0.19097459800E+03  0.00000000000E+00 0. -1.
         21    1    1    2  503  501  0.32980908618E+02  0.71122643724E+02  0.21543696428E+03  0.22925805626E+03  0.00000000000E+00 0. -1.
         21    1    1    2  504  505 -0.19457642159E+03 -0.72112256822E+02 -0.45980921616E+02  0.21254271706E+03  0.00000000000E+00 0. -1.
         21    1    1    2  505  503  0.14876329902E+03  0.11116865445E+03  0.49454633432E+03  0.52826609361E+03  0.00000000000E+00 0. -1.
         21    1    1    2  506  504  0.12832213955E+02 -0.11017904135E+03  0.43128573572E+02  0.11901327962E+03  0.00000000000E+00 0. -1.
<scales pt_clust_3="38.46845" pt_clust_4="247.06874" pt_clust_5="38.46845" pt_clust_6="110.92379"></scales>
<clustering>
<clus scale="   38.468">  3  5 -1 -1</clus>
<clus scale="  110.924">  2  6  1 -1</clus>
<clus scale="  247.069">  2  4  1 -1</clus>
<clus scale="  254.064">  1  3  2 -1</clus>
</clustering>
</event>
<event>
 6    0  0.4390142E+002  0.9903880E+02  0.7546771E-02  0.1282330E+00
         21   -1    0    0  503  501  0.00000000000E+00  0.00000000000E+00  0.40880731775E+03  0.40880731775E+03  0.00000000000E+00 0.  1.
         21   -1    0    0  504  502 -0.00000000000E+00 -0.00000000000E+00 -0.20845074761E+03  0.20845074761E+03  0.00000000000E+00 0.  1.
         21    1    1    2  503  505 -0.26836149751E+02  0.27741023800E+02  0.33604776077E+02  0.51176403841E+02  0.00000000000E+00 0.  1.
         21    1    1    2  504  506  0.10914898791E+03  0.25585472933E+02 -0.90600212989E+02  0.14414061392E+03  0.00000000000E+00 0.  1.
         21    1    1    2  505  502 -0.87262780512E+02  0.39614245509E+02 -0.44793543745E+02  0.10578536227E+03  0.00000000000E+00 0.  1.
         21    1    1    2  506  501  0.49499423566E+01 -0.92940742242E+02  0.30214555079E+03  0.31615568532E+03  0.00000000000E+00 0.  1.
<scales pt_clust_3="38.59719" pt_clust_4="14000.00000" pt_clust_5="99.03880" pt_clust_6="71.75071"></scales>
<clustering>
<clus scale="   38.597">  1  3  2 -1</clus>
<clus scale="   71.751">  1  6  2 -1</clus>
<clus scale="   99.039">  1  5  2 -1</clus>
<clus scale="   38.597">  1  3  2 -1</clus>
</clustering>
</event>
<event>
 6    0  0.4390142E+002  0.7282285E+02  0.7546771E-02  0.1350749E+00
         21   -1    0    0  505  501  0.00000000000E+00  0.00000000000E+00  0.40286535087E+03  0.40286535087E+03  0.00000000000E+00 0.  1.
         21   -1    0    0  503  502 -0.00000000000E+00 -0.00000000000E+00 -0.61548974493E+02  0.61548974493E+02  0.00000000000E+00 0.  1.
         21    1    1    2  503  506  0.65704772436E+02  0.23431084296E+02  0.23284154516E+02  0.73541040812E+02  0.00000000000E+00 0.  1.
         21    1    1    2  504  502  0.11277625857E+02 -0.65066473304E+02  0.60816055627E+02  0.89774291505E+02  0.00000000000E+00 0.  1.
         21    1    1    2  505  504 -0.33349254400E+02  0.74962128842E+02  0.76321606801E+02  0.11205570576E+03  0.00000000000E+00 0.  1.
         21    1    1    2  506  501 -0.43633143892E+02 -0.33326739835E+02  0.18089455943E+03  0.18904328728E+03  0.00000000000E+00 0.  1.
<scales pt_clust_3="58.25805" pt_clust_4="14000.00000" pt_clust_5="72.82285" pt_clust_6="54.90467"></scales>
<clustering>
<clus scale="   54.905">  1  6  2 -1</clus>
<clus scale="   58.258">  2  3  1 -1</clus>
<clus scale="   72.823">  1  5  2 -1</clus>
<clus scale="   54.905">  1  3  2 -1</clus>
</clustering>
</event>
<event>
 6    0  0.4390142E+002  0.1156552E+03  0.7546771E-02  0.1250442E+00
         21   -1    0    0  505  501  0.00000000000E+00  0.00000000000E+00  0.45188643058E+03  0.45188643058E+03  0.00000000000E+00 0.  1.
         21   -1    0    0  503  502 -0.00000000000E+00 -0.00000000000E+00 -0.17000981421E+03  0.17000981421E+03  0.00000000000E+00 0.  1.
         21    1    1    2  503  506  0.21156151061E+02 -0.14791896623E+03  0.15450532593E+03  0.21494068726E+03  0.00000000000E+00 0.  1.
         21    1    1    2  504  502 -0.84733356370E+02  0.77656727991E+02 -0.94140688640E+02  0.14856910292E+03  0.00000000000E+00 0.  1.
         21    1    1    2  505  504  0.15580471745E+02  0.77847431634E+02  0.10115015883E+03  0.12858587926E+03  0.00000000000E+00 0.  1.
         21    1    1    2  506  501  0.47996733564E+02 -0.75851934000E+01  0.12036182025E+03  0.12980057536E+03  0.00000000000E+00 0.  1.
<scales pt_clust_3="14000.00000" pt_clust_4="115.65523" pt_clust_5="81.88579" pt_clust_6="48.59240"></scales>
<clustering>
<clus scale="   48.592">  1  6  2 -1</clus>
<clus scale="   81.886">  1  5  2 -1</clus>
<clus scale="  115.655">  2  4  1 -1</clus>
<clus scale="   48.592">  1  3  2 -1</clus>
</clustering>
</event>
<event>
 6    0  0.4390142E+002  0.1355618E+03  0.7546771E-02  0.1219429E+00
         21   -1    0    0  504  501  0.00000000000E+00  0.00000000000E+00  0.31974875406E+04  0.31974875406E+04  0.00000000000E+00 0. -1.
         21   -1    0    0  505  502 -0.00000000000E+00 -0.00000000000E+00 -0.21486838130E+03  0.21486838130E+03  0.00000000000E+00 0. -1.
         21    1    1    2  503  506 -0.32842993208E+02 -0.11472082560E+03 -0.10473531645E+03  0.15877347556E+03  0.00000000000E+00 0. -1.
         21    1    1    2  504  503 -0.11605384174E+01  0.11770889053E+03  0.26938691913E+04  0.26964398657E+04  0.00000000000E+00 0. -1.
         21    1    1    2  505  501  0.64226101691E+02  0.33810331482E+01  0.47012985276E+03  0.47450869537E+03  0.00000000000E+00 0.  1.
         21    1    1    2  506  502 -0.30222570066E+02 -0.63690980798E+01 -0.76644568263E+02  0.82633885277E+02  0.00000000000E+00 0. -1.
<scales pt_clust_3="135.56178" pt_clust_4="14000.00000" pt_clust_5="63.82102" pt_clust_6="30.88639"></scales>
<clustering>
<clus scale="   30.886">  2  6  1 -1</clus>
<clus scale="   63.821">  1  5  2 -1</clus>
<clus scale="  135.562">  2  3  1 -1</clus>
<clus scale="   63.821">  1  3  2 -1</clus>
</clustering>
</event>
<event>
 6    0  0.4390142E+002  0.8441888E+02  0.7546771E-02  0.1316959E+00
         21   -1    0    0  505  501  0.00000000000E+00  0.00000000000E+00  0.79181132142E+02  0.79181132142E+02  0.00000000000E+00 0. -1.
         21   -1    0    0  504  502 -0.00000000000E+00 -0.00000000000E+00 -0.30028512725E+03  0.30028512725E+03  0.00000000000E+00 0. -1.
         21    1    1    2  503  506 -0.49270596120E+02  0.36823033537E+02 -0.23676139866E+02  0.65909688513E+02  0.00000000000E+00 0. -1.
         21    1    1    2  504  501  0.10817116592E+03 -0.45420935653E+02 -0.87160429659E+02  0.14615403871E+03  0.00000000000E+00 0. -1.
         21    1    1    2  505  503 -0.38644756545E+02 -0.17886918709E+02  0.90323227698E+01  0.43530930658E+02  0.00000000000E+00 0. -1.
         21    1    1    2  506  502 -0.20255813254E+02  0.26484820825E+02 -0.11929974835E+03  0.12387160151E+03  0.00000000000E+00 0. -1.
<scales pt_clust_3="14000.00000" pt_clust_4="84.41888" pt_clust_5="43.39794" pt_clust_6="33.34282"></scales>
<clustering>
<clus scale="   33.343">  2  6  1 -1</clus>
<clus scale="   43.398">  1  5  2 -1</clus>
<clus scale="   84.419">  2  4  1 -1</clus>
<clus scale="   43.398">  1  3  2 -1</clus>
</clustering>
</event>
<event>
 6    0  0.4390142E+002  0.8644857E+02  0.7546771E-02  0.1311687E+00
         21   -1    0    0  505  501  0.00000000000E+00  0.00000000000E+00  0.11038074218E+03  0.11038074218E+03  0.00000000000E+00 0.  1.
         21   -1    0    0  504  502 -0.00000000000E+00 -0.00000000000E+00 -0.35103542108E+03  0.35103542108E+03  0.00000000000E+00 0.  1.
         21    1    1    2  503  502 -0.71304421502E+02  0.90257673508E+01 -0.17743300159E+03  0.19143733976E+03  0.00000000000E+00 0.  1.
         21    1    1    2  504  501  0.60120468472E+01 -0.11320590575E+03  0.12292189214E+02  0.11402990713E+03  0.00000000000E+00 0.  1.
         21    1    1    2  505  506  0.11113267100E+02  0.33791487828E+02  0.51747543707E+01  0.35946452371E+02  0.00000000000E+00 0. -1.
         21    1    1    2  506  503  0.54179107555E+02  0.70388650570E+02 -0.80688620897E+02  0.12000246400E+03  0.00000000000E+00 0.  1.
<scales pt_clust_3="71.39662" pt_clust_4="86.44857" pt_clust_5="35.57203" pt_clust_6="14000.00000"></scales>
<clustering>
<clus scale="   35.572">  1  5  2 -1</clus>
<clus scale="   71.397">  2  3  1 -1</clus>
<clus scale="   86.449">  1  4  2 -1</clus>
<clus scale="   35.572">  1  3  2 -1</clus>
</clustering>
</event>
<event>
 6    0  0.4390142E+002  0.1057155E+03  0.7546771E-02  0.1268716E+00
         21   -1    0    0  506  501  0.00000000000E+00  0.00000000000E+00  0.22056571545E+03  0.22056571545E+03  0.00000000000E+00 0.  1.
         21   -1    0    0  504  502 -0.00000000000E+00 -0.00000000000E+00 -0.25737940470E+03  0.25737940470E+03  0.00000000000E+00 0.  1.
         21    1    1    2  503  501 -0.50356081808E+02  0.47131282014E+02 -0.12650146544E+02  0.70122171436E+02  0.00000000000E+00 0.  1.
         21    1    1    2  504  503 -0.35025072862E+02  0.13603973081E+02 -0.14661932951E+03  0.15135736388E+03  0.00000000000E+00 0.  1.
         21    1    1    2  505  502  0.31614910499E+02  0.61231787466E+02 -0.87094766779E+01  0.69459983776E+02  0.00000000000E+00 0. -1.
         21    1    1    2  506  505  0.53766244170E+02 -0.12196704256E+03  0.13116526349E+03  0.18700560107E+03  0.00000000000E+00 0.  1.
<scales pt_clust_3="14000.00000" pt_clust_4="37.57424" pt_clust_5="68.80824" pt_clust_6="105.71546"></scales>
<clustering>
<clus scale="   37.574">  2  4  1 -1</clus>
<clus scale="   68.808">  2  5  1 -1</clus>
<clus scale="  105.715">  1  6  2 -1</clus>
<clus scale="  105.715">  1  3  2 -1</clus>
</clustering>
</event>
<event>
 6    0  0.4390142E+002  0.8742842E+02  0.7546771E-02  0.1309201E+00
         21   -1    0    0  506  501  0.00000000000E+00  0.00000000000E+00  0.14365026783E+04  0.14365026783E+04  0.00000000000E+00 0. -1.
         21   -1    0    0  504  502 -0.00000000000E+00 -0.00000000000E+00 -0.41959469929E+02  0.41959469929E+02  0.00000000000E+00 0. -1.
         21    1    1    2  503  501 -0.13823833531E+02 -0.67963376563E+02  0.21979734621E+03  0.23047991741E+03  0.00000000000E+00 0. -1.
         21    1    1    2  504  503  0.23478024920E+02 -0.73231828304E+02  0.79962628033E+02  0.11094205791E+03  0.00000000000E+00 0. -1.
         21    1    1    2  505  502  0.12301687485E-01  0.10443665650E+03  0.11057441002E+03  0.15209771702E+03  0.00000000000E+00 0. -1.
         21    1    1    2  506  505 -0.96664930763E+01  0.36758548371E+02  0.98420882415E+03  0.98494245593E+03  0.00000000000E+00 0. -1.
<scales pt_clust_3="53.03461" pt_clust_4="14000.00000" pt_clust_5="87.42842" pt_clust_6="38.00831"></scales>
<clustering>
<clus scale="   38.008">  1  6  2 -1</clus>
<clus scale="   53.035">  1  3  2 -1</clus>
<clus scale="   87.428">  1  5  2 -1</clus>
<clus scale="   38.008">  1  3  2 -1</clus>
</clustering>
</event>
<event>
 6    0  0.4390142E+002  0.1388993E+03  0.7546771E-02  0.1214818E+00
         21   -1    0    0  503  501  0.00000000000E+00  0.00000000000E+00  0.29231510126E+03  0.29231510126E+03  0.00000000000E+00 0.  1.
         21   -1    0    0  505  502 -0.00000000000E+00 -0.00000000000E+00 -0.13869883201E+04  0.13869883201E+04  0.00000000000E+00 0.  1.
         21    1    1    2  503  506 -0.99763282315E+02  0.14704864032E+03  0.11380711017E+03  0.21101676105E+03  0.00000000000E+00 0.  1.
         21    1    1    2  504  501  0.27608501604E+02 -0.42756204941E+02  0.88236892607E+02  0.10186300427E+03  0.00000000000E+00 0. -1.
         21    1    1    2  505  504  0.58945798018E+02 -0.13452673533E+03 -0.12114768646E+03  0.19039120662E+03  0.00000000000E+00 0.  1.
         21    1    1    2  506  502  0.13208982693E+02  0.30234299949E+02 -0.11755695351E+04  0.11760324494E+04  0.00000000000E+00 0.  1.
<scales pt_clust_3="14000.00000" pt_clust_4="50.31479" pt_clust_5="138.89931" pt_clust_6="32.99379"></scales>
<clustering>
<clus scale="   32.994">  2  6  1 -1</clus>
<clus scale="   50.315">  1  4  2 -1</clus>
<clus scale="  138.899">  2  5  1 -1</clus>
<clus scale="   50.315">  1  3  2 -1</clus>
</clustering>
</event>
<event>
 6    0  0.4390142E+002  0.2471187E+03  0.7546771E-02  0.1115139E+00
         21   -1    0    0  503  501  0.00000000000E+00  0.00000000000E+00  0.10192770352E+04  0.10192770352E+04  0.00000000000E+00 0. -1.
         21   -1    0    0  505  502 -0.00000000000E+00 -0.00000000000E+00 -0.74351774500E+03  0.74351774500E+03  0.00000000000E+00 0. -1.
         21    1    1    2  503  506 -0.21828865442E+02  0.66435143462E+02  0.13012927821E+03  0.14772865904E+03  0.00000000000E+00 0. -1.
         21    1    1    2  504  501  0.20011582961E+03  0.10287537516E+03  0.71886133027E+03  0.75325380864E+03  0.00000000000E+00 0. -1.
         21    1    1    2  505  504 -0.37063579848E+03 -0.43325924497E+02 -0.19983828317E+03  0.42330056729E+03  0.00000000000E+00 0. -1.
         21    1    1    2  506  502  0.19234883432E+03 -0.12598459413E+03 -0.37339303512E+03  0.43851174522E+03  0.00000000000E+00 0.  1.
<scales pt_clust_3="69.92945" pt_clust_4="247.11871" pt_clust_5="14000.00000" pt_clust_6="227.91927"></scales>
<clustering>
<clus scale="   69.929">  1  3  2 -1</clus>
<clus scale="  227.919">  2  6  1 -1</clus>
<clus scale="  247.119">  1  4  2 -1</clus>
<clus scale="   69.929">  1  3  2 -1</clus>
</clustering>
</event>
<event>
 6    0  0.4390142E+002  0.1915550E+03  0.7546771E-02  0.1157066E+00
         21   -1    0    0  505  501  0.00000000000E+00  0.00000000000E+00  0.11865067335E+03  0.11865067335E+03  0.00000000000E+00 0.  1.
         21   -1    0    0  503  502 -0.00000000000E+00 -0.00000000000E+00 -0.11826203943E+04  0.11826203943E+04  0.00000000000E+00 0.  1.
         21    1    1    2  503  501 -0.11509808069E+03  0.70511613292E+01 -0.13914631082E+03  0.18071796498E+03  0.00000000000E+00 0.  1.
         21    1    1    2  504  506  0.11994780322E+03 -0.56018613024E+02 -0.41838061445E+03  0.43882559069E+03  0.00000000000E+00 0.  1.
         21    1    1    2  505  504 -0.74064975588E+02  0.69034671571E+02  0.55309632874E+02  0.11537140883E+03  0.00000000000E+00 0.  1.
         21    1    1    2  506  502  0.69215253059E+02 -0.20067219876E+02 -0.56175242858E+03  0.56635610316E+03  0.00000000000E+00 0.  1.
<scales pt_clust_3="168.92476" pt_clust_4="66.63936" pt_clust_5="101.24923" pt_clust_6="66.63936"></scales>
<clustering>
<clus scale="   66.639">  4  6 -1 -1</clus>
<clus scale="  101.249">  1  5  2 -1</clus>
<clus scale="  168.925">  1  3  2 -1</clus>
<clus scale="  101.249">  1  3  2 -1</clus>
</clustering>
</event>
<event>
 6    0  0.4390142E+002  0.8558600E+02  0.7546771E-02  0.1313907E+00
         21   -1    0    0  506  501  0.00000000000E+00  0.00000000000E+00  0.23349791257E+03  0.23349791257E+03  0.00000000000E+00 0.  1.
         21   -1    0    0  503  502 -0.00000000000E+00 -0.00000000000E+00 -0.93339526837E+02  0.93339526837E+02  0.00000000000E+00 0.  1.
         21    1    1    2  503  505  0.45352041622E+02 -0.20882705483E+02  0.22382576624E+02  0.54716312046E+02  0.00000000000E+00 0. -1.
         21    1    1    2  504  502  0.14177085604E+02 -0.72698260056E+02 -0.16274931525E+02  0.75834689737E+02  0.00000000000E+00 0.  1.
         21    1    1    2  505  501 -0.40129569033E+01  0.86441907705E+02  0.70647475671E+02  0.11171111426E+03  0.00000000000E+00 0.  1.
         21    1    1    2  506  504 -0.55516170322E+02  0.71390578340E+01  0.63403264963E+02  0.84575323363E+02  0.00000000000E+00 0.  1.
<scales pt_clust_3="49.92890" pt_clust_4="14000.00000" pt_clust_5="85.58600" pt_clust_6="49.48006"></scales>
<clustering>
<clus scale="   49.929">  2  3  1 -1</clus>
<clus scale="   49.480">  1  6  2 -1</clus>
<clus scale="   85.586">  1  5  2 -1</clus>
<clus scale="   49.480">  1  3  2 -1</clus>
</clustering>
</event>
<event>
 6    0  0.4390142E+002  0.9245576E+02  0.7546771E-02  0.1297011E+00
         21   -1    0    0  504  501  0.00000000000E+00  0.00000000000E+00  0.13855382541E+03  0.13855382541E+03  0.00000000000E+00 0.  1.
         21   -1    0    0  503  502 -0.00000000000E+00 -0.00000000000E+00 -0.13041440331E+04  0.13041440331E+04  0.00000000000E+00 0.  1.
         21    1    1    2  503  506  0.15240634501E+02  0.10106734562E+03 -0.17513014159E+03  0.20277438641E+03  0.00000000000E+00 0.  1.
         21    1    1    2  504  505 -0.30609853051E+02 -0.46094427350E+02 -0.79301219495E+01  0.55897640117E+02  0.00000000000E+00 0.  1.
         21    1    1    2  505  502  0.14080255267E+02 -0.90566652035E+02 -0.10781235893E+04  0.10820124980E+04  0.00000000000E+00 0.  1.
         21    1    1    2  506  501  0.12889632825E+01  0.35593733769E+02  0.95593645166E+02  0.10201333396E+03  0.00000000000E+00 0.  1.
<scales pt_clust_3="92.45576" pt_clust_4="38.67857" pt_clust_5="14000.00000" pt_clust_6="35.61706"></scales>
<clustering>
<clus scale="   35.617">  1  6  2 -1</clus>
<clus scale="   38.679">  1  4  2 -1</clus>
<clus scale="   92.456">  1  3  2 -1</clus>
<clus scale="   35.617">  1  3  2 -1</clus>
</clustering>
</event>
<event>
 6    0  0.4390142E+002  0.8437171E+02  0.7546771E-02  0.1317084E+00
         21   -1    0    0  506  501  0.00000000000E+00  0.00000000000E+00  0.58912185355E+02  0.58912185355E+02  0.00000000000E+00 0.  1.
         21   -1    0    0  503  502 -0.00000000000E+00 -0.00000000000E+00 -0.14357039154E+04  0.14357039154E+04  0.00000000000E+00 0. -1.
         21    1    1    2  503  501  0.74322913703E+00  0.57025180261E+02 -0.28824579817E+02  0.63900547533E+02  0.00000000000E+00 0.  1.
         21    1    1    2  504  505 -0.54136209965E+01 -0.10155558198E+03 -0.64191880418E+03  0.64992506851E+03  0.00000000000E+00 0.  1.
         21    1    1    2  505  502  0.58876228749E+02  0.26763552547E+02 -0.71932174693E+03  0.72222328518E+03  0.00000000000E+00 0. -1.
         21    1    1    2  506  504 -0.54205836889E+02  0.17766849167E+02  0.13273400930E+02  0.58567199476E+02  0.00000000000E+00 0.  1.
<scales pt_clust_3="57.03002" pt_clust_4="84.37171" pt_clust_5="65.54996" pt_clust_6="14000.00000"></scales>
<clustering>
<clus scale="   57.030">  1  3  2 -1</clus>
<clus scale="   65.550">  2  5  1 -1</clus>
<clus scale="   84.372">  2  4  1 -1</clus>
<clus scale="   57.030">  1  3  2 -1</clus>
</clustering>
</event>
<event>
 6    0  0.4390142E+002  0.1353758E+03  0.7546771E-02  0.1219690E+00
         21   -1    0    0  503  501  0.00000000000E+00  0.00000000000E+00  0.15919351976E+04  0.15919351976E+04  0.00000000000E+00 0.  1.
         21   -1    0    0  506  502 -0.00000000000E+00 -0.00000000000E+00 -0.91488943242E+02  0.91488943242E+02  0.00000000000E+00 0. -1.
         21    1    1    2  503  505  0.15232488546E+02  0.26258662264E+02  0.32056291083E+03  0.32199708982E+03  0.00000000000E+00 0.  1.
         21    1    1    2  504  502  0.77694143386E+02  0.27088732204E+02  0.21925051327E+03  0.23418148282E+03  0.00000000000E+00 0.  1.
         21    1    1    2  505  504  0.49298558568E+02 -0.66633918946E+00  0.97376258694E+03  0.97500993206E+03  0.00000000000E+00 0.  1.
         21    1    1    2  506  501 -0.14222519050E+03 -0.52681055278E+02 -0.13129756692E+02  0.15223563613E+03  0.00000000000E+00 0. -1.
<scales pt_clust_3="30.35698" pt_clust_4="135.37576" pt_clust_5="64.01219" pt_clust_6="14000.00000"></scales>
<clustering>
<clus scale="   30.357">  1  3  2 -1</clus>
<clus scale="   64.012">  1  5  2 -1</clus>
<clus scale="  135.376">  1  4  2 -1</clus>
<clus scale="   30.357">  1  3  2 -1</clus>
</clustering>
</event>
<event>
 6    0  0.4390142E+002  0.7068385E+02  0.7546771E-02  0.1357783E+00
         21   -1    0    0  504  501  0.00000000000E+00  0.00000000000E+00  0.11085735967E+03  0.11085735967E+03  0.00000000000E+00 0.  1.
         21   -1    0    0  505  502 -0.00000000000E+00 -0.00000000000E+00 -0.28310876886E+03  0.28310876886E+03  0.00000000000E+00 0.  1.
         21    1    1    2  503  502  0.15913895978E+02  0.83541891848E+02 -0.15462365415E+03  0.17646805434E+03  0.00000000000E+00 0.  1.
         21    1    1    2  504  503 -0.82964539978E+02 -0.13423600549E+01  0.21819046471E+02  0.85796198127E+02  0.00000000000E+00 0.  1.
         21    1    1    2  505  506  0.46654015903E+02 -0.50305841899E+02 -0.57724405435E+02  0.89662600408E+02  0.00000000000E+00 0.  1.
         21    1    1    2  506  501  0.20396628097E+02 -0.31893689894E+02  0.18277603930E+02  0.42039275662E+02  0.00000000000E+00 0.  1.
<scales pt_clust_3="14000.00000" pt_clust_4="72.95605" pt_clust_5="70.68385" pt_clust_6="37.85802"></scales>
<clustering>
<clus scale="   37.858">  1  6  2 -1</clus>
<clus scale="   72.956">  1  4  2 -1</clus>
<clus scale="   70.684">  1  5  2 -1</clus>
<clus scale="   37.858">  1  3  2 -1</clus>
</clustering>
</event>
<event>
 6    0  0.4390142E+002  0.2692124E+03  0.7546771E-02  0.1101731E+00
         21   -1    0    0  504  501  0.00000000000E+00  0.00000000000E+00  0.21028364109E+04  0.21028364109E+04  0.00000000000E+00 0.  1.
         21   -1    0    0  503  502 -0.00000000000E+00 -0.00000000000E+00 -0.64476671936E+02  0.64476671936E+02  0.00000000000E+00 0.  1.
         21    1    1    2  503  505  0.25152749066E+03  0.82139160390E+02  0.40884189269E+03  0.48699549633E+03  0.00000000000E+00 0.  1.
         21    1    1    2  504  502 -0.95101646816E+01 -0.37832866088E+02  0.11591592602E+02  0.40695626396E+02  0.00000000000E+00 0.  1.
         21    1    1    2  505  506 -0.35298096936E+02 -0.47121913999E+02  0.38790859296E+03  0.39235125452E+03  0.00000000000E+00 0.  1.
         21    1    1    2  506  501 -0.20671922905E+03  0.28156196973E+01  0.12300176607E+04  0.12472707056E+04  0.00000000000E+00 0.  1.
<scales pt_clust_3="249.67165" pt_clust_4="39.00986" pt_clust_5="54.24640" pt_clust_6="54.24640"></scales>
<clustering>
<clus scale="   39.010">  2  4  1 -1</clus>
<clus scale="   54.246">  5  6 -1 -1</clus>
<clus scale="  249.672">  2  3  1 -1</clus>
<clus scale="  269.212">  1  3  2 -1</clus>
</clustering>
</event>
<event>
 6    0  0.4390142E+002  0.1013895E+03  0.7546771E-02  0.1277401E+00
         21   -1    0    0  504  501  0.00000000000E+00  0.00000000000E+00  0.42552204006E+03  0.42552204006E+03  0.00000000000E+00 0. -1.
         21   -1    0    0  503  502 -0.00000000000E+00 -0.00000000000E+00 -0.10830240886E+04  0.10830240886E+04  0.00000000000E+00 0. -1.
         21    1    1    2  503  501 -0.14785673457E+02  0.44913073448E+02 -0.66225961802E+03  0.66394548117E+03  0.00000000000E+00 0. -1.
         21    1    1    2  504  505  0.33940818098E+02 -0.39689793567E+01  0.25914028182E+03  0.26138365977E+03  0.00000000000E+00 0. -1.
         21    1    1    2  505  506  0.67477904041E+02  0.23014065672E+02  0.14928356810E+03  0.16543427232E+03  0.00000000000E+00 0. -1.
         21    1    1    2  506  502 -0.86633048683E+02 -0.63958159764E+02 -0.40366628041E+03  0.41778271538E+03  0.00000000000E+00 0. -1.
<scales pt_clust_3="47.21115" pt_clust_4="34.17209" pt_clust_5="101.38947" pt_clust_6="14000.00000"></scales>
<clustering>
<clus scale="   34.172">  1  4  2 -1</clus>
<clus scale="   47.211">  2  3  1 -1</clus>
<clus scale="  101.389">  1  5  2 -1</clus>
<clus scale="   34.172">  1  3  2 -1</clus>
</clustering>
</event>
<event>
 6    0  0.4390142E+002  0.2636271E+03  0.7546771E-02  0.1104983E+00
         21   -1    0    0  503  501  0.00000000000E+00  0.00000000000E+00  0.74749758809E+02  0.74749758809E+02  0.00000000000E+00 0. -1.
         21   -1    0    0  504  502 -0.00000000000E+00 -0.00000000000E+00 -0.15408877544E+04  0.15408877544E+04  0.00000000000E+00 0. -1.
         21    1    1    2  503  502  0.93236046127E+02 -0.22265905317E+03 -0.67311386696E+03  0.71508900995E+03  0.00000000000E+00 0. -1.
         21    1    1    2  504  506  0.69639590329E+02  0.25602707704E+02 -0.48495314455E+03  0.49059629390E+03  0.00000000000E+00 0. -1.
         21    1    1    2  505  501 -0.57962204547E+02  0.19438694082E+02 -0.98179358626E+02  0.11565753950E+03  0.00000000000E+00 0. -1.
         21    1    1    2  506  505 -0.10491343191E+03  0.17761765138E+03 -0.20989162551E+03  0.29429466990E+03  0.00000000000E+00 0. -1.
<scales pt_clust_3="248.40657" pt_clust_4="74.19684" pt_clust_5="48.05860" pt_clust_6="48.05860"></scales>
<clustering>
<clus scale="   48.059">  5  6 -1 -1</clus>
<clus scale="   74.197">  2  4  1 -1</clus>
<clus scale="  248.407">  2  3  1 -1</clus>
<clus scale="  263.627">  1  3  2 -1</clus>
</clustering>
</event>
<event>
 6    0  0.4390142E+002  0.1753543E+03  0.7546771E-02  0.1172376E+00
         21   -1    0    0  503  501  0.00000000000E+00  0.00000000000E+00  0.12946386734E+04  0.12946386734E+04  0.00000000000E+00 0.  1.
         21   -1    0    0  505  502 -0.00000000000E+00 -0.00000000000E+00 -0.12213170366E+03  0.12213170366E+03  0.00000000000E+00 0.  1.
         21    1    1    2  503  504 -0.35491760112E+02  0.77383560470E+02  0.66861901986E+03  0.67401726550E+03  0.00000000000E+00 0.  1.
         21    1    1    2  504  502 -0.10144159466E+02  0.96071951300E+02  0.47201227310E+03  0.48179695905E+03  0.00000000000E+00 0.  1.
         21    1    1    2  505  506  0.40125018242E+02 -0.48841961075E+02 -0.74016498008E+02  0.97334455502E+02  0.00000000000E+00 0.  1.
         21    1    1    2  506  501  0.55109013369E+01 -0.12461355070E+03  0.10589217481E+03  0.16362169702E+03  0.00000000000E+00 0.  1.
<scales pt_clust_3="48.75478" pt_clust_4="48.75478" pt_clust_5="63.21040" pt_clust_6="167.48670"></scales>
<clustering>
<clus scale="   48.755">  3  4 -1 -1</clus>
<clus scale="   63.210">  2  5  1 -1</clus>
<clus scale="  167.487">  2  6  1 -1</clus>
<clus scale="  175.354">  1  3  2 -1</clus>
</clustering>
</event>
<event>
 6    0  0.4390142E+002  0.1442061E+03  0.7546771E-02  0.1207779E+00
         21   -1    0    0  503  501  0.00000000000E+00  0.00000000000E+00  0.80621433469E+03  0.80621433469E+03  0.00000000000E+00 0.  1.
         21   -1    0    0  505  502 -0.00000000000E+00 -0.00000000000E+00 -0.17950125580E+03  0.17950125580E+03  0.00000000000E+00 0.  1.
         21    1    1    2  503  504  0.68628123590E+02 -0.50786280217E+02  0.30370151545E+03  0.31547373281E+03  0.00000000000E+00 0.  1.
         21    1    1    2  504  506  0.47909650036E+02  0.28867248611E+01  0.29217957568E+03  0.29609554571E+03  0.00000000000E+00 0.  1.
         21    1    1    2  505  501  0.43371118638E+02  0.49696932326E+01 -0.13374858141E+03  0.14069269637E+03  0.00000000000E+00 0.  1.
         21    1    1    2  506  502 -0.15990889226E+03  0.42929862124E+02  0.16458056917E+03  0.23345361560E+03  0.00000000000E+00 0.  1.
<scales pt_clust_3="41.52544" pt_clust_4="41.52544" pt_clust_5="43.65492" pt_clust_6="133.14695"></scales>
<clustering>
<clus scale="   41.525">  3  4 -1 -1</clus>
<clus scale="   43.655">  2  5  1 -1</clus>
<clus scale="  133.147">  2  6  1 -1</clus>
<clus scale="  144.206">  1  3  2 -1</clus>
</clustering>
</event>
<event>
 6    0  0.4390142E+002  0.8979147E+02  0.7546771E-02  0.1303357E+00
         21   -1    0    0  504  501  0.00000000000E+00  0.00000000000E+00  0.16866599006E+03  0.16866599006E+03  0.00000000000E+00 0. -1.
         21   -1    0    0  503  502 -0.00000000000E+00 -0.00000000000E+00 -0.16849456136E+03  0.16849456136E+03  0.00000000000E+00 0. -1.
         21    1    1    2  503  505 -0.22347475845E+02 -0.22803270319E+02 -0.30747779662E+02  0.44326343951E+02  0.00000000000E+00 0. -1.
         21    1    1    2  504  502  0.82299992656E+02  0.90479219415E+02 -0.75944167929E+02  0.14396976967E+03  0.00000000000E+00 0. -1.
         21    1    1    2  505  506 -0.29956926106E+02 -0.57991343638E+02  0.94836444784E+02  0.11512760146E+03  0.00000000000E+00 0. -1.
         21    1    1    2  506  501 -0.29995590705E+02 -0.96846054587E+01  0.12026931504E+02  0.33736836337E+02  0.00000000000E+00 0. -1.
<scales pt_clust_3="33.23490" pt_clust_4="89.79147" pt_clust_5="14000.00000" pt_clust_6="31.52026"></scales>
<clustering>
<clus scale="   31.520">  1  6  2 -1</clus>
<clus scale="   33.235">  2  3  1 -1</clus>
<clus scale="   89.791">  2  4  1 -1</clus>
<clus scale="   31.520">  1  3  2 -1</clus>
</clustering>
</event>
<event>
 6    0  0.4390142E+002  0.1017769E+03  0.7546771E-02  0.1276603E+00
         21   -1    0    0  505  501  0.00000000000E+00  0.00000000000E+00  0.77432219951E+03  0.77432219951E+03  0.00000000000E+00 0. -1.
         21   -1    0    0  506  502 -0.00000000000E+00 -0.00000000000E+00 -0.64811847444E+02  0.64811847444E+02  0.00000000000E+00 0. -1.
         21    1    1    2  503  501 -0.78751484378E+01 -0.36769112087E+02  0.31018596311E+03  0.31245690467E+03  0.00000000000E+00 0. -1.
         21    1    1    2  504  502 -0.86768248897E+02  0.27039331685E+02  0.21623795110E+02  0.93420784570E+02  0.00000000000E+00 0. -1.
         21    1    1    2  505  504  0.69536510234E+02  0.70236123433E+02  0.76413669390E+02  0.12492993300E+03  0.00000000000E+00 0. -1.
         21    1    1    2  506  503  0.25106887101E+02 -0.60506343030E+02  0.30128692445E+03  0.30832642471E+03  0.00000000000E+00 0. -1.
<scales pt_clust_3="31.36114" pt_clust_4="90.88374" pt_clust_5="92.97918" pt_clust_6="31.36114"></scales>
<clustering>
<clus scale="   31.361">  3  6 -1 -1</clus>
<clus scale="   90.884">  2  4  1 -1</clus>
<clus scale="   92.979">  2  5  1 -1</clus>
<clus scale="  101.777">  1  3  2 -1</clus>
</clustering>
</event>
<event>
 6    0  0.4390142E+002  0.1045765E+03  0.7546771E-02  0.1270956E+00
         21   -1    0    0  506  501  0.00000000000E+00  0.00000000000E+00  0.13162910511E+03  0.13162910511E+03  0.00000000000E+00 0.  1.
         21   -1    0    0  504  502 -0.00000000000E+00 -0.00000000000E+00 -0.16568711812E+04  0.16568711812E+04  0.00000000000E+00 0.  1.
         21    1    1    2  503  501 -0.62771943267E+02  0.91692557093E+02  0.78331809470E+02  0.13595482434E+03  0.00000000000E+00 0.  1.
         21    1    1    2  504  503 -0.30251175898E+02  0.68420948426E+00 -0.11677191452E+04  0.11681111265E+04  0.00000000000E+00 0.  1.
         21    1    1    2  505  502  0.11645996872E+02 -0.49693551378E+02 -0.36459442538E+03  0.36814966156E+03  0.00000000000E+00 0.  1.
         21    1    1    2  506  505  0.81377122293E+02 -0.42683215200E+02 -0.71260314960E+02  0.11628467389E+03  0.00000000000E+00 0. -1.
<scales pt_clust_3="104.57648" pt_clust_4="30.25891" pt_clust_5="50.40062" pt_clust_6="14000.00000"></scales>
<clustering>
<clus scale="   30.259">  2  4  1 -1</clus>
<clus scale="   50.401">  2  5  1 -1</clus>
<clus scale="  104.576">  1  3  2 -1</clus>
<clus scale="  104.576">  1  3  2 -1</clus>
</clustering>
</event>
<event>
 6    0  0.4390142E+002  0.1648090E+03  0.7546771E-02  0.1183372E+00
         21   -1    0    0  505  501  0.00000000000E+00  0.00000000000E+00  0.41594038521E+03  0.41594038521E+03  0.00000000000E+00 0.  1.
         21   -1    0    0  506  502 -0.00000000000E+00 -0.00000000000E+00 -0.38199335551E+03  0.38199335551E+03  0.00000000000E+00 0. -1.
         21    1    1    2  503  501 -0.13285122395E+03  0.31020087536E+02  0.32575262440E+03  0.35316634302E+03  0.00000000000E+00 0.  1.
         21    1    1    2  504  502  0.10212497162E+03 -0.57953840376E+02 -0.95678091354E+02  0.15146766852E+03  0.00000000000E+00 0.  1.
         21    1    1    2  505  504 -0.48458434339E+02  0.15638188074E+02  0.26026268183E+02  0.57185132861E+02  0.00000000000E+00 0.  1.
         21    1    1    2  506  503  0.79184686671E+02  0.11295564766E+02 -0.22215377153E+03  0.23611459631E+03  0.00000000000E+00 0. -1.
<scales pt_clust_3="164.80902" pt_clust_4="14000.00000" pt_clust_5="50.91928" pt_clust_6="79.13398"></scales>
<clustering>
<clus scale="   50.919">  1  5  2 -1</clus>
<clus scale="   79.134">  2  6  1 -1</clus>
<clus scale="  164.809">  1  3  2 -1</clus>
<clus scale="   50.919">  1  3  2 -1</clus>
</clustering>
</event>
<event>
 6    0  0.4390142E+002  0.1574357E+03  0.7546771E-02  0.1191623E+00
         21   -1    0    0  504  501  0.00000000000E+00  0.00000000000E+00  0.44181669758E+03  0.44181669758E+03  0.00000000000E+00 0. -1.
         21   -1    0    0  501  502 -0.00000000000E+00 -0.00000000000E+00 -0.14754577925E+03  0.14754577925E+03  0.00000000000E+00 0.  1.
         21    1    1    2  503  506 -0.98147523134E+02  0.11886371386E+03  0.80906315777E+02  0.17409006491E+03  0.00000000000E+00 0.  1.
         21    1    1    2  504  505  0.25786989738E+02 -0.67895823659E+02  0.13259550839E+03  0.15118326811E+03  0.00000000000E+00 0. -1.
         21    1    1    2  505  503 -0.14893340294E+02 -0.90414143874E+02  0.12792033916E+03  0.15735355785E+03  0.00000000000E+00 0. -1.
         21    1    1    2  506  502  0.87253873690E+02  0.39446253676E+02 -0.47151244999E+02  0.10673558595E+03  0.00000000000E+00 0.  1.
<scales pt_clust_3="150.46681" pt_clust_4="41.23977" pt_clust_5="41.23977" pt_clust_6="95.75618"></scales>
<clustering>
<clus scale="   41.240">  4  5 -1 -1</clus>
<clus scale="   95.756">  2  6  1 -1</clus>
<clus scale="  150.467">  2  3  1 -1</clus>
<clus scale="  157.436">  1  3  2 -1</clus>
</clustering>
</event>
<event>
 6    0  0.4390142E+002  0.2081524E+03  0.7546771E-02  0.1143037E+00
         21   -1    0    0  505  501  0.00000000000E+00  0.00000000000E+00  0.32466703886E+03  0.32466703886E+03  0.00000000000E+00 0.  1.
         21   -1    0    0  503  502 -0.00000000000E+00 -0.00000000000E+00 -0.18106711756E+03  0.18106711756E+03  0.00000000000E+00 0.  1.
         21    1    1    2  503  504 -0.34902644406E+02  0.44511644975E+02  0.17928347688E+01  0.56592361512E+02  0.00000000000E+00 0.  1.
         21    1    1    2  504  501 -0.10823934341E+03 -0.18078769139E+03  0.22455578298E+02  0.21190610613E+03  0.00000000000E+00 0.  1.
         21    1    1    2  505  506  0.88572788599E+02  0.92654180759E+02  0.10550315577E+03  0.16601461372E+03  0.00000000000E+00 0.  1.
         21    1    1    2  506  502  0.54569199212E+02  0.43621865653E+02  0.13848352467E+02  0.71221075053E+02  0.00000000000E+00 0. -1.
<scales pt_clust_3="56.56396" pt_clust_4="200.87864" pt_clust_5="40.26882" pt_clust_6="40.26882"></scales>
<clustering>
<clus scale="   40.269">  5  6 -1 -1</clus>
<clus scale="   56.564">  2  3  1 -1</clus>
<clus scale="  200.879">  2  4  1 -1</clus>
<clus scale="  208.152">  1  3  2 -1</clus>
</clustering>
</event>
<event>
 6    0  0.4390142E+002  0.2858687E+03  0.7546771E-02  0.1092526E+00
         21   -1    0    0  506  501  0.00000000000E+00  0.00000000000E+00  0.89733189829E+03  0.89733189829E+03  0.00000000000E+00 0. -1.
         21   -1    0    0  505  502 -0.00000000000E+00 -0.00000000000E+00 -0.36304197544E+03  0.36304197544E+03  0.00000000000E+00 0. -1.
         21    1    1    2  503  501 -0.31942393747E+03 -0.14329973770E+03  0.54300282169E+03  0.64607935350E+03  0.00000000000E+00 0. -1.
         21    1    1    2  504  503  0.12809507952E+03 -0.61713807829E+02 -0.41037157277E+02  0.14798983665E+03  0.00000000000E+00 0. -1.
         21    1    1    2  505  504  0.74998612283E+02 -0.68316577017E+01 -0.14712853342E+03  0.16528239089E+03  0.00000000000E+00 0. -1.
         21    1    1    2  506  502  0.11633024567E+03  0.21184520323E+03  0.17945279186E+03  0.30102229269E+03  0.00000000000E+00 0. -1.
<scales pt_clust_3="14000.00000" pt_clust_4="174.83195" pt_clust_5="75.30912" pt_clust_6="285.86867"></scales>
<clustering>
<clus scale="   75.309">  2  5  1 -1</clus>
<clus scale="  174.832">  2  4  1 -1</clus>
<clus scale="  285.869">  2  6  1 -1</clus>
<clus scale="  285.869">  1  3  2 -1</clus>
</clustering>
</event>
<event>
 6    0  0.4390142E+002  0.1246034E+03  0.7546771E-02  0.1235690E+00
         21   -1    0    0  503  501  0.00000000000E+00  0.00000000000E+00  0.78153728012E+03  0.78153728012E+03  0.00000000000E+00 0.  1.
         21   -1    0    0  506  502 -0.00000000000E+00 -0.00000000000E+00 -0.34835783521E+03  0.34835783521E+03  0.00000000000E+00 0. -1.
         21    1    1    2  503  502  0.37909526621E+02 -0.28220871524E+02  0.45553587319E+02  0.65640529521E+02  0.00000000000E+00 0. -1.
         21    1    1    2  504  501  0.22610404300E+02  0.13524541508E+03  0.68757230497E+03  0.70111213600E+03  0.00000000000E+00 0.  1.
         21    1    1    2  505  504 -0.34699691544E+02 -0.14040077861E+03 -0.15419823276E+03  0.21140847243E+03  0.00000000000E+00 0. -1.
         21    1    1    2  506  505 -0.25820239377E+02  0.33376235056E+02 -0.14574821462E+03  0.15173397739E+03  0.00000000000E+00 0. -1.
<scales pt_clust_3="45.21922" pt_clust_4="124.60339" pt_clust_5="14000.00000" pt_clust_6="42.19784"></scales>
<clustering>
<clus scale="   42.198">  2  6  1 -1</clus>
<clus scale="   45.219">  1  3  2 -1</clus>
<clus scale="  124.603">  1  4  2 -1</clus>
<clus scale="   45.219">  1  3  2 -1</clus>
</clustering>
</event>
<event>
 6    0  0.4390142E+002  0.7747310E+02  0.7546771E-02  0.1336379E+00
         21   -1    0    0  505  501  0.00000000000E+00  0.00000000000E+00  0.94870560263E+02  0.94870560263E+02  0.00000000000E+00 0.  1.
         21   -1    0    0  503  502 -0.00000000000E+00 -0.00000000000E+00 -0.23742276158E+04  0.23742276158E+04  0.00000000000E+00 0. -1.
         21    1    1    2  503  501 -0.18411330430E+02 -0.79324777221E+02  0.25579989972E+02  0.85356506819E+02  0.00000000000E+00 0.  1.
         21    1    1    2  504  502 -0.60980330690E+02  0.47965808890E+02 -0.22404862705E+04  0.22418291745E+04  0.00000000000E+00 0. -1.
         21    1    1    2  505  506 -0.12313367681E+02  0.31172669072E+02 -0.26234600168E+02  0.42562995274E+02  0.00000000000E+00 0.  1.
         21    1    1    2  506  504  0.91705028801E+02  0.18629926026E+00 -0.38216174830E+02  0.99349499412E+02  0.00000000000E+00 0.  1.
<scales pt_clust_3="64.94156" pt_clust_4="77.47310" pt_clust_5="33.51648" pt_clust_6="14000.00000"></scales>
<clustering>
<clus scale="   33.516">  1  5  2 -1</clus>
<clus scale="   64.942">  1  3  2 -1</clus>
<clus scale="   77.473">  2  4  1 -1</clus>
<clus scale="   33.516">  1  3  2 -1</clus>
</clustering>
</event>
<event>
 6    0  0.4390142E+002  0.1375214E+03  0.7546771E-02  0.1216704E+00
         21   -1    0    0  505  501  0.00000000000E+00  0.00000000000E+00  0.25165044561E+04  0.25165044561E+04  0.00000000000E+00 0. -1.
         21   -1    0    0  503  502 -0.00000000000E+00 -0.00000000000E+00 -0.14526227170E+03  0.14526227170E+03  0.00000000000E+00 0.  1.
         21    1    1    2  503  506 -0.11223872161E+03 -0.54601459342E+02  0.23204109734E+03  0.26348039936E+03  0.00000000000E+00 0.  1.
         21    1    1    2  504  502 -0.20980968995E+02  0.23805779865E+02 -0.12289345440E+03  0.12692406135E+03  0.00000000000E+00 0.  1.
         21    1    1    2  505  504  0.15607571256E+03  0.59044255664E+02  0.19598564793E+04  0.19669477044E+04  0.00000000000E+00 0. -1.
         21    1    1    2  506  501 -0.22856021956E+02 -0.28248576187E+02  0.30223806217E+03  0.30441456276E+03  0.00000000000E+00 0.  1.
<scales pt_clust_3="137.52140" pt_clust_4="31.73194" pt_clust_5="14000.00000" pt_clust_6="36.09192"></scales>
<clustering>
<clus scale="   31.732">  2  4  1 -1</clus>
<clus scale="   36.092">  1  6  2 -1</clus>
<clus scale="  137.521">  2  3  1 -1</clus>
<clus scale="   36.092">  1  3  2 -1</clus>
</clustering>
</event>
<event>
 6    0  0.4390142E+002  0.1189374E+03  0.7546771E-02  0.1244860E+00
         21   -1    0    0  505  501  0.00000000000E+00  0.00000000000E+00  0.19557589601E+03  0.19557589601E+03  0.00000000000E+00 0. -1.
         21   -1    0    0  504  502 -0.00000000000E+00 -0.00000000000E+00 -0.39156268031E+03  0.39156268031E+03  0.00000000000E+00 0. -1.
         21    1    1    2  503  506 -0.37747796937E+02  0.21747127349E+02  0.43328771333E+02  0.61442787589E+02  0.00000000000E+00 0. -1.
         21    1    1    2  504  501  0.13553134331E+03  0.16419859647E+02 -0.32806414094E+03  0.35533707572E+03  0.00000000000E+00 0. -1.
         21    1    1    2  505  503 -0.67698400366E+02 -0.25675946674E+02  0.10983635336E+03  0.13155360949E+03  0.00000000000E+00 0. -1.
         21    1    1    2  506  502 -0.30085146005E+02 -0.12491040323E+02 -0.21087768047E+02  0.38805103527E+02  0.00000000000E+00 0. -1.
<scales pt_clust_3="39.91937" pt_clust_4="107.20256" pt_clust_5="39.91937" pt_clust_6="32.57518"></scales>
<clustering>
<clus scale="   32.575">  2  6  1 -1</clus>
<clus scale="   39.919">  3  5 -1 -1</clus>
<clus scale="  107.203">  2  4  1 -1</clus>
<clus scale="  118.937">  1  3  2 -1</clus>
</clustering>
</event>
<event>
 6    0  0.4390142E+002  0.1066147E+03  0.7546771E-02  0.1266971E+00
         21   -1    0    0  504  501  0.00000000000E+00  0.00000000000E+00  0.57961923469E+03  0.57961923469E+03  0.00000000000E+00 0. -1.
         21   -1    0    0  503  502 -0.00000000000E+00 -0.00000000000E+00 -0.13231442962E+04  0.13231442962E+04  0.00000000000E+00 0. -1.
         21    1    1    2  503  501  0.86275698304E+01  0.40460183518E+02  0.51376260829E+03  0.51542553205E+03  0.00000000000E+00 0. -1.
         21    1    1    2  504  506 -0.33647656943E+02  0.82338459578E+01  0.49707717882E+02  0.60587277988E+02  0.00000000000E+00 0. -1.
         21    1    1    2  505  502  0.82155411916E+02  0.59903798217E+02 -0.71295165135E+03  0.72016528236E+03  0.00000000000E+00 0. -1.
         21    1    1    2  506  505 -0.57135324804E+02 -0.10859782769E+03 -0.59404373631E+03  0.60658543848E+03  0.00000000000E+00 0. -1.
<scales pt_clust_3="54.32059" pt_clust_4="34.64045" pt_clust_5="106.61466" pt_clust_6="14000.00000"></scales>
<clustering>
<clus scale="   34.640">  1  4  2 -1</clus>
<clus scale="   54.321">  1  3  2 -1</clus>
<clus scale="  106.615">  2  5  1 -1</clus>
<clus scale="   34.640">  1  3  2 -1</clus>
</clustering>
</event>
<event>
 6    0  0.4390142E+002  0.1456300E+03  0.7546771E-02  0.1205948E+00
         21   -1    0    0  504  501  0.00000000000E+00  0.00000000000E+00  0.18443528624E+03  0.18443528624E+03  0.00000000000E+00 0. -1.
         21   -1    0    0  505  502 -0.00000000000E+00 -0.00000000000E+00 -0.63147500369E+03  0.63147500369E+03  0.00000000000E+00 0. -1.
         21    1    1    2  503  501 -0.62782488620E+01  0.12019942637E+03  0.10544712580E+03  0.16002004514E+03  0.00000000000E+00 0. -1.
         21    1    1    2  504  506 -0.33571254840E+02 -0.16304561071E+03 -0.12623281045E+03  0.20891534830E+03  0.00000000000E+00 0. -1.
         21    1    1    2  505  503  0.17742523896E+02  0.72702304630E+02 -0.38168989297E+03  0.38895706273E+03  0.00000000000E+00 0. -1.
         21    1    1    2  506  502  0.22106979805E+02 -0.29856120289E+02 -0.44564139829E+02  0.58017833755E+02  0.00000000000E+00 0.  1.
<scales pt_clust_3="128.33109" pt_clust_4="32.52137" pt_clust_5="74.83597" pt_clust_6="32.52137"></scales>
<clustering>
<clus scale="   32.521">  4  6 -1 -1</clus>
<clus scale="   74.836">  2  5  1 -1</clus>
<clus scale="  128.331">  1  3  2 -1</clus>
<clus scale="  128.331">  1  3  2 -1</clus>
</clustering>
</event>
<event>
 6    0  0.4390142E+002  0.7557543E+02  0.7546771E-02  0.1342098E+00
         21   -1    0    0  506  501  0.00000000000E+00  0.00000000000E+00  0.32619166998E+02  0.32619166998E+02  0.00000000000E+00 0. -1.
         21   -1    0    0  503  502 -0.00000000000E+00 -0.00000000000E+00 -0.72951144197E+03  0.72951144197E+03  0.00000000000E+00 0.  1.
         21    1    1    2  503  504 -0.43526552321E+02  0.10626485858E+03 -0.46233034948E+03  0.47637814074E+03  0.00000000000E+00 0.  1.
         21    1    1    2  504  505  0.53412378680E+02 -0.38904946966E+02 -0.47153584168E+02  0.81178430600E+02  0.00000000000E+00 0. -1.
         21    1    1    2  505  501 -0.20524440103E+02 -0.23827108705E+02 -0.42339365249E+02  0.52740929082E+02  0.00000000000E+00 0. -1.
         21    1    1    2  506  502  0.10638613743E+02 -0.43532802904E+02 -0.14506897607E+03  0.15183310854E+03  0.00000000000E+00 0. -1.
<scales pt_clust_3="75.57543" pt_clust_4="14000.00000" pt_clust_5="31.44811" pt_clust_6="47.17370"></scales>
<clustering>
<clus scale="   31.448">  1  5  2 -1</clus>
<clus scale="   47.174">  2  6  1 -1</clus>
<clus scale="   75.575">  2  3  1 -1</clus>
<clus scale="   31.448">  1  3  2 -1</clus>
</clustering>
</event>
<event>
 6    0  0.4390142E+002  0.2065875E+03  0.7546771E-02  0.1144297E+00
         21   -1    0    0  503  501  0.00000000000E+00  0.00000000000E+00  0.11688752459E+04  0.11688752459E+04  0.00000000000E+00 0. -1.
         21   -1    0    0  506  502 -0.00000000000E+00 -0.00000000000E+00 -0.60861900706E+03  0.60861900706E+03  0.00000000000E+00 0. -1.
         21    1    1    2  503  505  0.27628728044E+03  0.52123680026E+02  0.36486948263E+03  0.46063139136E+03  0.00000000000E+00 0. -1.
         21    1    1    2  504  501 -0.19444657636E+02 -0.37113517522E+02  0.18788010610E+03  0.19249530426E+03  0.00000000000E+00 0. -1.
         21    1    1    2  505  502 -0.20340660245E+03  0.65690626648E+01 -0.53832117031E+03  0.57550593473E+03  0.00000000000E+00 0. -1.
         21    1    1    2  506  504 -0.53436020359E+02 -0.21579225169E+02  0.54582782040E+03  0.54886162259E+03  0.00000000000E+00 0. -1.
<scales pt_clust_3="14000.00000" pt_clust_4="41.89878" pt_clust_5="206.58751" pt_clust_6="76.99455"></scales>
<clustering>
<clus scale="   41.899">  1  4  2 -1</clus>
<clus scale="   76.995">  1  6  2 -1</clus>
<clus scale="  206.588">  2  5  1 -1</clus>
<clus scale="   41.899">  1  3  2 -1</clus>
</clustering>
</event>
<event>
 6    0  0.4390142E+002  0.2450380E+03  0.7546771E-02  0.1116481E+00
         21   -1    0    0  506  501  0.00000000000E+00  0.00000000000E+00  0.29972808350E+03  0.29972808350E+03  0.00000000000E+00 0.  1.
         21   -1    0    0  504  502 -0.00000000000E+00 -0.00000000000E+00 -0.39492176495E+03  0.39492176495E+03  0.00000000000E+00 0.  1.
         21    1    1    2  503  501 -0.68201013331E+02 -0.32749588295E+02  0.72775034733E+02  0.10497675663E+03  0.00000000000E+00 0.  1.
         21    1    1    2  504  505  0.10764837993E+03 -0.22339299274E+03 -0.36011224048E+02  0.25057815380E+03  0.00000000000E+00 0.  1.
         21    1    1    2  505  503 -0.44190036290E+02  0.20727089958E+01  0.13553534549E+02  0.46268279940E+02  0.00000000000E+00 0.  1.
         21    1    1    2  506  502  0.47426696906E+01  0.25406987204E+03 -0.14551102668E+03  0.29282665807E+03  0.00000000000E+00 0.  1.
<scales pt_clust_3="124.18711" pt_clust_4="245.03795" pt_clust_5="32.88659" pt_clust_6="14000.00000"></scales>
<clustering>
<clus scale="   32.887">  3  5 -1 -1</clus>
<clus scale="  124.187">  1  3  2 -1</clus>
<clus scale="  245.038">  1  4  2 -1</clus>
<clus scale="  124.187">  1  3  2 -1</clus>
</clustering>
</event>
<event>
 6    0  0.4390142E+002  0.2150758E+03  0.7546771E-02  0.1137608E+00
         21   -1    0    0  506  501  0.00000000000E+00  0.00000000000E+00  0.99894437566E+03  0.99894437566E+03  0.00000000000E+00 0. -1.
         21   -1    0    0  503  502 -0.00000000000E+00 -0.00000000000E+00 -0.17226697854E+03  0.17226697854E+03  0.00000000000E+00 0. -1.
         21    1    1    2  503  505 -0.29163334710E+02 -0.27303822697E+02 -0.10551631608E+02  0.41319919590E+02  0.00000000000E+00 0. -1.
         21    1    1    2  504  502  0.69998845331E+02 -0.18675005822E+03 -0.48525132530E+02  0.20525620838E+03  0.00000000000E+00 0. -1.
         21    1    1    2  505  501 -0.70472195933E+02  0.20626713611E+03  0.85020537772E+03  0.87770248156E+03  0.00000000000E+00 0. -1.
         21    1    1    2  506  504  0.29636685312E+02  0.77867448060E+01  0.35548783545E+02  0.46932744672E+02  0.00000000000E+00 0. -1.
<scales pt_clust_3="39.51763" pt_clust_4="215.07578" pt_clust_5="14000.00000" pt_clust_6="30.64256"></scales>
<clustering>
<clus scale="   30.643">  1  6  2 -1</clus>
<clus scale="   39.518">  2  3  1 -1</clus>
<clus scale="  215.076">  2  4  1 -1</clus>
<clus scale="   30.643">  1  3  2 -1</clus>
</clustering>
</event>
<event>
 6    0  0.4390142E+002  0.8483752E+02  0.7546771E-02  0.1315858E+00
         21   -1    0    0  505  501  0.00000000000E+00  0.00000000000E+00  0.36237140500E+03  0.36237140500E+03  0.00000000000E+00 0.  1.
         21   -1    0    0  503  502 -0.00000000000E+00 -0.00000000000E+00 -0.87122436852E+03  0.87122436852E+03  0.00000000000E+00 0.  1.
         21    1    1    2  503  504  0.16909051263E+02 -0.43421086640E+02 -0.45741953754E+01  0.46821256316E+02  0.00000000000E+00 0.  1.
         21    1    1    2  504  501 -0.31019142325E+02  0.25063197401E+02 -0.52891056872E+01  0.40228418979E+02  0.00000000000E+00 0.  1.
         21    1    1    2  505  506 -0.10785002179E+02  0.99365031599E+02  0.31380893406E+03  0.32934142296E+03  0.00000000000E+00 0.  1.
         21    1    1    2  506  502  0.24895093241E+02 -0.81007142360E+02 -0.81279859652E+03  0.81720467527E+03  0.00000000000E+00 0.  1.
<scales pt_clust_3="44.49408" pt_clust_4="39.87921" pt_clust_5="14000.00000" pt_clust_6="84.83752"></scales>
<clustering>
<clus scale="   39.879">  1  4  2 -1</clus>
<clus scale="   44.494">  1  3  2 -1</clus>
<clus scale="   84.838">  2  6  1 -1</clus>
<clus scale="   39.879">  1  3  2 -1</clus>
</clustering>
</event>
<event>
 6    0  0.4390142E+002  0.9892071E+02  0.7546771E-02  0.1282582E+00
         21   -1    0    0  506  501  0.00000000000E+00  0.00000000000E+00  0.22083072258E+03  0.22083072258E+03  0.00000000000E+00 0.  1.
         21   -1    0    0  505  502 -0.00000000000E+00 -0.00000000000E+00 -0.85683722752E+03  0.85683722752E+03  0.00000000000E+00 0. -1.
         21    1    1    2  503  501  0.45364467563E+01 -0.77646555130E+02  0.16962870302E+03  0.18661045994E+03  0.00000000000E+00 0.  1.
         21    1    1    2  504  502  0.63912000477E+02  0.66920508625E+02 -0.76661680958E+03  0.77218160494E+03  0.00000000000E+00 0. -1.
         21    1    1    2  505  503 -0.46176618183E+02  0.33029552877E+02 -0.58742179581E+02  0.81693788577E+02  0.00000000000E+00 0. -1.
         21    1    1    2  506  504 -0.22271829050E+02 -0.22303506372E+02  0.19723781201E+02  0.37182096640E+02  0.00000000000E+00 0.  1.
<scales pt_clust_3="98.92071" pt_clust_4="14000.00000" pt_clust_5="57.11020" pt_clust_6="31.51953"></scales>
<clustering>
<clus scale="   31.520">  1  6  2 -1</clus>
<clus scale="   57.110">  2  5  1 -1</clus>
<clus scale="   98.921">  1  3  2 -1</clus>
<clus scale="   31.520">  1  3  2 -1</clus>
</clustering>
</event>
<event>
 6    0  0.4390142E+002  0.1528614E+03  0.7546771E-02  0.1197000E+00
         21   -1    0    0  506  501  0.00000000000E+00  0.00000000000E+00  0.56892282158E+03  0.56892282158E+03  0.00000000000E+00 0. -1.
         21   -1    0    0  504  502 -0.00000000000E+00 -0.00000000000E+00 -0.28002058067E+04  0.28002058067E+04  0.00000000000E+00 0. -1.
         21    1    1    2  503  502  0.20375002698E+02  0.27109524660E+02 -0.43813244502E+03  0.43944295015E+03  0.00000000000E+00 0.  1.
         21    1    1    2  504  505  0.34994503883E+02  0.89871072884E+02  0.30931029894E+03  0.32399735504E+03  0.00000000000E+00 0. -1.
         21    1    1    2  505  501 -0.83962922101E+01  0.53746861310E+02  0.24529999977E+03  0.25125945298E+03  0.00000000000E+00 0. -1.
         21    1    1    2  506  503 -0.46973214370E+02 -0.17072745885E+03 -0.23477608389E+04  0.23544288701E+04  0.00000000000E+00 0. -1.
<scales pt_clust_3="33.91264" pt_clust_4="33.53863" pt_clust_5="33.53863" pt_clust_6="146.19295"></scales>
<clustering>
<clus scale="   33.539">  4  5 -1 -1</clus>
<clus scale="   33.913">  2  3  1 -1</clus>
<clus scale="  146.193">  2  6  1 -1</clus>
<clus scale="  152.861">  1  3  2 -1</clus>
</clustering>
</event>
<event>
 6    0  0.4390142E+002  0.1199667E+03  0.7546771E-02  0.1243152E+00
         21   -1    0    0  503  501  0.00000000000E+00  0.00000000000E+00  0.90372420648E+02  0.90372420648E+02  0.00000000000E+00 0.  1.
         21   -1    0    0  506  502 -0.00000000000E+00 -0.00000000000E+00 -0.11606152024E+04  0.11606152024E+04  0.00000000000E+00 0.  1.
         21    1    1    2  503  504 -0.38773076944E+02  0.94818769788E+01 -0.64355588254E+02  0.75729117426E+02  0.00000000000E+00 0.  1.
         21    1    1    2  504  505 -0.71031714915E+02 -0.53761991276E+02  0.43795533523E+02  0.99266837294E+02  0.00000000000E+00 0.  1.
         21    1    1    2  505  502  0.15232085210E+03  0.83815609116E+02 -0.86862719344E+03  0.88585546197E+03  0.00000000000E+00 0.  1.
         21    1    1    2  506  501 -0.42516060239E+02 -0.39535494819E+02 -0.18105553362E+03  0.19013620639E+03  0.00000000000E+00 0.  1.
<scales pt_clust_3="39.91563" pt_clust_4="119.96672" pt_clust_5="14000.00000" pt_clust_6="59.26058"></scales>
<clustering>
<clus scale="   39.916">  1  3  2 -1</clus>
<clus scale="   59.261">  2  6  1 -1</clus>
<clus scale="  119.967">  1  4  2 -1</clus>
<clus scale="   39.916">  1  3  2 -1</clus>
</clustering>
</event>
<event>
 6    0  0.4390142E+002  0.1121640E+03  0.7546771E-02  0.1256614E+00
         21   -1    0    0  505  501  0.00000000000E+00  0.00000000000E+00  0.68825116098E+03  0.68825116098E+03  0.00000000000E+00 0.  1.
         21   -1    0    0  504  502 -0.00000000000E+00 -0.00000000000E+00 -0.59321912678E+03  0.59321912678E+03  0.00000000000E+00 0. -1.
         21    1    1    2  503  506  0.86397194343E+02 -0.33277282238E+02 -0.15428616128E+03  0.17993352180E+03  0.00000000000E+00 0. -1.
         21    1    1    2  504  501  0.10623004255E+02 -0.48240316749E+02  0.62583421822E+03  0.62778057080E+03  0.00000000000E+00 0.  1.
         21    1    1    2  505  503 -0.13887441616E+02 -0.27202356506E+02  0.31212986036E+02  0.43670124014E+02  0.00000000000E+00 0. -1.
         21    1    1    2  506  502 -0.83132756982E+02  0.10871995549E+03 -0.40772900877E+03  0.43008607115E+03  0.00000000000E+00 0. -1.
<scales pt_clust_3="14000.00000" pt_clust_4="74.49030" pt_clust_5="30.54225" pt_clust_6="112.16402"></scales>
<clustering>
<clus scale="   30.542">  1  5  2 -1</clus>
<clus scale="   74.490">  1  4  2 -1</clus>
<clus scale="  112.164">  2  6  1 -1</clus>
<clus scale="   30.542">  1  3  2 -1</clus>
</clustering>
</event>
<event>
 6    0  0.4390142E+002  0.8062853E+02  0.7546771E-02  0.1327277E+00
         21   -1    0    0  504  501  0.00000000000E+00  0.00000000000E+00  0.25137003985E+03  0.25137003985E+03  0.00000000000E+00 0.  1.
         21   -1    0    0  505  502 -0.00000000000E+00 -0.00000000000E+00 -0.13648662841E+03  0.13648662841E+03  0.00000000000E+00 0. -1.
         21    1    1    2  503  506  0.32779598052E+02  0.49897186038E+02  0.85767269576E+02  0.10450002753E+03  0.00000000000E+00 0.  1.
         21    1    1    2  504  502 -0.49934863533E+02 -0.85330582590E+02 -0.76737367792E+01  0.99164939153E+02  0.00000000000E+00 0.  1.
         21    1    1    2  505  503  0.43460614289E+02 -0.57642756499E+01 -0.60851049007E+02  0.74999346886E+02  0.00000000000E+00 0. -1.
         21    1    1    2  506  501 -0.26305348808E+02  0.41197672202E+02  0.97640927653E+02  0.10919235469E+03  0.00000000000E+00 0.  1.
<scales pt_clust_3="80.62853" pt_clust_4="14000.00000" pt_clust_5="43.84121" pt_clust_6="46.58575"></scales>
<clustering>
<clus scale="   43.841">  2  5  1 -1</clus>
<clus scale="   46.586">  1  6  2 -1</clus>
<clus scale="   80.629">  1  3  2 -1</clus>
<clus scale="   46.586">  1  3  2 -1</clus>
</clustering>
</event>
<event>
 6    0  0.4390142E+002  0.1171440E+03  0.7546771E-02  0.1247884E+00
         21   -1    0    0  506  501  0.00000000000E+00  0.00000000000E+00  0.11133004872E+03  0.11133004872E+03  0.00000000000E+00 0.  1.
         21   -1    0    0  505  502 -0.00000000000E+00 -0.00000000000E+00 -0.57844489225E+03  0.57844489225E+03  0.00000000000E+00 0.  1.
         21    1    1    2  503  504  0.10693286991E+02  0.50859376769E+02  0.20179594429E+01  0.52010525400E+02  0.00000000000E+00 0.  1.
         21    1    1    2  504  501  0.20667356984E+02  0.51740536646E+02  0.63136935105E+02  0.84205079132E+02  0.00000000000E+00 0.  1.
         21    1    1    2  505  503 -0.57272312874E+02 -0.13069818409E+02 -0.21529467191E+03  0.22316526102E+03  0.00000000000E+00 0.  1.
         21    1    1    2  506  502  0.25911668899E+02 -0.89530095006E+02 -0.31697506617E+03  0.33039407542E+03  0.00000000000E+00 0.  1.
<scales pt_clust_3="51.09971" pt_clust_4="51.09971" pt_clust_5="58.74468" pt_clust_6="104.51514"></scales>
<clustering>
<clus scale="   51.100">  3  4 -1 -1</clus>
<clus scale="   58.745">  2  5  1 -1</clus>
<clus scale="  104.515">  2  6  1 -1</clus>
<clus scale="  117.144">  1  3  2 -1</clus>
</clustering>
</event>
<event>
 6    0  0.4390142E+002  0.1287092E+03  0.7546771E-02  0.1229384E+00
         21   -1    0    0  505  501  0.00000000000E+00  0.00000000000E+00  0.20792601294E+03  0.20792601294E+03  0.00000000000E+00 0.  1.
         21   -1    0    0  504  502 -0.00000000000E+00 -0.00000000000E+00 -0.10959657329E+03  0.10959657329E+03  0.00000000000E+00 0. -1.
         21    1    1    2  503  502 -0.13121278462E+02  0.67850504562E+02 -0.59208596927E+01  0.69360763385E+02  0.00000000000E+00 0. -1.
         21    1    1    2  504  506  0.40090674253E+02  0.49111662112E+01 -0.40194159222E+01  0.40589868440E+02  0.00000000000E+00 0.  1.
         21    1    1    2  505  503  0.73251339636E+01  0.49504982778E+02  0.28015418071E+02  0.57352110311E+02  0.00000000000E+00 0. -1.
         21    1    1    2  506  501 -0.34294529755E+02 -0.12226665355E+03  0.80254297200E+02  0.15021984410E+03  0.00000000000E+00 0.  1.
<scales pt_clust_3="35.72116" pt_clust_4="40.39037" pt_clust_5="35.72116" pt_clust_6="121.67161"></scales>
<clustering>
<clus scale="   35.721">  3  5 -1 -1</clus>
<clus scale="   40.390">  2  4  1 -1</clus>
<clus scale="  121.672">  1  6  2 -1</clus>
<clus scale="  121.672">  1  3  2 -1</clus>
</clustering>
</event>
<event>
 6    0  0.4390142E+002  0.1342480E+03  0.7546771E-02  0.1221285E+00
         21   -1    0    0  505  501  0.00000000000E+00  0.00000000000E+00  0.18015434739E+03  0.18015434739E+03  0.00000000000E+00 0. -1.
         21   -1    0    0  506  502 -0.00000000000E+00 -0.00000000000E+00 -0.59577443785E+03  0.59577443785E+03  0.00000000000E+00 0. -1.
         21    1    1    2  503  502 -0.87702799903E+01  0.41895940826E+02 -0.28714594466E+03  0.29031875793E+03  0.00000000000E+00 0. -1.
         21    1    1    2  504  503  0.98832620160E+01  0.83616715190E+02 -0.26070951685E+03  0.27396876848E+03  0.00000000000E+00 0. -1.
         21    1    1    2  505  504  0.24484267827E+02 -0.10502547446E+03  0.14118074818E+03  0.17765650372E+03  0.00000000000E+00 0. -1.
         21    1    1    2  506  501 -0.25597249853E+02 -0.20487181557E+02 -0.89453771263E+01  0.33984755114E+02  0.00000000000E+00 0.  1.
<scales pt_clust_3="35.93157" pt_clust_4="35.93157" pt_clust_5="124.50863" pt_clust_6="32.78634"></scales>
<clustering>
<clus scale="   32.786">  1  6  2 -1</clus>
<clus scale="   35.932">  3  4 -1 -1</clus>
<clus scale="  124.509">  1  5  2 -1</clus>
<clus scale="   32.786">  1  3  2 -1</clus>
</clustering>
</event>
<event>
 6    0  0.4390142E+002  0.1011600E+03  0.7546771E-02  0.1277875E+00
         21   -1    0    0  504  501  0.00000000000E+00  0.00000000000E+00  0.67706451250E+02  0.67706451250E+02  0.00000000000E+00 0. -1.
         21   -1    0    0  506  502 -0.00000000000E+00 -0.00000000000E+00 -0.70186830589E+03  0.70186830589E+03  0.00000000000E+00 0.  1.
         21    1    1    2  503  505  0.11667597814E+03 -0.82849500510E+02 -0.70077227347E+02  0.15933656643E+03  0.00000000000E+00 0. -1.
         21    1    1    2  504  502 -0.53737933816E+02 -0.12895685042E+02 -0.14262170683E+03  0.15295429214E+03  0.00000000000E+00 0.  1.
         21    1    1    2  505  501 -0.60796781303E+02  0.37253985396E+02 -0.66410769644E+02  0.97439716591E+02  0.00000000000E+00 0.  1.
         21    1    1    2  506  503 -0.21412630231E+01  0.58491200155E+02 -0.35505215082E+03  0.35984418198E+03  0.00000000000E+00 0.  1.
<scales pt_clust_3="101.16004" pt_clust_4="55.26359" pt_clust_5="14000.00000" pt_clust_6="62.22621"></scales>
<clustering>
<clus scale="   55.264">  2  4  1 -1</clus>
<clus scale="   62.226">  2  6  1 -1</clus>
<clus scale="  101.160">  2  3  1 -1</clus>
<clus scale="  101.160">  1  3  2 -1</clus>
</clustering>
</event>
<event>
 6    0  0.4390142E+002  0.1562536E+03  0.7546771E-02  0.1192992E+00
         21   -1    0    0  506  501  0.00000000000E+00  0.00000000000E+00  0.76136234890E+03  0.76136234890E+03  0.00000000000E+00 0.  1.
         21   -1    0    0  505  502 -0.00000000000E+00 -0.00000000000E+00 -0.51438018476E+03  0.51438018476E+03  0.00000000000E+00 0. -1.
         21    1    1    2  503  502  0.15763558929E+03  0.70774331819E+01 -0.46742124791E+03  0.49333730051E+03  0.00000000000E+00 0. -1.
         21    1    1    2  504  503 -0.11114084606E+03  0.27276177352E+02  0.38133611921E+03  0.39813755578E+03  0.00000000000E+00 0.  1.
         21    1    1    2  505  501 -0.17404802732E+02 -0.56044114501E+02  0.10439631560E+02  0.59605837260E+02  0.00000000000E+00 0. -1.
         21    1    1    2  506  504 -0.29089940489E+02  0.21690503967E+02  0.32262766129E+03  0.32466184012E+03  0.00000000000E+00 0.  1.
<scales pt_clust_3="14000.00000" pt_clust_4="156.25363" pt_clust_5="57.78227" pt_clust_6="36.28640"></scales>
<clustering>
<clus scale="   36.286">  1  6  2 -1</clus>
<clus scale="   57.782">  1  5  2 -1</clus>
<clus scale="  156.254">  1  4  2 -1</clus>
<clus scale="   36.286">  1  3  2 -1</clus>
</clustering>
</event>
<event>
 6    0  0.4390142E+002  0.1036336E+03  0.7546771E-02  0.1272835E+00
         21   -1    0    0  504  501  0.00000000000E+00  0.00000000000E+00  0.11938300577E+03  0.11938300577E+03  0.00000000000E+00 0.  1.
         21   -1    0    0  503  502 -0.00000000000E+00 -0.00000000000E+00 -0.32147208722E+03  0.32147208722E+03  0.00000000000E+00 0.  1.
         21    1    1    2  503  505  0.16059500950E+02 -0.34868636296E+02 -0.20175931245E+00  0.38389713137E+02  0.00000000000E+00 0. -1.
         21    1    1    2  504  506  0.47591347666E+02  0.33431667149E+02 -0.23878118499E+02  0.62871116453E+02  0.00000000000E+00 0.  1.
         21    1    1    2  505  501 -0.21115293102E+01 -0.69046971184E+02  0.55128685888E+02  0.88380511390E+02  0.00000000000E+00 0.  1.
         21    1    1    2  506  502 -0.61539319305E+02  0.70483940332E+02 -0.23313788953E+03  0.25121375201E+03  0.00000000000E+00 0.  1.
<scales pt_clust_3="33.84079" pt_clust_4="58.16023" pt_clust_5="33.84079" pt_clust_6="93.16219"></scales>
<clustering>
<clus scale="   33.841">  3  5 -1 -1</clus>
<clus scale="   58.160">  1  4  2 -1</clus>
<clus scale="   93.162">  2  6  1 -1</clus>
<clus scale="   58.160">  1  3  2 -1</clus>
</clustering>
</event>
<event>
 6    0  0.4390142E+002  0.9570889E+02  0.7546771E-02  0.1289587E+00
         21   -1    0    0  504  501  0.00000000000E+00  0.00000000000E+00  0.53062319902E+03  0.53062319902E+03  0.00000000000E+00 0.  1.
         21   -1    0    0  503  502 -0.00000000000E+00 -0.00000000000E+00 -0.20289300240E+03  0.20289300240E+03  0.00000000000E+00 0. -1.
         21    1    1    2  503  506  0.23636955978E+02  0.88057894116E+02 -0.58376309929E+01  0.91361788182E+02  0.00000000000E+00 0.  1.
         21    1    1    2  504  505  0.32970490196E+02 -0.41215964151E+02  0.16187886847E+03  0.17026619448E+03  0.00000000000E+00 0.  1.
         21    1    1    2  505  502 -0.86683583372E+02 -0.58842135772E+02 -0.13084783796E+03  0.16762337924E+03  0.00000000000E+00 0. -1.
         21    1    1    2  506  501  0.30076137198E+02  0.12000205807E+02  0.30253679710E+03  0.30426483952E+03  0.00000000000E+00 0.  1.
<scales pt_clust_3="14000.00000" pt_clust_4="63.81597" pt_clust_5="95.70889" pt_clust_6="32.38177"></scales>
<clustering>
<clus scale="   32.382">  1  6  2 -1</clus>
<clus scale="   63.816">  1  4  2 -1</clus>
<clus scale="   95.709">  2  5  1 -1</clus>
<clus scale="   32.382">  1  3  2 -1</clus>
</clustering>
</event>
<event>
 6    0  0.4390142E+002  0.8433188E+02  0.7546771E-02  0.1317189E+00
         21   -1    0    0  506  501  0.00000000000E+00  0.00000000000E+00  0.76387871211E+03  0.76387871211E+03  0.00000000000E+00 0.  1.
         21   -1    0    0  505  502 -0.00000000000E+00 -0.00000000000E+00 -0.39554793640E+03  0.39554793640E+03  0.00000000000E+00 0. -1.
         21    1    1    2  503  502  0.46450265531E+02  0.96590753459E+02 -0.21136512938E+03  0.23698653704E+03  0.00000000000E+00 0. -1.
         21    1    1    2  504  501  0.28440049776E+02 -0.20883394620E+02  0.66739959949E+02  0.75492879507E+02  0.00000000000E+00 0. -1.
         21    1    1    2  505  504 -0.65043196931E+02 -0.38237366061E+02 -0.15788588350E+03  0.17498761624E+03  0.00000000000E+00 0. -1.
         21    1    1    2  506  503 -0.98471183765E+01 -0.37469992778E+02  0.67084182864E+03  0.67195961572E+03  0.00000000000E+00 0.  1.
<scales pt_clust_3="14000.00000" pt_clust_4="35.28389" pt_clust_5="84.33188" pt_clust_6="60.36750"></scales>
<clustering>
<clus scale="   35.284">  1  4  2 -1</clus>
<clus scale="   60.368">  1  6  2 -1</clus>
<clus scale="   84.332">  2  5  1 -1</clus>
<clus scale="   35.284">  1  3  2 -1</clus>
</clustering>
</event>
<event>
 6    0  0.4390142E+002  0.1428614E+03  0.7546771E-02  0.1209530E+00
         21   -1    0    0  505  501  0.00000000000E+00  0.00000000000E+00  0.67344356462E+03  0.67344356462E+03  0.00000000000E+00 0. -1.
         21   -1    0    0  503  502 -0.00000000000E+00 -0.00000000000E+00 -0.20132658342E+03  0.20132658342E+03  0.00000000000E+00 0.  1.
         21    1    1    2  503  504  0.19469344363E+02 -0.95687666793E+02  0.13264050910E+03  0.16470789174E+03  0.00000000000E+00 0. -1.
         21    1    1    2  504  501 -0.35584774473E+02 -0.13814462320E+02  0.15963887046E+03  0.16413922294E+03  0.00000000000E+00 0. -1.
         21    1    1    2  505  506 -0.13524675295E+02 -0.41905514898E+02  0.32863903378E+03  0.33157593933E+03  0.00000000000E+00 0. -1.
         21    1    1    2  506  502  0.29640105405E+02  0.15140764401E+03 -0.14880143215E+03  0.21434709404E+03  0.00000000000E+00 0.  1.
<scales pt_clust_3="142.86143" pt_clust_4="38.17218" pt_clust_5="62.56214" pt_clust_6="14000.00000"></scales>
<clustering>
<clus scale="   38.172">  1  4  2 -1</clus>
<clus scale="   62.562">  1  5  2 -1</clus>
<clus scale="  142.861">  1  3  2 -1</clus>
<clus scale="   38.172">  1  3  2 -1</clus>
</clustering>
</event>
<event>
 6    0  0.4390142E+002  0.8992344E+02  0.7546771E-02  0.1303037E+00
         21   -1    0    0  503  501  0.00000000000E+00  0.00000000000E+00  0.19469590007E+04  0.19469590007E+04  0.00000000000E+00 0. -1.
         21   -1    0    0  501  502 -0.00000000000E+00 -0.00000000000E+00 -0.21724951809E+02  0.21724951809E+02  0.00000000000E+00 0. -1.
         21    1    1    2  503  505  0.30180002805E+02 -0.55495218810E+02  0.12434429568E+04  0.12450465608E+04  0.00000000000E+00 0. -1.
         21    1    1    2  504  506  0.38097492281E+02  0.82489216238E+02  0.16135628571E+03  0.18518029229E+03  0.00000000000E+00 0. -1.
         21    1    1    2  505  504 -0.98920627235E+02 -0.19405790694E+02  0.45181327212E+03  0.46292235642E+03  0.00000000000E+00 0. -1.
         21    1    1    2  506  502  0.30643132148E+02 -0.75882067345E+01  0.68621534307E+02  0.75534742999E+02  0.00000000000E+00 0. -1.
<scales pt_clust_3="64.11409" pt_clust_4="14000.00000" pt_clust_5="89.92344" pt_clust_6="31.56869"></scales>
<clustering>
<clus scale="   31.569">  2  6  1 -1</clus>
<clus scale="   64.114">  1  3  2 -1</clus>
<clus scale="   89.923">  1  5  2 -1</clus>
<clus scale="   64.114">  1  3  2 -1</clus>
</clustering>
</event>
<event>
 6    0  0.4390142E+002  0.1451217E+03  0.7546771E-02  0.1206599E+00
         21   -1    0    0  506  501  0.00000000000E+00  0.00000000000E+00  0.70559160349E+03  0.70559160349E+03  0.00000000000E+00 0. -1.
         21   -1    0    0  504  502 -0.00000000000E+00 -0.00000000000E+00 -0.15880397348E+03  0.15880397348E+03  0.00000000000E+00 0. -1.
         21    1    1    2  503  501 -0.56593776960E+02  0.16852188241E+02  0.51172223922E+02  0.78137368398E+02  0.00000000000E+00 0. -1.
         21    1    1    2  504  505  0.13841175684E+02 -0.63041858272E+02 -0.37172388800E+02  0.74482484705E+02  0.00000000000E+00 0. -1.
         21    1    1    2  505  503 -0.19469235553E+02  0.19029414315E+03  0.41115584620E+02  0.19565633991E+03  0.00000000000E+00 0. -1.
         21    1    1    2  506  502  0.62221836829E+02 -0.14410447312E+03  0.49167221026E+03  0.51611938396E+03  0.00000000000E+00 0. -1.
<scales pt_clust_3="59.04957" pt_clust_4="63.72884" pt_clust_5="145.12170" pt_clust_6="14000.00000"></scales>
<clustering>
<clus scale="   59.050">  1  3  2 -1</clus>
<clus scale="   63.729">  2  4  1 -1</clus>
<clus scale="  145.122">  2  5  1 -1</clus>
<clus scale="   59.050">  1  3  2 -1</clus>
</clustering>
</event>
<event>
 6    0  0.4390142E+002  0.3190105E+03  0.7546771E-02  0.1076106E+00
         21   -1    0    0  505  501  0.00000000000E+00  0.00000000000E+00  0.25478990999E+03  0.25478990999E+03  0.00000000000E+00 0.  1.
         21   -1    0    0  503  502 -0.00000000000E+00 -0.00000000000E+00 -0.97944297212E+03  0.97944297212E+03  0.00000000000E+00 0.  1.
         21    1    1    2  503  501  0.23427110772E+02  0.33555086990E+03 -0.61046136162E+03  0.69699805584E+03  0.00000000000E+00 0.  1.
         21    1    1    2  504  506 -0.36645868770E+02 -0.25638529434E+03  0.94330776439E+02  0.27563496556E+03  0.00000000000E+00 0.  1.
         21    1    1    2  505  504  0.19726255749E+02 -0.48285036841E+02 -0.14946625982E+01  0.52180494104E+02  0.00000000000E+00 0. -1.
         21    1    1    2  506  502 -0.65074977514E+01 -0.30880538714E+02 -0.20702781435E+03  0.20941936661E+03  0.00000000000E+00 0.  1.
<scales pt_clust_3="309.89279" pt_clust_4="34.03631" pt_clust_5="34.03631" pt_clust_6="31.55876"></scales>
<clustering>
<clus scale="   31.559">  2  6  1 -1</clus>
<clus scale="   34.036">  4  5 -1 -1</clus>
<clus scale="  309.893">  2  3  1 -1</clus>
<clus scale="  319.010">  1  3  2 -1</clus>
</clustering>
</event>
<event>
 6    0  0.4390142E+002  0.2038360E+03  0.7546771E-02  0.1146542E+00
         21   -1    0    0  504  501  0.00000000000E+00  0.00000000000E+00  0.90775115483E+02  0.90775115483E+02  0.00000000000E+00 0. -1.
         21   -1    0    0  505  502 -0.00000000000E+00 -0.00000000000E+00 -0.12091799304E+04  0.12091799304E+04  0.00000000000E+00 0. -1.
         21    1    1    2  503  501 -0.18261772672E+01 -0.75108825175E+02  0.36062732016E+01  0.75217522885E+02  0.00000000000E+00 0. -1.
         21    1    1    2  504  502  0.11200865017E+02  0.21166508592E+03 -0.91232150889E+03  0.93662057609E+03  0.00000000000E+00 0. -1.
         21    1    1    2  505  506  0.23900273035E+02 -0.20804593145E+02 -0.15072201233E+03  0.15401681450E+03  0.00000000000E+00 0. -1.
         21    1    1    2  506  503 -0.33274960785E+02 -0.11575166760E+03 -0.58967566916E+02  0.13410013243E+03  0.00000000000E+00 0. -1.
<scales pt_clust_3="43.87190" pt_clust_4="196.11205" pt_clust_5="31.68681" pt_clust_6="43.87190"></scales>
<clustering>
<clus scale="   31.687">  2  5  1 -1</clus>
<clus scale="   43.872">  3  6 -1 -1</clus>
<clus scale="  196.112">  2  4  1 -1</clus>
<clus scale="  203.836">  1  3  2 -1</clus>
</clustering>
</event>
<event>
 6    0  0.4390142E+002  0.2230751E+03  0.7546771E-02  0.1131611E+00
         21   -1    0    0  503  501  0.00000000000E+00  0.00000000000E+00  0.10213278697E+04  0.10213278697E+04  0.00000000000E+00 0. -1.
         21   -1    0    0  504  502 -0.00000000000E+00 -0.00000000000E+00 -0.23852098327E+03  0.23852098327E+03  0.00000000000E+00 0. -1.
         21    1    1    2  503  502  0.22632917787E+03  0.30060902807E+00 -0.10874658170E+03  0.25109919584E+03  0.00000000000E+00 0. -1.
         21    1    1    2  504  505 -0.19325842842E+03 -0.17864441842E+03  0.37902290604E+03  0.46143364820E+03  0.00000000000E+00 0. -1.
         21    1    1    2  505  506 -0.34730063581E+01  0.79736831557E+02  0.31013864664E+03  0.32024366382E+03  0.00000000000E+00 0. -1.
         21    1    1    2  506  501 -0.29597743087E+02  0.98606977838E+02  0.20239191546E+03  0.22707234512E+03  0.00000000000E+00 0. -1.
<scales pt_clust_3="223.07507" pt_clust_4="14000.00000" pt_clust_5="55.45606" pt_clust_6="192.00843"></scales>
<clustering>
<clus scale="   55.456">  5  6 -1 -1</clus>
<clus scale="  192.008">  1  5  2 -1</clus>
<clus scale="  223.075">  2  3  1 -1</clus>
<clus scale="  192.008">  1  3  2 -1</clus>
</clustering>
</event>
<event>
 6    0  0.4390142E+002  0.1046436E+03  0.7546771E-02  0.1270823E+00
         21   -1    0    0  503  501  0.00000000000E+00  0.00000000000E+00  0.51368482247E+03  0.51368482247E+03  0.00000000000E+00 0.  1.
         21   -1    0    0  504  502 -0.00000000000E+00 -0.00000000000E+00 -0.15833999554E+03  0.15833999554E+03  0.00000000000E+00 0. -1.
         21    1    1    2  503  506  0.88228381539E+02  0.33842748258E+02  0.21243259920E+03  0.23250201746E+03  0.00000000000E+00 0.  1.
         21    1    1    2  504  505  0.29453975281E+02 -0.16176646413E+02  0.18847377737E+02  0.38528485522E+02  0.00000000000E+00 0.  1.
         21    1    1    2  505  501 -0.12733939493E+03  0.12831021506E+02  0.24472222852E+03  0.27616829244E+03  0.00000000000E+00 0.  1.
         21    1    1    2  506  502  0.96570381140E+01 -0.30497123352E+02 -0.12065737854E+03  0.12482602258E+03  0.00000000000E+00 0. -1.
<scales pt_clust_3="14000.00000" pt_clust_4="40.46513" pt_clust_5="104.64360" pt_clust_6="31.98958"></scales>
<clustering>
<clus scale="   31.990">  2  6  1 -1</clus>
<clus scale="   40.465">  2  4  1 -1</clus>
<clus scale="  104.644">  2  5  1 -1</clus>
<clus scale="  104.644">  1  3  2 -1</clus>
</clustering>
</event>
<event>
 6    0  0.4390142E+002  0.2977461E+03  0.7546771E-02  0.1086373E+00
         21   -1    0    0  504  501  0.00000000000E+00  0.00000000000E+00  0.12019515087E+04  0.12019515087E+04  0.00000000000E+00 0. -1.
         21   -1    0    0  503  502 -0.00000000000E+00 -0.00000000000E+00 -0.20491222505E+03  0.20491222505E+03  0.00000000000E+00 0. -1.
         21    1    1    2  503  506  0.33858571099E+02  0.73342936728E+01 -0.38078796514E+02  0.51479990720E+02  0.00000000000E+00 0. -1.
         21    1    1    2  504  502 -0.59217325644E+01 -0.40535661807E+02  0.46303561342E+02  0.61824158608E+02  0.00000000000E+00 0. -1.
         21    1    1    2  505  501 -0.27842599181E+03  0.10610740901E+02  0.10036585894E+04  0.10416161408E+04  0.00000000000E+00 0. -1.
         21    1    1    2  506  505  0.25048915328E+03  0.22590627232E+02 -0.14844070558E+02  0.25194344361E+03  0.00000000000E+00 0. -1.
<scales pt_clust_3="32.17564" pt_clust_4="40.96592" pt_clust_5="284.84546" pt_clust_6="32.17564"></scales>
<clustering>
<clus scale="   32.176">  3  6 -1 -1</clus>
<clus scale="   40.966">  1  4  2 -1</clus>
<clus scale="  284.845">  1  5  2 -1</clus>
<clus scale="   40.966">  1  3  2 -1</clus>
</clustering>
</event>
<event>
 6    0  0.4390142E+002  0.1562738E+03  0.7546771E-02  0.1192969E+00
         21   -1    0    0  505  501  0.00000000000E+00  0.00000000000E+00  0.99846110865E+03  0.99846110865E+03  0.00000000000E+00 0.  1.
         21   -1    0    0  503  502 -0.00000000000E+00 -0.00000000000E+00 -0.28806105829E+03  0.28806105829E+03  0.00000000000E+00 0.  1.
         21    1    1    2  503  506 -0.84183542401E+02  0.14024625756E+03 -0.23223918769E+03  0.28406147552E+03  0.00000000000E+00 0.  1.
         21    1    1    2  504  501  0.30054884175E+02 -0.15505231925E+02  0.72748409752E+02  0.80224930049E+02  0.00000000000E+00 0.  1.
         21    1    1    2  505  502 -0.25581320458E+02 -0.27113531359E+02 -0.56215897175E+01  0.37698140672E+02  0.00000000000E+00 0.  1.
         21    1    1    2  506  504  0.79709978684E+02 -0.97627494277E+02  0.87551241802E+03  0.88453762070E+03  0.00000000000E+00 0.  1.
<scales pt_clust_3="156.27378" pt_clust_4="33.81876" pt_clust_5="37.11834" pt_clust_6="14000.00000"></scales>
<clustering>
<clus scale="   33.819">  1  4  2 -1</clus>
<clus scale="   37.118">  2  5  1 -1</clus>
<clus scale="  156.274">  2  3  1 -1</clus>
<clus scale="   33.819">  1  3  2 -1</clus>
</clustering>
</event>
<event>
 6    0  0.4390142E+002  0.2171850E+03  0.7546771E-02  0.1135999E+00
         21   -1    0    0  505  501  0.00000000000E+00  0.00000000000E+00  0.38758896511E+04  0.38758896511E+04  0.00000000000E+00 0.  1.
         21   -1    0    0  503  502 -0.00000000000E+00 -0.00000000000E+00 -0.85784767329E+03  0.85784767329E+03  0.00000000000E+00 0. -1.
         21    1    1    2  503  504  0.62727767670E+01  0.68006431362E+02 -0.62845886177E+03  0.63215881182E+03  0.00000000000E+00 0. -1.
         21    1    1    2  504  506 -0.86570196753E+02 -0.26588250260E+03 -0.11648517642E+03  0.30291368487E+03  0.00000000000E+00 0. -1.
         21    1    1    2  505  502 -0.77195101164E+02  0.11640686757E+03  0.29763116815E+03  0.32877645097E+03  0.00000000000E+00 0. -1.
         21    1    1    2  506  501  0.15749252115E+03  0.81469203669E+02  0.34653548478E+04  0.34698883767E+04  0.00000000000E+00 0.  1.
<scales pt_clust_3="68.29511" pt_clust_4="14000.00000" pt_clust_5="143.34853" pt_clust_6="217.18497"></scales>
<clustering>
<clus scale="   68.295">  2  3  1 -1</clus>
<clus scale="  143.349">  1  5  2 -1</clus>
<clus scale="  217.185">  1  6  2 -1</clus>
<clus scale="  143.349">  1  3  2 -1</clus>
</clustering>
</event>
<event>
 6    0  0.4390142E+002  0.1152226E+03  0.7546771E-02  0.1251193E+00
         21   -1    0    0  506  501  0.00000000000E+00  0.00000000000E+00  0.69471738223E+03  0.69471738223E+03  0.00000000000E+00 0.  1.
         21   -1    0    0  504  502 -0.00000000000E+00 -0.00000000000E+00 -0.31900811217E+03  0.31900811217E+03  0.00000000000E+00 0.  1.
         21    1    1    2  503  502  0.61916402592E+02  0.11613110662E+02 -0.28213912555E+03  0.28908647740E+03  0.00000000000E+00 0.  1.
         21    1    1    2  504  501 -0.58702055035E+02 -0.98629676206E+02  0.34724039262E+03  0.36571797134E+03  0.00000000000E+00 0.  1.
         21    1    1    2  505  503 -0.38431962561E+02  0.12125621191E+03  0.18951728662E+03  0.22824742408E+03  0.00000000000E+00 0.  1.
         21    1    1    2  506  505  0.35217615004E+02 -0.34239646362E+02  0.12109071636E+03  0.13067362159E+03  0.00000000000E+00 0. -1.
<scales pt_clust_3="63.16938" pt_clust_4="14000.00000" pt_clust_5="115.22259" pt_clust_6="49.11857"></scales>
<clustering>
<clus scale="   49.119">  1  6  2 -1</clus>
<clus scale="   63.169">  2  3  1 -1</clus>
<clus scale="  115.223">  2  5  1 -1</clus>
<clus scale="   49.119">  1  3  2 -1</clus>
</clustering>
</event>
<event>
 6    0  0.4390142E+002  0.1900711E+03  0.7546771E-02  0.1158397E+00
         21   -1    0    0  505  501  0.00000000000E+00  0.00000000000E+00  0.58509365573E+03  0.58509365573E+03  0.00000000000E+00 0. -1.
         21   -1    0    0  503  502 -0.00000000000E+00 -0.00000000000E+00 -0.31046054258E+03  0.31046054258E+03  0.00000000000E+00 0.  1.
         21    1    1    2  503  501 -0.12339163548E+03 -0.42632962259E+02 -0.17143323411E+03  0.21548182971E+03  0.00000000000E+00 0.  1.
         21    1    1    2  504  502 -0.23544927914E+02  0.50081442341E+02 -0.52178954608E+02  0.76060224831E+02  0.00000000000E+00 0. -1.
         21    1    1    2  505  506  0.19074604859E+03  0.44347505834E+02  0.49912428554E+03  0.53616770580E+03  0.00000000000E+00 0. -1.
         21    1    1    2  506  504 -0.43809485204E+02 -0.51795985916E+02 -0.87898367922E+00  0.67844437968E+02  0.00000000000E+00 0.  1.
<scales pt_clust_3="190.07106" pt_clust_4="55.33999" pt_clust_5="14000.00000" pt_clust_6="65.00595"></scales>
<clustering>
<clus scale="   55.340">  2  4  1 -1</clus>
<clus scale="   65.006">  2  6  1 -1</clus>
<clus scale="  190.071">  2  3  1 -1</clus>
<clus scale="  190.071">  1  3  2 -1</clus>
</clustering>
</event>
<event>
 6    0  0.4390142E+002  0.9454301E+02  0.7546771E-02  0.1292209E+00
         21   -1    0    0  503  501  0.00000000000E+00  0.00000000000E+00  0.34142412145E+03  0.34142412145E+03  0.00000000000E+00 0.  1.
         21   -1    0    0  504  502 -0.00000000000E+00 -0.00000000000E+00 -0.17138637455E+04  0.17138637455E+04  0.00000000000E+00 0. -1.
         21    1    1    2  503  502 -0.37839349408E+02  0.60305904358E+02  0.25759421043E+03  0.26725155886E+03  0.00000000000E+00 0.  1.
         21    1    1    2  504  505  0.84342056323E+00  0.43104806317E+02 -0.15892589847E+04  0.15898436578E+04  0.00000000000E+00 0. -1.
         21    1    1    2  505  506  0.23882229871E+02 -0.13266487682E+03 -0.72527547465E+02  0.15307049221E+03  0.00000000000E+00 0.  1.
         21    1    1    2  506  501  0.13113698974E+02  0.29254166142E+02  0.31752697724E+02  0.45122158085E+02  0.00000000000E+00 0. -1.
<scales pt_clust_3="14000.00000" pt_clust_4="43.14153" pt_clust_5="94.54301" pt_clust_6="32.05894"></scales>
<clustering>
<clus scale="   32.059">  1  6  2 -1</clus>
<clus scale="   43.142">  2  4  1 -1</clus>
<clus scale="   94.543">  2  5  1 -1</clus>
<clus scale="   32.059">  1  3  2 -1</clus>
</clustering>
</event>
<event>
 6    0  0.4390142E+002  0.1232999E+03  0.7546771E-02  0.1237750E+00
         21   -1    0    0  505  501  0.00000000000E+00  0.00000000000E+00  0.74456425620E+03  0.74456425620E+03  0.00000000000E+00 0.  1.
         21   -1    0    0  503  502 -0.00000000000E+00 -0.00000000000E+00 -0.13764944909E+03  0.13764944909E+03  0.00000000000E+00 0. -1.
         21    1    1    2  503  506  0.27461813540E+02  0.12868039596E+03 -0.80807962108E+02  0.15441088773E+03  0.00000000000E+00 0. -1.
         21    1    1    2  504  502 -0.73125858434E+02 -0.62812284167E+02  0.18577004351E+03  0.20929233927E+03  0.00000000000E+00 0.  1.
         21    1    1    2  505  504  0.13640207119E+02 -0.69369669087E+02  0.46107944681E+03  0.46646807233E+03  0.00000000000E+00 0.  1.
         21    1    1    2  506  501  0.32023837775E+02  0.35015572910E+01  0.40873278906E+02  0.52042405957E+02  0.00000000000E+00 0.  1.
<scales pt_clust_3="123.29987" pt_clust_4="14000.00000" pt_clust_5="75.59008" pt_clust_6="32.21470"></scales>
<clustering>
<clus scale="   32.215">  1  6  2 -1</clus>
<clus scale="   75.590">  1  5  2 -1</clus>
<clus scale="  123.300">  2  3  1 -1</clus>
<clus scale="   32.215">  1  3  2 -1</clus>
</clustering>
</event>
<event>
 6    0  0.4390142E+002  0.2059197E+03  0.7546771E-02  0.1144839E+00
         21   -1    0    0  502  501  0.00000000000E+00  0.00000000000E+00  0.80065509429E+03  0.80065509429E+03  0.00000000000E+00 0.  1.
         21   -1    0    0  504  502 -0.00000000000E+00 -0.00000000000E+00 -0.15189783049E+04  0.15189783049E+04  0.00000000000E+00 0.  1.
         21    1    1    2  503  501 -0.55808646350E+02  0.31414572042E+02  0.16865472887E+03  0.18040481677E+03  0.00000000000E+00 0.  1.
         21    1    1    2  504  506 -0.15650070600E+02  0.27822494251E+02 -0.12898099042E+04  0.12902048693E+04  0.00000000000E+00 0.  1.
         21    1    1    2  505  503 -0.13118467039E+03  0.37778286990E+02  0.55898782649E+03  0.57541637696E+03  0.00000000000E+00 0.  1.
         21    1    1    2  506  505  0.20264338734E+03 -0.97015353284E+02 -0.15615586173E+03  0.27360733609E+03  0.00000000000E+00 0.  1.
<scales pt_clust_3="30.99495" pt_clust_4="31.92203" pt_clust_5="30.99495" pt_clust_6="200.88573"></scales>
<clustering>
<clus scale="   30.995">  3  5 -1 -1</clus>
<clus scale="   31.922">  2  4  1 -1</clus>
<clus scale="  200.886">  2  6  1 -1</clus>
<clus scale="  205.920">  1  3  2 -1</clus>
</clustering>
</event>
<event>
 6    0  0.4390142E+002  0.1320764E+03  0.7546771E-02  0.1224407E+00
         21   -1    0    0  505  501  0.00000000000E+00  0.00000000000E+00  0.15329081991E+04  0.15329081991E+04  0.00000000000E+00 0.  1.
         21   -1    0    0  503  502 -0.00000000000E+00 -0.00000000000E+00 -0.72800232709E+02  0.72800232709E+02  0.00000000000E+00 0. -1.
         21    1    1    2  503  504  0.22068279866E+02  0.13278374577E+03  0.13722521569E+02  0.13530277054E+03  0.00000000000E+00 0. -1.
         21    1    1    2  504  506  0.15500608442E+02 -0.96743319058E+02  0.11459080851E+04  0.11500890740E+04  0.00000000000E+00 0.  1.
         21    1    1    2  505  502 -0.43220959138E+02  0.24693017996E+02  0.14474696097E+03  0.15306691071E+03  0.00000000000E+00 0. -1.
         21    1    1    2  506  501  0.56520708295E+01 -0.60733444712E+02  0.15573039884E+03  0.16724967663E+03  0.00000000000E+00 0.  1.
<scales pt_clust_3="132.07637" pt_clust_4="14000.00000" pt_clust_5="49.77747" pt_clust_6="57.85538"></scales>
<clustering>
<clus scale="   49.777">  1  5  2 -1</clus>
<clus scale="   57.855">  1  6  2 -1</clus>
<clus scale="  132.076">  2  3  1 -1</clus>
<clus scale="   49.777">  1  3  2 -1</clus>
</clustering>
</event>
<event>
 6    0  0.4390142E+002  0.2079204E+03  0.7546771E-02  0.1143223E+00
         21   -1    0    0  504  501  0.00000000000E+00  0.00000000000E+00  0.62254114425E+03  0.62254114425E+03  0.00000000000E+00 0. -1.
         21   -1    0    0  505  502 -0.00000000000E+00 -0.00000000000E+00 -0.23512608612E+03  0.23512608612E+03  0.00000000000E+00 0. -1.
         21    1    1    2  503  506 -0.74310890146E+01  0.12686710060E+03  0.19203275814E+03  0.23027605715E+03  0.00000000000E+00 0. -1.
         21    1    1    2  504  502  0.69622924736E+02 -0.21348812448E+03  0.22463674529E+03  0.31762587785E+03  0.00000000000E+00 0. -1.
         21    1    1    2  505  503 -0.25315811710E+02  0.30783889043E+02 -0.15892536705E+03  0.16384691160E+03  0.00000000000E+00 0. -1.
         21    1    1    2  506  501 -0.36876024011E+02  0.55837134833E+02  0.12967092176E+03  0.14591838377E+03  0.00000000000E+00 0. -1.
<scales pt_clust_3="37.60028" pt_clust_4="201.35999" pt_clust_5="39.85647" pt_clust_6="37.60028"></scales>
<clustering>
<clus scale="   37.600">  3  6 -1 -1</clus>
<clus scale="   39.856">  2  5  1 -1</clus>
<clus scale="  201.360">  2  4  1 -1</clus>
<clus scale="  207.920">  1  3  2 -1</clus>
</clustering>
</event>
<event>
 6    0  0.4390142E+002  0.8210790E+02  0.7546771E-02  0.1323174E+00
         21   -1    0    0  504  501  0.00000000000E+00  0.00000000000E+00  0.58701549186E+03  0.58701549186E+03  0.00000000000E+00 0. -1.
         21   -1    0    0  503  502 -0.00000000000E+00 -0.00000000000E+00 -0.15398691731E+03  0.15398691731E+03  0.00000000000E+00 0.  1.
         21    1    1    2  503  505 -0.53875141730E+01  0.79478965065E+02 -0.25659010871E+02  0.83691791925E+02  0.00000000000E+00 0. -1.
         21    1    1    2  504  502 -0.56966998491E+02 -0.74861399161E+02 -0.67230035255E+02  0.11562588656E+03  0.00000000000E+00 0.  1.
         21    1    1    2  505  506  0.91863585421E+02 -0.12669909238E+02  0.30881265466E+03  0.32243557590E+03  0.00000000000E+00 0. -1.
         21    1    1    2  506  501 -0.29509072757E+02  0.80523433340E+01  0.21710496602E+03  0.21924915479E+03  0.00000000000E+00 0. -1.
<scales pt_clust_3="14000.00000" pt_clust_4="82.10790" pt_clust_5="66.86219" pt_clust_6="30.58800"></scales>
<clustering>
<clus scale="   30.588">  1  6  2 -1</clus>
<clus scale="   66.862">  1  5  2 -1</clus>
<clus scale="   82.108">  2  4  1 -1</clus>
<clus scale="   30.588">  1  3  2 -1</clus>
</clustering>
</event>
<event>
 6    0  0.4390142E+002  0.1218230E+03  0.7546771E-02  0.1240120E+00
         21   -1    0    0  506  501  0.00000000000E+00  0.00000000000E+00  0.20063241106E+04  0.20063241106E+04  0.00000000000E+00 0.  1.
         21   -1    0    0  504  502 -0.00000000000E+00 -0.00000000000E+00 -0.74231460207E+03  0.74231460207E+03  0.00000000000E+00 0. -1.
         21    1    1    2  503  502 -0.33458928853E+02  0.23282921622E+00 -0.29256785833E+03  0.29447496643E+03  0.00000000000E+00 0. -1.
         21    1    1    2  504  501 -0.79302128398E+02  0.53383084309E+02  0.14039155776E+03  0.16984808138E+03  0.00000000000E+00 0.  1.
         21    1    1    2  505  503 -0.36677553910E+02 -0.10075548915E+03 -0.42406241495E+03  0.43740809701E+03  0.00000000000E+00 0. -1.
         21    1    1    2  506  505  0.14943861116E+03  0.47139575627E+02  0.18402482241E+04  0.18469075679E+04  0.00000000000E+00 0.  1.
<scales pt_clust_3="33.45974" pt_clust_4="96.51298" pt_clust_5="14000.00000" pt_clust_6="121.82303"></scales>
<clustering>
<clus scale="   33.460">  2  3  1 -1</clus>
<clus scale="   96.513">  1  4  2 -1</clus>
<clus scale="  121.823">  1  6  2 -1</clus>
<clus scale="   96.513">  1  3  2 -1</clus>
</clustering>
</event>
<event>
 6    0  0.4390142E+002  0.1286998E+03  0.7546771E-02  0.1229398E+00
         21   -1    0    0  503  501  0.00000000000E+00  0.00000000000E+00  0.53093035253E+02  0.53093035253E+02  0.00000000000E+00 0.  1.
         21   -1    0    0  504  502 -0.00000000000E+00 -0.00000000000E+00 -0.56748013436E+03  0.56748013436E+03  0.00000000000E+00 0.  1.
         21    1    1    2  503  505  0.69217893031E+02 -0.55087506213E+02 -0.11539837848E+03  0.14540473105E+03  0.00000000000E+00 0.  1.
         21    1    1    2  504  506 -0.65510399136E+02  0.43776932278E+02 -0.43265287996E+02  0.89888360426E+02  0.00000000000E+00 0.  1.
         21    1    1    2  505  502  0.66364607721E+02  0.11190878597E+02 -0.24641088544E+03  0.25543653103E+03  0.00000000000E+00 0.  1.
         21    1    1    2  506  501 -0.70072101615E+02  0.11969533740E+00 -0.10931254720E+03  0.12984354711E+03  0.00000000000E+00 0.  1.
<scales pt_clust_3="108.95431" pt_clust_4="64.60120" pt_clust_5="67.30154" pt_clust_6="64.60120"></scales>
<clustering>
<clus scale="   64.601">  4  6 -1 -1</clus>
<clus scale="   67.302">  2  5  1 -1</clus>
<clus scale="  108.954">  1  3  2 -1</clus>
<clus scale="  108.954">  1  3  2 -1</clus>
</clustering>
</event>
<event>
 6    0  0.4390142E+002  0.7898600E+02  0.7546771E-02  0.1331954E+00
         21   -1    0    0  503  501  0.00000000000E+00  0.00000000000E+00  0.27945616637E+03  0.27945616637E+03  0.00000000000E+00 0. -1.
         21   -1    0    0  505  502 -0.00000000000E+00 -0.00000000000E+00 -0.40940398339E+03  0.40940398339E+03  0.00000000000E+00 0.  1.
         21    1    1    2  503  506  0.38660896797E+02  0.81422634257E+02  0.11025918029E+02  0.90806834428E+02  0.00000000000E+00 0.  1.
         21    1    1    2  504  501  0.32569072226E+02 -0.75998525257E+01  0.46365204726E+02  0.57168474121E+02  0.00000000000E+00 0. -1.
         21    1    1    2  505  504  0.89196130097E+01 -0.60664717617E+02  0.16671518548E+03  0.17763366947E+03  0.00000000000E+00 0. -1.
         21    1    1    2  506  502 -0.80149582033E+02 -0.13158064114E+02 -0.35405412526E+03  0.36325117173E+03  0.00000000000E+00 0.  1.
<scales pt_clust_3="78.98600" pt_clust_4="33.44402" pt_clust_5="74.40396" pt_clust_6="14000.00000"></scales>
<clustering>
<clus scale="   33.444">  1  4  2 -1</clus>
<clus scale="   74.404">  1  5  2 -1</clus>
<clus scale="   78.986">  1  3  2 -1</clus>
<clus scale="   33.444">  1  3  2 -1</clus>
</clustering>
</event>
<event>
 6    0  0.4390142E+002  0.1068968E+03  0.7546771E-02  0.1266427E+00
         21   -1    0    0  503  501  0.00000000000E+00  0.00000000000E+00  0.22486410096E+03  0.22486410096E+03  0.00000000000E+00 0. -1.
         21   -1    0    0  504  502 -0.00000000000E+00 -0.00000000000E+00 -0.47672039705E+03  0.47672039705E+03  0.00000000000E+00 0.  1.
         21    1    1    2  503  506  0.33216795530E+02  0.20861511936E+02 -0.71903852293E+01  0.39878061955E+02  0.00000000000E+00 0.  1.
         21    1    1    2  504  505 -0.74207271192E+02  0.78709991625E+02 -0.42103314076E+03  0.43470781853E+03  0.00000000000E+00 0.  1.
         21    1    1    2  505  501  0.57147185085E+02 -0.51422152195E+02  0.15271491824E+03  0.17097334516E+03  0.00000000000E+00 0. -1.
         21    1    1    2  506  502 -0.16156709423E+02 -0.48149351366E+02  0.23652311651E+02  0.56025272358E+02  0.00000000000E+00 0. -1.
<scales pt_clust_3="39.22446" pt_clust_4="106.89683" pt_clust_5="14000.00000" pt_clust_6="45.24019"></scales>
<clustering>
<clus scale="   39.224">  1  3  2 -1</clus>
<clus scale="   45.240">  1  6  2 -1</clus>
<clus scale="  106.897">  2  4  1 -1</clus>
<clus scale="   39.224">  1  3  2 -1</clus>
</clustering>
</event>
<event>
 6    0  0.4390142E+002  0.1311229E+03  0.7546771E-02  0.1225799E+00
         21   -1    0    0  506  501  0.00000000000E+00  0.00000000000E+00  0.20463400781E+04  0.20463400781E+04  0.00000000000E+00 0. -1.
         21   -1    0    0  503  502 -0.00000000000E+00 -0.00000000000E+00 -0.26192561849E+02  0.26192561849E+02  0.00000000000E+00 0. -1.
         21    1    1    2  503  501 -0.35262032565E+02 -0.15262892538E+02  0.33858479283E+02  0.51212922672E+02  0.00000000000E+00 0. -1.
         21    1    1    2  504  505  0.65840375886E+02 -0.53569749460E+02  0.13753783784E+04  0.13779950497E+04  0.00000000000E+00 0. -1.
         21    1    1    2  505  502 -0.75135458358E+02  0.76676847201E+02  0.17663909690E+03  0.20670279764E+03  0.00000000000E+00 0. -1.
         21    1    1    2  506  504  0.44557115038E+02 -0.78442052027E+01  0.43427156165E+03  0.43662186995E+03  0.00000000000E+00 0. -1.
<scales pt_clust_3="38.42352" pt_clust_4="32.99416" pt_clust_5="123.08878" pt_clust_6="32.99416"></scales>
<clustering>
<clus scale="   32.994">  4  6 -1 -1</clus>
<clus scale="   38.424">  2  3  1 -1</clus>
<clus scale="  123.089">  2  5  1 -1</clus>
<clus scale="  131.123">  1  3  2 -1</clus>
</clustering>
</event>
<event>
 6    0  0.4390142E+002  0.1395739E+03  0.7546771E-02  0.1213903E+00
         21   -1    0    0  505  501  0.00000000000E+00  0.00000000000E+00  0.28211752852E+03  0.28211752852E+03  0.00000000000E+00 0. -1.
         21   -1    0    0  503  502 -0.00000000000E+00 -0.00000000000E+00 -0.49783536884E+03  0.49783536884E+03  0.00000000000E+00 0. -1.
         21    1    1    2  503  501 -0.10548663257E+03  0.28488302613E+02  0.22123883605E+03  0.24675014815E+03  0.00000000000E+00 0. -1.
         21    1    1    2  504  502 -0.79107926883E+01  0.30224377384E+02 -0.13475703349E+03  0.13833131137E+03  0.00000000000E+00 0. -1.
         21    1    1    2  505  506 -0.19559709798E+02  0.35130807171E+02  0.11198217455E+02  0.41739141510E+02  0.00000000000E+00 0.  1.
         21    1    1    2  506  504  0.13295713505E+03 -0.93843487168E+02 -0.31339786033E+03  0.35313229632E+03  0.00000000000E+00 0. -1.
<scales pt_clust_3="139.57394" pt_clust_4="31.24250" pt_clust_5="41.48900" pt_clust_6="14000.00000"></scales>
<clustering>
<clus scale="   31.242">  2  4  1 -1</clus>
<clus scale="   41.489">  1  5  2 -1</clus>
<clus scale="  139.574">  1  3  2 -1</clus>
<clus scale="   41.489">  1  3  2 -1</clus>
</clustering>
</event>
<event>
 6    0  0.4390142E+002  0.1882688E+03  0.7546771E-02  0.1160032E+00
         21   -1    0    0  505  501  0.00000000000E+00  0.00000000000E+00  0.18520777281E+04  0.18520777281E+04  0.00000000000E+00 0.  1.
         21   -1    0    0  503  502 -0.00000000000E+00 -0.00000000000E+00 -0.55049136755E+02  0.55049136755E+02  0.00000000000E+00 0. -1.
         21    1    1    2  503  506 -0.29847433910E+01  0.29879521795E+02  0.75784096558E+01  0.30969772500E+02  0.00000000000E+00 0. -1.
         21    1    1    2  504  502 -0.16419904202E+03 -0.15878309671E+03  0.34262172340E+03  0.41178033288E+03  0.00000000000E+00 0. -1.
         21    1    1    2  505  504  0.13651055477E+03  0.11931125859E+03  0.13552402591E+04  0.13673135953E+04  0.00000000000E+00 0.  1.
         21    1    1    2  506  501  0.30673230635E+02  0.95923163222E+01  0.91588199138E+02  0.97063164132E+02  0.00000000000E+00 0. -1.
<scales pt_clust_3="30.02823" pt_clust_4="188.26876" pt_clust_5="14000.00000" pt_clust_6="32.57435"></scales>
<clustering>
<clus scale="   30.028">  2  3  1 -1</clus>
<clus scale="   32.574">  2  6  1 -1</clus>
<clus scale="  188.269">  2  4  1 -1</clus>
<clus scale="  188.269">  1  3  2 -1</clus>
</clustering>
</event>
<event>
 6    0  0.4390142E+002  0.1682034E+03  0.7546771E-02  0.1179734E+00
         21   -1    0    0  505  501  0.00000000000E+00  0.00000000000E+00  0.84257225582E+02  0.84257225582E+02  0.00000000000E+00 0. -1.
         21   -1    0    0  506  502 -0.00000000000E+00 -0.00000000000E+00 -0.13500419169E+04  0.13500419169E+04  0.00000000000E+00 0. -1.
         21    1    1    2  503  504 -0.27208789580E+01  0.50198931370E+02 -0.45718582345E+02  0.67952370559E+02  0.00000000000E+00 0.  1.
         21    1    1    2  504  501 -0.29386710197E+02  0.10543780605E+03  0.10143422677E+02  0.10992542338E+03  0.00000000000E+00 0. -1.
         21    1    1    2  505  502 -0.43407125078E+02 -0.83057307549E+02 -0.19962933252E+03  0.22053245849E+03  0.00000000000E+00 0. -1.
         21    1    1    2  506  503  0.75514714234E+02 -0.72579429870E+02 -0.10305801991E+04  0.10358888900E+04  0.00000000000E+00 0. -1.
<scales pt_clust_3="48.49892" pt_clust_4="48.49892" pt_clust_5="93.71603" pt_clust_6="152.22074"></scales>
<clustering>
<clus scale="   48.499">  3  4 -1 -1</clus>
<clus scale="   93.716">  2  5  1 -1</clus>
<clus scale="  152.221">  2  6  1 -1</clus>
<clus scale="  168.203">  1  3  2 -1</clus>
</clustering>
</event>
<event>
 6    0  0.4390142E+002  0.1423353E+03  0.7546771E-02  0.1210221E+00
         21   -1    0    0  504  501  0.00000000000E+00  0.00000000000E+00  0.45149001237E+03  0.45149001237E+03  0.00000000000E+00 0.  1.
         21   -1    0    0  501  502 -0.00000000000E+00 -0.00000000000E+00 -0.14710919072E+03  0.14710919072E+03  0.00000000000E+00 0.  1.
         21    1    1    2  503  506  0.23911422225E+02  0.47908097095E+02  0.89629452292E+02  0.10440488781E+03  0.00000000000E+00 0.  1.
         21    1    1    2  504  503 -0.11300590364E+02  0.74964634939E+02  0.16537002597E+03  0.18191933741E+03  0.00000000000E+00 0.  1.
         21    1    1    2  505  502 -0.41469642443E+01  0.46849394146E+02 -0.83984454823E+02  0.96257216333E+02  0.00000000000E+00 0.  1.
         21    1    1    2  506  505 -0.84638676163E+01 -0.16972212618E+03  0.13336579820E+03  0.21601776154E+03  0.00000000000E+00 0.  1.
<scales pt_clust_3="34.65153" pt_clust_4="34.65153" pt_clust_5="47.03257" pt_clust_6="136.23237"></scales>
<clustering>
<clus scale="   34.652">  3  4 -1 -1</clus>
<clus scale="   47.033">  2  5  1 -1</clus>
<clus scale="  136.232">  2  6  1 -1</clus>
<clus scale="  142.335">  1  3  2 -1</clus>
</clustering>
</event>
<event>
 6    0  0.4390142E+002  0.1024879E+03  0.7546771E-02  0.1275150E+00
         21   -1    0    0  504  501  0.00000000000E+00  0.00000000000E+00  0.69583765001E+03  0.69583765001E+03  0.00000000000E+00 0.  1.
         21   -1    0    0  506  502 -0.00000000000E+00 -0.00000000000E+00 -0.37861771635E+03  0.37861771635E+03  0.00000000000E+00 0. -1.
         21    1    1    2  503  501 -0.67939305830E+02  0.69770323707E+02  0.64635122167E+03  0.65364634865E+03  0.00000000000E+00 0.  1.
         21    1    1    2  504  505  0.48540754735E+02 -0.26059558276E+02 -0.19408967986E+03  0.20175755073E+03  0.00000000000E+00 0. -1.
         21    1    1    2  505  502  0.53835739115E+02  0.32282769327E+01 -0.14961455269E+03  0.15903843232E+03  0.00000000000E+00 0. -1.
         21    1    1    2  506  503 -0.34437188019E+02 -0.46939042364E+02  0.14572944540E+02  0.60013034661E+02  0.00000000000E+00 0. -1.
<scales pt_clust_3="97.28737" pt_clust_4="31.89093" pt_clust_5="31.89093" pt_clust_6="58.21678"></scales>
<clustering>
<clus scale="   31.891">  4  5 -1 -1</clus>
<clus scale="   58.217">  2  6  1 -1</clus>
<clus scale="   97.287">  1  3  2 -1</clus>
<clus scale="   97.287">  1  3  2 -1</clus>
</clustering>
</event>
<event>
 6    0  0.4390142E+002  0.2092067E+03  0.7546771E-02  0.1142196E+00
         21   -1    0    0  504  501  0.00000000000E+00  0.00000000000E+00  0.86396284385E+03  0.86396284385E+03  0.00000000000E+00 0.  1.
         21   -1    0    0  506  502 -0.00000000000E+00 -0.00000000000E+00 -0.48320246127E+03  0.48320246127E+03  0.00000000000E+00 0.  1.
         21    1    1    2  503  502  0.23716808136E+02  0.19817481422E+02 -0.11480510749E+03  0.11889252400E+03  0.00000000000E+00 0.  1.
         21    1    1    2  504  503  0.45128636726E+02  0.16247239304E+02  0.20427543637E+02  0.52133014269E+02  0.00000000000E+00 0.  1.
         21    1    1    2  505  501 -0.37891940062E+02  0.19204923710E+03  0.77429870684E+03  0.79865962462E+03  0.00000000000E+00 0.  1.
         21    1    1    2  506  505 -0.30953504801E+02 -0.22811395782E+03 -0.29916076040E+03  0.37748014223E+03  0.00000000000E+00 0.  1.
<scales pt_clust_3="30.90663" pt_clust_4="49.22244" pt_clust_5="209.20675" pt_clust_6="14000.00000"></scales>
<clustering>
<clus scale="   30.907">  2  3  1 -1</clus>
<clus scale="   49.222">  1  4  2 -1</clus>
<clus scale="  209.207">  1  5  2 -1</clus>
<clus scale="   49.222">  1  3  2 -1</clus>
</clustering>
</event>
<event>
 6    0  0.4390142E+002  0.1222240E+03  0.7546771E-02  0.1239473E+00
         21   -1    0    0  505  501  0.00000000000E+00  0.00000000000E+00  0.95864205157E+03  0.95864205157E+03  0.00000000000E+00 0. -1.
         21   -1    0    0  503  502 -0.00000000000E+00 -0.00000000000E+00 -0.18952356773E+03  0.18952356773E+03  0.00000000000E+00 0.  1.
         21    1    1    2  503  504  0.58497473343E+02  0.26273351992E+02 -0.16570293065E+03  0.17767865555E+03  0.00000000000E+00 0.  1.
         21    1    1    2  504  506 -0.46576944674E+02 -0.41487760527E+02  0.26524584796E+03  0.27248120286E+03  0.00000000000E+00 0. -1.
         21    1    1    2  505  502  0.35633764224E+02  0.72565099336E+02  0.12842784453E+03  0.15175364920E+03  0.00000000000E+00 0.  1.
         21    1    1    2  506  501 -0.47554292893E+02 -0.57350690801E+02  0.54114772199E+03  0.54625211169E+03  0.00000000000E+00 0. -1.
<scales pt_clust_3="64.12678" pt_clust_4="34.52750" pt_clust_5="116.25307" pt_clust_6="34.52750"></scales>
<clustering>
<clus scale="   34.528">  4  6 -1 -1</clus>
<clus scale="   64.127">  2  3  1 -1</clus>
<clus scale="  116.253">  2  5  1 -1</clus>
<clus scale="  122.224">  1  3  2 -1</clus>
</clustering>
</event>
<event>
 6    0  0.4390142E+002  0.1041292E+03  0.7546771E-02  0.1271845E+00
         21   -1    0    0  506  501  0.00000000000E+00  0.00000000000E+00  0.12026412118E+03  0.12026412118E+03  0.00000000000E+00 0. -1.
         21   -1    0    0  504  502 -0.00000000000E+00 -0.00000000000E+00 -0.46979161651E+03  0.46979161651E+03  0.00000000000E+00 0. -1.
         21    1    1    2  503  502 -0.30957867918E+02 -0.12666050925E+02 -0.28024449909E+02  0.43637005222E+02  0.00000000000E+00 0.  1.
         21    1    1    2  504  505  0.11212722214E+03 -0.10186659655E+03 -0.34110363633E+03  0.37323050272E+03  0.00000000000E+00 0. -1.
         21    1    1    2  505  501 -0.73447770046E+02  0.68156362627E+02  0.55032388354E+02  0.11431722731E+03  0.00000000000E+00 0. -1.
         21    1    1    2  506  503 -0.77215841768E+01  0.46376284852E+02 -0.35431797439E+02  0.58871002443E+02  0.00000000000E+00 0.  1.
<scales pt_clust_3="33.44874" pt_clust_4="14000.00000" pt_clust_5="104.12915" pt_clust_6="46.34533"></scales>
<clustering>
<clus scale="   33.449">  2  3  1 -1</clus>
<clus scale="   46.345">  2  6  1 -1</clus>
<clus scale="  104.129">  1  5  2 -1</clus>
<clus scale="  104.129">  1  3  2 -1</clus>
</clustering>
</event>
<event>
 6    0  0.4390142E+002  0.7879673E+02  0.7546771E-02  0.1332501E+00
         21   -1    0    0  504  501  0.00000000000E+00  0.00000000000E+00  0.13601849237E+03  0.13601849237E+03  0.00000000000E+00 0. -1.
         21   -1    0    0  503  502 -0.00000000000E+00 -0.00000000000E+00 -0.43365011730E+03  0.43365011730E+03  0.00000000000E+00 0. -1.
         21    1    1    2  503  505 -0.27185849013E+01 -0.88654101142E+02 -0.29172595852E+03  0.30491142194E+03  0.00000000000E+00 0. -1.
         21    1    1    2  504  506  0.14027336692E+02  0.42580966326E+02  0.94634131510E+02  0.10471639659E+03  0.00000000000E+00 0. -1.
         21    1    1    2  505  501 -0.57480850561E+02  0.50157229181E+02 -0.75613321015E+02  0.10741121978E+03  0.00000000000E+00 0.  1.
         21    1    1    2  506  502  0.46172098770E+02 -0.40840943656E+01 -0.24926476902E+02  0.52629571368E+02  0.00000000000E+00 0. -1.
<scales pt_clust_3="14000.00000" pt_clust_4="44.83196" pt_clust_5="78.79673" pt_clust_6="52.93051"></scales>
<clustering>
<clus scale="   44.832">  1  4  2 -1</clus>
<clus scale="   52.931">  1  6  2 -1</clus>
<clus scale="   78.797">  1  5  2 -1</clus>
<clus scale="   44.832">  1  3  2 -1</clus>
</clustering>
</event>
<event>
 6    0  0.4390142E+002  0.1190364E+03  0.7546771E-02  0.1244695E+00
         21   -1    0    0  504  501  0.00000000000E+00  0.00000000000E+00  0.28383728962E+03  0.28383728962E+03  0.00000000000E+00 0. -1.
         21   -1    0    0  503  502 -0.00000000000E+00 -0.00000000000E+00 -0.14092302554E+03  0.14092302554E+03  0.00000000000E+00 0.  1.
         21    1    1    2  503  506  0.18394966823E+01  0.41340750865E+02  0.40234497596E+01  0.41576791339E+02  0.00000000000E+00 0. -1.
         21    1    1    2  504  502 -0.93706334964E+02  0.27816117436E+02 -0.84209287061E+02  0.12901867163E+03  0.00000000000E+00 0.  1.
         21    1    1    2  505  501  0.51646091281E+02 -0.14247324502E+02  0.10395695765E+03  0.11695022036E+03  0.00000000000E+00 0.  1.
         21    1    1    2  506  505  0.40220747000E+02 -0.54909543798E+02  0.11914314373E+03  0.13721463183E+03  0.00000000000E+00 0. -1.
<scales pt_clust_3="41.38166" pt_clust_4="112.09703" pt_clust_5="35.53157" pt_clust_6="35.53157"></scales>
<clustering>
<clus scale="   35.532">  5  6 -1 -1</clus>
<clus scale="   41.382">  2  3  1 -1</clus>
<clus scale="  112.097">  2  4  1 -1</clus>
<clus scale="  119.036">  1  3  2 -1</clus>
</clustering>
</event>
<event>
 6    0  0.4390142E+002  0.8726220E+02  0.7546771E-02  0.1309620E+00
         21   -1    0    0  506  501  0.00000000000E+00  0.00000000000E+00  0.10953553038E+03  0.10953553038E+03  0.00000000000E+00 0. -1.
         21   -1    0    0  504  502 -0.00000000000E+00 -0.00000000000E+00 -0.87657894538E+03  0.87657894538E+03  0.00000000000E+00 0. -1.
         21    1    1    2  503  505 -0.39209861572E+02  0.64818037368E+02 -0.60823848296E+03  0.61293787888E+03  0.00000000000E+00 0. -1.
         21    1    1    2  504  503 -0.32756171419E+02 -0.15169106812E+02 -0.21592648891E+03  0.21892308508E+03  0.00000000000E+00 0.  1.
         21    1    1    2  505  501  0.71378996889E+02 -0.83258542466E+02  0.43162076976E+02  0.11785546648E+03  0.00000000000E+00 0. -1.
         21    1    1    2  506  502  0.58703610230E+00  0.33609611910E+02  0.13959479891E+02  0.36398045317E+02  0.00000000000E+00 0. -1.
<scales pt_clust_3="14000.00000" pt_clust_4="35.84176" pt_clust_5="87.26220" pt_clust_6="33.61474"></scales>
<clustering>
<clus scale="   33.615">  1  6  2 -1</clus>
<clus scale="   35.842">  2  4  1 -1</clus>
<clus scale="   87.262">  1  5  2 -1</clus>
<clus scale="   33.615">  1  3  2 -1</clus>
</clustering>
</event>
<event>
 6    0  0.4390142E+002  0.1894302E+03  0.7546771E-02  0.1158976E+00
         21   -1    0    0  504  501  0.00000000000E+00  0.00000000000E+00  0.74126614321E+03  0.74126614321E+03  0.00000000000E+00 0.  1.
         21   -1    0    0  505  502 -0.00000000000E+00 -0.00000000000E+00 -0.47105926463E+03  0.47105926463E+03  0.00000000000E+00 0. -1.
         21    1    1    2  503  502 -0.10856740918E+03  0.82289178605E+02 -0.35433516885E+03  0.37962060420E+03  0.00000000000E+00 0. -1.
         21    1    1    2  504  506 -0.97317569390E+02 -0.75565672350E+02  0.34612164341E+03  0.36739770302E+03  0.00000000000E+00 0.  1.
         21    1    1    2  505  501 -0.23311756764E+02 -0.11054388876E+03  0.13370681928E+03  0.17504543087E+03  0.00000000000E+00 0.  1.
         21    1    1    2  506  503  0.22919673533E+03  0.10382038251E+03  0.14471358474E+03  0.29026166974E+03  0.00000000000E+00 0. -1.
<scales pt_clust_3="135.20888" pt_clust_4="189.43015" pt_clust_5="112.97517" pt_clust_6="14000.00000"></scales>
<clustering>
<clus scale="  112.975">  1  5  2 -1</clus>
<clus scale="  135.209">  2  3  1 -1</clus>
<clus scale="  189.430">  1  4  2 -1</clus>
<clus scale="  112.975">  1  3  2 -1</clus>
</clustering>
</event>
<event>
 6    0  0.4390142E+002  0.1417735E+03  0.7546771E-02  0.1210962E+00
         21   -1    0    0  506  501  0.00000000000E+00  0.00000000000E+00  0.54841086364E+03  0.54841086364E+03  0.00000000000E+00 0. -1.
         21   -1    0    0  504  502 -0.00000000000E+00 -0.00000000000E+00 -0.17733305505E+03  0.17733305505E+03  0.00000000000E+00 0.  1.
         21    1    1    2  503  505  0.14164336092E+03 -0.25028322387E+02 -0.30739670866E+02  0.14708564165E+03  0.00000000000E+00 0.  1.
         21    1    1    2  504  503  0.12384120035E+02  0.38883320292E+02 -0.56292083802E+02  0.69527532135E+02  0.00000000000E+00 0. -1.
         21    1    1    2  505  501 -0.94625693928E+02  0.59271150318E+02  0.34108184520E+03  0.35889262508E+03  0.00000000000E+00 0. -1.
         21    1    1    2  506  502 -0.59401787024E+02 -0.73126148223E+02  0.11702771806E+03  0.15023811983E+03  0.00000000000E+00 0.  1.
<scales pt_clust_3="141.77350" pt_clust_4="40.80783" pt_clust_5="14000.00000" pt_clust_6="88.72595"></scales>
<clustering>
<clus scale="   40.808">  2  4  1 -1</clus>
<clus scale="   88.726">  1  6  2 -1</clus>
<clus scale="  141.774">  2  3  1 -1</clus>
<clus scale="   88.726">  1  3  2 -1</clus>
</clustering>
</event>
<event>
 6    0  0.4390142E+002  0.2930773E+03  0.7546771E-02  0.1088753E+00
         21   -1    0    0  503  501  0.00000000000E+00  0.00000000000E+00  0.14669301726E+04  0.14669301726E+04  0.00000000000E+00 0.  1.
         21   -1    0    0  504  502 -0.00000000000E+00 -0.00000000000E+00 -0.21902621100E+04  0.21902621100E+04  0.00000000000E+00 0.  1.
         21    1    1    2  503  506 -0.29850565397E+02 -0.62211059234E+02  0.41908911142E+03  0.42473162756E+03  0.00000000000E+00 0. -1.
         21    1    1    2  504  505 -0.22345151506E+03  0.13247310761E+03 -0.16265729891E+03  0.30649159974E+03  0.00000000000E+00 0.  1.
         21    1    1    2  505  501  0.18854463736E+03 -0.19557394100E+03  0.95152074329E+03  0.98954028295E+03  0.00000000000E+00 0.  1.
         21    1    1    2  506  502  0.64757443098E+02  0.12531189263E+03 -0.19312844932E+04  0.19364287724E+04  0.00000000000E+00 0.  1.
<scales pt_clust_3="69.00197" pt_clust_4="14000.00000" pt_clust_5="293.07732" pt_clust_6="140.88553"></scales>
<clustering>
<clus scale="   69.002">  1  3  2 -1</clus>
<clus scale="  140.886">  2  6  1 -1</clus>
<clus scale="  293.077">  1  5  2 -1</clus>
<clus scale="   69.002">  1  3  2 -1</clus>
</clustering>
</event>
<event>
 6    0  0.4390142E+002  0.9503015E+02  0.7546771E-02  0.1291108E+00
         21   -1    0    0  505  501  0.00000000000E+00  0.00000000000E+00  0.63776333123E+02  0.63776333123E+02  0.00000000000E+00 0.  1.
         21   -1    0    0  506  502 -0.00000000000E+00 -0.00000000000E+00 -0.36724677666E+03  0.36724677666E+03  0.00000000000E+00 0.  1.
         21    1    1    2  503  501  0.34867067256E+02  0.25726643794E+02  0.79624436186E+00  0.43338280827E+02  0.00000000000E+00 0.  1.
         21    1    1    2  504  503  0.83016742827E+02 -0.31399768494E+02 -0.92175636033E+02  0.12796121650E+03  0.00000000000E+00 0.  1.
         21    1    1    2  505  502 -0.10587077903E+03 -0.31069598964E+02 -0.16905629752E+03  0.20187613421E+03  0.00000000000E+00 0.  1.
         21    1    1    2  506  504 -0.12013031050E+02  0.36742723664E+02 -0.43034754348E+02  0.57847478243E+02  0.00000000000E+00 0.  1.
<scales pt_clust_3="44.21535" pt_clust_4="95.03015" pt_clust_5="14000.00000" pt_clust_6="38.65670"></scales>
<clustering>
<clus scale="   38.657">  2  6  1 -1</clus>
<clus scale="   44.215">  1  3  2 -1</clus>
<clus scale="   95.030">  2  4  1 -1</clus>
<clus scale="   44.215">  1  3  2 -1</clus>
</clustering>
</event>
<event>
 6    0  0.4390142E+002  0.6598332E+02  0.7546771E-02  0.1374310E+00
         21   -1    0    0  504  501  0.00000000000E+00  0.00000000000E+00  0.18828680173E+04  0.18828680173E+04  0.00000000000E+00 0.  1.
         21   -1    0    0  505  502 -0.00000000000E+00 -0.00000000000E+00 -0.15791619483E+02  0.15791619483E+02  0.00000000000E+00 0.  1.
         21    1    1    2  503  506 -0.61748501405E+02 -0.22774958604E+01  0.53531265271E+03  0.53886705277E+03  0.00000000000E+00 0.  1.
         21    1    1    2  504  503  0.24154160346E+02  0.25563169648E+02  0.77189239817E+03  0.77269319490E+03  0.00000000000E+00 0.  1.
         21    1    1    2  505  501  0.94101794667E+02 -0.37539868415E+02  0.46377885899E+03  0.47471593561E+03  0.00000000000E+00 0.  1.
         21    1    1    2  506  502 -0.56507453608E+02  0.14254194628E+02  0.96092487939E+02  0.11238345348E+03  0.00000000000E+00 0. -1.
<scales pt_clust_3="51.07286" pt_clust_4="35.16958" pt_clust_5="65.98332" pt_clust_6="14000.00000"></scales>
<clustering>
<clus scale="   35.170">  1  4  2 -1</clus>
<clus scale="   51.073">  1  3  2 -1</clus>
<clus scale="   65.983">  1  5  2 -1</clus>
<clus scale="   35.170">  1  3  2 -1</clus>
</clustering>
</event>
<event>
 6    0  0.4390142E+002  0.1163927E+03  0.7546771E-02  0.1249169E+00
         21   -1    0    0  503  501  0.00000000000E+00  0.00000000000E+00  0.12598226823E+03  0.12598226823E+03  0.00000000000E+00 0.  1.
         21   -1    0    0  506  502 -0.00000000000E+00 -0.00000000000E+00 -0.17852027359E+04  0.17852027359E+04  0.00000000000E+00 0.  1.
         21    1    1    2  503  505 -0.20119628300E+02 -0.58189234798E+02 -0.41959162902E+02  0.74507434801E+02  0.00000000000E+00 0.  1.
         21    1    1    2  504  501 -0.63872261572E+02 -0.24087223694E+02  0.93683221788E+02  0.11591551315E+03  0.00000000000E+00 0.  1.
         21    1    1    2  505  502  0.11461535466E+03  0.80579225165E+02 -0.15831984164E+04  0.15893857042E+04  0.00000000000E+00 0.  1.
         21    1    1    2  506  504 -0.30623464790E+02  0.16972333267E+01 -0.12774611013E+03  0.13137635195E+03  0.00000000000E+00 0. -1.
<scales pt_clust_3="61.87362" pt_clust_4="116.39271" pt_clust_5="14000.00000" pt_clust_6="30.67046"></scales>
<clustering>
<clus scale="   30.670">  2  6  1 -1</clus>
<clus scale="   61.874">  1  3  2 -1</clus>
<clus scale="  116.393">  1  4  2 -1</clus>
<clus scale="   61.874">  1  3  2 -1</clus>
</clustering>
</event>
<event>
 6    0  0.4390142E+002  0.8896118E+02  0.7546771E-02  0.1305387E+00
         21   -1    0    0  504  501  0.00000000000E+00  0.00000000000E+00  0.74628730649E+03  0.74628730649E+03  0.00000000000E+00 0.  1.
         21   -1    0    0  506  502 -0.00000000000E+00 -0.00000000000E+00 -0.20261016510E+03  0.20261016510E+03  0.00000000000E+00 0.  1.
         21    1    1    2  503  501 -0.52939674636E+02  0.37023971736E+02  0.53751590609E+03  0.54138409003E+03  0.00000000000E+00 0.  1.
         21    1    1    2  504  505 -0.12163781508E+02  0.43656090006E+02  0.12277233283E+03  0.13086962017E+03  0.00000000000E+00 0. -1.
         21    1    1    2  505  502  0.38850243716E+01 -0.83454211420E+02  0.51205461891E+02  0.97988255141E+02  0.00000000000E+00 0.  1.
         21    1    1    2  506  503  0.61218431773E+02  0.27741496778E+01 -0.16781655943E+03  0.17865550625E+03  0.00000000000E+00 0.  1.
<scales pt_clust_3="88.96118" pt_clust_4="45.31900" pt_clust_5="14000.00000" pt_clust_6="61.19346"></scales>
<clustering>
<clus scale="   45.319">  1  4  2 -1</clus>
<clus scale="   61.193">  2  6  1 -1</clus>
<clus scale="   88.961">  1  3  2 -1</clus>
<clus scale="   45.319">  1  3  2 -1</clus>
</clustering>
</event>
<event>
 6    0  0.4390142E+002  0.1320105E+03  0.7546771E-02  0.1224503E+00
         21   -1    0    0  506  501  0.00000000000E+00  0.00000000000E+00  0.16835839179E+02  0.16835839179E+02  0.00000000000E+00 0. -1.
         21   -1    0    0  501  502 -0.00000000000E+00 -0.00000000000E+00 -0.26159873812E+04  0.26159873812E+04  0.00000000000E+00 0. -1.
         21    1    1    2  503  504 -0.21609420837E+02  0.38526251538E+02 -0.17286521834E+03  0.17841979386E+03  0.00000000000E+00 0. -1.
         21    1    1    2  504  502 -0.68273642382E+02 -0.10214022822E+03 -0.10133875638E+04  0.10208076562E+04  0.00000000000E+00 0. -1.
         21    1    1    2  505  503 -0.30118740388E+02  0.10130657663E+03 -0.86564047487E+03  0.87206857111E+03  0.00000000000E+00 0. -1.
         21    1    1    2  506  505  0.12000180361E+03 -0.37692599948E+02 -0.54725828507E+03  0.56152719929E+03  0.00000000000E+00 0. -1.
<scales pt_clust_3="34.22565" pt_clust_4="122.85730" pt_clust_5="34.22565" pt_clust_6="120.93004"></scales>
<clustering>
<clus scale="   34.226">  3  5 -1 -1</clus>
<clus scale="  122.857">  2  4  1 -1</clus>
<clus scale="  120.930">  1  6  2 -1</clus>
<clus scale="  120.930">  1  3  2 -1</clus>
</clustering>
</event>
<event>
 6    0  0.4390142E+002  0.2755189E+03  0.7546771E-02  0.1098162E+00
         21   -1    0    0  502  501  0.00000000000E+00  0.00000000000E+00  0.72979052245E+02  0.72979052245E+02  0.00000000000E+00 0. -1.
         21   -1    0    0  504  502 -0.00000000000E+00 -0.00000000000E+00 -0.11728867864E+04  0.11728867864E+04  0.00000000000E+00 0.  1.
         21    1    1    2  503  505  0.80634352956E+02 -0.96658855853E+02 -0.12281726336E+03  0.17586618058E+03  0.00000000000E+00 0. -1.
         21    1    1    2  504  506 -0.19108212911E+03  0.14428999704E+03 -0.81534744589E+03  0.84977846574E+03  0.00000000000E+00 0.  1.
         21    1    1    2  505  501  0.42114532884E+02 -0.37818523534E+02 -0.13464559694E+03  0.14605927350E+03  0.00000000000E+00 0. -1.
         21    1    1    2  506  503  0.68333243271E+02 -0.98126176518E+01 -0.27097427967E+02  0.74161918824E+02  0.00000000000E+00 0. -1.
<scales pt_clust_3="67.71024" pt_clust_4="239.44098" pt_clust_5="43.44483" pt_clust_6="67.71024"></scales>
<clustering>
<clus scale="   43.445">  3  5 -1 -1</clus>
<clus scale="   67.710">  3  6 -1 -1</clus>
<clus scale="  239.441">  2  4  1 -1</clus>
<clus scale="  275.519">  1  3  2 -1</clus>
</clustering>
</event>
<event>
 6    0  0.4390142E+002  0.1008102E+03  0.7546771E-02  0.1278601E+00
         21   -1    0    0  504  501  0.00000000000E+00  0.00000000000E+00  0.25504181998E+03  0.25504181998E+03  0.00000000000E+00 0. -1.
         21   -1    0    0  503  502 -0.00000000000E+00 -0.00000000000E+00 -0.19521706498E+03  0.19521706498E+03  0.00000000000E+00 0. -1.
         21    1    1    2  503  505  0.42966446546E+02 -0.77079772637E+02 -0.53054634357E+02  0.10296699037E+03  0.00000000000E+00 0. -1.
         21    1    1    2  504  502 -0.13048206887E+03  0.75273652903E+02 -0.49503360102E+02  0.15856316022E+03  0.00000000000E+00 0. -1.
         21    1    1    2  505  506  0.37000266206E+02  0.11543748306E+02  0.38693599490E+02  0.54767439833E+02  0.00000000000E+00 0. -1.
         21    1    1    2  506  501  0.50515356122E+02 -0.97376285729E+01  0.12368914997E+03  0.13396129454E+03  0.00000000000E+00 0. -1.
<scales pt_clust_3="88.24629" pt_clust_4="92.59892" pt_clust_5="34.59058" pt_clust_6="34.59058"></scales>
<clustering>
<clus scale="   34.591">  5  6 -1 -1</clus>
<clus scale="   88.246">  2  3  1 -1</clus>
<clus scale="   92.599">  2  4  1 -1</clus>
<clus scale="  100.810">  1  3  2 -1</clus>
</clustering>
</event>
<event>
 6    0  0.4390142E+002  0.1675550E+03  0.7546771E-02  0.1180422E+00
         21   -1    0    0  506  501  0.00000000000E+00  0.00000000000E+00  0.30032052401E+03  0.30032052401E+03  0.00000000000E+00 0. -1.
         21   -1    0    0  505  502 -0.00000000000E+00 -0.00000000000E+00 -0.15603216467E+03  0.15603216467E+03  0.00000000000E+00 0. -1.
         21    1    1    2  503  502 -0.17481030725E+02  0.31510026019E+02 -0.90394233696E+01  0.37150765131E+02  0.00000000000E+00 0. -1.
         21    1    1    2  504  503  0.10171995054E+03 -0.11275696768E+02  0.16773328398E+03  0.19649057033E+03  0.00000000000E+00 0. -1.
         21    1    1    2  505  501 -0.14396062499E+03 -0.13678563199E+02 -0.49843699791E+02  0.15295803034E+03  0.00000000000E+00 0. -1.
         21    1    1    2  506  504  0.59721705173E+02 -0.65557660514E+01  0.35438198523E+02  0.69753322873E+02  0.00000000000E+00 0.  1.
<scales pt_clust_3="36.03426" pt_clust_4="43.04514" pt_clust_5="157.63526" pt_clust_6="43.04514"></scales>
<clustering>
<clus scale="   36.034">  2  3  1 -1</clus>
<clus scale="   43.045">  4  6 -1 -1</clus>
<clus scale="  157.635">  2  5  1 -1</clus>
<clus scale="  167.555">  1  3  2 -1</clus>
</clustering>
</event>
<event>
 6    0  0.4390142E+002  0.1382765E+03  0.7546771E-02  0.1215667E+00
         21   -1    0    0  504  501  0.00000000000E+00  0.00000000000E+00  0.56666174510E+03  0.56666174510E+03  0.00000000000E+00 0. -1.
         21   -1    0    0  505  502 -0.00000000000E+00 -0.00000000000E+00 -0.94690071088E+02  0.94690071088E+02  0.00000000000E+00 0.  1.
         21    1    1    2  503  501 -0.88746723198E+01  0.56772135916E+02  0.28422287619E+03  0.28997323769E+03  0.00000000000E+00 0. -1.
         21    1    1    2  504  506  0.49041141894E+02 -0.82967624860E+02 -0.42372939876E+02  0.10528117784E+03  0.00000000000E+00 0.  1.
         21    1    1    2  505  503 -0.37396009479E+02  0.60518805174E+02  0.21844387890E+03  0.22973618681E+03  0.00000000000E+00 0. -1.
         21    1    1    2  506  502 -0.27704600954E+01 -0.34323316229E+02  0.11677858797E+02  0.36361213844E+02  0.00000000000E+00 0.  1.
<scales pt_clust_3="35.10670" pt_clust_4="33.93050" pt_clust_5="132.00007" pt_clust_6="33.93050"></scales>
<clustering>
<clus scale="   33.930">  4  6 -1 -1</clus>
<clus scale="   35.107">  3  5 -1 -1</clus>
<clus scale="  132.000">  1  3  2 -1</clus>
<clus scale="  132.000">  1  3  2 -1</clus>
</clustering>
</event>
<event>
 6    0  0.4390142E+002  0.1856799E+03  0.7546771E-02  0.1162416E+00
         21   -1    0    0  503  501  0.00000000000E+00  0.00000000000E+00  0.39486245292E+03  0.39486245292E+03  0.00000000000E+00 0.  1.
         21   -1    0    0  506  502 -0.00000000000E+00 -0.00000000000E+00 -0.14695824347E+04  0.14695824347E+04  0.00000000000E+00 0. -1.
         21    1    1    2  503  502  0.85276489956E+02  0.76725985185E+02 -0.30932723139E+02  0.11880988975E+03  0.00000000000E+00 0. -1.
         21    1    1    2  504  505 -0.15071715314E+03  0.61462575094E+02 -0.23143785779E+03  0.28294308686E+03  0.00000000000E+00 0. -1.
         21    1    1    2  505  501  0.37229546431E+02 -0.19268453033E+03  0.29463382187E+03  0.35400911901E+03  0.00000000000E+00 0.  1.
         21    1    1    2  506  504  0.28211116748E+02  0.54495970049E+02 -0.11069832228E+04  0.11086827920E+04  0.00000000000E+00 0. -1.
<scales pt_clust_3="126.67632" pt_clust_4="14000.00000" pt_clust_5="185.67993" pt_clust_6="61.36512"></scales>
<clustering>
<clus scale="   61.365">  2  6  1 -1</clus>
<clus scale="  126.676">  2  3  1 -1</clus>
<clus scale="  185.680">  1  5  2 -1</clus>
<clus scale="  185.680">  1  3  2 -1</clus>
</clustering>
</event>
<event>
 6    0  0.4390142E+002  0.7558313E+02  0.7546771E-02  0.1342075E+00
         21   -1    0    0  506  501  0.00000000000E+00  0.00000000000E+00  0.10918917486E+03  0.10918917486E+03  0.00000000000E+00 0. -1.
         21   -1    0    0  503  502 -0.00000000000E+00 -0.00000000000E+00 -0.11654635789E+04  0.11654635789E+04  0.00000000000E+00 0. -1.
         21    1    1    2  503  505  0.39913274548E+02  0.10256663944E+02 -0.10365422884E+04  0.10373611638E+04  0.00000000000E+00 0. -1.
         21    1    1    2  504  502 -0.83693232603E+02 -0.72079355098E+02  0.27143045093E+02  0.11373977102E+03  0.00000000000E+00 0. -1.
         21    1    1    2  505  501 -0.63510983752E+00  0.62505737754E+02 -0.48475396428E+02  0.79102684376E+02  0.00000000000E+00 0. -1.
         21    1    1    2  506  504  0.44415067893E+02 -0.68304660020E+00  0.16002356517E+01  0.44449134555E+02  0.00000000000E+00 0. -1.
<scales pt_clust_3="41.21006" pt_clust_4="75.58313" pt_clust_5="14000.00000" pt_clust_6="51.07941"></scales>
<clustering>
<clus scale="   41.210">  2  3  1 -1</clus>
<clus scale="   51.079">  1  6  2 -1</clus>
<clus scale="   75.583">  1  4  2 -1</clus>
<clus scale="   51.079">  1  3  2 -1</clus>
</clustering>
</event>
<event>
 6    0  0.4390142E+002  0.7259227E+02  0.7546771E-02  0.1351493E+00
         21   -1    0    0  504  501  0.00000000000E+00  0.00000000000E+00  0.21640845698E+03  0.21640845698E+03  0.00000000000E+00 0.  1.
         21   -1    0    0  505  502 -0.00000000000E+00 -0.00000000000E+00 -0.21416689479E+04  0.21416689479E+04  0.00000000000E+00 0. -1.
         21    1    1    2  503  502 -0.65966534795E+02 -0.78068684888E+02 -0.28578999553E+02  0.10612757648E+03  0.00000000000E+00 0.  1.
         21    1    1    2  504  503  0.46246025864E+02 -0.15326699166E+02  0.83684235093E+02  0.96833123561E+02  0.00000000000E+00 0.  1.
         21    1    1    2  505  506 -0.91199029166E+01  0.53326810215E+02 -0.20603841560E+04  0.20610943190E+04  0.00000000000E+00 0. -1.
         21    1    1    2  506  501  0.28840411848E+02  0.40068573839E+02  0.80018429596E+02  0.94022385845E+02  0.00000000000E+00 0.  1.
<scales pt_clust_3="72.59227" pt_clust_4="48.71963" pt_clust_5="54.03670" pt_clust_6="14000.00000"></scales>
<clustering>
<clus scale="   48.720">  1  4  2 -1</clus>
<clus scale="   54.037">  2  5  1 -1</clus>
<clus scale="   72.592">  2  3  1 -1</clus>
<clus scale="   48.720">  1  3  2 -1</clus>
</clustering>
</event>
<event>
 6    0  0.4390142E+002  0.6613224E+02  0.7546771E-02  0.1373762E+00
         21   -1    0    0  503  501  0.00000000000E+00  0.00000000000E+00  0.83851697589E+02  0.83851697589E+02  0.00000000000E+00 0.  1.
         21   -1    0    0  506  502 -0.00000000000E+00 -0.00000000000E+00 -0.46584428739E+03  0.46584428739E+03  0.00000000000E+00 0.  1.
         21    1    1    2  503  505 -0.33376030936E+02 -0.12317597150E+02 -0.56097509444E+01  0.36015995699E+02  0.00000000000E+00 0.  1.
         21    1    1    2  504  501 -0.72707157812E+02  0.21755025491E+02 -0.13089296227E+03  0.15130293950E+03  0.00000000000E+00 0.  1.
         21    1    1    2  505  502  0.88919824071E+02  0.32303639051E+02  0.16926341388E+02  0.96108070637E+02  0.00000000000E+00 0.  1.
         21    1    1    2  506  504  0.17163364676E+02 -0.41741067393E+02 -0.26241621798E+03  0.26626897914E+03  0.00000000000E+00 0.  1.
<scales pt_clust_3="35.57643" pt_clust_4="66.13224" pt_clust_5="14000.00000" pt_clust_6="45.10654"></scales>
<clustering>
<clus scale="   35.576">  1  3  2 -1</clus>
<clus scale="   45.107">  2  6  1 -1</clus>
<clus scale="   66.132">  2  4  1 -1</clus>
<clus scale="   35.576">  1  3  2 -1</clus>
</clustering>
</event>
<event>
 6    0  0.4466461E+002  0.1767029E+03  0.7546771E-02  0.1171033E+00
         21   -1    0    0  503  501  0.00000000000E+00  0.00000000000E+00  0.11687697447E+04  0.11687697447E+04  0.00000000000E+00 0.  1.
         21   -1    0    0  505  502 -0.00000000000E+00 -0.00000000000E+00 -0.47795401849E+03  0.47795401849E+03  0.00000000000E+00 0. -1.
         21    1    1    2  503  506  0.12513585861E+03 -0.12235947164E+03  0.11050701195E+04  0.11188435067E+04  0.00000000000E+00 0.  1.
         21    1    1    2  504  502 -0.71676747496E+02  0.95451363979E+02 -0.23104192477E+03  0.26005555179E+03  0.00000000000E+00 0. -1.
         21    1    1    2  505  501 -0.29213478342E+02 -0.10405128200E+02  0.34048074834E+02  0.46053940218E+02  0.00000000000E+00 0. -1.
         21    1    1    2  506  504 -0.24245632773E+02  0.37313235864E+02 -0.21726054337E+03  0.22177076449E+03  0.00000000000E+00 0.  1.
<scales pt_clust_3="163.92057" pt_clust_4="40.27416" pt_clust_5="31.01119" pt_clust_6="40.27416"></scales>
<clustering>
<clus scale="   31.011">  1  5  2 -1</clus>
<clus scale="   40.274">  4  6 -1 -1</clus>
<clus scale="  163.921">  1  3  2 -1</clus>
<clus scale="   31.011">  1  3  2 -1</clus>
</clustering>
</event>
<event>
 6    0  0.4390142E+002  0.1311088E+03  0.7546771E-02  0.1225820E+00
         21   -1    0    0  506  501  0.00000000000E+00  0.00000000000E+00  0.14923514307E+03  0.14923514307E+03  0.00000000000E+00 0. -1.
         21   -1    0    0  503  502 -0.00000000000E+00 -0.00000000000E+00 -0.12141030939E+04  0.12141030939E+04  0.00000000000E+00 0.  1.
         21    1    1    2  503  504 -0.10130723126E+03 -0.28298334330E+02 -0.19134891019E+03  0.21835374112E+03  0.00000000000E+00 0.  1.
         21    1    1    2  504  501  0.10383521659E+03  0.55957415291E+01  0.95359732410E+02  0.14109054927E+03  0.00000000000E+00 0. -1.
         21    1    1    2  505  502 -0.46580431371E+02  0.28807262906E+02 -0.95603578000E+03  0.95760326212E+03  0.00000000000E+00 0.  1.
         21    1    1    2  506  505  0.44052446041E+02 -0.61046701050E+01 -0.12842993086E+02  0.46290684491E+02  0.00000000000E+00 0.  1.
<scales pt_clust_3="131.10879" pt_clust_4="14000.00000" pt_clust_5="54.52807" pt_clust_6="44.47342"></scales>
<clustering>
<clus scale="   44.473">  1  6  2 -1</clus>
<clus scale="   54.528">  2  5  1 -1</clus>
<clus scale="  131.109">  2  3  1 -1</clus>
<clus scale="   44.473">  1  3  2 -1</clus>
</clustering>
</event>
<event>
 6    0  0.4390142E+002  0.1451896E+03  0.7546771E-02  0.1206512E+00
         21   -1    0    0  504  501  0.00000000000E+00  0.00000000000E+00  0.46138833678E+03  0.46138833678E+03  0.00000000000E+00 0. -1.
         21   -1    0    0  503  502 -0.00000000000E+00 -0.00000000000E+00 -0.16387714253E+03  0.16387714253E+03  0.00000000000E+00 0.  1.
         21    1    1    2  503  501  0.33693096286E+02 -0.55788933654E+01 -0.32161443643E+01  0.34302949919E+02  0.00000000000E+00 0.  1.
         21    1    1    2  504  506  0.59350206043E+02  0.35165982336E+02  0.20976523668E+03  0.22081790641E+03  0.00000000000E+00 0. -1.
         21    1    1    2  505  502 -0.16480722563E+03 -0.39729120634E+02 -0.77762345380E+02  0.18651221677E+03  0.00000000000E+00 0.  1.
         21    1    1    2  506  505  0.71763923296E+02  0.10142031663E+02  0.16872444732E+03  0.18363240622E+03  0.00000000000E+00 0.  1.
<scales pt_clust_3="34.15185" pt_clust_4="32.09010" pt_clust_5="141.41475" pt_clust_6="32.09010"></scales>
<clustering>
<clus scale="   32.090">  4  6 -1 -1</clus>
<clus scale="   34.152">  2  3  1 -1</clus>
<clus scale="  141.415">  2  5  1 -1</clus>
<clus scale="  145.190">  1  3  2 -1</clus>
</clustering>
</event>
<event>
 6    0  0.4390142E+002  0.1348960E+03  0.7546771E-02  0.1220367E+00
         21   -1    0    0  503  501  0.00000000000E+00  0.00000000000E+00  0.20399783469E+04  0.20399783469E+04  0.00000000000E+00 0. -1.
         21   -1    0    0  506  502 -0.00000000000E+00 -0.00000000000E+00 -0.56529471831E+02  0.56529471831E+02  0.00000000000E+00 0. -1.
         21    1    1    2  503  502 -0.31681643401E+02 -0.12610110431E+02  0.10579120829E+03  0.11115089368E+03  0.00000000000E+00 0. -1.
         21    1    1    2  504  505 -0.12813122448E+02 -0.76054272532E+02  0.95582530012E+03  0.95893192293E+03  0.00000000000E+00 0. -1.
         21    1    1    2  505  501 -0.70648475443E+02  0.36245066692E+01  0.87198763418E+03  0.87485243230E+03  0.00000000000E+00 0. -1.
         21    1    1    2  506  504  0.11514324129E+03  0.85039876294E+02  0.49844732520E+02  0.15157256986E+03  0.00000000000E+00 0. -1.
<scales pt_clust_3="34.09899" pt_clust_4="14000.00000" pt_clust_5="85.00019" pt_clust_6="134.89604"></scales>
<clustering>
<clus scale="   34.099">  1  3  2 -1</clus>
<clus scale="   85.000">  1  5  2 -1</clus>
<clus scale="  134.896">  2  6  1 -1</clus>
<clus scale="   34.099">  1  3  2 -1</clus>
</clustering>
</event>
<event>
 6    0  0.4390142E+002  0.1336941E+03  0.7546771E-02  0.1222075E+00
         21   -1    0    0  502  501  0.00000000000E+00  0.00000000000E+00  0.94651502324E+02  0.94651502324E+02  0.00000000000E+00 0.  1.
         21   -1    0    0  503  502 -0.00000000000E+00 -0.00000000000E+00 -0.16850585353E+04  0.16850585353E+04  0.00000000000E+00 0. -1.
         21    1    1    2  503  504 -0.62477503288E+02  0.35462341182E+02 -0.11499009879E+04  0.11521429157E+04  0.00000000000E+00 0. -1.
         21    1    1    2  504  506  0.22083718927E+02  0.81169006314E+02 -0.47706913208E+03  0.48442858608E+03  0.00000000000E+00 0. -1.
         21    1    1    2  505  501  0.30033567931E+02 -0.46342357069E+02 -0.12721471744E+02  0.56669790054E+02  0.00000000000E+00 0. -1.
         21    1    1    2  506  505  0.10360216429E+02 -0.70288990427E+02  0.49284558822E+02  0.86468745787E+02  0.00000000000E+00 0.  1.
<scales pt_clust_3="71.84021" pt_clust_4="118.13916" pt_clust_5="55.17919" pt_clust_6="55.17919"></scales>
<clustering>
<clus scale="   55.179">  5  6 -1 -1</clus>
<clus scale="   71.840">  2  3  1 -1</clus>
<clus scale="  118.139">  2  4  1 -1</clus>
<clus scale="  133.694">  1  3  2 -1</clus>
</clustering>
</event>
<event>
 6    0  0.4390142E+002  0.7287885E+02  0.7546771E-02  0.1350568E+00
         21   -1    0    0  503  501  0.00000000000E+00  0.00000000000E+00  0.46010025251E+03  0.46010025251E+03  0.00000000000E+00 0. -1.
         21   -1    0    0  505  502 -0.00000000000E+00 -0.00000000000E+00 -0.36393986145E+02  0.36393986145E+02  0.00000000000E+00 0. -1.
         21    1    1    2  503  502 -0.85153721294E+01 -0.76545245449E+02  0.97598891379E+02  0.12432710791E+03  0.00000000000E+00 0. -1.
         21    1    1    2  504  501 -0.60750028615E+02  0.27644464272E+02  0.13839849271E+03  0.15365196115E+03  0.00000000000E+00 0. -1.
         21    1    1    2  505  506  0.39246724378E+02 -0.14369623170E+02  0.67275974669E+02  0.79201314459E+02  0.00000000000E+00 0. -1.
         21    1    1    2  506  504  0.30018676366E+02  0.63270404348E+02  0.12043290761E+03  0.13931385514E+03  0.00000000000E+00 0. -1.
<scales pt_clust_3="14000.00000" pt_clust_4="56.30545" pt_clust_5="41.79463" pt_clust_6="72.87885"></scales>
<clustering>
<clus scale="   41.795">  2  5  1 -1</clus>
<clus scale="   56.305">  1  4  2 -1</clus>
<clus scale="   72.879">  1  6  2 -1</clus>
<clus scale="   56.305">  1  3  2 -1</clus>
</clustering>
</event>
<event>
 6    0  0.4390142E+002  0.1365879E+03  0.7546771E-02  0.1217995E+00
         21   -1    0    0  503  501  0.00000000000E+00  0.00000000000E+00  0.43039515560E+04  0.43039515560E+04  0.00000000000E+00 0.  1.
         21   -1    0    0  505  502 -0.00000000000E+00 -0.00000000000E+00 -0.25867223406E+03  0.25867223406E+03  0.00000000000E+00 0.  1.
         21    1    1    2  503  506  0.13117682282E+03 -0.41011445531E+02  0.41210731466E+04  0.41233643033E+04  0.00000000000E+00 0.  1.
         21    1    1    2  504  501 -0.68977962468E+02 -0.69325310568E+01  0.16096451461E+03  0.17525864959E+03  0.00000000000E+00 0.  1.
         21    1    1    2  505  504 -0.33027218306E+02 -0.18174640839E+02 -0.12788452763E+03  0.13332504313E+03  0.00000000000E+00 0.  1.
         21    1    1    2  506  502 -0.29171642041E+02  0.66118617426E+02 -0.10887381171E+03  0.13067579403E+03  0.00000000000E+00 0.  1.
<scales pt_clust_3="14000.00000" pt_clust_4="71.26557" pt_clust_5="37.69768" pt_clust_6="136.58794"></scales>
<clustering>
<clus scale="   37.698">  2  5  1 -1</clus>
<clus scale="   71.266">  2  4  1 -1</clus>
<clus scale="  136.588">  2  6  1 -1</clus>
<clus scale="  136.588">  1  3  2 -1</clus>
</clustering>
</event>
<event>
 6    0  0.4390142E+002  0.1171231E+03  0.7546771E-02  0.1247920E+00
         21   -1    0    0  504  501  0.00000000000E+00  0.00000000000E+00  0.21179550353E+03  0.21179550353E+03  0.00000000000E+00 0.  1.
         21   -1    0    0  503  502 -0.00000000000E+00 -0.00000000000E+00 -0.15950952405E+04  0.15950952405E+04  0.00000000000E+00 0. -1.
         21    1    1    2  503  501 -0.41064031466E+02  0.33894954025E+02 -0.29955638355E+03  0.30425178637E+03  0.00000000000E+00 0. -1.
         21    1    1    2  504  506  0.46845903996E+01 -0.59019310500E+02  0.13232280663E+03  0.14496395950E+03  0.00000000000E+00 0.  1.
         21    1    1    2  505  502 -0.51733116407E+02  0.44830499871E+02 -0.12567713193E+04  0.12586342749E+04  0.00000000000E+00 0. -1.
         21    1    1    2  506  505  0.88112557474E+02 -0.19706143396E+02  0.40705159228E+02  0.99040723240E+02  0.00000000000E+00 0. -1.
<scales pt_clust_3="53.24587" pt_clust_4="59.02421" pt_clust_5="14000.00000" pt_clust_6="117.12313"></scales>
<clustering>
<clus scale="   53.246">  2  3  1 -1</clus>
<clus scale="   59.024">  1  4  2 -1</clus>
<clus scale="  117.123">  1  6  2 -1</clus>
<clus scale="   59.024">  1  3  2 -1</clus>
</clustering>
</event>
<event>
 6    0  0.4390142E+002  0.1023679E+03  0.7546771E-02  0.1275394E+00
         21   -1    0    0  506  501  0.00000000000E+00  0.00000000000E+00  0.12655971564E+04  0.12655971564E+04  0.00000000000E+00 0. -1.
         21   -1    0    0  503  502 -0.00000000000E+00 -0.00000000000E+00 -0.49295054292E+03  0.49295054292E+03  0.00000000000E+00 0.  1.
         21    1    1    2  503  501 -0.17108463510E+02  0.42505332382E+02 -0.89269165595E+02  0.10034135105E+03  0.00000000000E+00 0.  1.
         21    1    1    2  504  502  0.85997359290E+02  0.43266472586E+02 -0.38139280988E+03  0.39335481297E+03  0.00000000000E+00 0.  1.
         21    1    1    2  505  504 -0.14559165624E+02 -0.59935211998E+02  0.85202663997E+02  0.10518409049E+03  0.00000000000E+00 0. -1.
         21    1    1    2  506  505 -0.54329730156E+02 -0.25836592971E+02  0.11581059249E+04  0.11596674448E+04  0.00000000000E+00 0. -1.
<scales pt_clust_3="45.81924" pt_clust_4="102.36791" pt_clust_5="14000.00000" pt_clust_6="60.15476"></scales>
<clustering>
<clus scale="   45.819">  2  3  1 -1</clus>
<clus scale="   60.155">  1  6  2 -1</clus>
<clus scale="  102.368">  2  4  1 -1</clus>
<clus scale="   60.155">  1  3  2 -1</clus>
</clustering>
</event>
<event>
 6    0  0.4390142E+002  0.6643476E+02  0.7546771E-02  0.1372654E+00
         21   -1    0    0  504  501  0.00000000000E+00  0.00000000000E+00  0.10573781926E+04  0.10573781926E+04  0.00000000000E+00 0.  1.
         21   -1    0    0  503  502 -0.00000000000E+00 -0.00000000000E+00 -0.27816140493E+03  0.27816140493E+03  0.00000000000E+00 0.  1.
         21    1    1    2  503  506  0.96398582561E+02 -0.62866442582E+01  0.33808673317E+02  0.10234859553E+03  0.00000000000E+00 0.  1.
         21    1    1    2  504  505  0.24270032591E+02 -0.29020957211E+02  0.48869733415E+03  0.49015949939E+03  0.00000000000E+00 0.  1.
         21    1    1    2  505  502 -0.39132695030E+02  0.31981256066E+02 -0.23714940499E+03  0.24247475920E+03  0.00000000000E+00 0.  1.
         21    1    1    2  506  501 -0.81535920122E+02  0.33263454038E+01  0.49386018523E+03  0.50055674344E+03  0.00000000000E+00 0.  1.
<scales pt_clust_3="66.43476" pt_clust_4="37.83187" pt_clust_5="50.36459" pt_clust_6="14000.00000"></scales>
<clustering>
<clus scale="   37.832">  1  4  2 -1</clus>
<clus scale="   50.365">  2  5  1 -1</clus>
<clus scale="   66.435">  2  3  1 -1</clus>
<clus scale="   37.832">  1  3  2 -1</clus>
</clustering>
</event>
<event>
 6    0  0.4390142E+002  0.8992153E+02  0.7546771E-02  0.1303042E+00
         21   -1    0    0  502  501  0.00000000000E+00  0.00000000000E+00  0.79686989680E+03  0.79686989680E+03  0.00000000000E+00 0. -1.
         21   -1    0    0  505  502 -0.00000000000E+00 -0.00000000000E+00 -0.53639266560E+02  0.53639266560E+02  0.00000000000E+00 0. -1.
         21    1    1    2  503  501  0.59658018116E+01  0.38045911164E+02  0.30101828766E+03  0.30347173123E+03  0.00000000000E+00 0. -1.
         21    1    1    2  504  506  0.51319319267E+02 -0.87008901798E+02  0.30046244733E+03  0.31698880703E+03  0.00000000000E+00 0. -1.
         21    1    1    2  505  504 -0.66728009187E+02  0.57656532862E+01 -0.13759194762E+02  0.68375327483E+02  0.00000000000E+00 0. -1.
         21    1    1    2  506  503  0.94428881086E+01  0.43197337349E+02  0.15550909001E+03  0.16167329763E+03  0.00000000000E+00 0. -1.
<scales pt_clust_3="31.01904" pt_clust_4="83.55312" pt_clust_5="66.97664" pt_clust_6="31.01904"></scales>
<clustering>
<clus scale="   31.019">  3  6 -1 -1</clus>
<clus scale="   66.977">  2  5  1 -1</clus>
<clus scale="   83.553">  2  4  1 -1</clus>
<clus scale="   89.922">  1  3  2 -1</clus>
</clustering>
</event>
<event>
 6    0  0.4390142E+002  0.8248648E+02  0.7546771E-02  0.1322140E+00
         21   -1    0    0  505  501  0.00000000000E+00  0.00000000000E+00  0.93998200275E+03  0.93998200275E+03  0.00000000000E+00 0.  1.
         21   -1    0    0  506  502 -0.00000000000E+00 -0.00000000000E+00 -0.98211004103E+03  0.98211004103E+03  0.00000000000E+00 0. -1.
         21    1    1    2  503  502  0.35350327537E+02 -0.25422621747E+02 -0.93420273770E+03  0.93521693231E+03  0.00000000000E+00 0. -1.
         21    1    1    2  504  501  0.54702801811E+02  0.25418720446E+02  0.76543699200E+03  0.76781006545E+03  0.00000000000E+00 0.  1.
         21    1    1    2  505  503  0.26253205085E+02 -0.21125121741E+02  0.88749760787E+02  0.94931667981E+02  0.00000000000E+00 0.  1.
         21    1    1    2  506  504 -0.11630633443E+03  0.21129023041E+02  0.37887946623E+02  0.12413337804E+03  0.00000000000E+00 0.  1.
<scales pt_clust_3="43.56269" pt_clust_4="14000.00000" pt_clust_5="33.69720" pt_clust_6="82.48648"></scales>
<clustering>
<clus scale="   33.697">  1  5  2 -1</clus>
<clus scale="   43.563">  2  3  1 -1</clus>
<clus scale="   82.486">  2  6  1 -1</clus>
<clus scale="   33.697">  1  3  2 -1</clus>
</clustering>
</event>
<event>
 6    0  0.4390142E+002  0.7701003E+02  0.7546771E-02  0.1337757E+00
         21   -1    0    0  506  501  0.00000000000E+00  0.00000000000E+00  0.65613004743E+03  0.65613004743E+03  0.00000000000E+00 0.  1.
         21   -1    0    0  503  502 -0.00000000000E+00 -0.00000000000E+00 -0.14920160017E+03  0.14920160017E+03  0.00000000000E+00 0.  1.
         21    1    1    2  503  501  0.27910686383E+02  0.95717119341E+02  0.11058505142E+03  0.14889535569E+03  0.00000000000E+00 0.  1.
         21    1    1    2  504  505 -0.36449081778E+02 -0.60215776231E+02  0.10026515780E+03  0.12250541677E+03  0.00000000000E+00 0.  1.
         21    1    1    2  505  502  0.62579805678E+02  0.16322949876E+02 -0.10641831659E+03  0.12452922901E+03  0.00000000000E+00 0.  1.
         21    1    1    2  506  504 -0.54041410283E+02 -0.51824292986E+02  0.40249655463E+03  0.40940164613E+03  0.00000000000E+00 0.  1.
<scales pt_clust_3="77.01003" pt_clust_4="57.06955" pt_clust_5="64.67357" pt_clust_6="14000.00000"></scales>
<clustering>
<clus scale="   64.674">  2  5  1 -1</clus>
<clus scale="   57.070">  2  4  1 -1</clus>
<clus scale="   77.010">  2  3  1 -1</clus>
<clus scale="   77.010">  1  3  2 -1</clus>
</clustering>
</event>
<event>
 6    0  0.4390142E+002  0.1070567E+03  0.7546771E-02  0.1266120E+00
         21   -1    0    0  505  501  0.00000000000E+00  0.00000000000E+00  0.10121935597E+03  0.10121935597E+03  0.00000000000E+00 0.  1.
         21   -1    0    0  504  502 -0.00000000000E+00 -0.00000000000E+00 -0.19040654818E+03  0.19040654818E+03  0.00000000000E+00 0.  1.
         21    1    1    2  503  506 -0.17547972149E+02  0.29968024307E+02 -0.33071473319E+01  0.34884825224E+02  0.00000000000E+00 0.  1.
         21    1    1    2  504  501  0.12100382347E+03 -0.28192812682E+02 -0.68581815121E+02  0.14191626174E+03  0.00000000000E+00 0.  1.
         21    1    1    2  505  503 -0.61537846744E+02  0.85444045114E+01  0.11155182649E+02  0.63121719957E+02  0.00000000000E+00 0.  1.
         21    1    1    2  506  502 -0.41918004576E+02 -0.10319616136E+02 -0.28453412411E+02  0.51703097225E+02  0.00000000000E+00 0.  1.
<scales pt_clust_3="31.77186" pt_clust_4="98.26099" pt_clust_5="31.77186" pt_clust_6="43.16959"></scales>
<clustering>
<clus scale="   31.772">  3  5 -1 -1</clus>
<clus scale="   43.170">  2  6  1 -1</clus>
<clus scale="   98.261">  2  4  1 -1</clus>
<clus scale="  107.057">  1  3  2 -1</clus>
</clustering>
</event>
<event>
 6    0  0.4390142E+002  0.3493050E+03  0.7546771E-02  0.1062901E+00
         21   -1    0    0  506  501  0.00000000000E+00  0.00000000000E+00  0.67885637716E+03  0.67885637716E+03  0.00000000000E+00 0. -1.
         21   -1    0    0  505  502 -0.00000000000E+00 -0.00000000000E+00 -0.37822287380E+03  0.37822287380E+03  0.00000000000E+00 0. -1.
         21    1    1    2  503  501  0.19406278249E+02 -0.42527908190E+02  0.73770693360E+02  0.87334654115E+02  0.00000000000E+00 0. -1.
         21    1    1    2  504  503 -0.31785950964E+03 -0.22125885269E+03  0.60616898073E+02  0.39200070930E+03  0.00000000000E+00 0. -1.
         21    1    1    2  505  504  0.21422385237E+03  0.25195103767E+03 -0.59933444827E+02  0.33609998827E+03  0.00000000000E+00 0. -1.
         21    1    1    2  506  502  0.84229379024E+02  0.11835723215E+02  0.22617935675E+03  0.24164389927E+03  0.00000000000E+00 0. -1.
<scales pt_clust_3="46.74641" pt_clust_4="349.30504" pt_clust_5="14000.00000" pt_clust_6="91.94133"></scales>
<clustering>
<clus scale="   46.746">  1  3  2 -1</clus>
<clus scale="   91.941">  1  6  2 -1</clus>
<clus scale="  349.305">  1  4  2 -1</clus>
<clus scale="   46.746">  1  3  2 -1</clus>
</clustering>
</event>
<event>
 6    0  0.4390142E+002  0.1375538E+03  0.7546771E-02  0.1216659E+00
         21   -1    0    0  503  501  0.00000000000E+00  0.00000000000E+00  0.54692445736E+03  0.54692445736E+03  0.00000000000E+00 0.  1.
         21   -1    0    0  506  502 -0.00000000000E+00 -0.00000000000E+00 -0.16874851468E+03  0.16874851468E+03  0.00000000000E+00 0.  1.
         21    1    1    2  503  505  0.43949394003E+02 -0.43927395316E+02  0.14495006830E+03  0.15770760157E+03  0.00000000000E+00 0.  1.
         21    1    1    2  504  501  0.34323045877E+02 -0.18855124981E+02  0.32118198203E+03  0.32356058597E+03  0.00000000000E+00 0.  1.
         21    1    1    2  505  502  0.35306611504E+02 -0.11984216574E+02  0.34955595218E+02  0.51108432766E+02  0.00000000000E+00 0.  1.
         21    1    1    2  506  504 -0.11357905138E+03  0.74766736870E+02 -0.12291170287E+03  0.18329635173E+03  0.00000000000E+00 0.  1.
<scales pt_clust_3="33.14125" pt_clust_4="39.16104" pt_clust_5="33.14125" pt_clust_6="130.73096"></scales>
<clustering>
<clus scale="   33.141">  3  5 -1 -1</clus>
<clus scale="   39.161">  1  4  2 -1</clus>
<clus scale="  130.731">  2  6  1 -1</clus>
<clus scale="   39.161">  1  3  2 -1</clus>
</clustering>
</event>
<event>
 6    0  0.4390142E+002  0.1412197E+03  0.7546771E-02  0.1211697E+00
         21   -1    0    0  505  501  0.00000000000E+00  0.00000000000E+00  0.17849992348E+04  0.17849992348E+04  0.00000000000E+00 0.  1.
         21   -1    0    0  504  502 -0.00000000000E+00 -0.00000000000E+00 -0.16392450229E+03  0.16392450229E+03  0.00000000000E+00 0.  1.
         21    1    1    2  503  506  0.32909804909E+02  0.51933865383E+02  0.64761656980E+03  0.65052855672E+03  0.00000000000E+00 0.  1.
         21    1    1    2  504  501  0.50926856757E+01  0.55741238381E+02  0.15455717418E+03  0.16438047692E+03  0.00000000000E+00 0.  1.
         21    1    1    2  505  503  0.21687696784E+02  0.24883898973E+02  0.94257213631E+03  0.94314993335E+03  0.00000000000E+00 0.  1.
         21    1    1    2  506  502 -0.59690187369E+02 -0.13255900274E+03 -0.12367114777E+03  0.19086477010E+03  0.00000000000E+00 0.  1.
<scales pt_clust_3="141.21967" pt_clust_4="61.14926" pt_clust_5="33.00855" pt_clust_6="14000.00000"></scales>
<clustering>
<clus scale="   33.009">  1  5  2 -1</clus>
<clus scale="   61.149">  1  4  2 -1</clus>
<clus scale="  141.220">  1  3  2 -1</clus>
<clus scale="   33.009">  1  3  2 -1</clus>
</clustering>
</event>
<event>
 6    0  0.4390142E+002  0.1102426E+03  0.7546771E-02  0.1260121E+00
         21   -1    0    0  504  501  0.00000000000E+00  0.00000000000E+00  0.68151193423E+02  0.68151193423E+02  0.00000000000E+00 0.  1.
         21   -1    0    0  503  502 -0.00000000000E+00 -0.00000000000E+00 -0.42758203879E+03  0.42758203879E+03  0.00000000000E+00 0.  1.
         21    1    1    2  503  505  0.35327571984E+02 -0.24096086968E+02 -0.14137658390E+03  0.14770239411E+03  0.00000000000E+00 0.  1.
         21    1    1    2  504  506  0.31024882514E+02  0.75310190394E+01 -0.26602357505E+02  0.41556527858E+02  0.00000000000E+00 0.  1.
         21    1    1    2  505  501  0.43985571834E+01 -0.99604442531E+02 -0.55256030965E+02  0.11398956634E+03  0.00000000000E+00 0.  1.
         21    1    1    2  506  502 -0.70751011682E+02  0.11616951046E+03 -0.13619587300E+03  0.19248474390E+03  0.00000000000E+00 0.  1.
<scales pt_clust_3="43.89510" pt_clust_4="31.92585" pt_clust_5="14000.00000" pt_clust_6="110.24259"></scales>
<clustering>
<clus scale="   31.926">  1  4  2 -1</clus>
<clus scale="   43.895">  2  3  1 -1</clus>
<clus scale="  110.243">  2  6  1 -1</clus>
<clus scale="   31.926">  1  3  2 -1</clus>
</clustering>
</event>
<event>
 6    0  0.4390142E+002  0.9091581E+02  0.7546771E-02  0.1300649E+00
         21   -1    0    0  505  501  0.00000000000E+00  0.00000000000E+00  0.23752414651E+03  0.23752414651E+03  0.00000000000E+00 0.  1.
         21   -1    0    0  504  502 -0.00000000000E+00 -0.00000000000E+00 -0.24690189339E+03  0.24690189339E+03  0.00000000000E+00 0. -1.
         21    1    1    2  503  506 -0.28659245866E+02  0.11165259422E+03 -0.14122264292E+03  0.18229506039E+03  0.00000000000E+00 0. -1.
         21    1    1    2  504  501 -0.56939060184E+02 -0.56586128564E+02  0.14284660937E+03  0.16385725596E+03  0.00000000000E+00 0.  1.
         21    1    1    2  505  503  0.61807390821E+02 -0.35036541266E+02  0.37744967370E+02  0.80451198535E+02  0.00000000000E+00 0. -1.
         21    1    1    2  506  502  0.23790915228E+02 -0.20029924391E+02 -0.48746680712E+02  0.57822525013E+02  0.00000000000E+00 0. -1.
<scales pt_clust_3="90.91581" pt_clust_4="14000.00000" pt_clust_5="74.42182" pt_clust_6="31.09993"></scales>
<clustering>
<clus scale="   31.100">  2  6  1 -1</clus>
<clus scale="   74.422">  1  5  2 -1</clus>
<clus scale="   90.916">  2  3  1 -1</clus>
<clus scale="   74.422">  1  3  2 -1</clus>
</clustering>
</event>
<event>
 6    0  0.4390142E+002  0.1811422E+03  0.7546771E-02  0.1166702E+00
         21   -1    0    0  504  501  0.00000000000E+00  0.00000000000E+00  0.13270278921E+03  0.13270278921E+03  0.00000000000E+00 0.  1.
         21   -1    0    0  505  502 -0.00000000000E+00 -0.00000000000E+00 -0.82265597972E+03  0.82265597972E+03  0.00000000000E+00 0. -1.
         21    1    1    2  503  502 -0.13685553488E+03 -0.20756223882E+02 -0.60016060225E+03  0.61591639591E+03  0.00000000000E+00 0. -1.
         21    1    1    2  504  503 -0.19374314431E+02 -0.37221950183E+02 -0.14540927614E+03  0.15134297216E+03  0.00000000000E+00 0.  1.
         21    1    1    2  505  506  0.36264555387E+02  0.42977051628E+02  0.31937642550E+01  0.56323574764E+02  0.00000000000E+00 0.  1.
         21    1    1    2  506  501  0.11996529393E+03  0.15001122437E+02  0.52422923631E+02  0.13177582610E+03  0.00000000000E+00 0.  1.
<scales pt_clust_3="39.10076" pt_clust_4="39.10076" pt_clust_5="45.84596" pt_clust_6="179.68909"></scales>
<clustering>
<clus scale="   39.101">  3  4 -1 -1</clus>
<clus scale="   45.846">  5  6 -1 -1</clus>
<clus scale="  179.689">  1  5  2 -1</clus>
<clus scale="  179.689">  1  3  2 -1</clus>
</clustering>
</event>
<event>
 6    0  0.4390142E+002  0.1395097E+03  0.7546771E-02  0.1213990E+00
         21   -1    0    0  504  501  0.00000000000E+00  0.00000000000E+00  0.90950033708E+02  0.90950033708E+02  0.00000000000E+00 0. -1.
         21   -1    0    0  503  502 -0.00000000000E+00 -0.00000000000E+00 -0.39604218141E+03  0.39604218141E+03  0.00000000000E+00 0. -1.
         21    1    1    2  503  501 -0.14021743657E+03  0.14160678826E+02 -0.27230138803E+03  0.30660968717E+03  0.00000000000E+00 0. -1.
         21    1    1    2  504  506  0.66171744924E+02 -0.36456071784E+02  0.14767794693E+02  0.76979430735E+02  0.00000000000E+00 0. -1.
         21    1    1    2  505  502  0.16552856803E+02  0.27648969323E+02 -0.27224636022E+02  0.42185819650E+02  0.00000000000E+00 0. -1.
         21    1    1    2  506  505  0.57492834838E+02 -0.53535763655E+01 -0.20333918346E+02  0.61217277569E+02  0.00000000000E+00 0. -1.
<scales pt_clust_3="132.04761" pt_clust_4="39.87634" pt_clust_5="32.22519" pt_clust_6="39.87634"></scales>
<clustering>
<clus scale="   32.225">  2  5  1 -1</clus>
<clus scale="   39.876">  4  6 -1 -1</clus>
<clus scale="  132.048">  2  3  1 -1</clus>
<clus scale="  139.510">  1  3  2 -1</clus>
</clustering>
</event>
<event>
 6    0  0.4390142E+002  0.1143487E+03  0.7546771E-02  0.1252722E+00
         21   -1    0    0  504  501  0.00000000000E+00  0.00000000000E+00  0.14737497521E+04  0.14737497521E+04  0.00000000000E+00 0.  1.
         21   -1    0    0  506  502 -0.00000000000E+00 -0.00000000000E+00 -0.40213130032E+02  0.40213130032E+02  0.00000000000E+00 0.  1.
         21    1    1    2  503  505 -0.60797960177E+02 -0.22502972208E+02  0.69194079830E+03  0.69497111024E+03  0.00000000000E+00 0.  1.
         21    1    1    2  504  502  0.17055680840E+02 -0.32864507227E+02  0.37510589051E+02  0.52706891154E+02  0.00000000000E+00 0.  1.
         21    1    1    2  505  501 -0.27271728631E+02 -0.40359761723E+02  0.61638105990E+03  0.61830273212E+03  0.00000000000E+00 0.  1.
         21    1    1    2  506  503  0.71014007969E+02  0.95727241157E+02  0.87704174820E+02  0.14798214861E+03  0.00000000000E+00 0.  1.
<scales pt_clust_3="30.94052" pt_clust_4="37.02664" pt_clust_5="30.94052" pt_clust_6="108.63474"></scales>
<clustering>
<clus scale="   30.941">  3  5 -1 -1</clus>
<clus scale="   37.027">  2  4  1 -1</clus>
<clus scale="  108.635">  2  6  1 -1</clus>
<clus scale="  114.349">  1  3  2 -1</clus>
</clustering>
</event>
<event>
 6    0  0.4390142E+002  0.2253722E+03  0.7546771E-02  0.1129940E+00
         21   -1    0    0  503  501  0.00000000000E+00  0.00000000000E+00  0.16204438859E+03  0.16204438859E+03  0.00000000000E+00 0.  1.
         21   -1    0    0  506  502 -0.00000000000E+00 -0.00000000000E+00 -0.85158991496E+03  0.85158991496E+03  0.00000000000E+00 0. -1.
         21    1    1    2  503  505 -0.19344589373E+02 -0.54963129988E+02 -0.37202044111E+02  0.69131403010E+02  0.00000000000E+00 0. -1.
         21    1    1    2  504  501  0.81289170044E+02  0.32325218582E+01 -0.69970472511E+02  0.10730445185E+03  0.00000000000E+00 0. -1.
         21    1    1    2  505  502 -0.21870083251E+03  0.95728062651E+02 -0.62487681824E+03  0.66892821296E+03  0.00000000000E+00 0. -1.
         21    1    1    2  506  504  0.15675625184E+03 -0.43997454521E+02  0.42503808495E+02  0.16827023572E+03  0.00000000000E+00 0.  1.
<scales pt_clust_3="58.26799" pt_clust_4="78.90832" pt_clust_5="14000.00000" pt_clust_6="225.37216"></scales>
<clustering>
<clus scale="   58.268">  1  3  2 -1</clus>
<clus scale="   78.908">  1  4  2 -1</clus>
<clus scale="  225.372">  1  6  2 -1</clus>
<clus scale="   58.268">  1  3  2 -1</clus>
</clustering>
</event>
<event>
 6    0  0.4390142E+002  0.1254259E+03  0.7546771E-02  0.1234405E+00
         21   -1    0    0  504  501  0.00000000000E+00  0.00000000000E+00  0.35870523313E+03  0.35870523313E+03  0.00000000000E+00 0.  1.
         21   -1    0    0  503  502 -0.00000000000E+00 -0.00000000000E+00 -0.28293605737E+03  0.28293605737E+03  0.00000000000E+00 0.  1.
         21    1    1    2  503  505  0.66394961913E+02 -0.24354002482E+02 -0.20202093720E+03  0.21404174236E+03  0.00000000000E+00 0.  1.
         21    1    1    2  504  502  0.45990819646E+01  0.12117697081E+03 -0.42033273891E+00  0.12126494336E+03  0.00000000000E+00 0. -1.
         21    1    1    2  505  506 -0.25968396538E+02 -0.50474429600E+02  0.81782075288E+02  0.99550657962E+02  0.00000000000E+00 0.  1.
         21    1    1    2  506  501 -0.45025647339E+02 -0.46348538728E+02  0.19642837041E+03  0.20678394682E+03  0.00000000000E+00 0.  1.
<scales pt_clust_3="70.72064" pt_clust_4="117.07542" pt_clust_5="42.17619" pt_clust_6="42.17619"></scales>
<clustering>
<clus scale="   42.176">  5  6 -1 -1</clus>
<clus scale="   70.721">  2  3  1 -1</clus>
<clus scale="  117.075">  2  4  1 -1</clus>
<clus scale="  125.426">  1  3  2 -1</clus>
</clustering>
</event>
<event>
 6    0  0.4390142E+002  0.9001078E+02  0.7546771E-02  0.1302826E+00
         21   -1    0    0  503  501  0.00000000000E+00  0.00000000000E+00  0.71867719386E+02  0.71867719386E+02  0.00000000000E+00 0. -1.
         21   -1    0    0  504  502 -0.00000000000E+00 -0.00000000000E+00 -0.66628016415E+03  0.66628016415E+03  0.00000000000E+00 0. -1.
         21    1    1    2  503  505 -0.92411078724E+02 -0.81955881439E+01 -0.22466673048E+02  0.95455364091E+02  0.00000000000E+00 0. -1.
         21    1    1    2  504  506 -0.33551200435E+02 -0.45626089828E+02 -0.64211758544E+02  0.85618765811E+02  0.00000000000E+00 0. -1.
         21    1    1    2  505  502  0.73591650344E+02  0.53627024389E+02 -0.49482727039E+03  0.50313578313E+03  0.00000000000E+00 0. -1.
         21    1    1    2  506  501  0.52370628815E+02  0.19465358366E+00 -0.12906742780E+02  0.53937970500E+02  0.00000000000E+00 0. -1.
<scales pt_clust_3="90.01078" pt_clust_4="50.89598" pt_clust_5="14000.00000" pt_clust_6="52.37099"></scales>
<clustering>
<clus scale="   52.371">  1  6  2 -1</clus>
<clus scale="   50.896">  1  4  2 -1</clus>
<clus scale="   90.011">  1  3  2 -1</clus>
<clus scale="   52.371">  1  3  2 -1</clus>
</clustering>
</event>
<event>
 6    0  0.4390142E+002  0.9319769E+02  0.7546771E-02  0.1295288E+00
         21   -1    0    0  504  501  0.00000000000E+00  0.00000000000E+00  0.60401159779E+03  0.60401159779E+03  0.00000000000E+00 0. -1.
         21   -1    0    0  506  502 -0.00000000000E+00 -0.00000000000E+00 -0.33850322968E+03  0.33850322968E+03  0.00000000000E+00 0.  1.
         21    1    1    2  503  501  0.50741735579E+01 -0.36108689819E+02  0.94518961991E+02  0.10130853317E+03  0.00000000000E+00 0.  1.
         21    1    1    2  504  502  0.49519496292E+02  0.32795909816E+02  0.46952639940E+03  0.47326820298E+03  0.00000000000E+00 0. -1.
         21    1    1    2  505  503  0.51845707419E+02  0.21317310871E+02 -0.63121432848E+01  0.56411419707E+02  0.00000000000E+00 0. -1.
         21    1    1    2  506  505 -0.10643937727E+03 -0.18004530867E+02 -0.29222485000E+03  0.31152667161E+03  0.00000000000E+00 0.  1.
<scales pt_clust_3="36.46347" pt_clust_4="54.25222" pt_clust_5="14000.00000" pt_clust_6="93.19769"></scales>
<clustering>
<clus scale="   36.463">  1  3  2 -1</clus>
<clus scale="   54.252">  1  4  2 -1</clus>
<clus scale="   93.198">  2  6  1 -1</clus>
<clus scale="   36.463">  1  3  2 -1</clus>
</clustering>
</event>
<event>
 6    0  0.4390142E+002  0.2066779E+03  0.7546771E-02  0.1144224E+00
         21   -1    0    0  505  501  0.00000000000E+00  0.00000000000E+00  0.34968024463E+03  0.34968024463E+03  0.00000000000E+00 0. -1.
         21   -1    0    0  506  502 -0.00000000000E+00 -0.00000000000E+00 -0.15450927582E+04  0.15450927582E+04  0.00000000000E+00 0.  1.
         21    1    1    2  503  501  0.20874356952E+03  0.13340698621E+02  0.27264962535E+03  0.34364177607E+03  0.00000000000E+00 0. -1.
         21    1    1    2  504  502  0.31637056148E+02  0.17412002588E+02 -0.10426587200E+04  0.10432838959E+04  0.00000000000E+00 0.  1.
         21    1    1    2  505  504 -0.18456330674E+03  0.35974464175E+02 -0.32024753273E+03  0.37137078303E+03  0.00000000000E+00 0.  1.
         21    1    1    2  506  503 -0.55817318929E+02 -0.66727165385E+02 -0.10515588620E+03  0.13647654779E+03  0.00000000000E+00 0.  1.
<scales pt_clust_3="14000.00000" pt_clust_4="36.11206" pt_clust_5="206.67791" pt_clust_6="78.96002"></scales>
<clustering>
<clus scale="   36.112">  2  4  1 -1</clus>
<clus scale="   78.960">  2  6  1 -1</clus>
<clus scale="  206.678">  2  5  1 -1</clus>
<clus scale="  206.678">  1  3  2 -1</clus>
</clustering>
</event>
<event>
 6    0  0.4390142E+002  0.7549306E+02  0.7546771E-02  0.1342351E+00
         21   -1    0    0  503  501  0.00000000000E+00  0.00000000000E+00  0.23086872984E+03  0.23086872984E+03  0.00000000000E+00 0. -1.
         21   -1    0    0  501  502 -0.00000000000E+00 -0.00000000000E+00 -0.18690468566E+03  0.18690468566E+03  0.00000000000E+00 0.  1.
         21    1    1    2  503  504  0.14575504028E+02 -0.58803969977E+02  0.70748303664E+02  0.93143301821E+02  0.00000000000E+00 0. -1.
         21    1    1    2  504  505  0.56880358388E+02  0.28885827156E+02  0.10850018523E+03  0.12586523101E+03  0.00000000000E+00 0. -1.
         21    1    1    2  505  506 -0.10467206117E+03  0.15423866803E+02 -0.11839619581E+03  0.15878222583E+03  0.00000000000E+00 0.  1.
         21    1    1    2  506  502  0.33216198753E+02  0.14494276018E+02 -0.16888248910E+02  0.39982656842E+02  0.00000000000E+00 0. -1.
<scales pt_clust_3="60.20697" pt_clust_4="14000.00000" pt_clust_5="75.49306" pt_clust_6="36.24086"></scales>
<clustering>
<clus scale="   36.241">  2  6  1 -1</clus>
<clus scale="   60.207">  1  3  2 -1</clus>
<clus scale="   75.493">  2  5  1 -1</clus>
<clus scale="   60.207">  1  3  2 -1</clus>
</clustering>
</event>
<event>
 6    0  0.4390142E+002  0.9252098E+02  0.7546771E-02  0.1296859E+00
         21   -1    0    0  503  501  0.00000000000E+00  0.00000000000E+00  0.12825098473E+03  0.12825098473E+03  0.00000000000E+00 0. -1.
         21   -1    0    0  504  502 -0.00000000000E+00 -0.00000000000E+00 -0.53628097174E+03  0.53628097174E+03  0.00000000000E+00 0.  1.
         21    1    1    2  503  505 -0.18741490836E+02  0.30214917446E+02 -0.73265555405E+01  0.36302384648E+02  0.00000000000E+00 0.  1.
         21    1    1    2  504  501 -0.71354735061E+02 -0.55441688977E+02 -0.89014230421E+02  0.12684168207E+03  0.00000000000E+00 0. -1.
         21    1    1    2  505  506  0.56046692821E+02 -0.65094918630E+02  0.68040722674E+02  0.10958156848E+03  0.00000000000E+00 0. -1.
         21    1    1    2  506  502  0.34049533076E+02  0.90321690161E+02 -0.37972992373E+03  0.39180632127E+03  0.00000000000E+00 0.  1.
<scales pt_clust_3="35.55538" pt_clust_4="92.52098" pt_clust_5="58.63540" pt_clust_6="14000.00000"></scales>
<clustering>
<clus scale="   35.555">  1  3  2 -1</clus>
<clus scale="   58.635">  1  5  2 -1</clus>
<clus scale="   92.521">  1  4  2 -1</clus>
<clus scale="   35.555">  1  3  2 -1</clus>
</clustering>
</event>
<event>
 6    0  0.4390142E+002  0.1460107E+03  0.7546771E-02  0.1205462E+00
         21   -1    0    0  505  501  0.00000000000E+00  0.00000000000E+00  0.21071866665E+04  0.21071866665E+04  0.00000000000E+00 0.  1.
         21   -1    0    0  506  502 -0.00000000000E+00 -0.00000000000E+00 -0.59663620785E+02  0.59663620785E+02  0.00000000000E+00 0.  1.
         21    1    1    2  503  501  0.52949734649E+01  0.31104907652E+02  0.17351528639E+03  0.17636072872E+03  0.00000000000E+00 0.  1.
         21    1    1    2  504  502 -0.14606699764E+03 -0.13187605504E+03  0.31758552992E+03  0.37361401273E+03  0.00000000000E+00 0.  1.
         21    1    1    2  505  504  0.10430120484E+03  0.60747593452E+02  0.15580350846E+04  0.15627035343E+04  0.00000000000E+00 0.  1.
         21    1    1    2  506  503  0.36470819338E+02  0.40023553936E+02 -0.16128551315E+01  0.54172011542E+02  0.00000000000E+00 0.  1.
<scales pt_clust_3="31.55237" pt_clust_4="14000.00000" pt_clust_5="146.01071" pt_clust_6="54.50969"></scales>
<clustering>
<clus scale="   31.552">  1  3  2 -1</clus>
<clus scale="   54.510">  2  6  1 -1</clus>
<clus scale="  146.011">  1  5  2 -1</clus>
<clus scale="   31.552">  1  3  2 -1</clus>
</clustering>
</event>
<event>
 6    0  0.4390142E+002  0.1037159E+03  0.7546771E-02  0.1272670E+00
         21   -1    0    0  503  501  0.00000000000E+00  0.00000000000E+00  0.51561397416E+03  0.51561397416E+03  0.00000000000E+00 0.  1.
         21   -1    0    0  506  502 -0.00000000000E+00 -0.00000000000E+00 -0.10713786025E+03  0.10713786025E+03  0.00000000000E+00 0.  1.
         21    1    1    2  503  505  0.12712236614E+03 -0.26536699365E+01  0.35444651360E+03  0.37656270253E+03  0.00000000000E+00 0.  1.
         21    1    1    2  504  502 -0.66988689633E+02  0.20095339188E+02  0.43845131469E+01  0.70075182135E+02  0.00000000000E+00 0.  1.
         21    1    1    2  505  504 -0.39024213379E+02 -0.73281474816E+02 -0.18970848714E+02  0.85164293468E+02  0.00000000000E+00 0.  1.
         21    1    1    2  506  501 -0.21109463125E+02  0.55839805565E+02  0.68615935880E+02  0.90949656269E+02  0.00000000000E+00 0.  1.
<scales pt_clust_3="14000.00000" pt_clust_4="73.14788" pt_clust_5="103.71589" pt_clust_6="59.69668"></scales>
<clustering>
<clus scale="   59.697">  1  6  2 -1</clus>
<clus scale="   73.148">  2  4  1 -1</clus>
<clus scale="  103.716">  2  5  1 -1</clus>
<clus scale="   59.697">  1  3  2 -1</clus>
</clustering>
</event>
<event>
 6    0  0.9475748E+002  0.1156217E+03  0.7546771E-02  0.1250500E+00
         21   -1    0    0  504  501  0.00000000000E+00  0.00000000000E+00  0.58944704007E+03  0.58944704007E+03  0.00000000000E+00 0.  1.
         21   -1    0    0  505  502 -0.00000000000E+00 -0.00000000000E+00 -0.17365563149E+04  0.17365563149E+04  0.00000000000E+00 0. -1.
         21    1    1    2  503  501 -0.12109554718E+02  0.30461909718E+02  0.77985377864E+02  0.84594848660E+02  0.00000000000E+00 0.  1.
         21    1    1    2  504  506  0.25384046697E+02 -0.14499244389E+03  0.48958515960E+03  0.51123457152E+03  0.00000000000E+00 0.  1.
         21    1    1    2  505  503 -0.38286634810E+02  0.86398425979E+02 -0.16658031182E+04  0.16684815202E+04  0.00000000000E+00 0. -1.
         21    1    1    2  506  502  0.25012142831E+02  0.28132108191E+02 -0.48876694047E+02  0.61692414617E+02  0.00000000000E+00 0.  1.
<scales pt_clust_3="32.78062" pt_clust_4="14000.00000" pt_clust_5="115.62165" pt_clust_6="37.83077"></scales>
<clustering>
<clus scale="   32.781">  1  3  2 -1</clus>
<clus scale="   37.831">  2  6  1 -1</clus>
<clus scale="  115.622">  2  5  1 -1</clus>
<clus scale="   32.781">  1  3  2 -1</clus>
</clustering>
</event>
<event>
 6    0  0.4390142E+002  0.1147525E+03  0.7546771E-02  0.1252014E+00
         21   -1    0    0  504  501  0.00000000000E+00  0.00000000000E+00  0.49750832877E+02  0.49750832877E+02  0.00000000000E+00 0. -1.
         21   -1    0    0  505  502 -0.00000000000E+00 -0.00000000000E+00 -0.12499552089E+04  0.12499552089E+04  0.00000000000E+00 0.  1.
         21    1    1    2  503  502  0.24989225536E+02 -0.20032110254E+02 -0.23182431186E+03  0.23402619170E+03  0.00000000000E+00 0. -1.
         21    1    1    2  504  506  0.46846106949E+02  0.42755546172E+02 -0.11921507438E+03  0.13503639666E+03  0.00000000000E+00 0. -1.
         21    1    1    2  505  501  0.18538687838E+01  0.70717428905E+02  0.24208683487E+01  0.70783134883E+02  0.00000000000E+00 0. -1.
         21    1    1    2  506  503 -0.73689201268E+02 -0.93440864823E+02 -0.85158585812E+03  0.85986031852E+03  0.00000000000E+00 0.  1.
<scales pt_clust_3="32.02728" pt_clust_4="64.16510" pt_clust_5="114.75252" pt_clust_6="14000.00000"></scales>
<clustering>
<clus scale="   32.027">  2  3  1 -1</clus>
<clus scale="   64.165">  1  4  2 -1</clus>
<clus scale="  114.753">  1  5  2 -1</clus>
<clus scale="   64.165">  1  3  2 -1</clus>
</clustering>
</event>
<event>
 6    0  0.4390142E+002  0.1121559E+03  0.7546771E-02  0.1256629E+00
         21   -1    0    0  504  501  0.00000000000E+00  0.00000000000E+00  0.20231294281E+03  0.20231294281E+03  0.00000000000E+00 0. -1.
         21   -1    0    0  506  502 -0.00000000000E+00 -0.00000000000E+00 -0.60995941113E+03  0.60995941113E+03  0.00000000000E+00 0.  1.
         21    1    1    2  503  502 -0.49375550671E+02 -0.40465753917E+02 -0.32941448235E+03  0.33554332570E+03  0.00000000000E+00 0.  1.
         21    1    1    2  504  503  0.11254097425E+03  0.24245091072E+02  0.16742559501E+03  0.20318618356E+03  0.00000000000E+00 0. -1.
         21    1    1    2  505  501 -0.44668451056E+02 -0.24389822148E+02 -0.44846347653E+02  0.67833095477E+02  0.00000000000E+00 0.  1.
         21    1    1    2  506  505 -0.18496972520E+02  0.40610484993E+02 -0.20081123333E+03  0.20570974919E+03  0.00000000000E+00 0.  1.
<scales pt_clust_3="14000.00000" pt_clust_4="112.15587" pt_clust_5="50.82166" pt_clust_6="44.62454"></scales>
<clustering>
<clus scale="   44.625">  2  6  1 -1</clus>
<clus scale="   50.822">  2  5  1 -1</clus>
<clus scale="  112.156">  1  4  2 -1</clus>
<clus scale="  112.156">  1  3  2 -1</clus>
</clustering>
</event>
<event>
 6    0  0.4390142E+002  0.8548227E+02  0.7546771E-02  0.1314176E+00
         21   -1    0    0  505  501  0.00000000000E+00  0.00000000000E+00  0.88708434214E+02  0.88708434214E+02  0.00000000000E+00 0.  1.
         21   -1    0    0  503  502 -0.00000000000E+00 -0.00000000000E+00 -0.11015622046E+04  0.11015622046E+04  0.00000000000E+00 0. -1.
         21    1    1    2  503  504 -0.71677596693E+02 -0.25394056169E+02 -0.87680849475E+03  0.88009980822E+03  0.00000000000E+00 0. -1.
         21    1    1    2  504  501  0.36611857718E+02  0.32954887444E+02 -0.11940711494E+02  0.50685632313E+02  0.00000000000E+00 0.  1.
         21    1    1    2  505  506  0.46147565886E+02 -0.68395432440E+02  0.34365195631E+02  0.89378407273E+02  0.00000000000E+00 0.  1.
         21    1    1    2  506  502 -0.11081826911E+02  0.60834601166E+02 -0.15846975982E+03  0.17010679106E+03  0.00000000000E+00 0.  1.
<scales pt_clust_3="14000.00000" pt_clust_4="49.25904" pt_clust_5="85.48227" pt_clust_6="64.10245"></scales>
<clustering>
<clus scale="   49.259">  1  4  2 -1</clus>
<clus scale="   64.102">  2  6  1 -1</clus>
<clus scale="   85.482">  1  5  2 -1</clus>
<clus scale="   49.259">  1  3  2 -1</clus>
</clustering>
</event>
<event>
 6    0  0.4390142E+002  0.1066551E+03  0.7546771E-02  0.1266893E+00
         21   -1    0    0  505  501  0.00000000000E+00  0.00000000000E+00  0.45021364554E+03  0.45021364554E+03  0.00000000000E+00 0. -1.
         21   -1    0    0  503  502 -0.00000000000E+00 -0.00000000000E+00 -0.10900418153E+03  0.10900418153E+03  0.00000000000E+00 0. -1.
         21    1    1    2  503  501 -0.85853042607E+02  0.11529038058E+03  0.34148870417E+03  0.37050931413E+03  0.00000000000E+00 0. -1.
         21    1    1    2  504  502  0.14910144773E+02 -0.34635190171E+02 -0.42842638310E+02  0.57073640787E+02  0.00000000000E+00 0. -1.
         21    1    1    2  505  506  0.18128442923E+02 -0.25896050371E+02  0.45612371033E+02  0.55495353489E+02  0.00000000000E+00 0. -1.
         21    1    1    2  506  504  0.52814454911E+02 -0.54759140040E+02 -0.30489728847E+01  0.76139518656E+02  0.00000000000E+00 0. -1.
<scales pt_clust_3="14000.00000" pt_clust_4="38.25947" pt_clust_5="31.61085" pt_clust_6="106.65511"></scales>
<clustering>
<clus scale="   31.611">  1  5  2 -1</clus>
<clus scale="   38.259">  2  4  1 -1</clus>
<clus scale="  106.655">  2  6  1 -1</clus>
<clus scale="   31.611">  1  3  2 -1</clus>
</clustering>
</event>
<event>
 6    0  0.4390142E+002  0.1013260E+03  0.7546771E-02  0.1277532E+00
         21   -1    0    0  506  501  0.00000000000E+00  0.00000000000E+00  0.23669873250E+04  0.23669873250E+04  0.00000000000E+00 0.  1.
         21   -1    0    0  504  502 -0.00000000000E+00 -0.00000000000E+00 -0.61130475505E+02  0.61130475505E+02  0.00000000000E+00 0.  1.
         21    1    1    2  503  502 -0.90904013400E+02 -0.50825668624E+02  0.86251308088E+01  0.10450445505E+03  0.00000000000E+00 0.  1.
         21    1    1    2  504  505  0.61545087332E+02  0.58077392055E+02  0.37598657674E+03  0.38539160231E+03  0.00000000000E+00 0.  1.
         21    1    1    2  505  501 -0.50504279611E+02  0.55630279122E+02  0.15889946359E+04  0.15907700535E+04  0.00000000000E+00 0.  1.
         21    1    1    2  506  503  0.79863205678E+02 -0.62882002553E+02  0.33225050607E+03  0.34745168966E+03  0.00000000000E+00 0.  1.
<scales pt_clust_3="101.32596" pt_clust_4="14000.00000" pt_clust_5="75.13594" pt_clust_6="69.45818"></scales>
<clustering>
<clus scale="   75.136">  1  5  2 -1</clus>
<clus scale="   69.458">  1  6  2 -1</clus>
<clus scale="  101.326">  2  3  1 -1</clus>
<clus scale="   75.136">  1  3  2 -1</clus>
</clustering>
</event>
<event>
 6    0  0.4390142E+002  0.1084482E+03  0.7546771E-02  0.1263471E+00
         21   -1    0    0  503  501  0.00000000000E+00  0.00000000000E+00  0.54018635448E+03  0.54018635448E+03  0.00000000000E+00 0.  1.
         21   -1    0    0  501  502 -0.00000000000E+00 -0.00000000000E+00 -0.30942875702E+03  0.30942875702E+03  0.00000000000E+00 0. -1.
         21    1    1    2  503  505  0.26822477142E+02 -0.26402276034E+02  0.42371674321E+03  0.42538500671E+03  0.00000000000E+00 0.  1.
         21    1    1    2  504  502 -0.55262057633E+02  0.10839904020E+03 -0.25770319507E+03  0.28498277787E+03  0.00000000000E+00 0. -1.
         21    1    1    2  505  506 -0.27829145723E+02 -0.52299601931E+02  0.25535569976E+02  0.64511820993E+02  0.00000000000E+00 0. -1.
         21    1    1    2  506  504  0.56268726214E+02 -0.29697162235E+02  0.39208479348E+02  0.74735505935E+02  0.00000000000E+00 0.  1.
<scales pt_clust_3="37.63676" pt_clust_4="14000.00000" pt_clust_5="64.94967" pt_clust_6="108.44822"></scales>
<clustering>
<clus scale="   37.637">  1  3  2 -1</clus>
<clus scale="   64.950">  1  5  2 -1</clus>
<clus scale="  108.448">  1  6  2 -1</clus>
<clus scale="   37.637">  1  3  2 -1</clus>
</clustering>
</event>
<event>
 6    0  0.4390142E+002  0.1441175E+03  0.7546771E-02  0.1207894E+00
         21   -1    0    0  503  501  0.00000000000E+00  0.00000000000E+00  0.32131392198E+03  0.32131392198E+03  0.00000000000E+00 0.  1.
         21   -1    0    0  501  502 -0.00000000000E+00 -0.00000000000E+00 -0.72756047791E+03  0.72756047791E+03  0.00000000000E+00 0.  1.
         21    1    1    2  503  504  0.92607359502E+02  0.69305847327E+02  0.20253725213E+03  0.23323970933E+03  0.00000000000E+00 0.  1.
         21    1    1    2  504  506  0.34640484277E+02 -0.80732492306E+01  0.49837261293E+02  0.61228205243E+02  0.00000000000E+00 0.  1.
         21    1    1    2  505  502 -0.35950697969E+02 -0.12294738781E+01 -0.64304670089E+03  0.64405203502E+03  0.00000000000E+00 0.  1.
         21    1    1    2  506  505 -0.91297145810E+02 -0.60003124218E+02 -0.15574368463E+02  0.11035445030E+03  0.00000000000E+00 0.  1.
<scales pt_clust_3="30.76026" pt_clust_4="30.76026" pt_clust_5="35.97172" pt_clust_6="133.01439"></scales>
<clustering>
<clus scale="   30.760">  3  4 -1 -1</clus>
<clus scale="   35.972">  2  5  1 -1</clus>
<clus scale="  133.014">  2  6  1 -1</clus>
<clus scale="  144.117">  1  3  2 -1</clus>
</clustering>
</event>
<event>
 6    0  0.4390142E+002  0.1040117E+03  0.7546771E-02  0.1272079E+00
         21   -1    0    0  505  501  0.00000000000E+00  0.00000000000E+00  0.11902889686E+03  0.11902889686E+03  0.00000000000E+00 0.  1.
         21   -1    0    0  506  502 -0.00000000000E+00 -0.00000000000E+00 -0.11947906744E+04  0.11947906744E+04  0.00000000000E+00 0.  1.
         21    1    1    2  503  502  0.42684041542E+02  0.91682482473E+02 -0.94418915584E+03  0.94958978880E+03  0.00000000000E+00 0.  1.
         21    1    1    2  504  503 -0.10585996639E+03 -0.86691700258E+02 -0.21460712400E+03  0.25451522754E+03  0.00000000000E+00 0.  1.
         21    1    1    2  505  504  0.29090344936E+02 -0.99816694894E+01  0.62376087913E+02  0.69546087148E+02  0.00000000000E+00 0.  1.
         21    1    1    2  506  501  0.34085579910E+02  0.49908872748E+01  0.20658414422E+02  0.40168467733E+02  0.00000000000E+00 0.  1.
<scales pt_clust_3="104.01170" pt_clust_4="14000.00000" pt_clust_5="30.75519" pt_clust_6="50.76265"></scales>
<clustering>
<clus scale="   30.755">  1  5  2 -1</clus>
<clus scale="   50.763">  1  6  2 -1</clus>
<clus scale="  104.012">  2  3  1 -1</clus>
<clus scale="   30.755">  1  3  2 -1</clus>
</clustering>
</event>
<event>
 6    0  0.4390142E+002  0.6861314E+02  0.7546771E-02  0.1364874E+00
         21   -1    0    0  506  501  0.00000000000E+00  0.00000000000E+00  0.68678074986E+03  0.68678074986E+03  0.00000000000E+00 0. -1.
         21   -1    0    0  504  502 -0.00000000000E+00 -0.00000000000E+00 -0.36813569119E+02  0.36813569119E+02  0.00000000000E+00 0.  1.
         21    1    1    2  503  502  0.45439854956E+02 -0.70707834412E+02  0.67071578747E+02  0.10753127425E+03  0.00000000000E+00 0.  1.
         21    1    1    2  504  505 -0.21634974640E+01  0.38409361382E+02  0.64893056669E+02  0.75439171303E+02  0.00000000000E+00 0. -1.
         21    1    1    2  505  501 -0.95541156866E+02  0.59462167923E+01  0.30015931104E+03  0.31505409401E+03  0.00000000000E+00 0. -1.
         21    1    1    2  506  503  0.52264799374E+02  0.26352256238E+02  0.21784323429E+03  0.22556977942E+03  0.00000000000E+00 0. -1.
<scales pt_clust_3="68.61314" pt_clust_4="38.47025" pt_clust_5="14000.00000" pt_clust_6="60.56821"></scales>
<clustering>
<clus scale="   38.470">  2  4  1 -1</clus>
<clus scale="   60.568">  1  6  2 -1</clus>
<clus scale="   68.613">  2  3  1 -1</clus>
<clus scale="   60.568">  1  3  2 -1</clus>
</clustering>
</event>
<event>
 6    0  0.4390142E+002  0.1163250E+03  0.7546771E-02  0.1249286E+00
         21   -1    0    0  503  501  0.00000000000E+00  0.00000000000E+00  0.52261004934E+02  0.52261004934E+02  0.00000000000E+00 0.  1.
         21   -1    0    0  506  502 -0.00000000000E+00 -0.00000000000E+00 -0.42005483557E+03  0.42005483557E+03  0.00000000000E+00 0.  1.
         21    1    1    2  503  505  0.59306828184E+02 -0.19953702154E+02 -0.11672169143E+02  0.63652883921E+02  0.00000000000E+00 0.  1.
         21    1    1    2  504  501 -0.80318873760E+02  0.59934510513E+02 -0.23342906102E+03  0.25403226874E+03  0.00000000000E+00 0.  1.
         21    1    1    2  505  502  0.50086877303E+02 -0.17472434393E+02 -0.48726646804E+02  0.72029628282E+02  0.00000000000E+00 0.  1.
         21    1    1    2  506  504 -0.29074831728E+02 -0.22508373966E+02 -0.73965953668E+02  0.82601059561E+02  0.00000000000E+00 0.  1.
<scales pt_clust_3="34.37722" pt_clust_4="110.17021" pt_clust_5="34.37722" pt_clust_6="36.76918"></scales>
<clustering>
<clus scale="   34.377">  3  5 -1 -1</clus>
<clus scale="   36.769">  2  6  1 -1</clus>
<clus scale="  110.170">  2  4  1 -1</clus>
<clus scale="  116.325">  1  3  2 -1</clus>
</clustering>
</event>
<event>
 6    0  0.4390142E+002  0.1091889E+03  0.7546771E-02  0.1262079E+00
         21   -1    0    0  506  501  0.00000000000E+00  0.00000000000E+00  0.30126322050E+03  0.30126322050E+03  0.00000000000E+00 0. -1.
         21   -1    0    0  505  502 -0.00000000000E+00 -0.00000000000E+00 -0.34383811956E+03  0.34383811956E+03  0.00000000000E+00 0. -1.
         21    1    1    2  503  501 -0.60890975579E+02 -0.23332318296E+02 -0.68697999273E+02  0.94718124390E+02  0.00000000000E+00 0. -1.
         21    1    1    2  504  502  0.71316164304E+02 -0.84837135526E+02 -0.26903235616E+02  0.11404875686E+03  0.00000000000E+00 0. -1.
         21    1    1    2  505  503 -0.29718194561E+02 -0.56343805961E+01 -0.17668375824E+03  0.17925419872E+03  0.00000000000E+00 0. -1.
         21    1    1    2  506  504  0.19293005836E+02  0.11380383442E+03  0.22971009407E+03  0.25708026008E+03  0.00000000000E+00 0. -1.
<scales pt_clust_3="79.91526" pt_clust_4="14000.00000" pt_clust_5="30.24760" pt_clust_6="109.18892"></scales>
<clustering>
<clus scale="   30.248">  2  5  1 -1</clus>
<clus scale="   79.915">  2  3  1 -1</clus>
<clus scale="  109.189">  1  6  2 -1</clus>
<clus scale="  109.189">  1  3  2 -1</clus>
</clustering>
</event>
<event>
 6    0  0.4390142E+002  0.7603243E+02  0.7546771E-02  0.1340703E+00
         21   -1    0    0  503  501  0.00000000000E+00  0.00000000000E+00  0.11967473463E+03  0.11967473463E+03  0.00000000000E+00 0. -1.
         21   -1    0    0  504  502 -0.00000000000E+00 -0.00000000000E+00 -0.22306514282E+03  0.22306514282E+03  0.00000000000E+00 0. -1.
         21    1    1    2  503  506  0.20815343821E+02 -0.72061031848E+02  0.17054268378E+02  0.76921511421E+02  0.00000000000E+00 0. -1.
         21    1    1    2  504  505  0.20249023143E+02  0.53029709313E+02 -0.69500295176E+02  0.89735522719E+02  0.00000000000E+00 0. -1.
         21    1    1    2  505  501 -0.50433035699E+02  0.62096646824E+02  0.28756216182E+02  0.85008261985E+02  0.00000000000E+00 0. -1.
         21    1    1    2  506  502  0.93686687360E+01 -0.43065324289E+02 -0.79700597569E+02  0.91074581321E+02  0.00000000000E+00 0. -1.
<scales pt_clust_3="76.03243" pt_clust_4="38.07654" pt_clust_5="14000.00000" pt_clust_6="44.07260"></scales>
<clustering>
<clus scale="   44.073">  2  6  1 -1</clus>
<clus scale="   38.077">  2  4  1 -1</clus>
<clus scale="   76.032">  2  3  1 -1</clus>
<clus scale="   76.032">  1  3  2 -1</clus>
</clustering>
</event>
<event>
 6    0  0.4390142E+002  0.1884872E+03  0.7546771E-02  0.1159833E+00
         21   -1    0    0  504  501  0.00000000000E+00  0.00000000000E+00  0.86263529800E+02  0.86263529800E+02  0.00000000000E+00 0. -1.
         21   -1    0    0  503  502 -0.00000000000E+00 -0.00000000000E+00 -0.29211788969E+04  0.29211788969E+04  0.00000000000E+00 0. -1.
         21    1    1    2  503  506  0.18076211590E+02  0.18600278354E+03 -0.18569111643E+04  0.18662912037E+04  0.00000000000E+00 0. -1.
         21    1    1    2  504  505  0.65011930742E+02 -0.26836315421E+02  0.48628639311E+02  0.85507213294E+02  0.00000000000E+00 0. -1.
         21    1    1    2  505  502 -0.44552088742E+02 -0.18804551327E+03 -0.89098300157E+03  0.91169990280E+03  0.00000000000E+00 0. -1.
         21    1    1    2  506  501 -0.38536053589E+02  0.28879045150E+02 -0.13564984052E+03  0.14394410689E+03  0.00000000000E+00 0.  1.
<scales pt_clust_3="14000.00000" pt_clust_4="33.69497" pt_clust_5="188.48719" pt_clust_6="48.15627"></scales>
<clustering>
<clus scale="   48.156">  1  6  2 -1</clus>
<clus scale="   33.695">  1  4  2 -1</clus>
<clus scale="  188.487">  1  5  2 -1</clus>
<clus scale="   48.156">  1  3  2 -1</clus>
</clustering>
</event>
<event>
 6    0  0.4390142E+002  0.1014384E+03  0.7546771E-02  0.1277300E+00
         21   -1    0    0  503  501  0.00000000000E+00  0.00000000000E+00  0.28050570002E+04  0.28050570002E+04  0.00000000000E+00 0.  1.
         21   -1    0    0  504  502 -0.00000000000E+00 -0.00000000000E+00 -0.10918696798E+03  0.10918696798E+03  0.00000000000E+00 0.  1.
         21    1    1    2  503  506  0.40570683316E+02 -0.46725969972E+02  0.22034832511E+04  0.22043519988E+04  0.00000000000E+00 0.  1.
         21    1    1    2  504  505  0.97305835638E+02 -0.30763441707E+02 -0.39921366027E+02  0.10958344063E+03  0.00000000000E+00 0.  1.
         21    1    1    2  505  501 -0.58631518303E+02  0.59316360449E+01  0.47593248886E+03  0.47956706851E+03  0.00000000000E+00 0.  1.
         21    1    1    2  506  502 -0.79245000651E+02  0.71557775633E+02  0.56375658295E+02  0.12074146028E+03  0.00000000000E+00 0. -1.
<scales pt_clust_3="43.74364" pt_clust_4="14000.00000" pt_clust_5="58.93080" pt_clust_6="101.43840"></scales>
<clustering>
<clus scale="   58.931">  1  5  2 -1</clus>
<clus scale="   43.744">  1  3  2 -1</clus>
<clus scale="  101.438">  1  6  2 -1</clus>
<clus scale="   58.931">  1  3  2 -1</clus>
</clustering>
</event>
<event>
 6    0  0.4390142E+002  0.8993018E+02  0.7546771E-02  0.1303021E+00
         21   -1    0    0  503  501  0.00000000000E+00  0.00000000000E+00  0.38224999755E+02  0.38224999755E+02  0.00000000000E+00 0. -1.
         21   -1    0    0  505  502 -0.00000000000E+00 -0.00000000000E+00 -0.63436896432E+03  0.63436896432E+03  0.00000000000E+00 0. -1.
         21    1    1    2  503  502 -0.10269083770E+03 -0.32872445882E+02 -0.17287947863E+03  0.20374817785E+03  0.00000000000E+00 0. -1.
         21    1    1    2  504  506  0.57357974117E+02  0.76028594110E+02 -0.25416925196E+03  0.27142640432E+03  0.00000000000E+00 0. -1.
         21    1    1    2  505  504  0.89893015366E+01 -0.55412252779E+02 -0.13458989417E+03  0.14582786055E+03  0.00000000000E+00 0. -1.
         21    1    1    2  506  501  0.36343562046E+02  0.12256104552E+02 -0.34505339801E+02  0.51591521356E+02  0.00000000000E+00 0.  1.
<scales pt_clust_3="89.93018" pt_clust_4="14000.00000" pt_clust_5="55.41306" pt_clust_6="38.35449"></scales>
<clustering>
<clus scale="   38.354">  1  6  2 -1</clus>
<clus scale="   55.413">  2  5  1 -1</clus>
<clus scale="   89.930">  1  3  2 -1</clus>
<clus scale="   38.354">  1  3  2 -1</clus>
</clustering>
</event>
<event>
 6    0  0.4390142E+002  0.1183032E+03  0.7546771E-02  0.1245923E+00
         21   -1    0    0  503  501  0.00000000000E+00  0.00000000000E+00  0.41320142632E+03  0.41320142632E+03  0.00000000000E+00 0.  1.
         21   -1    0    0  505  502 -0.00000000000E+00 -0.00000000000E+00 -0.20409351482E+03  0.20409351482E+03  0.00000000000E+00 0.  1.
         21    1    1    2  503  506  0.30325211897E+02 -0.64399564726E+02  0.11257095587E+03  0.13318837232E+03  0.00000000000E+00 0.  1.
         21    1    1    2  504  501  0.31483045513E+02 -0.24143981891E+02  0.19878642090E+03  0.20270706734E+03  0.00000000000E+00 0.  1.
         21    1    1    2  505  504  0.14903599991E+02  0.15756721633E+03 -0.71889986754E+02  0.17383243411E+03  0.00000000000E+00 0.  1.
         21    1    1    2  506  502 -0.76711857401E+02 -0.69023669712E+02 -0.30359478518E+02  0.10756706737E+03  0.00000000000E+00 0.  1.
<scales pt_clust_3="92.17646" pt_clust_4="39.67511" pt_clust_5="118.30320" pt_clust_6="14000.00000"></scales>
<clustering>
<clus scale="   39.675">  1  4  2 -1</clus>
<clus scale="   92.176">  1  3  2 -1</clus>
<clus scale="  118.303">  1  5  2 -1</clus>
<clus scale="   39.675">  1  3  2 -1</clus>
</clustering>
</event>
<event>
 6    0  0.4390142E+002  0.5877552E+02  0.7546771E-02  0.1403043E+00
         21   -1    0    0  506  501  0.00000000000E+00  0.00000000000E+00  0.30309914515E+03  0.30309914515E+03  0.00000000000E+00 0. -1.
         21   -1    0    0  504  502 -0.00000000000E+00 -0.00000000000E+00 -0.11551624528E+04  0.11551624528E+04  0.00000000000E+00 0. -1.
         21    1    1    2  503  501 -0.60870466023E+02 -0.43439278266E+02  0.26655482314E+03  0.27684591070E+03  0.00000000000E+00 0. -1.
         21    1    1    2  504  503  0.54442447403E+02  0.82818185218E+02 -0.27147824093E+03  0.28900392243E+03  0.00000000000E+00 0. -1.
         21    1    1    2  505  502 -0.44031883893E+02 -0.33157906402E+02 -0.83913513516E+03  0.84094353474E+03  0.00000000000E+00 0. -1.
         21    1    1    2  506  505  0.50459902513E+02 -0.62210005499E+01 -0.80047547013E+01  0.51468230077E+02  0.00000000000E+00 0.  1.
<scales pt_clust_3="50.91604" pt_clust_4="58.77552" pt_clust_5="14000.00000" pt_clust_6="50.84194"></scales>
<clustering>
<clus scale="   50.842">  1  6  2 -1</clus>
<clus scale="   50.916">  1  3  2 -1</clus>
<clus scale="   58.776">  1  4  2 -1</clus>
<clus scale="   50.842">  1  3  2 -1</clus>
</clustering>
</event>
<event>
 6    0  0.4390142E+002  0.8228233E+02  0.7546771E-02  0.1322697E+00
         21   -1    0    0  504  501  0.00000000000E+00  0.00000000000E+00  0.65496498516E+02  0.65496498516E+02  0.00000000000E+00 0. -1.
         21   -1    0    0  501  502 -0.00000000000E+00 -0.00000000000E+00 -0.10966596224E+04  0.10966596224E+04  0.00000000000E+00 0. -1.
         21    1    1    2  503  502  0.12124054341E+02 -0.27828466998E+02 -0.37885162575E+03  0.38006574510E+03  0.00000000000E+00 0. -1.
         21    1    1    2  504  505 -0.95068328578E+01  0.33040432646E+02  0.83212109169E+01  0.35373614624E+02  0.00000000000E+00 0. -1.
         21    1    1    2  505  506  0.89721518749E+02 -0.21996556662E+02 -0.14148559504E+02  0.93455771184E+02  0.00000000000E+00 0. -1.
         21    1    1    2  506  503 -0.92338740232E+02  0.16784591014E+02 -0.64648414959E+03  0.65326099004E+03  0.00000000000E+00 0. -1.
<scales pt_clust_3="30.35484" pt_clust_4="33.81344" pt_clust_5="14000.00000" pt_clust_6="82.28233"></scales>
<clustering>
<clus scale="   30.355">  2  3  1 -1</clus>
<clus scale="   33.813">  1  4  2 -1</clus>
<clus scale="   82.282">  2  6  1 -1</clus>
<clus scale="   33.813">  1  3  2 -1</clus>
</clustering>
</event>
<event>
 6    0  0.4390142E+002  0.1207896E+03  0.7546771E-02  0.1241800E+00
         21   -1    0    0  506  501  0.00000000000E+00  0.00000000000E+00  0.16488463698E+03  0.16488463698E+03  0.00000000000E+00 0. -1.
         21   -1    0    0  504  502 -0.00000000000E+00 -0.00000000000E+00 -0.22889387409E+03  0.22889387409E+03  0.00000000000E+00 0.  1.
         21    1    1    2  503  502  0.11860118547E+03 -0.73113559500E+02 -0.11027537728E+03  0.17768650093E+03  0.00000000000E+00 0.  1.
         21    1    1    2  504  501  0.13552906548E+02  0.51019225159E+02 -0.14701854598E+02  0.54797692838E+02  0.00000000000E+00 0.  1.
         21    1    1    2  505  503 -0.98802444133E+02 -0.32652693269E+01  0.66340715941E+02  0.11905324667E+03  0.00000000000E+00 0. -1.
         21    1    1    2  506  505 -0.33351647886E+02  0.25359603668E+02 -0.53727211705E+01  0.42241070626E+02  0.00000000000E+00 0. -1.
<scales pt_clust_3="14000.00000" pt_clust_4="55.22694" pt_clust_5="120.78964" pt_clust_6="41.89799"></scales>
<clustering>
<clus scale="   41.898">  1  6  2 -1</clus>
<clus scale="   55.227">  2  4  1 -1</clus>
<clus scale="  120.790">  1  5  2 -1</clus>
<clus scale="   41.898">  1  3  2 -1</clus>
</clustering>
</event>
<event>
 6    0  0.4390142E+002  0.1249146E+03  0.7546771E-02  0.1235203E+00
         21   -1    0    0  504  501  0.00000000000E+00  0.00000000000E+00  0.24065475199E+03  0.24065475199E+03  0.00000000000E+00 0. -1.
         21   -1    0    0  505  502 -0.00000000000E+00 -0.00000000000E+00 -0.30810783114E+03  0.30810783114E+03  0.00000000000E+00 0.  1.
         21    1    1    2  503  502  0.19898272761E+02 -0.44159670539E+02 -0.24081005410E+02  0.54091705303E+02  0.00000000000E+00 0.  1.
         21    1    1    2  504  503  0.18163068071E+02 -0.81413522115E+02  0.18950547962E+02  0.85540527781E+02  0.00000000000E+00 0.  1.
         21    1    1    2  505  506  0.43420465052E+02  0.10893457445E+03 -0.20949652236E+03  0.24008513319E+03  0.00000000000E+00 0.  1.
         21    1    1    2  506  501 -0.81481805883E+02  0.16638618207E+02  0.14717390066E+03  0.16904521686E+03  0.00000000000E+00 0. -1.
<scales pt_clust_3="36.17379" pt_clust_4="36.17379" pt_clust_5="115.54268" pt_clust_6="83.16326"></scales>
<clustering>
<clus scale="   36.174">  3  4 -1 -1</clus>
<clus scale="   83.163">  1  6  2 -1</clus>
<clus scale="  115.543">  2  5  1 -1</clus>
<clus scale="   83.163">  1  3  2 -1</clus>
</clustering>
</event>
<event>
 6    0  0.4390142E+002  0.1109334E+03  0.7546771E-02  0.1258851E+00
         21   -1    0    0  503  501  0.00000000000E+00  0.00000000000E+00  0.13212783513E+04  0.13212783513E+04  0.00000000000E+00 0.  1.
         21   -1    0    0  504  502 -0.00000000000E+00 -0.00000000000E+00 -0.61002856107E+02  0.61002856107E+02  0.00000000000E+00 0.  1.
         21    1    1    2  503  502 -0.11229912542E+03 -0.90569583748E+01  0.74589724385E+03  0.75435788618E+03  0.00000000000E+00 0.  1.
         21    1    1    2  504  505 -0.57522437317E+02  0.27003135952E+01 -0.21117668327E+02  0.61335784042E+02  0.00000000000E+00 0.  1.
         21    1    1    2  505  506  0.14202918934E+03  0.30092105976E+02  0.37838250278E+03  0.40527909380E+03  0.00000000000E+00 0.  1.
         21    1    1    2  506  501  0.27792373401E+02 -0.23735461196E+02  0.15711341689E+03  0.16130844337E+03  0.00000000000E+00 0.  1.
<scales pt_clust_3="110.93338" pt_clust_4="57.08743" pt_clust_5="14000.00000" pt_clust_6="36.54844"></scales>
<clustering>
<clus scale="   36.548">  1  6  2 -1</clus>
<clus scale="   57.087">  2  4  1 -1</clus>
<clus scale="  110.933">  1  3  2 -1</clus>
<clus scale="   36.548">  1  3  2 -1</clus>
</clustering>
</event>
<event>
 6    0  0.4390142E+002  0.7822550E+02  0.7546771E-02  0.1334164E+00
         21   -1    0    0  503  501  0.00000000000E+00  0.00000000000E+00  0.43569958714E+02  0.43569958714E+02  0.00000000000E+00 0.  1.
         21   -1    0    0  504  502 -0.00000000000E+00 -0.00000000000E+00 -0.24842585802E+04  0.24842585802E+04  0.00000000000E+00 0. -1.
         21    1    1    2  503  505 -0.31300024350E+02 -0.50935273196E+02 -0.11617425289E+03  0.13065431724E+03  0.00000000000E+00 0.  1.
         21    1    1    2  504  501  0.61192192158E+02  0.49828301302E+02 -0.18142170476E+02  0.80972108416E+02  0.00000000000E+00 0.  1.
         21    1    1    2  505  506  0.22074871285E+02 -0.61567147895E+02 -0.25629467428E+03  0.26450855129E+03  0.00000000000E+00 0.  1.
         21    1    1    2  506  502 -0.51967039093E+02  0.62674119789E+02 -0.20500775239E+04  0.20516935620E+04  0.00000000000E+00 0. -1.
<scales pt_clust_3="59.78372" pt_clust_4="34.61331" pt_clust_5="78.22550" pt_clust_6="14000.00000"></scales>
<clustering>
<clus scale="   59.784">  1  3  2 -1</clus>
<clus scale="   34.613">  1  4  2 -1</clus>
<clus scale="   78.226">  1  5  2 -1</clus>
<clus scale="   59.784">  1  3  2 -1</clus>
</clustering>
</event>
<event>
 6    0  0.4390142E+002  0.9569490E+02  0.7546771E-02  0.1289619E+00
         21   -1    0    0  503  501  0.00000000000E+00  0.00000000000E+00  0.85622866400E+03  0.85622866400E+03  0.00000000000E+00 0. -1.
         21   -1    0    0  505  502 -0.00000000000E+00 -0.00000000000E+00 -0.23475546616E+03  0.23475546616E+03  0.00000000000E+00 0. -1.
         21    1    1    2  503  506  0.62378040579E+02 -0.14449164700E+02  0.44293513790E+03  0.44753919906E+03  0.00000000000E+00 0. -1.
         21    1    1    2  504  502 -0.27590126750E+02  0.13082596713E+03 -0.10982974584E+02  0.13415392093E+03  0.00000000000E+00 0. -1.
         21    1    1    2  505  501 -0.22156401829E+02 -0.46280020253E+02 -0.15199741964E+03  0.16042431859E+03  0.00000000000E+00 0. -1.
         21    1    1    2  506  504 -0.12631511999E+02 -0.70096782179E+02  0.34151845417E+03  0.34886669159E+03  0.00000000000E+00 0. -1.
<scales pt_clust_3="63.72005" pt_clust_4="14000.00000" pt_clust_5="51.31030" pt_clust_6="95.69490"></scales>
<clustering>
<clus scale="   51.310">  2  5  1 -1</clus>
<clus scale="   63.720">  1  3  2 -1</clus>
<clus scale="   95.695">  1  6  2 -1</clus>
<clus scale="   63.720">  1  3  2 -1</clus>
</clustering>
</event>
<event>
 6    0  0.4390142E+002  0.4327945E+03  0.7546771E-02  0.1032981E+00
         21   -1    0    0  504  501  0.00000000000E+00  0.00000000000E+00  0.18863751311E+03  0.18863751311E+03  0.00000000000E+00 0. -1.
         21   -1    0    0  503  502 -0.00000000000E+00 -0.00000000000E+00 -0.25431425491E+04  0.25431425491E+04  0.00000000000E+00 0. -1.
         21    1    1    2  503  506 -0.45996486752E+02 -0.19502878109E+02 -0.97081478342E+03  0.97209947163E+03  0.00000000000E+00 0. -1.
         21    1    1    2  504  505 -0.66504374795E+02  0.18617949127E+03 -0.42594889611E+02  0.20223738393E+03  0.00000000000E+00 0. -1.
         21    1    1    2  505  502 -0.18300305003E+02  0.23276995899E+03 -0.11296644653E+03  0.25938036358E+03  0.00000000000E+00 0. -1.
         21    1    1    2  506  501  0.13080116655E+03 -0.39944657215E+03 -0.12281289165E+04  0.12980628431E+04  0.00000000000E+00 0. -1.
<scales pt_clust_3="49.96037" pt_clust_4="72.59195" pt_clust_5="72.59195" pt_clust_6="425.59362"></scales>
<clustering>
<clus scale="   49.960">  2  3  1 -1</clus>
<clus scale="   72.592">  4  5 -1 -1</clus>
<clus scale="  425.594">  2  6  1 -1</clus>
<clus scale="  432.794">  1  3  2 -1</clus>
</clustering>
</event>
<event>
 6    0  0.4390142E+002  0.1307550E+03  0.7546771E-02  0.1226340E+00
         21   -1    0    0  503  501  0.00000000000E+00  0.00000000000E+00  0.10950303460E+03  0.10950303460E+03  0.00000000000E+00 0. -1.
         21   -1    0    0  504  502 -0.00000000000E+00 -0.00000000000E+00 -0.79697258244E+03  0.79697258244E+03  0.00000000000E+00 0. -1.
         21    1    1    2  503  505 -0.79825395193E+02  0.18907905067E+01  0.41690717427E+02  0.90076549257E+02  0.00000000000E+00 0. -1.
         21    1    1    2  504  501 -0.63592240558E+02  0.67165442343E+02 -0.41945327525E+03  0.42953023155E+03  0.00000000000E+00 0. -1.
         21    1    1    2  505  506 -0.31878110741E+02  0.53228768872E+01 -0.14153179813E+02  0.35282565972E+02  0.00000000000E+00 0. -1.
         21    1    1    2  506  502  0.17529574649E+03 -0.74379109737E+02 -0.29555381021E+03  0.35158627025E+03  0.00000000000E+00 0. -1.
<scales pt_clust_3="31.34187" pt_clust_4="92.49416" pt_clust_5="31.34187" pt_clust_6="121.11975"></scales>
<clustering>
<clus scale="   31.342">  3  5 -1 -1</clus>
<clus scale="   92.494">  2  4  1 -1</clus>
<clus scale="  121.120">  2  6  1 -1</clus>
<clus scale="  130.755">  1  3  2 -1</clus>
</clustering>
</event>
<event>
 6    0  0.4390142E+002  0.4142593E+03  0.7546771E-02  0.1038951E+00
         21   -1    0    0  503  501  0.00000000000E+00  0.00000000000E+00  0.37789308877E+03  0.37789308877E+03  0.00000000000E+00 0. -1.
         21   -1    0    0  506  502 -0.00000000000E+00 -0.00000000000E+00 -0.65284357937E+03  0.65284357937E+03  0.00000000000E+00 0. -1.
         21    1    1    2  503  505 -0.35076967280E+03 -0.21926374826E+03 -0.95561592207E+02  0.42455620659E+03  0.00000000000E+00 0. -1.
         21    1    1    2  504  502  0.21891259851E+02 -0.51949438428E+02 -0.92324412298E+02  0.10817471293E+03  0.00000000000E+00 0. -1.
         21    1    1    2  505  504  0.41604412520E+02 -0.37253407886E+02 -0.49831288126E+02  0.74845847023E+02  0.00000000000E+00 0. -1.
         21    1    1    2  506  501  0.28727400042E+03  0.30846659457E+03 -0.37233197970E+02  0.42315990159E+03  0.00000000000E+00 0. -1.
<scales pt_clust_3="414.25926" pt_clust_4="115.27481" pt_clust_5="35.87852" pt_clust_6="14000.00000"></scales>
<clustering>
<clus scale="   35.879">  4  5 -1 -1</clus>
<clus scale="  115.275">  2  4  1 -1</clus>
<clus scale="  414.259">  2  3  1 -1</clus>
<clus scale="  414.259">  1  3  2 -1</clus>
</clustering>
</event>
<event>
 6    0  0.4390142E+002  0.1854653E+03  0.7546771E-02  0.1162616E+00
         21   -1    0    0  502  501  0.00000000000E+00  0.00000000000E+00  0.11698870409E+03  0.11698870409E+03  0.00000000000E+00 0.  1.
         21   -1    0    0  506  502 -0.00000000000E+00 -0.00000000000E+00 -0.88219636566E+03  0.88219636566E+03  0.00000000000E+00 0.  1.
         21    1    1    2  503  501  0.26143778482E+02  0.28530322176E+02  0.32752896060E+02  0.50697422391E+02  0.00000000000E+00 0.  1.
         21    1    1    2  504  503 -0.20187293935E+02  0.28066765677E+02  0.12100563473E+02  0.36629138789E+02  0.00000000000E+00 0.  1.
         21    1    1    2  505  504 -0.38793027644E+02  0.11997990433E+03 -0.58264479155E+02  0.13890581689E+03  0.00000000000E+00 0.  1.
         21    1    1    2  506  505  0.32836543098E+02 -0.17657699218E+03 -0.75179664194E+03  0.77295269167E+03  0.00000000000E+00 0.  1.
<scales pt_clust_3="38.69724" pt_clust_4="30.01090" pt_clust_5="30.01090" pt_clust_6="176.38728"></scales>
<clustering>
<clus scale="   30.011">  4  5 -1 -1</clus>
<clus scale="   38.697">  1  3  2 -1</clus>
<clus scale="  176.387">  2  6  1 -1</clus>
<clus scale="   38.697">  1  3  2 -1</clus>
</clustering>
</event>
<event>
 6    0  0.5512825E+002  0.7002937E+02  0.7546771E-02  0.1359993E+00
         21   -1    0    0  503  501  0.00000000000E+00  0.00000000000E+00  0.46248369105E+03  0.46248369105E+03  0.00000000000E+00 0.  1.
         21   -1    0    0  505  502 -0.00000000000E+00 -0.00000000000E+00 -0.51654642556E+03  0.51654642556E+03  0.00000000000E+00 0. -1.
         21    1    1    2  503  504  0.33532871290E+02  0.43595237555E+02  0.79287834132E+01  0.55568550465E+02  0.00000000000E+00 0.  1.
         21    1    1    2  504  502  0.22582690192E+02  0.32681000619E+02 -0.49467045362E+02  0.63443000202E+02  0.00000000000E+00 0.  1.
         21    1    1    2  505  506 -0.57921119903E+02  0.28463221045E+02 -0.42733726545E+03  0.43218300467E+03  0.00000000000E+00 0. -1.
         21    1    1    2  506  501  0.18055584216E+01 -0.10473945922E+03  0.41481279289E+03  0.42783556128E+03  0.00000000000E+00 0.  1.
<scales pt_clust_3="57.05402" pt_clust_4="39.72437" pt_clust_5="14000.00000" pt_clust_6="70.02937"></scales>
<clustering>
<clus scale="   39.724">  2  4  1 -1</clus>
<clus scale="   57.054">  1  3  2 -1</clus>
<clus scale="   70.029">  1  6  2 -1</clus>
<clus scale="   57.054">  1  3  2 -1</clus>
</clustering>
</event>
<event>
 6    0  0.4390142E+002  0.8932958E+02  0.7546771E-02  0.1304483E+00
         21   -1    0    0  504  501  0.00000000000E+00  0.00000000000E+00  0.28582568257E+03  0.28582568257E+03  0.00000000000E+00 0. -1.
         21   -1    0    0  505  502 -0.00000000000E+00 -0.00000000000E+00 -0.24636788202E+03  0.24636788202E+03  0.00000000000E+00 0. -1.
         21    1    1    2  503  502  0.30913908628E+02 -0.68808543102E+02 -0.16746379529E+03  0.18366928998E+03  0.00000000000E+00 0. -1.
         21    1    1    2  504  503  0.85174838613E+02 -0.14432180784E+02  0.14790930578E+03  0.17128982373E+03  0.00000000000E+00 0. -1.
         21    1    1    2  505  506 -0.11243354983E+03  0.53345580780E+02  0.17089832020E+02  0.12561495323E+03  0.00000000000E+00 0. -1.
         21    1    1    2  506  501 -0.36551974147E+01  0.29895143106E+02  0.41922458038E+02  0.51619497648E+02  0.00000000000E+00 0. -1.
<scales pt_clust_3="74.45952" pt_clust_4="14000.00000" pt_clust_5="89.32958" pt_clust_6="30.11777"></scales>
<clustering>
<clus scale="   30.118">  1  6  2 -1</clus>
<clus scale="   74.460">  2  3  1 -1</clus>
<clus scale="   89.330">  2  5  1 -1</clus>
<clus scale="   30.118">  1  3  2 -1</clus>
</clustering>
</event>
<event>
 6    0  0.4390142E+002  0.6410589E+02  0.7546771E-02  0.1381367E+00
         21   -1    0    0  505  501  0.00000000000E+00  0.00000000000E+00  0.13365776121E+04  0.13365776121E+04  0.00000000000E+00 0. -1.
         21   -1    0    0  506  502 -0.00000000000E+00 -0.00000000000E+00 -0.54527270333E+03  0.54527270333E+03  0.00000000000E+00 0. -1.
         21    1    1    2  503  501  0.47782268014E+02 -0.22005102703E+02  0.73906291383E+03  0.74093276367E+03  0.00000000000E+00 0. -1.
         21    1    1    2  504  502  0.99515375551E+01  0.63583659731E+02 -0.43051778962E+03  0.43530159897E+03  0.00000000000E+00 0. -1.
         21    1    1    2  505  504 -0.76884618915E+02  0.23945059241E+02  0.58068660854E+03  0.58624359086E+03  0.00000000000E+00 0. -1.
         21    1    1    2  506  503  0.19150813346E+02 -0.65523616270E+02 -0.97926823978E+02  0.11937236194E+03  0.00000000000E+00 0. -1.
<scales pt_clust_3="52.60580" pt_clust_4="14000.00000" pt_clust_5="30.25001" pt_clust_6="64.10589"></scales>
<clustering>
<clus scale="   52.606">  1  3  2 -1</clus>
<clus scale="   30.250">  1  5  2 -1</clus>
<clus scale="   64.106">  1  6  2 -1</clus>
<clus scale="   52.606">  1  3  2 -1</clus>
</clustering>
</event>
<event>
 6    0  0.4390142E+002  0.1957107E+03  0.7546771E-02  0.1153409E+00
         21   -1    0    0  505  501  0.00000000000E+00  0.00000000000E+00  0.46886426642E+03  0.46886426642E+03  0.00000000000E+00 0.  1.
         21   -1    0    0  506  502 -0.00000000000E+00 -0.00000000000E+00 -0.33758736710E+03  0.33758736710E+03  0.00000000000E+00 0. -1.
         21    1    1    2  503  501 -0.42190318215E+02  0.96802605940E+01  0.83577066477E+02  0.94121498273E+02  0.00000000000E+00 0. -1.
         21    1    1    2  504  502 -0.95906073613E+02 -0.11086242259E+03  0.52016363993E+01  0.14668165775E+03  0.00000000000E+00 0. -1.
         21    1    1    2  505  504  0.17645936358E+03  0.16236236317E+03  0.24971836155E+03  0.34620615833E+03  0.00000000000E+00 0.  1.
         21    1    1    2  506  503 -0.38362971748E+02 -0.61180201174E+02 -0.20722016511E+03  0.21944231917E+03  0.00000000000E+00 0. -1.
<scales pt_clust_3="43.28661" pt_clust_4="195.71071" pt_clust_5="14000.00000" pt_clust_6="72.44465"></scales>
<clustering>
<clus scale="   43.287">  1  3  2 -1</clus>
<clus scale="   72.445">  2  6  1 -1</clus>
<clus scale="  195.711">  2  4  1 -1</clus>
<clus scale="   43.287">  1  3  2 -1</clus>
</clustering>
</event>
<event>
 6    0  0.4390142E+002  0.1913278E+03  0.7546771E-02  0.1157269E+00
         21   -1    0    0  504  501  0.00000000000E+00  0.00000000000E+00  0.11104333191E+04  0.11104333191E+04  0.00000000000E+00 0.  1.
         21   -1    0    0  501  502 -0.00000000000E+00 -0.00000000000E+00 -0.49451760745E+03  0.49451760745E+03  0.00000000000E+00 0.  1.
         21    1    1    2  503  505 -0.11541457718E+03  0.66262754206E+01  0.56549748010E+03  0.57719306315E+03  0.00000000000E+00 0.  1.
         21    1    1    2  504  503 -0.62783322043E+02  0.39259529937E+02  0.51308440086E+03  0.51840009512E+03  0.00000000000E+00 0.  1.
         21    1    1    2  505  506  0.15108557669E+03  0.72512844459E+01 -0.29742041312E+03  0.33367399472E+03  0.00000000000E+00 0.  1.
         21    1    1    2  506  502  0.27112322534E+02 -0.53137089803E+02 -0.16524575620E+03  0.17568377355E+03  0.00000000000E+00 0.  1.
<scales pt_clust_3="44.74325" pt_clust_4="44.74325" pt_clust_5="182.97768" pt_clust_6="59.65424"></scales>
<clustering>
<clus scale="   44.743">  3  4 -1 -1</clus>
<clus scale="   59.654">  2  6  1 -1</clus>
<clus scale="  182.978">  2  5  1 -1</clus>
<clus scale="  191.328">  1  3  2 -1</clus>
</clustering>
</event>
<event>
 6    0  0.4390142E+002  0.1376835E+03  0.7546771E-02  0.1216480E+00
         21   -1    0    0  506  501  0.00000000000E+00  0.00000000000E+00  0.63554818639E+02  0.63554818639E+02  0.00000000000E+00 0. -1.
         21   -1    0    0  504  502 -0.00000000000E+00 -0.00000000000E+00 -0.12974671115E+04  0.12974671115E+04  0.00000000000E+00 0.  1.
         21    1    1    2  503  502 -0.61670883532E+02 -0.59082353807E+02 -0.90428030186E+03  0.90830440203E+03  0.00000000000E+00 0.  1.
         21    1    1    2  504  505 -0.88604921603E+02  0.18913041273E+02 -0.62245198777E+02  0.10992270026E+03  0.00000000000E+00 0. -1.
         21    1    1    2  505  501 -0.13863499797E+02  0.33720410932E+02 -0.10611048371E+02  0.37971793315E+02  0.00000000000E+00 0. -1.
         21    1    1    2  506  503  0.16413930493E+03  0.64489016019E+01 -0.25677574389E+03  0.30482303457E+03  0.00000000000E+00 0. -1.
<scales pt_clust_3="85.40505" pt_clust_4="36.41192" pt_clust_5="36.41192" pt_clust_6="125.14813"></scales>
<clustering>
<clus scale="   36.412">  4  5 -1 -1</clus>
<clus scale="   85.405">  2  3  1 -1</clus>
<clus scale="  125.148">  2  6  1 -1</clus>
<clus scale="  137.683">  1  3  2 -1</clus>
</clustering>
</event>
<event>
 6    0  0.4390142E+002  0.9801182E+02  0.7546771E-02  0.1284533E+00
         21   -1    0    0  504  501  0.00000000000E+00  0.00000000000E+00  0.35368088445E+03  0.35368088445E+03  0.00000000000E+00 0. -1.
         21   -1    0    0  505  502 -0.00000000000E+00 -0.00000000000E+00 -0.21715094460E+03  0.21715094460E+03  0.00000000000E+00 0.  1.
         21    1    1    2  503  506 -0.45373688904E+01  0.91109556329E+02  0.46343799570E+02  0.10231953249E+03  0.00000000000E+00 0. -1.
         21    1    1    2  504  502 -0.41871800269E+02 -0.11334315127E+03  0.48802614517E+02  0.13031351726E+03  0.00000000000E+00 0. -1.
         21    1    1    2  505  503  0.16813181658E+02 -0.30335148266E+02 -0.14146540313E+03  0.14565495042E+03  0.00000000000E+00 0.  1.
         21    1    1    2  506  501  0.29595987501E+02  0.52568743208E+02  0.18284892889E+03  0.19254382887E+03  0.00000000000E+00 0. -1.
<scales pt_clust_3="98.01182" pt_clust_4="14000.00000" pt_clust_5="34.68291" pt_clust_6="59.16151"></scales>
<clustering>
<clus scale="   34.683">  2  5  1 -1</clus>
<clus scale="   59.162">  1  6  2 -1</clus>
<clus scale="   98.012">  2  3  1 -1</clus>
<clus scale="   59.162">  1  3  2 -1</clus>
</clustering>
</event>
<event>
 6    0  0.4390142E+002  0.1442918E+03  0.7546771E-02  0.1207668E+00
         21   -1    0    0  505  501  0.00000000000E+00  0.00000000000E+00  0.71230148350E+03  0.71230148350E+03  0.00000000000E+00 0.  1.
         21   -1    0    0  504  502 -0.00000000000E+00 -0.00000000000E+00 -0.12568783407E+03  0.12568783407E+03  0.00000000000E+00 0. -1.
         21    1    1    2  503  506 -0.17029727858E+03 -0.54008064105E+02  0.55847930105E+03  0.58635924464E+03  0.00000000000E+00 0.  1.
         21    1    1    2  504  503  0.11231897304E+03  0.92036901186E+01  0.13871571849E+02  0.11354593838E+03  0.00000000000E+00 0. -1.
         21    1    1    2  505  502  0.37151037990E+02  0.77875739000E+01 -0.48940202859E+02  0.61935364589E+02  0.00000000000E+00 0. -1.
         21    1    1    2  506  501  0.20827267546E+02  0.37016800086E+02  0.63202979388E+02  0.76148769955E+02  0.00000000000E+00 0.  1.
<scales pt_clust_3="144.29183" pt_clust_4="14000.00000" pt_clust_5="37.95848" pt_clust_6="44.85491"></scales>
<clustering>
<clus scale="   37.958">  2  5  1 -1</clus>
<clus scale="   44.855">  1  6  2 -1</clus>
<clus scale="  144.292">  1  3  2 -1</clus>
<clus scale="   44.855">  1  3  2 -1</clus>
</clustering>
</event>
<event>
 6    0  0.4390142E+002  0.1851193E+03  0.7546771E-02  0.1162939E+00
         21   -1    0    0  506  501  0.00000000000E+00  0.00000000000E+00  0.12618254458E+04  0.12618254458E+04  0.00000000000E+00 0. -1.
         21   -1    0    0  505  502 -0.00000000000E+00 -0.00000000000E+00 -0.36044424267E+02  0.36044424267E+02  0.00000000000E+00 0. -1.
         21    1    1    2  503  502 -0.53194892867E+02 -0.14657686635E+02  0.34808540887E+02  0.65239397018E+02  0.00000000000E+00 0. -1.
         21    1    1    2  504  503 -0.25463423129E+02 -0.46542025337E+02  0.74856037451E+02  0.91749508897E+02  0.00000000000E+00 0. -1.
         21    1    1    2  505  501  0.13359024168E+03  0.86810028264E+02  0.96500463717E+03  0.97806762723E+03  0.00000000000E+00 0. -1.
         21    1    1    2  506  504 -0.54931925683E+02 -0.25610316292E+02  0.15111180607E+03  0.16281333696E+03  0.00000000000E+00 0. -1.
<scales pt_clust_3="51.18115" pt_clust_4="42.58114" pt_clust_5="159.31834" pt_clust_6="51.18115"></scales>
<clustering>
<clus scale="   42.581">  4  6 -1 -1</clus>
<clus scale="   51.181">  3  4 -1 -1</clus>
<clus scale="  159.318">  1  5  2 -1</clus>
<clus scale="  159.318">  1  3  2 -1</clus>
</clustering>
</event>
<event>
 6    0  0.4390142E+002  0.1742761E+03  0.7546771E-02  0.1173461E+00
         21   -1    0    0  503  501  0.00000000000E+00  0.00000000000E+00  0.27625659072E+03  0.27625659072E+03  0.00000000000E+00 0. -1.
         21   -1    0    0  501  502 -0.00000000000E+00 -0.00000000000E+00 -0.59524580366E+03  0.59524580366E+03  0.00000000000E+00 0. -1.
         21    1    1    2  503  506 -0.38469458884E+02  0.31651671519E+00  0.56805262970E+02  0.68606394386E+02  0.00000000000E+00 0. -1.
         21    1    1    2  504  502  0.17753534354E+02 -0.65010820953E+02 -0.16634984650E+03  0.17948221710E+03  0.00000000000E+00 0. -1.
         21    1    1    2  505  504 -0.37980961777E+02 -0.96887639030E+02 -0.37232382906E+03  0.38659384596E+03  0.00000000000E+00 0. -1.
         21    1    1    2  506  505  0.58696886307E+02  0.16158194327E+03  0.16287919965E+03  0.23681993694E+03  0.00000000000E+00 0. -1.
<scales pt_clust_3="38.47076" pt_clust_4="48.41363" pt_clust_5="48.41363" pt_clust_6="163.46139"></scales>
<clustering>
<clus scale="   38.471">  1  3  2 -1</clus>
<clus scale="   48.414">  4  5 -1 -1</clus>
<clus scale="  163.461">  1  6  2 -1</clus>
<clus scale="   38.471">  1  3  2 -1</clus>
</clustering>
</event>
<event>
 6    0  0.5578574E+002  0.1218719E+03  0.7546771E-02  0.1240041E+00
         21   -1    0    0  503  501  0.00000000000E+00  0.00000000000E+00  0.46172187756E+03  0.46172187756E+03  0.00000000000E+00 0. -1.
         21   -1    0    0  504  502 -0.00000000000E+00 -0.00000000000E+00 -0.23839405933E+03  0.23839405933E+03  0.00000000000E+00 0. -1.
         21    1    1    2  503  506  0.25404865154E+01 -0.73303807604E+02  0.12761165676E+02  0.74449644931E+02  0.00000000000E+00 0.  1.
         21    1    1    2  504  505 -0.58208104007E+02 -0.23626524152E+01 -0.17351822907E+03  0.18303644806E+03  0.00000000000E+00 0. -1.
         21    1    1    2  505  501  0.23542908762E+02  0.11479549798E+03  0.37276813322E+03  0.39075357459E+03  0.00000000000E+00 0. -1.
         21    1    1    2  506  502  0.32124708730E+02 -0.39129037958E+02  0.11316748408E+02  0.51876269305E+02  0.00000000000E+00 0.  1.
<scales pt_clust_3="32.55711" pt_clust_4="58.25603" pt_clust_5="115.39968" pt_clust_6="32.55711"></scales>
<clustering>
<clus scale="   32.557">  3  6 -1 -1</clus>
<clus scale="   58.256">  2  4  1 -1</clus>
<clus scale="  115.400">  1  5  2 -1</clus>
<clus scale="  115.400">  1  3  2 -1</clus>
</clustering>
</event>
<event>
 6    0  0.4390142E+002  0.1547205E+03  0.7546771E-02  0.1194790E+00
         21   -1    0    0  503  501  0.00000000000E+00  0.00000000000E+00  0.15126361317E+03  0.15126361317E+03  0.00000000000E+00 0.  1.
         21   -1    0    0  506  502 -0.00000000000E+00 -0.00000000000E+00 -0.71133204096E+03  0.71133204096E+03  0.00000000000E+00 0. -1.
         21    1    1    2  503  502  0.21417639348E+02 -0.11849824655E+03 -0.47041194970E+03  0.48558001620E+03  0.00000000000E+00 0. -1.
         21    1    1    2  504  505  0.80512623778E+02  0.10728858742E+03  0.54983751173E+02  0.14497012268E+03  0.00000000000E+00 0.  1.
         21    1    1    2  505  501 -0.42744123397E+02  0.63295665212E+02 -0.11394735432E+02  0.77222026101E+02  0.00000000000E+00 0.  1.
         21    1    1    2  506  504 -0.59186139729E+02 -0.52086006074E+02 -0.13324549383E+03  0.15482348914E+03  0.00000000000E+00 0. -1.
<scales pt_clust_3="154.72045" pt_clust_4="14000.00000" pt_clust_5="76.37671" pt_clust_6="78.25979"></scales>
<clustering>
<clus scale="   76.377">  1  5  2 -1</clus>
<clus scale="   78.260">  2  6  1 -1</clus>
<clus scale="  154.720">  2  3  1 -1</clus>
<clus scale="   76.377">  1  3  2 -1</clus>
</clustering>
</event>
<event>
 6    0  0.4390142E+002  0.1291311E+03  0.7546771E-02  0.1228751E+00
         21   -1    0    0  503  501  0.00000000000E+00  0.00000000000E+00  0.14032306755E+03  0.14032306755E+03  0.00000000000E+00 0.  1.
         21   -1    0    0  504  502 -0.00000000000E+00 -0.00000000000E+00 -0.33496226546E+03  0.33496226546E+03  0.00000000000E+00 0.  1.
         21    1    1    2  503  506  0.84935882063E+02 -0.28345144410E+02  0.61329919783E+01  0.89750570271E+02  0.00000000000E+00 0.  1.
         21    1    1    2  504  501  0.65611359038E+02 -0.16818967077E+02 -0.20491893024E+03  0.21582283489E+03  0.00000000000E+00 0.  1.
         21    1    1    2  505  502 -0.53327712922E+02  0.38219956196E+02  0.24693361709E+02  0.70102582903E+02  0.00000000000E+00 0.  1.
         21    1    1    2  506  505 -0.97219528178E+02  0.69441552912E+01 -0.20546621354E+02  0.99609344948E+02  0.00000000000E+00 0.  1.
<scales pt_clust_3="112.22379" pt_clust_4="67.73277" pt_clust_5="52.41072" pt_clust_6="52.41072"></scales>
<clustering>
<clus scale="   52.411">  5  6 -1 -1</clus>
<clus scale="   67.733">  2  4  1 -1</clus>
<clus scale="  112.224">  1  3  2 -1</clus>
<clus scale="  112.224">  1  3  2 -1</clus>
</clustering>
</event>
<event>
 6    0  0.4390142E+002  0.1935574E+03  0.7546771E-02  0.1155291E+00
         21   -1    0    0  502  501  0.00000000000E+00  0.00000000000E+00  0.30968267617E+03  0.30968267617E+03  0.00000000000E+00 0. -1.
         21   -1    0    0  506  502 -0.00000000000E+00 -0.00000000000E+00 -0.70368506211E+03  0.70368506211E+03  0.00000000000E+00 0. -1.
         21    1    1    2  503  501 -0.33637857080E+02  0.15943109355E+03  0.18034777554E+03  0.24305369604E+03  0.00000000000E+00 0. -1.
         21    1    1    2  504  503 -0.16079980883E+01  0.32489569895E+02  0.19411127425E+01  0.32587201913E+02  0.00000000000E+00 0. -1.
         21    1    1    2  505  504 -0.81808663832E+02 -0.15658213266E+03 -0.31586029060E+02  0.17946670715E+03  0.00000000000E+00 0. -1.
         21    1    1    2  506  505  0.11705451900E+03 -0.35338530787E+02 -0.54470524516E+03  0.55826013317E+03  0.00000000000E+00 0. -1.
<scales pt_clust_3="30.54313" pt_clust_4="30.54313" pt_clust_5="181.08454" pt_clust_6="122.27253"></scales>
<clustering>
<clus scale="   30.543">  3  4 -1 -1</clus>
<clus scale="  122.273">  2  6  1 -1</clus>
<clus scale="  181.085">  2  5  1 -1</clus>
<clus scale="  193.557">  1  3  2 -1</clus>
</clustering>
</event>
<event>
 6    0  0.4390142E+002  0.1598285E+03  0.7546771E-02  0.1188890E+00
         21   -1    0    0  504  501  0.00000000000E+00  0.00000000000E+00  0.23612925165E+03  0.23612925165E+03  0.00000000000E+00 0. -1.
         21   -1    0    0  505  502 -0.00000000000E+00 -0.00000000000E+00 -0.29088369985E+03  0.29088369985E+03  0.00000000000E+00 0. -1.
         21    1    1    2  503  501  0.14643495300E+03  0.73212040626E+02 -0.13097372348E+03  0.20965999761E+03  0.00000000000E+00 0. -1.
         21    1    1    2  504  506 -0.15861955058E+03 -0.23837665098E+02  0.14697639730E+03  0.21755564223E+03  0.00000000000E+00 0. -1.
         21    1    1    2  505  503  0.27064411319E+02 -0.17543313537E+02 -0.48360856880E+02  0.58129361669E+02  0.00000000000E+00 0.  1.
         21    1    1    2  506  502 -0.14879813746E+02 -0.31831061991E+02 -0.22396265135E+02  0.41667949993E+02  0.00000000000E+00 0. -1.
<scales pt_clust_3="14000.00000" pt_clust_4="159.82853" pt_clust_5="32.25291" pt_clust_6="35.99310"></scales>
<clustering>
<clus scale="   32.253">  2  5  1 -1</clus>
<clus scale="   35.993">  2  6  1 -1</clus>
<clus scale="  159.829">  1  4  2 -1</clus>
<clus scale="  159.829">  1  3  2 -1</clus>
</clustering>
</event>
<event>
 6    0  0.4390142E+002  0.1417930E+03  0.7546771E-02  0.1210936E+00
         21   -1    0    0  504  501  0.00000000000E+00  0.00000000000E+00  0.82823270535E+01  0.82823270535E+01  0.00000000000E+00 0.  1.
         21   -1    0    0  503  502 -0.00000000000E+00 -0.00000000000E+00 -0.35407077389E+04  0.35407077389E+04  0.00000000000E+00 0.  1.
         21    1    1    2  503  505 -0.21224128626E+02  0.31477247436E+02 -0.64856748062E+03  0.64967765674E+03  0.00000000000E+00 0.  1.
         21    1    1    2  504  502 -0.10411678460E+03 -0.80717808664E+02 -0.19505236191E+04  0.19549675338E+04  0.00000000000E+00 0.  1.
         21    1    1    2  505  506  0.45527391157E+02  0.19589496820E+00 -0.20397463694E+03  0.20899386172E+03  0.00000000000E+00 0.  1.
         21    1    1    2  506  501  0.79813522065E+02  0.49044666260E+02 -0.72935967514E+03  0.73535101368E+03  0.00000000000E+00 0.  1.
<scales pt_clust_3="37.96420" pt_clust_4="132.53653" pt_clust_5="35.13006" pt_clust_6="35.13006"></scales>
<clustering>
<clus scale="   35.130">  5  6 -1 -1</clus>
<clus scale="   37.964">  2  3  1 -1</clus>
<clus scale="  132.537">  2  4  1 -1</clus>
<clus scale="  141.793">  1  3  2 -1</clus>
</clustering>
</event>
<event>
 6    0  0.4390142E+002  0.1470207E+03  0.7546771E-02  0.1204182E+00
         21   -1    0    0  504  501  0.00000000000E+00  0.00000000000E+00  0.56669816718E+03  0.56669816718E+03  0.00000000000E+00 0. -1.
         21   -1    0    0  505  502 -0.00000000000E+00 -0.00000000000E+00 -0.62322397583E+03  0.62322397583E+03  0.00000000000E+00 0. -1.
         21    1    1    2  503  501  0.37717558472E+02 -0.17651055318E+02  0.95362684797E+01  0.42721357510E+02  0.00000000000E+00 0.  1.
         21    1    1    2  504  506 -0.17467623379E+03 -0.70883033436E+02  0.36162583632E+03  0.40781054005E+03  0.00000000000E+00 0. -1.
         21    1    1    2  505  503  0.58068701971E+02  0.11582768883E+03  0.12523609216E+03  0.18020018431E+03  0.00000000000E+00 0. -1.
         21    1    1    2  506  502  0.78889973349E+02 -0.27293600071E+02 -0.55292400561E+03  0.55919006114E+03  0.00000000000E+00 0. -1.
<scales pt_clust_3="41.64341" pt_clust_4="14000.00000" pt_clust_5="147.02068" pt_clust_6="83.71799"></scales>
<clustering>
<clus scale="   41.643">  1  3  2 -1</clus>
<clus scale="   83.718">  2  6  1 -1</clus>
<clus scale="  147.021">  2  5  1 -1</clus>
<clus scale="   41.643">  1  3  2 -1</clus>
</clustering>
</event>
<event>
 6    0  0.4390142E+002  0.1201843E+03  0.7546771E-02  0.1242793E+00
         21   -1    0    0  503  501  0.00000000000E+00  0.00000000000E+00  0.17890748444E+03  0.17890748444E+03  0.00000000000E+00 0.  1.
         21   -1    0    0  505  502 -0.00000000000E+00 -0.00000000000E+00 -0.16962617743E+04  0.16962617743E+04  0.00000000000E+00 0.  1.
         21    1    1    2  503  502  0.40583471491E+02 -0.10352956140E+03 -0.11238843943E+04  0.11293721796E+04  0.00000000000E+00 0.  1.
         21    1    1    2  504  501  0.13247854119E+02  0.39958749588E+02  0.77486158319E+02  0.88183400017E+02  0.00000000000E+00 0.  1.
         21    1    1    2  505  506 -0.78300803822E+02  0.13907134343E+03 -0.53331228567E+03  0.55668110125E+03  0.00000000000E+00 0. -1.
         21    1    1    2  506  504  0.24469478213E+02 -0.75500531616E+02  0.62356231797E+02  0.10093257790E+03  0.00000000000E+00 0.  1.
<scales pt_clust_3="14000.00000" pt_clust_4="42.09759" pt_clust_5="120.18429" pt_clust_6="54.79306"></scales>
<clustering>
<clus scale="   42.098">  1  4  2 -1</clus>
<clus scale="   54.793">  1  6  2 -1</clus>
<clus scale="  120.184">  1  5  2 -1</clus>
<clus scale="   42.098">  1  3  2 -1</clus>
</clustering>
</event>
<event>
 6    0  0.4390142E+002  0.3042015E+03  0.7546771E-02  0.1083159E+00
         21   -1    0    0  502  501  0.00000000000E+00  0.00000000000E+00  0.10435587017E+03  0.10435587017E+03  0.00000000000E+00 0.  1.
         21   -1    0    0  503  502 -0.00000000000E+00 -0.00000000000E+00 -0.12209376208E+04  0.12209376208E+04  0.00000000000E+00 0. -1.
         21    1    1    2  503  504 -0.14780666312E+03  0.13945021361E+03 -0.65669309972E+03  0.68741472122E+03  0.00000000000E+00 0. -1.
         21    1    1    2  504  506  0.18527138641E+02  0.98716005526E+02 -0.28350408919E+03  0.30077013349E+03  0.00000000000E+00 0. -1.
         21    1    1    2  505  501 -0.96716524333E+01 -0.59883498933E+02 -0.46328606470E+02  0.76327675733E+02  0.00000000000E+00 0.  1.
         21    1    1    2  506  505  0.13895117691E+03 -0.17828272020E+03 -0.13005595529E+03  0.26078096057E+03  0.00000000000E+00 0.  1.
<scales pt_clust_3="97.16831" pt_clust_4="97.16831" pt_clust_5="49.40231" pt_clust_6="287.28160"></scales>
<clustering>
<clus scale="   49.402">  5  6 -1 -1</clus>
<clus scale="   97.168">  3  4 -1 -1</clus>
<clus scale="  287.282">  1  5  2 -1</clus>
<clus scale="  287.282">  1  3  2 -1</clus>
</clustering>
</event>
<event>
 6    0  0.4390142E+002  0.9234882E+02  0.7546771E-02  0.1297261E+00
         21   -1    0    0  503  501  0.00000000000E+00  0.00000000000E+00  0.76761527806E+03  0.76761527806E+03  0.00000000000E+00 0.  1.
         21   -1    0    0  504  502 -0.00000000000E+00 -0.00000000000E+00 -0.13623568050E+04  0.13623568050E+04  0.00000000000E+00 0.  1.
         21    1    1    2  503  506  0.26125523964E+02  0.55989395517E+02  0.48491217864E+03  0.48883246251E+03  0.00000000000E+00 0.  1.
         21    1    1    2  504  505  0.24748725708E+01  0.33422431253E+02 -0.13076421527E+04  0.13080715513E+04  0.00000000000E+00 0.  1.
         21    1    1    2  505  501  0.68837275219E+02 -0.24488834484E+02  0.19965353559E+03  0.21260246412E+03  0.00000000000E+00 0.  1.
         21    1    1    2  506  502 -0.97437671754E+02 -0.64922992286E+02  0.28334911504E+02  0.12046560511E+03  0.00000000000E+00 0. -1.
<scales pt_clust_3="62.91316" pt_clust_4="33.51394" pt_clust_5="92.34882" pt_clust_6="14000.00000"></scales>
<clustering>
<clus scale="   33.514">  2  4  1 -1</clus>
<clus scale="   62.913">  1  3  2 -1</clus>
<clus scale="   92.349">  1  5  2 -1</clus>
<clus scale="   62.913">  1  3  2 -1</clus>
</clustering>
</event>
<event>
 6    0  0.4390142E+002  0.2030056E+03  0.7546771E-02  0.1147228E+00
         21   -1    0    0  504  501  0.00000000000E+00  0.00000000000E+00  0.11746918264E+04  0.11746918264E+04  0.00000000000E+00 0.  1.
         21   -1    0    0  503  502 -0.00000000000E+00 -0.00000000000E+00 -0.17389512246E+03  0.17389512246E+03  0.00000000000E+00 0.  1.
         21    1    1    2  503  506 -0.63661978349E+02  0.31766836527E+02  0.12391884339E+03  0.14289107438E+03  0.00000000000E+00 0.  1.
         21    1    1    2  504  502  0.51612405719E+02 -0.65624984695E+02 -0.11782760534E+03  0.14440853029E+03  0.00000000000E+00 0.  1.
         21    1    1    2  505  501  0.11436598660E+03 -0.12534787138E+03  0.60042312718E+03  0.62393877857E+03  0.00000000000E+00 0.  1.
         21    1    1    2  506  505 -0.10231641397E+03  0.15920601955E+03  0.39428233868E+03  0.43734856558E+03  0.00000000000E+00 0.  1.
<scales pt_clust_3="39.38528" pt_clust_4="83.48939" pt_clust_5="192.57511" pt_clust_6="39.38528"></scales>
<clustering>
<clus scale="   39.385">  3  6 -1 -1</clus>
<clus scale="   83.489">  2  4  1 -1</clus>
<clus scale="  192.575">  1  5  2 -1</clus>
<clus scale="  192.575">  1  3  2 -1</clus>
</clustering>
</event>
<event>
 6    0  0.4390142E+002  0.1403638E+03  0.7546771E-02  0.1212840E+00
         21   -1    0    0  505  501  0.00000000000E+00  0.00000000000E+00  0.16414427470E+03  0.16414427470E+03  0.00000000000E+00 0.  1.
         21   -1    0    0  503  502 -0.00000000000E+00 -0.00000000000E+00 -0.46809213558E+03  0.46809213558E+03  0.00000000000E+00 0.  1.
         21    1    1    2  503  504  0.17438842575E+02  0.96930831524E+02 -0.67101070252E+02  0.11917320571E+03  0.00000000000E+00 0.  1.
         21    1    1    2  504  501  0.17732967118E+01 -0.76863717795E+02  0.16758982933E+02  0.78689511394E+02  0.00000000000E+00 0.  1.
         21    1    1    2  505  506 -0.13078984511E+03  0.63829949271E+02 -0.74461366111E+00  0.14553625135E+03  0.00000000000E+00 0.  1.
         21    1    1    2  506  502  0.11157770582E+03 -0.83897063000E+02 -0.25286115990E+03  0.28883744183E+03  0.00000000000E+00 0.  1.
<scales pt_clust_3="81.71135" pt_clust_4="76.88417" pt_clust_5="140.36381" pt_clust_6="14000.00000"></scales>
<clustering>
<clus scale="   76.884">  1  4  2 -1</clus>
<clus scale="   81.711">  1  3  2 -1</clus>
<clus scale="  140.364">  1  5  2 -1</clus>
<clus scale="   76.884">  1  3  2 -1</clus>
</clustering>
</event>
<event>
 6    0  0.4390142E+002  0.9635668E+02  0.7546771E-02  0.1288149E+00
         21   -1    0    0  503  501  0.00000000000E+00  0.00000000000E+00  0.65810493807E+02  0.65810493807E+02  0.00000000000E+00 0. -1.
         21   -1    0    0  506  502 -0.00000000000E+00 -0.00000000000E+00 -0.92261390513E+03  0.92261390513E+03  0.00000000000E+00 0. -1.
         21    1    1    2  503  502  0.77864154779E+02  0.31692071700E+02 -0.39589624316E+03  0.40472342329E+03  0.00000000000E+00 0. -1.
         21    1    1    2  504  501 -0.10843797728E+02 -0.36712863713E+02  0.30502575159E+02  0.48947210365E+02  0.00000000000E+00 0.  1.
         21    1    1    2  505  504  0.48756150011E+02  0.32502537312E+02 -0.48277211007E+02  0.75922764690E+02  0.00000000000E+00 0. -1.
         21    1    1    2  506  505 -0.11577650706E+03 -0.27481745298E+02 -0.44313253232E+03  0.45883100060E+03  0.00000000000E+00 0. -1.
<scales pt_clust_3="14000.00000" pt_clust_4="38.28083" pt_clust_5="44.94576" pt_clust_6="96.35668"></scales>
<clustering>
<clus scale="   38.281">  1  4  2 -1</clus>
<clus scale="   44.946">  1  5  2 -1</clus>
<clus scale="   96.357">  1  6  2 -1</clus>
<clus scale="   38.281">  1  3  2 -1</clus>
</clustering>
</event>
<event>
 6    0  0.4390142E+002  0.1630692E+03  0.7546771E-02  0.1185275E+00
         21   -1    0    0  505  501  0.00000000000E+00  0.00000000000E+00  0.14670161566E+03  0.14670161566E+03  0.00000000000E+00 0.  1.
         21   -1    0    0  506  502 -0.00000000000E+00 -0.00000000000E+00 -0.25357783111E+04  0.25357783111E+04  0.00000000000E+00 0. -1.
         21    1    1    2  503  504 -0.44214357655E+02  0.33242619984E+02  0.65614540596E+02  0.85821029729E+02  0.00000000000E+00 0.  1.
         21    1    1    2  504  501 -0.73957680065E+02 -0.22444420692E+02  0.39791003153E+02  0.86929939565E+02  0.00000000000E+00 0.  1.
         21    1    1    2  505  502 -0.28921964330E+02 -0.32324612712E+02 -0.82833872044E+02  0.93502999767E+02  0.00000000000E+00 0. -1.
         21    1    1    2  506  503  0.14709400205E+03  0.21526413420E+02 -0.24116483672E+04  0.24162259577E+04  0.00000000000E+00 0. -1.
<scales pt_clust_3="55.16708" pt_clust_4="55.16708" pt_clust_5="43.37465" pt_clust_6="148.12237"></scales>
<clustering>
<clus scale="   43.375">  1  5  2 -1</clus>
<clus scale="   55.167">  3  4 -1 -1</clus>
<clus scale="  148.122">  2  6  1 -1</clus>
<clus scale="   43.375">  1  3  2 -1</clus>
</clustering>
</event>
<event>
 6    0  0.4390142E+002  0.1102037E+03  0.7546771E-02  0.1260193E+00
         21   -1    0    0  505  501  0.00000000000E+00  0.00000000000E+00  0.25718065436E+02  0.25718065436E+02  0.00000000000E+00 0. -1.
         21   -1    0    0  504  502 -0.00000000000E+00 -0.00000000000E+00 -0.22435051504E+04  0.22435051504E+04  0.00000000000E+00 0. -1.
         21    1    1    2  503  502  0.47615922096E+02  0.13015890472E+03 -0.17571078329E+04  0.17625653329E+04  0.00000000000E+00 0. -1.
         21    1    1    2  504  506  0.12955054744E+02 -0.37984465961E+02 -0.28884568552E+03  0.29162044363E+03  0.00000000000E+00 0.  1.
         21    1    1    2  505  503  0.13033974566E+02 -0.27730367946E+02 -0.51831845464E+02  0.60211278043E+02  0.00000000000E+00 0. -1.
         21    1    1    2  506  501 -0.73604951407E+02 -0.64444070813E+02 -0.12000172113E+03  0.15482616125E+03  0.00000000000E+00 0. -1.
<scales pt_clust_3="14000.00000" pt_clust_4="42.09605" pt_clust_5="30.64079" pt_clust_6="110.20372"></scales>
<clustering>
<clus scale="   30.641">  1  5  2 -1</clus>
<clus scale="   42.096">  2  4  1 -1</clus>
<clus scale="  110.204">  1  6  2 -1</clus>
<clus scale="   30.641">  1  3  2 -1</clus>
</clustering>
</event>
<event>
 6    0  0.4390142E+002  0.8068631E+02  0.7546771E-02  0.1327115E+00
         21   -1    0    0  504  501  0.00000000000E+00  0.00000000000E+00  0.21699477639E+04  0.21699477639E+04  0.00000000000E+00 0. -1.
         21   -1    0    0  506  502 -0.00000000000E+00 -0.00000000000E+00 -0.17690244123E+02  0.17690244123E+02  0.00000000000E+00 0. -1.
         21    1    1    2  503  501 -0.19211063257E+02 -0.45420977039E+02  0.12305582142E+04  0.12315460400E+04  0.00000000000E+00 0. -1.
         21    1    1    2  504  502 -0.37608295429E+02  0.58067620971E+02  0.20176182190E+03  0.21329337840E+03  0.00000000000E+00 0. -1.
         21    1    1    2  505  503 -0.52080860225E+01 -0.63908670101E+02  0.56099189769E+03  0.56464444701E+03  0.00000000000E+00 0. -1.
         21    1    1    2  506  505  0.62027444709E+02  0.51262026169E+02  0.15894558598E+03  0.17815414260E+03  0.00000000000E+00 0. -1.
<scales pt_clust_3="49.31663" pt_clust_4="63.70636" pt_clust_5="80.68631" pt_clust_6="14000.00000"></scales>
<clustering>
<clus scale="   49.317">  1  3  2 -1</clus>
<clus scale="   63.706">  2  4  1 -1</clus>
<clus scale="   80.686">  1  5  2 -1</clus>
<clus scale="   49.317">  1  3  2 -1</clus>
</clustering>
</event>
<event>
 6    0  0.4390142E+002  0.1950369E+03  0.7546771E-02  0.1153995E+00
         21   -1    0    0  502  501  0.00000000000E+00  0.00000000000E+00  0.75069486318E+03  0.75069486318E+03  0.00000000000E+00 0.  1.
         21   -1    0    0  503  502 -0.00000000000E+00 -0.00000000000E+00 -0.64950873091E+02  0.64950873091E+02  0.00000000000E+00 0.  1.
         21    1    1    2  503  505  0.13946251878E+03  0.91961557057E+02  0.92047954626E+02  0.19073423413E+03  0.00000000000E+00 0.  1.
         21    1    1    2  504  506 -0.49463884996E+02 -0.30074242653E+02  0.24365979762E+03  0.25044207507E+03  0.00000000000E+00 0.  1.
         21    1    1    2  505  504 -0.60865116268E+02 -0.75490242427E+02  0.21834262450E+03  0.23890759878E+03  0.00000000000E+00 0.  1.
         21    1    1    2  506  501 -0.29133517512E+02  0.13602928023E+02  0.13169361335E+03  0.13556182830E+03  0.00000000000E+00 0.  1.
<scales pt_clust_3="167.05305" pt_clust_4="76.86699" pt_clust_5="76.86699" pt_clust_6="30.36421"></scales>
<clustering>
<clus scale="   30.364">  4  6 -1 -1</clus>
<clus scale="   76.867">  4  5 -1 -1</clus>
<clus scale="  167.053">  2  3  1 -1</clus>
<clus scale="  195.037">  1  3  2 -1</clus>
</clustering>
</event>
<event>
 6    0  0.4390142E+002  0.1556435E+03  0.7546771E-02  0.1193705E+00
         21   -1    0    0  504  501  0.00000000000E+00  0.00000000000E+00  0.31157523831E+03  0.31157523831E+03  0.00000000000E+00 0.  1.
         21   -1    0    0  501  502 -0.00000000000E+00 -0.00000000000E+00 -0.43545747938E+03  0.43545747938E+03  0.00000000000E+00 0.  1.
         21    1    1    2  503  505 -0.12357773034E+03 -0.91743193844E+02  0.18558322259E+03  0.24110039726E+03  0.00000000000E+00 0.  1.
         21    1    1    2  504  503  0.29226453450E+02 -0.47788255093E+02  0.50261999563E+02  0.75260690311E+02  0.00000000000E+00 0.  1.
         21    1    1    2  505  506  0.12385445587E+03  0.51485016316E+02 -0.14950511110E+03  0.20085420431E+03  0.00000000000E+00 0.  1.
         21    1    1    2  506  502 -0.29503178975E+02  0.88046432621E+02 -0.21022235213E+03  0.22981742580E+03  0.00000000000E+00 0.  1.
<scales pt_clust_3="14000.00000" pt_clust_4="56.01699" pt_clust_5="155.64352" pt_clust_6="90.70946"></scales>
<clustering>
<clus scale="   56.017">  1  4  2 -1</clus>
<clus scale="   90.709">  2  6  1 -1</clus>
<clus scale="  155.644">  2  5  1 -1</clus>
<clus scale="   56.017">  1  3  2 -1</clus>
</clustering>
</event>
<event>
 6    0  0.4390142E+002  0.1729951E+03  0.7546771E-02  0.1174760E+00
         21   -1    0    0  505  501  0.00000000000E+00  0.00000000000E+00  0.16219357751E+04  0.16219357751E+04  0.00000000000E+00 0. -1.
         21   -1    0    0  503  502 -0.00000000000E+00 -0.00000000000E+00 -0.28312557576E+02  0.28312557576E+02  0.00000000000E+00 0. -1.
         21    1    1    2  503  506 -0.93446330113E+02  0.36797475580E+02  0.17511954107E+03  0.20187403123E+03  0.00000000000E+00 0. -1.
         21    1    1    2  504  502  0.17900758455E+03  0.66409674479E+00  0.87727402763E+03  0.89535125839E+03  0.00000000000E+00 0. -1.
         21    1    1    2  505  504 -0.36765999192E+02 -0.51082528812E+02  0.29845358933E+03  0.30501755430E+03  0.00000000000E+00 0. -1.
         21    1    1    2  506  501 -0.48795255240E+02  0.13620956488E+02  0.24277605944E+03  0.24800548870E+03  0.00000000000E+00 0. -1.
<scales pt_clust_3="50.12158" pt_clust_4="157.94661" pt_clust_5="62.93777" pt_clust_6="50.12158"></scales>
<clustering>
<clus scale="   50.122">  3  6 -1 -1</clus>
<clus scale="   62.938">  1  5  2 -1</clus>
<clus scale="  157.947">  1  4  2 -1</clus>
<clus scale="   62.938">  1  3  2 -1</clus>
</clustering>
</event>
<event>
 6    0  0.4390142E+002  0.1022750E+03  0.7546771E-02  0.1275583E+00
         21   -1    0    0  502  501  0.00000000000E+00  0.00000000000E+00  0.96341409237E+03  0.96341409237E+03  0.00000000000E+00 0.  1.
         21   -1    0    0  505  502 -0.00000000000E+00 -0.00000000000E+00 -0.32095465504E+02  0.32095465504E+02  0.00000000000E+00 0. -1.
         21    1    1    2  503  504 -0.48260806966E+02 -0.44774295958E+02  0.38664147425E+03  0.39220590597E+03  0.00000000000E+00 0.  1.
         21    1    1    2  504  501 -0.10926180640E+02  0.89143483121E+02  0.38241236384E+03  0.39281695231E+03  0.00000000000E+00 0.  1.
         21    1    1    2  505  506  0.65728911829E+02 -0.23925673782E+01  0.31370178051E+02  0.72870448741E+02  0.00000000000E+00 0. -1.
         21    1    1    2  506  503 -0.65419242218E+01 -0.41976619785E+02  0.13089461072E+03  0.13761625085E+03  0.00000000000E+00 0.  1.
<scales pt_clust_3="38.85017" pt_clust_4="90.11833" pt_clust_5="65.77244" pt_clust_6="38.85017"></scales>
<clustering>
<clus scale="   38.850">  3  6 -1 -1</clus>
<clus scale="   65.772">  2  5  1 -1</clus>
<clus scale="   90.118">  1  4  2 -1</clus>
<clus scale="   90.118">  1  3  2 -1</clus>
</clustering>
</event>
<event>
 6    0  0.4390142E+002  0.1372241E+03  0.7546771E-02  0.1217114E+00
         21   -1    0    0  505  501  0.00000000000E+00  0.00000000000E+00  0.17802714622E+03  0.17802714622E+03  0.00000000000E+00 0.  1.
         21   -1    0    0  504  502 -0.00000000000E+00 -0.00000000000E+00 -0.19886116951E+03  0.19886116951E+03  0.00000000000E+00 0. -1.
         21    1    1    2  503  501  0.15161936683E+02  0.45041205817E+02  0.18416105870E+00  0.47525029835E+02  0.00000000000E+00 0.  1.
         21    1    1    2  504  506 -0.45373319221E+01  0.33734201577E+02 -0.75287656891E+02  0.82624542462E+02  0.00000000000E+00 0. -1.
         21    1    1    2  505  502 -0.16161162450E+02 -0.14198997230E+03  0.94755370256E+02  0.17146695191E+03  0.00000000000E+00 0.  1.
         21    1    1    2  506  503  0.55365576885E+01  0.63214564903E+02 -0.40485897714E+02  0.75271791533E+02  0.00000000000E+00 0. -1.
<scales pt_clust_3="31.28773" pt_clust_4="34.03797" pt_clust_5="132.37583" pt_clust_6="31.28773"></scales>
<clustering>
<clus scale="   31.288">  3  6 -1 -1</clus>
<clus scale="   34.038">  2  4  1 -1</clus>
<clus scale="  132.376">  1  5  2 -1</clus>
<clus scale="  132.376">  1  3  2 -1</clus>
</clustering>
</event>
<event>
 6    0  0.4390142E+002  0.7405887E+02  0.7546771E-02  0.1346810E+00
         21   -1    0    0  503  501  0.00000000000E+00  0.00000000000E+00  0.15055776051E+03  0.15055776051E+03  0.00000000000E+00 0.  1.
         21   -1    0    0  505  502 -0.00000000000E+00 -0.00000000000E+00 -0.21126170749E+03  0.21126170749E+03  0.00000000000E+00 0.  1.
         21    1    1    2  503  506 -0.25940773508E+02  0.77681054968E+02  0.21324124252E+02  0.84628531278E+02  0.00000000000E+00 0.  1.
         21    1    1    2  504  502 -0.12247396934E+02 -0.50442393312E+02 -0.19573100660E+02  0.55475580611E+02  0.00000000000E+00 0.  1.
         21    1    1    2  505  501  0.86011487858E+02  0.24469884240E+02 -0.10617508791E+03  0.13881606741E+03  0.00000000000E+00 0.  1.
         21    1    1    2  506  504 -0.47823317416E+02 -0.51708545896E+02  0.43720117332E+02  0.82899288700E+02  0.00000000000E+00 0.  1.
<scales pt_clust_3="74.05887" pt_clust_4="51.90794" pt_clust_5="70.35600" pt_clust_6="14000.00000"></scales>
<clustering>
<clus scale="   51.908">  2  4  1 -1</clus>
<clus scale="   74.059">  1  3  2 -1</clus>
<clus scale="   70.356">  2  5  1 -1</clus>
<clus scale="   74.059">  1  3  2 -1</clus>
</clustering>
</event>
<event>
 6    0  0.4390142E+002  0.1202423E+03  0.7546771E-02  0.1242698E+00
         21   -1    0    0  504  501  0.00000000000E+00  0.00000000000E+00  0.33667640827E+03  0.33667640827E+03  0.00000000000E+00 0. -1.
         21   -1    0    0  505  502 -0.00000000000E+00 -0.00000000000E+00 -0.55694327012E+03  0.55694327012E+03  0.00000000000E+00 0.  1.
         21    1    1    2  503  506  0.79858768649E+02 -0.64330838901E+02  0.16681437036E+03  0.19581346716E+03  0.00000000000E+00 0. -1.
         21    1    1    2  504  503 -0.15626056547E+02 -0.39125071953E+02  0.13940566347E+03  0.14563270205E+03  0.00000000000E+00 0. -1.
         21    1    1    2  505  501  0.32811093278E+02  0.19998863695E+02 -0.12636698638E+03  0.13208004254E+03  0.00000000000E+00 0.  1.
         21    1    1    2  506  502 -0.97043805380E+02  0.83457047159E+02 -0.40011990930E+03  0.42009346663E+03  0.00000000000E+00 0.  1.
<scales pt_clust_3="14000.00000" pt_clust_4="41.90665" pt_clust_5="38.42554" pt_clust_6="120.24230"></scales>
<clustering>
<clus scale="   38.426">  2  5  1 -1</clus>
<clus scale="   41.907">  1  4  2 -1</clus>
<clus scale="  120.242">  2  6  1 -1</clus>
<clus scale="   41.907">  1  3  2 -1</clus>
</clustering>
</event>
<event>
 6    0  0.4390142E+002  0.1701605E+03  0.7546771E-02  0.1177681E+00
         21   -1    0    0  506  501  0.00000000000E+00  0.00000000000E+00  0.17008747624E+03  0.17008747624E+03  0.00000000000E+00 0.  1.
         21   -1    0    0  503  502 -0.00000000000E+00 -0.00000000000E+00 -0.22210288800E+03  0.22210288800E+03  0.00000000000E+00 0.  1.
         21    1    1    2  503  505  0.46367721419E+01 -0.34403178680E+02 -0.46847421839E+02  0.58307454859E+02  0.00000000000E+00 0.  1.
         21    1    1    2  504  502  0.35951389673E+02 -0.24193949979E+02 -0.10182711566E+02  0.44514461132E+02  0.00000000000E+00 0. -1.
         21    1    1    2  505  501 -0.15928321172E+03  0.38963121451E+02 -0.23694301926E+02  0.16568248644E+03  0.00000000000E+00 0.  1.
         21    1    1    2  506  504  0.11869504991E+03  0.19634007209E+02  0.28709023572E+02  0.12368596180E+03  0.00000000000E+00 0.  1.
<scales pt_clust_3="34.71424" pt_clust_4="39.67283" pt_clust_5="157.93276" pt_clust_6="39.67283"></scales>
<clustering>
<clus scale="   34.714">  2  3  1 -1</clus>
<clus scale="   39.673">  4  6 -1 -1</clus>
<clus scale="  157.933">  2  5  1 -1</clus>
<clus scale="  170.161">  1  3  2 -1</clus>
</clustering>
</event>
<event>
 6    0  0.4390142E+002  0.2680736E+03  0.7546771E-02  0.1102387E+00
         21   -1    0    0  505  501  0.00000000000E+00  0.00000000000E+00  0.14653113092E+03  0.14653113092E+03  0.00000000000E+00 0.  1.
         21   -1    0    0  503  502 -0.00000000000E+00 -0.00000000000E+00 -0.23893271086E+04  0.23893271086E+04  0.00000000000E+00 0. -1.
         21    1    1    2  503  504  0.51710780481E+02 -0.28033824404E+01 -0.19112675291E+04  0.19119689934E+04  0.00000000000E+00 0. -1.
         21    1    1    2  504  506  0.49281091818E+02  0.10301064042E+03 -0.11307298922E+03  0.16070257914E+03  0.00000000000E+00 0.  1.
         21    1    1    2  505  502 -0.17015727119E+03 -0.19484913946E+03 -0.22900725350E+03  0.34549096405E+03  0.00000000000E+00 0.  1.
         21    1    1    2  506  501  0.69165398892E+02  0.94641881480E+02  0.10551794147E+02  0.11769570295E+03  0.00000000000E+00 0.  1.
<scales pt_clust_3="51.78671" pt_clust_4="117.81734" pt_clust_5="240.75825" pt_clust_6="117.81734"></scales>
<clustering>
<clus scale="   51.787">  2  3  1 -1</clus>
<clus scale="  117.817">  4  6 -1 -1</clus>
<clus scale="  240.758">  2  5  1 -1</clus>
<clus scale="  268.074">  1  3  2 -1</clus>
</clustering>
</event>
<event>
 6    0  0.4390142E+002  0.1308304E+03  0.7546771E-02  0.1226229E+00
         21   -1    0    0  503  501  0.00000000000E+00  0.00000000000E+00  0.71091655193E+03  0.71091655193E+03  0.00000000000E+00 0.  1.
         21   -1    0    0  506  502 -0.00000000000E+00 -0.00000000000E+00 -0.20991190023E+03  0.20991190023E+03  0.00000000000E+00 0. -1.
         21    1    1    2  503  502 -0.41626501458E+02  0.62783029386E+02  0.86162776609E+02  0.11444867179E+03  0.00000000000E+00 0. -1.
         21    1    1    2  504  501  0.56724469687E+02  0.74788212672E+01  0.26205278144E+03  0.26822613312E+03  0.00000000000E+00 0. -1.
         21    1    1    2  505  504 -0.20816943916E+02  0.65348091085E+02  0.31744310218E+03  0.32476736487E+03  0.00000000000E+00 0.  1.
         21    1    1    2  506  505  0.57189756869E+01 -0.13560994174E+03 -0.16465400852E+03  0.21338628237E+03  0.00000000000E+00 0. -1.
<scales pt_clust_3="70.63219" pt_clust_4="57.21537" pt_clust_5="130.83036" pt_clust_6="14000.00000"></scales>
<clustering>
<clus scale="   57.215">  1  4  2 -1</clus>
<clus scale="   70.632">  1  3  2 -1</clus>
<clus scale="  130.830">  1  5  2 -1</clus>
<clus scale="   57.215">  1  3  2 -1</clus>
</clustering>
</event>
<event>
 6    0  0.4390142E+002  0.1283693E+03  0.7546771E-02  0.1229896E+00
         21   -1    0    0  504  501  0.00000000000E+00  0.00000000000E+00  0.73054027716E+02  0.73054027716E+02  0.00000000000E+00 0.  1.
         21   -1    0    0  503  502 -0.00000000000E+00 -0.00000000000E+00 -0.65055547381E+03  0.65055547381E+03  0.00000000000E+00 0.  1.
         21    1    1    2  503  506 -0.19815563223E+02 -0.24867832753E+02 -0.98596591373E+02  0.10359707275E+03  0.00000000000E+00 0. -1.
         21    1    1    2  504  502 -0.15469158295E+03  0.39306482930E+02 -0.27870199311E+03  0.32116862611E+03  0.00000000000E+00 0.  1.
         21    1    1    2  505  501  0.10483731695E+03 -0.58013085334E+02 -0.54642171845E+02  0.13168958971E+03  0.00000000000E+00 0.  1.
         21    1    1    2  506  505  0.69669829226E+02  0.43574435156E+02 -0.14556068976E+03  0.16715421295E+03  0.00000000000E+00 0.  1.
<scales pt_clust_3="31.79726" pt_clust_4="14000.00000" pt_clust_5="128.36927" pt_clust_6="73.70253"></scales>
<clustering>
<clus scale="   31.797">  2  3  1 -1</clus>
<clus scale="   73.703">  2  6  1 -1</clus>
<clus scale="  128.369">  1  5  2 -1</clus>
<clus scale="  128.369">  1  3  2 -1</clus>
</clustering>
</event>
<event>
 6    0  0.4390142E+002  0.1112705E+03  0.7546771E-02  0.1258235E+00
         21   -1    0    0  504  501  0.00000000000E+00  0.00000000000E+00  0.35815975987E+03  0.35815975987E+03  0.00000000000E+00 0. -1.
         21   -1    0    0  503  502 -0.00000000000E+00 -0.00000000000E+00 -0.25525496919E+03  0.25525496919E+03  0.00000000000E+00 0. -1.
         21    1    1    2  503  506  0.35374808502E+02  0.17358584704E+02 -0.64225188682E+02  0.75349667555E+02  0.00000000000E+00 0.  1.
         21    1    1    2  504  505  0.55009577143E+02 -0.93563315479E+02  0.27877149868E+03  0.29915496997E+03  0.00000000000E+00 0. -1.
         21    1    1    2  505  502  0.15053156453E+02 -0.39469652907E+02  0.65933617571E+01  0.42754221301E+02  0.00000000000E+00 0. -1.
         21    1    1    2  506  501 -0.10543754210E+03  0.11567438368E+03 -0.11823488108E+03  0.19615587024E+03  0.00000000000E+00 0. -1.
<scales pt_clust_3="39.40428" pt_clust_4="14000.00000" pt_clust_5="42.06480" pt_clust_6="111.27047"></scales>
<clustering>
<clus scale="   39.404">  2  3  1 -1</clus>
<clus scale="   42.065">  2  5  1 -1</clus>
<clus scale="  111.270">  2  6  1 -1</clus>
<clus scale="  111.270">  1  3  2 -1</clus>
</clustering>
</event>
<event>
 6    0  0.4390142E+002  0.1345665E+03  0.7546771E-02  0.1220833E+00
         21   -1    0    0  505  501  0.00000000000E+00  0.00000000000E+00  0.18111667748E+04  0.18111667748E+04  0.00000000000E+00 0.  1.
         21   -1    0    0  506  502 -0.00000000000E+00 -0.00000000000E+00 -0.21110948033E+02  0.21110948033E+02  0.00000000000E+00 0.  1.
         21    1    1    2  503  501  0.37595190923E+02  0.17152283844E+02  0.38896215041E+03  0.39115106247E+03  0.00000000000E+00 0.  1.
         21    1    1    2  504  503  0.39607716925E+02  0.66047357499E+02  0.46216103813E+03  0.46853372327E+03  0.00000000000E+00 0.  1.
         21    1    1    2  505  502 -0.78510428730E+02 -0.12800392844E+03  0.90228444136E+03  0.91469454259E+03  0.00000000000E+00 0.  1.
         21    1    1    2  506  504  0.13075208824E+01  0.44804287099E+02  0.36648196875E+02  0.57898394516E+02  0.00000000000E+00 0.  1.
<scales pt_clust_3="30.77225" pt_clust_4="30.77225" pt_clust_5="127.84120" pt_clust_6="44.82336"></scales>
<clustering>
<clus scale="   30.772">  3  4 -1 -1</clus>
<clus scale="   44.823">  2  6  1 -1</clus>
<clus scale="  127.841">  2  5  1 -1</clus>
<clus scale="  134.567">  1  3  2 -1</clus>
</clustering>
</event>
<event>
 6    0  0.4390142E+002  0.8370297E+02  0.7546771E-02  0.1318860E+00
         21   -1    0    0  505  501  0.00000000000E+00  0.00000000000E+00  0.10222932207E+03  0.10222932207E+03  0.00000000000E+00 0.  1.
         21   -1    0    0  504  502 -0.00000000000E+00 -0.00000000000E+00 -0.29962043505E+03  0.29962043505E+03  0.00000000000E+00 0.  1.
         21    1    1    2  503  501 -0.22492852321E+01  0.44242273305E+02  0.38073824528E+02  0.58412790941E+02  0.00000000000E+00 0. -1.
         21    1    1    2  504  506 -0.22620853321E+02  0.21023547356E+02 -0.12753914301E+03  0.13122471393E+03  0.00000000000E+00 0.  1.
         21    1    1    2  505  502  0.52782345574E+02 -0.11435171716E+03 -0.68770794929E+02  0.14349813050E+03  0.00000000000E+00 0.  1.
         21    1    1    2  506  503 -0.27912207020E+02  0.49085896494E+02 -0.39154999573E+02  0.68714121743E+02  0.00000000000E+00 0.  1.
<scales pt_clust_3="45.64040" pt_clust_4="30.88191" pt_clust_5="14000.00000" pt_clust_6="83.70297"></scales>
<clustering>
<clus scale="   30.882">  2  4  1 -1</clus>
<clus scale="   45.640">  1  3  2 -1</clus>
<clus scale="   83.703">  2  6  1 -1</clus>
<clus scale="   45.640">  1  3  2 -1</clus>
</clustering>
</event>
<event>
 6    0  0.4390142E+002  0.1797990E+03  0.7546771E-02  0.1167998E+00
         21   -1    0    0  504  501  0.00000000000E+00  0.00000000000E+00  0.26335041958E+03  0.26335041958E+03  0.00000000000E+00 0. -1.
         21   -1    0    0  501  502 -0.00000000000E+00 -0.00000000000E+00 -0.52184899402E+03  0.52184899402E+03  0.00000000000E+00 0. -1.
         21    1    1    2  503  502 -0.18539681984E+03 -0.12672275203E+02 -0.42420362884E+03  0.46312124340E+03  0.00000000000E+00 0. -1.
         21    1    1    2  504  506  0.11989676522E+02  0.56675583127E+02  0.82030814358E+02  0.10042374505E+03  0.00000000000E+00 0. -1.
         21    1    1    2  505  503  0.14610097075E+03 -0.74225754623E+02  0.59816673896E+02  0.17445053964E+03  0.00000000000E+00 0. -1.
         21    1    1    2  506  505  0.27306172568E+02  0.30222446699E+02  0.23857566153E+02  0.47203885513E+02  0.00000000000E+00 0.  1.
<scales pt_clust_3="179.79901" pt_clust_4="102.86675" pt_clust_5="14000.00000" pt_clust_6="32.32519"></scales>
<clustering>
<clus scale="   32.325">  4  6 -1 -1</clus>
<clus scale="  102.867">  1  4  2 -1</clus>
<clus scale="  179.799">  2  3  1 -1</clus>
<clus scale="  102.867">  1  3  2 -1</clus>
</clustering>
</event>
<event>
 6    0  0.4390142E+002  0.9157197E+02  0.7546771E-02  0.1299089E+00
         21   -1    0    0  506  501  0.00000000000E+00  0.00000000000E+00  0.17448952404E+03  0.17448952404E+03  0.00000000000E+00 0. -1.
         21   -1    0    0  501  502 -0.00000000000E+00 -0.00000000000E+00 -0.46355205613E+03  0.46355205613E+03  0.00000000000E+00 0. -1.
         21    1    1    2  503  504  0.54706250120E+02 -0.12002062600E+02 -0.15756204720E+03  0.16722027995E+03  0.00000000000E+00 0. -1.
         21    1    1    2  504  502 -0.31761227289E+02  0.99437893864E+01 -0.20103858643E+03  0.20377479663E+03  0.00000000000E+00 0. -1.
         21    1    1    2  505  503  0.72037665926E+02 -0.14691162648E+00 -0.68543385498E+02  0.99436626002E+02  0.00000000000E+00 0. -1.
         21    1    1    2  506  505 -0.94982688757E+02  0.22051848405E+01  0.13808148703E+03  0.16760987759E+03  0.00000000000E+00 0. -1.
<scales pt_clust_3="35.43675" pt_clust_4="33.28144" pt_clust_5="14000.00000" pt_clust_6="91.57197"></scales>
<clustering>
<clus scale="   33.281">  2  4  1 -1</clus>
<clus scale="   35.437">  2  3  1 -1</clus>
<clus scale="   91.572">  1  6  2 -1</clus>
<clus scale="   91.572">  1  3  2 -1</clus>
</clustering>
</event>
<event>
 6    0  0.4390142E+002  0.9928574E+02  0.7546771E-02  0.1281805E+00
         21   -1    0    0  503  501  0.00000000000E+00  0.00000000000E+00  0.23328970795E+04  0.23328970795E+04  0.00000000000E+00 0.  1.
         21   -1    0    0  504  502 -0.00000000000E+00 -0.00000000000E+00 -0.24601786015E+03  0.24601786015E+03  0.00000000000E+00 0.  1.
         21    1    1    2  503  506  0.82801531223E+02 -0.59212537606E+02  0.20325586822E+04  0.20351061434E+04  0.00000000000E+00 0.  1.
         21    1    1    2  504  501  0.44896861045E+02  0.28132603337E+02 -0.20998044433E+03  0.21656167367E+03  0.00000000000E+00 0.  1.
         21    1    1    2  505  502 -0.26682070424E+02  0.37891689464E+02  0.23410704721E+01  0.46402517426E+02  0.00000000000E+00 0.  1.
         21    1    1    2  506  505 -0.10101632184E+03 -0.68117551948E+01  0.26195991101E+03  0.28084460519E+03  0.00000000000E+00 0.  1.
<scales pt_clust_3="14000.00000" pt_clust_4="67.10457" pt_clust_5="46.34342" pt_clust_6="99.28574"></scales>
<clustering>
<clus scale="   46.343">  2  5  1 -1</clus>
<clus scale="   67.105">  2  4  1 -1</clus>
<clus scale="   99.286">  2  6  1 -1</clus>
<clus scale="   99.286">  1  3  2 -1</clus>
</clustering>
</event>
<event>
 6    0  0.4390142E+002  0.9457954E+02  0.7546771E-02  0.1292126E+00
         21   -1    0    0  506  501  0.00000000000E+00  0.00000000000E+00  0.21671357786E+02  0.21671357786E+02  0.00000000000E+00 0. -1.
         21   -1    0    0  505  502 -0.00000000000E+00 -0.00000000000E+00 -0.10644539482E+04  0.10644539482E+04  0.00000000000E+00 0. -1.
         21    1    1    2  503  502 -0.50495211701E+01 -0.93152826199E+02 -0.31182673867E+03  0.32548250589E+03  0.00000000000E+00 0. -1.
         21    1    1    2  504  501 -0.72153498036E+01  0.30359363414E+02 -0.60791785104E+02  0.68332959513E+02  0.00000000000E+00 0.  1.
         21    1    1    2  505  504  0.36718294435E+02  0.89918568854E+02 -0.63225246251E+03  0.63966925713E+03  0.00000000000E+00 0. -1.
         21    1    1    2  506  503 -0.24453423461E+02 -0.27125106069E+02 -0.37911604141E+02  0.52640583457E+02  0.00000000000E+00 0. -1.
<scales pt_clust_3="94.57954" pt_clust_4="31.20500" pt_clust_5="14000.00000" pt_clust_6="31.08286"></scales>
<clustering>
<clus scale="   31.205">  1  4  2 -1</clus>
<clus scale="   31.083">  1  6  2 -1</clus>
<clus scale="   94.580">  1  3  2 -1</clus>
<clus scale="   31.205">  1  3  2 -1</clus>
</clustering>
</event>
<event>
 6    0  0.4390142E+002  0.2353510E+03  0.7546771E-02  0.1122929E+00
         21   -1    0    0  505  501  0.00000000000E+00  0.00000000000E+00  0.15606473340E+04  0.15606473340E+04  0.00000000000E+00 0. -1.
         21   -1    0    0  506  502 -0.00000000000E+00 -0.00000000000E+00 -0.90766560211E+02  0.90766560211E+02  0.00000000000E+00 0. -1.
         21    1    1    2  503  504 -0.21300444369E+02  0.10363846102E+03  0.33951428713E+02  0.11111858101E+03  0.00000000000E+00 0. -1.
         21    1    1    2  504  501 -0.94228535088E+02 -0.12209763200E+03  0.51233476465E+03  0.53504556781E+03  0.00000000000E+00 0. -1.
         21    1    1    2  505  502  0.15025871274E+03 -0.11742732021E+03  0.78588393647E+03  0.80869055756E+03  0.00000000000E+00 0. -1.
         21    1    1    2  506  503 -0.34729733280E+02  0.13588649119E+03  0.13771064394E+03  0.19655918782E+03  0.00000000000E+00 0. -1.
<scales pt_clust_3="59.45697" pt_clust_4="154.22986" pt_clust_5="225.17537" pt_clust_6="59.45697"></scales>
<clustering>
<clus scale="   59.457">  3  6 -1 -1</clus>
<clus scale="  154.230">  1  4  2 -1</clus>
<clus scale="  225.175">  1  5  2 -1</clus>
<clus scale="  154.230">  1  3  2 -1</clus>
</clustering>
</event>
<event>
 6    0  0.4390142E+002  0.2587731E+03  0.7546771E-02  0.1107883E+00
         21   -1    0    0  503  501  0.00000000000E+00  0.00000000000E+00  0.68746785301E+03  0.68746785301E+03  0.00000000000E+00 0.  1.
         21   -1    0    0  506  502 -0.00000000000E+00 -0.00000000000E+00 -0.16873774690E+03  0.16873774690E+03  0.00000000000E+00 0.  1.
         21    1    1    2  503  505  0.27268795791E+00 -0.51782713028E+02  0.54144727146E+02  0.74921126559E+02  0.00000000000E+00 0. -1.
         21    1    1    2  504  502 -0.65221561318E+02  0.49526353951E+02 -0.28728678936E+02  0.86787376904E+02  0.00000000000E+00 0.  1.
         21    1    1    2  505  504  0.21670604652E+03 -0.14170689299E+03  0.17114126716E+03  0.31037346447E+03  0.00000000000E+00 0.  1.
         21    1    1    2  506  501 -0.15175717316E+03  0.14396325207E+03  0.32217279074E+03  0.38412363198E+03  0.00000000000E+00 0.  1.
<scales pt_clust_3="51.34145" pt_clust_4="81.89452" pt_clust_5="51.34145" pt_clust_6="231.91237"></scales>
<clustering>
<clus scale="   51.341">  3  5 -1 -1</clus>
<clus scale="   81.895">  2  4  1 -1</clus>
<clus scale="  231.912">  1  6  2 -1</clus>
<clus scale="  231.912">  1  3  2 -1</clus>
</clustering>
</event>
<event>
 6    0  0.4390142E+002  0.1634414E+03  0.7546771E-02  0.1184865E+00
         21   -1    0    0  504  501  0.00000000000E+00  0.00000000000E+00  0.36865946974E+03  0.36865946974E+03  0.00000000000E+00 0. -1.
         21   -1    0    0  506  502 -0.00000000000E+00 -0.00000000000E+00 -0.15466054824E+04  0.15466054824E+04  0.00000000000E+00 0.  1.
         21    1    1    2  503  502 -0.16691500973E+02 -0.32343286254E+02 -0.12231129661E+04  0.12236543721E+04  0.00000000000E+00 0.  1.
         21    1    1    2  504  505 -0.52528045703E+02 -0.87658110956E+02  0.18036376369E+03  0.20730226061E+03  0.00000000000E+00 0. -1.
         21    1    1    2  505  503 -0.52053990427E+02 -0.25136642475E+02  0.13938172600E+03  0.15089312196E+03  0.00000000000E+00 0. -1.
         21    1    1    2  506  501  0.12127353710E+03  0.14513803969E+03 -0.27457853622E+03  0.33341519749E+03  0.00000000000E+00 0.  1.
<scales pt_clust_3="36.39635" pt_clust_4="36.79059" pt_clust_5="36.79059" pt_clust_6="155.90504"></scales>
<clustering>
<clus scale="   36.396">  2  3  1 -1</clus>
<clus scale="   36.791">  4  5 -1 -1</clus>
<clus scale="  155.905">  2  6  1 -1</clus>
<clus scale="  163.441">  1  3  2 -1</clus>
</clustering>
</event>
<event>
 6    0  0.4390142E+002  0.8496142E+02  0.7546771E-02  0.1315533E+00
         21   -1    0    0  506  501  0.00000000000E+00  0.00000000000E+00  0.27302994037E+02  0.27302994037E+02  0.00000000000E+00 0.  1.
         21   -1    0    0  503  502 -0.00000000000E+00 -0.00000000000E+00 -0.15198997978E+04  0.15198997978E+04  0.00000000000E+00 0. -1.
         21    1    1    2  503  505  0.13945473242E+02 -0.10459936425E+03 -0.96465813589E+03  0.97041270723E+03  0.00000000000E+00 0. -1.
         21    1    1    2  504  501 -0.90429360966E+01  0.68413263415E+02 -0.66104418730E+02  0.95561202797E+02  0.00000000000E+00 0.  1.
         21    1    1    2  505  504  0.33737825012E+02  0.62088461043E+02 -0.38483239652E+03  0.39126613863E+03  0.00000000000E+00 0. -1.
         21    1    1    2  506  502 -0.38640362157E+02 -0.25902360207E+02 -0.77001852660E+02  0.89962743205E+02  0.00000000000E+00 0.  1.
<scales pt_clust_3="14000.00000" pt_clust_4="61.90542" pt_clust_5="84.96142" pt_clust_6="46.51892"></scales>
<clustering>
<clus scale="   46.519">  1  6  2 -1</clus>
<clus scale="   61.905">  1  4  2 -1</clus>
<clus scale="   84.961">  1  5  2 -1</clus>
<clus scale="   46.519">  1  3  2 -1</clus>
</clustering>
</event>
<event>
 6    0  0.4390142E+002  0.1713185E+03  0.7546771E-02  0.1176480E+00
         21   -1    0    0  505  501  0.00000000000E+00  0.00000000000E+00  0.13415630140E+03  0.13415630140E+03  0.00000000000E+00 0.  1.
         21   -1    0    0  504  502 -0.00000000000E+00 -0.00000000000E+00 -0.32199455453E+03  0.32199455453E+03  0.00000000000E+00 0.  1.
         21    1    1    2  503  501  0.45964906995E+02 -0.28667959907E+02  0.14934282905E+02  0.56193036991E+02  0.00000000000E+00 0. -1.
         21    1    1    2  504  506 -0.19370635010E+02  0.39870628749E+02 -0.10194769251E+03  0.11116753369E+03  0.00000000000E+00 0.  1.
         21    1    1    2  505  502 -0.95968858807E+02  0.10023912991E+03 -0.61204389041E+02  0.15167030779E+03  0.00000000000E+00 0.  1.
         21    1    1    2  506  503  0.69374586821E+02 -0.11144179875E+03 -0.39620454484E+02  0.13711997746E+03  0.00000000000E+00 0.  1.
<scales pt_clust_3="39.73822" pt_clust_4="44.32706" pt_clust_5="159.76059" pt_clust_6="39.73822"></scales>
<clustering>
<clus scale="   39.738">  3  6 -1 -1</clus>
<clus scale="   44.327">  2  4  1 -1</clus>
<clus scale="  159.761">  2  5  1 -1</clus>
<clus scale="  171.318">  1  3  2 -1</clus>
</clustering>
</event>
<event>
 6    0  0.4390142E+002  0.1289178E+03  0.7546771E-02  0.1229070E+00
         21   -1    0    0  502  501  0.00000000000E+00  0.00000000000E+00  0.51933398412E+03  0.51933398412E+03  0.00000000000E+00 0.  1.
         21   -1    0    0  504  502 -0.00000000000E+00 -0.00000000000E+00 -0.35742866827E+03  0.35742866827E+03  0.00000000000E+00 0. -1.
         21    1    1    2  503  506 -0.66014177237E+02 -0.12840540977E+03 -0.91065322897E+02  0.17070065579E+03  0.00000000000E+00 0. -1.
         21    1    1    2  504  503 -0.14522253639E+02  0.46840026191E+02 -0.21524788820E+03  0.22076353249E+03  0.00000000000E+00 0. -1.
         21    1    1    2  505  501  0.54664281293E+02  0.25470558276E+02  0.30222298014E+03  0.30818121732E+03  0.00000000000E+00 0.  1.
         21    1    1    2  506  505  0.25872149583E+02  0.56094825300E+02  0.16599554681E+03  0.17711724679E+03  0.00000000000E+00 0. -1.
<scales pt_clust_3="116.07241" pt_clust_4="49.03962" pt_clust_5="54.84938" pt_clust_6="54.84938"></scales>
<clustering>
<clus scale="   49.040">  2  4  1 -1</clus>
<clus scale="   54.849">  5  6 -1 -1</clus>
<clus scale="  116.072">  2  3  1 -1</clus>
<clus scale="  128.918">  1  3  2 -1</clus>
</clustering>
</event>
<event>
 6    0  0.4390142E+002  0.2080416E+03  0.7546771E-02  0.1143126E+00
         21   -1    0    0  504  501  0.00000000000E+00  0.00000000000E+00  0.21015871644E+03  0.21015871644E+03  0.00000000000E+00 0.  1.
         21   -1    0    0  505  502 -0.00000000000E+00 -0.00000000000E+00 -0.70194050861E+03  0.70194050861E+03  0.00000000000E+00 0.  1.
         21    1    1    2  503  501 -0.81678171542E+02  0.12342932033E+03  0.11060162075E+03  0.18476698660E+03  0.00000000000E+00 0.  1.
         21    1    1    2  504  502  0.15050649928E+03 -0.12795472466E+03 -0.42827220796E+03  0.47163725679E+03  0.00000000000E+00 0.  1.
         21    1    1    2  505  506 -0.18616135697E+02 -0.23957617010E+02 -0.19267978996E+03  0.19505391403E+03  0.00000000000E+00 0.  1.
         21    1    1    2  506  503 -0.50212192037E+02  0.28483021339E+02  0.18568585002E+02  0.60641067625E+02  0.00000000000E+00 0. -1.
<scales pt_clust_3="34.73056" pt_clust_4="200.53318" pt_clust_5="30.34020" pt_clust_6="34.73056"></scales>
<clustering>
<clus scale="   30.340">  2  5  1 -1</clus>
<clus scale="   34.731">  3  6 -1 -1</clus>
<clus scale="  200.533">  2  4  1 -1</clus>
<clus scale="  208.042">  1  3  2 -1</clus>
</clustering>
</event>
<event>
 6    0  0.4390142E+002  0.3074417E+03  0.7546771E-02  0.1081579E+00
         21   -1    0    0  505  501  0.00000000000E+00  0.00000000000E+00  0.49174991588E+03  0.49174991588E+03  0.00000000000E+00 0.  1.
         21   -1    0    0  503  502 -0.00000000000E+00 -0.00000000000E+00 -0.79123254321E+03  0.79123254321E+03  0.00000000000E+00 0. -1.
         21    1    1    2  503  504 -0.86082817839E+02  0.33000963719E+03 -0.37497947740E+03  0.50687890135E+03  0.00000000000E+00 0. -1.
         21    1    1    2  504  501 -0.40579391412E+01 -0.96295310451E+02  0.21085545865E+03  0.23183890555E+03  0.00000000000E+00 0.  1.
         21    1    1    2  505  506  0.15366418983E+03  0.48414216283E+02  0.83621919604E+02  0.18151926899E+03  0.00000000000E+00 0. -1.
         21    1    1    2  506  502 -0.63523432851E+02 -0.28212854302E+03 -0.21898052818E+03  0.36274538320E+03  0.00000000000E+00 0. -1.
<scales pt_clust_3="14000.00000" pt_clust_4="96.38077" pt_clust_5="151.67947" pt_clust_6="307.44166"></scales>
<clustering>
<clus scale="   96.381">  1  4  2 -1</clus>
<clus scale="  151.679">  1  5  2 -1</clus>
<clus scale="  307.442">  1  6  2 -1</clus>
<clus scale="   96.381">  1  3  2 -1</clus>
</clustering>
</event>
<event>
 6    0  0.4390142E+002  0.1385398E+03  0.7546771E-02  0.1215307E+00
         21   -1    0    0  504  501  0.00000000000E+00  0.00000000000E+00  0.37102690707E+03  0.37102690707E+03  0.00000000000E+00 0. -1.
         21   -1    0    0  506  502 -0.00000000000E+00 -0.00000000000E+00 -0.94389725944E+02  0.94389725944E+02  0.00000000000E+00 0. -1.
         21    1    1    2  503  505  0.57225780270E+02 -0.37020351233E+02  0.60543980257E+02  0.91163972479E+02  0.00000000000E+00 0.  1.
         21    1    1    2  504  502 -0.13700299883E+03  0.85900576640E+02  0.12131511556E+03  0.20215362480E+03  0.00000000000E+00 0. -1.
         21    1    1    2  505  501  0.49740267198E+02  0.13444108546E+02  0.88787866181E+02  0.10265536234E+03  0.00000000000E+00 0. -1.
         21    1    1    2  506  503  0.30036951363E+02 -0.62324333954E+02  0.59902191270E+01  0.69443673399E+02  0.00000000000E+00 0. -1.
<scales pt_clust_3="49.70740" pt_clust_4="126.19393" pt_clust_5="49.70740" pt_clust_6="69.18483"></scales>
<clustering>
<clus scale="   49.707">  3  5 -1 -1</clus>
<clus scale="   69.185">  2  6  1 -1</clus>
<clus scale="  126.194">  2  4  1 -1</clus>
<clus scale="  138.540">  1  3  2 -1</clus>
</clustering>
</event>
<event>
 6    0  0.4390142E+002  0.7703086E+02  0.7546771E-02  0.1337695E+00
         21   -1    0    0  505  501  0.00000000000E+00  0.00000000000E+00  0.58768319426E+02  0.58768319426E+02  0.00000000000E+00 0. -1.
         21   -1    0    0  504  502 -0.00000000000E+00 -0.00000000000E+00 -0.55537291794E+03  0.55537291794E+03  0.00000000000E+00 0. -1.
         21    1    1    2  503  502  0.42582035125E+02 -0.92346892229E+02 -0.38154114256E+03  0.39486050915E+03  0.00000000000E+00 0. -1.
         21    1    1    2  504  506  0.69414475168E+01  0.29197724142E+02 -0.44241446796E+02  0.53460231979E+02  0.00000000000E+00 0. -1.
         21    1    1    2  505  503  0.23907068351E+02  0.49179902841E+02  0.10155898850E+02  0.55617920152E+02  0.00000000000E+00 0. -1.
         21    1    1    2  506  501 -0.73430550992E+02  0.13969265246E+02 -0.80977908015E+02  0.11020257609E+03  0.00000000000E+00 0. -1.
<scales pt_clust_3="77.03086" pt_clust_4="30.01151" pt_clust_5="55.99821" pt_clust_6="14000.00000"></scales>
<clustering>
<clus scale="   30.012">  2  4  1 -1</clus>
<clus scale="   55.998">  1  5  2 -1</clus>
<clus scale="   77.031">  2  3  1 -1</clus>
<clus scale="   55.998">  1  3  2 -1</clus>
</clustering>
</event>
<event>
 6    0  0.4390142E+002  0.1852421E+03  0.7546771E-02  0.1162824E+00
         21   -1    0    0  503  501  0.00000000000E+00  0.00000000000E+00  0.13100447377E+03  0.13100447377E+03  0.00000000000E+00 0. -1.
         21   -1    0    0  506  502 -0.00000000000E+00 -0.00000000000E+00 -0.17813156992E+04  0.17813156992E+04  0.00000000000E+00 0.  1.
         21    1    1    2  503  505  0.15998683488E+03 -0.13395275866E+03 -0.39271419813E+01  0.20869727198E+03  0.00000000000E+00 0. -1.
         21    1    1    2  504  501 -0.96301744499E+01  0.35931378114E+02 -0.29102828749E+02  0.47231121460E+02  0.00000000000E+00 0.  1.
         21    1    1    2  505  502 -0.34226293461E+02 -0.59445606165E+02 -0.11185901316E+04  0.11206913499E+04  0.00000000000E+00 0.  1.
         21    1    1    2  506  504 -0.11613036697E+03  0.15746698671E+03 -0.49869112310E+03  0.53570042962E+03  0.00000000000E+00 0.  1.
<scales pt_clust_3="14000.00000" pt_clust_4="37.19952" pt_clust_5="68.36809" pt_clust_6="185.24214"></scales>
<clustering>
<clus scale="   37.200">  1  4  2 -1</clus>
<clus scale="   68.368">  2  5  1 -1</clus>
<clus scale="  185.242">  2  6  1 -1</clus>
<clus scale="   37.200">  1  3  2 -1</clus>
</clustering>
</event>
<event>
 6    0  0.4390142E+002  0.1244245E+03  0.7546771E-02  0.1235972E+00
         21   -1    0    0  505  501  0.00000000000E+00  0.00000000000E+00  0.96492842529E+02  0.96492842529E+02  0.00000000000E+00 0.  1.
         21   -1    0    0  503  502 -0.00000000000E+00 -0.00000000000E+00 -0.15253555580E+04  0.15253555580E+04  0.00000000000E+00 0.  1.
         21    1    1    2  503  506 -0.62970113929E+02  0.15516646878E+03 -0.13415583689E+04  0.13519692028E+04  0.00000000000E+00 0.  1.
         21    1    1    2  504  502  0.87742201537E+01 -0.43271365403E+02 -0.10387339342E+03  0.11286753237E+03  0.00000000000E+00 0. -1.
         21    1    1    2  505  504  0.16896545029E+02 -0.10502657167E+03  0.38584568686E+02  0.11315848590E+03  0.00000000000E+00 0.  1.
         21    1    1    2  506  501  0.37299348746E+02 -0.68685317129E+01 -0.22015521885E+02  0.43853179459E+02  0.00000000000E+00 0.  1.
<scales pt_clust_3="124.42446" pt_clust_4="44.93335" pt_clust_5="14000.00000" pt_clust_6="37.92648"></scales>
<clustering>
<clus scale="   37.926">  1  6  2 -1</clus>
<clus scale="   44.933">  2  4  1 -1</clus>
<clus scale="  124.424">  2  3  1 -1</clus>
<clus scale="   37.926">  1  3  2 -1</clus>
</clustering>
</event>
<event>
 6    0  0.4390142E+002  0.1130622E+03  0.7546771E-02  0.1255002E+00
         21   -1    0    0  503  501  0.00000000000E+00  0.00000000000E+00  0.11434515134E+04  0.11434515134E+04  0.00000000000E+00 0.  1.
         21   -1    0    0  504  502 -0.00000000000E+00 -0.00000000000E+00 -0.54548773835E+02  0.54548773835E+02  0.00000000000E+00 0.  1.
         21    1    1    2  503  505 -0.40609503777E+02  0.64753460383E+02  0.17237619848E+03  0.18856218133E+03  0.00000000000E+00 0.  1.
         21    1    1    2  504  506 -0.92630567262E+02 -0.20987380362E+02  0.14333607364E+03  0.17194802160E+03  0.00000000000E+00 0.  1.
         21    1    1    2  505  502  0.24834327627E+02  0.23053216270E+02 -0.16436124856E+02  0.37660865755E+02  0.00000000000E+00 0.  1.
         21    1    1    2  506  501  0.10840574341E+03 -0.66819296292E+02  0.78962659227E+03  0.79982921851E+03  0.00000000000E+00 0.  1.
<scales pt_clust_3="78.90886" pt_clust_4="14000.00000" pt_clust_5="33.88502" pt_clust_6="113.06217"></scales>
<clustering>
<clus scale="   33.885">  2  5  1 -1</clus>
<clus scale="   78.909">  2  3  1 -1</clus>
<clus scale="  113.062">  1  6  2 -1</clus>
<clus scale="  113.062">  1  3  2 -1</clus>
</clustering>
</event>
<event>
 6    0  0.4390142E+002  0.1609004E+03  0.7546771E-02  0.1187684E+00
         21   -1    0    0  503  501  0.00000000000E+00  0.00000000000E+00  0.28996548907E+03  0.28996548907E+03  0.00000000000E+00 0. -1.
         21   -1    0    0  501  502 -0.00000000000E+00 -0.00000000000E+00 -0.28154211282E+03  0.28154211282E+03  0.00000000000E+00 0. -1.
         21    1    1    2  503  505  0.70780111622E+02 -0.13608891891E+02  0.23576610242E+02  0.75834574504E+02  0.00000000000E+00 0. -1.
         21    1    1    2  504  506  0.22028996579E+02  0.24429168046E+02 -0.37011178523E+02  0.49516545491E+02  0.00000000000E+00 0. -1.
         21    1    1    2  505  504 -0.58923720547E+02 -0.13613281265E+03  0.18534717656E+03  0.23739781671E+03  0.00000000000E+00 0. -1.
         21    1    1    2  506  502 -0.33885387654E+02  0.12531253649E+03 -0.16348923203E+03  0.20875866518E+03  0.00000000000E+00 0. -1.
<scales pt_clust_3="72.07653" pt_clust_4="31.60752" pt_clust_5="148.14325" pt_clust_6="31.60752"></scales>
<clustering>
<clus scale="   31.608">  4  6 -1 -1</clus>
<clus scale="   72.077">  1  3  2 -1</clus>
<clus scale="  148.143">  1  5  2 -1</clus>
<clus scale="   72.077">  1  3  2 -1</clus>
</clustering>
</event>
<event>
 6    0  0.7313437E+002  0.7843049E+02  0.7546771E-02  0.1333565E+00
         21   -1    0    0  504  501  0.00000000000E+00  0.00000000000E+00  0.12853151319E+04  0.12853151319E+04  0.00000000000E+00 0. -1.
         21   -1    0    0  505  502 -0.00000000000E+00 -0.00000000000E+00 -0.39960448184E+03  0.39960448184E+03  0.00000000000E+00 0. -1.
         21    1    1    2  503  501  0.42403210708E+02  0.22179980775E+02  0.10205338007E+04  0.10216551386E+04  0.00000000000E+00 0. -1.
         21    1    1    2  504  502  0.46843622347E+01 -0.33578899479E+02  0.74316894809E+02  0.81685289948E+02  0.00000000000E+00 0. -1.
         21    1    1    2  505  506  0.77362093672E+02  0.31855039155E+01 -0.37001032184E+03  0.37802470718E+03  0.00000000000E+00 0. -1.
         21    1    1    2  506  503 -0.12444966661E+03  0.82134147883E+01  0.16087027643E+03  0.20355447807E+03  0.00000000000E+00 0. -1.
<scales pt_clust_3="46.78035" pt_clust_4="33.90407" pt_clust_5="14000.00000" pt_clust_6="78.43049"></scales>
<clustering>
<clus scale="   33.904">  1  4  2 -1</clus>
<clus scale="   46.780">  1  3  2 -1</clus>
<clus scale="   78.430">  1  6  2 -1</clus>
<clus scale="   33.904">  1  3  2 -1</clus>
</clustering>
</event>
<event>
 6    0  0.4390142E+002  0.1517475E+03  0.7546771E-02  0.1198342E+00
         21   -1    0    0  502  501  0.00000000000E+00  0.00000000000E+00  0.13204834877E+04  0.13204834877E+04  0.00000000000E+00 0. -1.
         21   -1    0    0  505  502 -0.00000000000E+00 -0.00000000000E+00 -0.28350493040E+02  0.28350493040E+02  0.00000000000E+00 0. -1.
         21    1    1    2  503  504  0.60351966024E+01 -0.14520301791E+03  0.54324840978E+03  0.56235146904E+03  0.00000000000E+00 0. -1.
         21    1    1    2  504  506 -0.27726650802E+02  0.10550220423E+03  0.42091115090E+03  0.43481683409E+03  0.00000000000E+00 0. -1.
         21    1    1    2  505  503  0.47215465831E+02  0.11443442139E+02  0.45256050856E+02  0.66395502263E+02  0.00000000000E+00 0. -1.
         21    1    1    2  506  501 -0.25524011632E+02  0.28257371545E+02  0.28271738312E+03  0.28527017533E+03  0.00000000000E+00 0. -1.
<scales pt_clust_3="142.55659" pt_clust_4="30.72802" pt_clust_5="48.58243" pt_clust_6="30.72802"></scales>
<clustering>
<clus scale="   30.728">  4  6 -1 -1</clus>
<clus scale="   48.582">  2  5  1 -1</clus>
<clus scale="  142.557">  2  3  1 -1</clus>
<clus scale="  151.748">  1  3  2 -1</clus>
</clustering>
</event>
<event>
 6    0  0.4390142E+002  0.2511653E+03  0.7546771E-02  0.1112571E+00
         21   -1    0    0  503  501  0.00000000000E+00  0.00000000000E+00  0.96145888499E+03  0.96145888499E+03  0.00000000000E+00 0.  1.
         21   -1    0    0  504  502 -0.00000000000E+00 -0.00000000000E+00 -0.14022843552E+03  0.14022843552E+03  0.00000000000E+00 0.  1.
         21    1    1    2  503  502  0.26464567936E+03  0.42841582021E+02  0.38829415256E+03  0.47185282204E+03  0.00000000000E+00 0.  1.
         21    1    1    2  504  506 -0.41571898839E+02  0.15854093246E+02 -0.64723926063E+02  0.78541464532E+02  0.00000000000E+00 0.  1.
         21    1    1    2  505  501 -0.16909370344E+03 -0.40883343377E+02  0.42361488364E+03  0.45794508180E+03  0.00000000000E+00 0.  1.
         21    1    1    2  506  505 -0.53980077088E+02 -0.17812331890E+02  0.74045339341E+02  0.93347952136E+02  0.00000000000E+00 0.  1.
<scales pt_clust_3="245.01588" pt_clust_4="44.49242" pt_clust_5="31.57498" pt_clust_6="31.57498"></scales>
<clustering>
<clus scale="   31.575">  5  6 -1 -1</clus>
<clus scale="   44.492">  2  4  1 -1</clus>
<clus scale="  245.016">  2  3  1 -1</clus>
<clus scale="  251.165">  1  3  2 -1</clus>
</clustering>
</event>
<event>
 6    0  0.4390142E+002  0.2521402E+03  0.7546771E-02  0.1111960E+00
         21   -1    0    0  505  501  0.00000000000E+00  0.00000000000E+00  0.97392467738E+03  0.97392467738E+03  0.00000000000E+00 0. -1.
         21   -1    0    0  506  502 -0.00000000000E+00 -0.00000000000E+00 -0.36664907744E+03  0.36664907744E+03  0.00000000000E+00 0.  1.
         21    1    1    2  503  501 -0.30016877893E+02 -0.28989634384E+02  0.16144907823E+03  0.16675496011E+03  0.00000000000E+00 0. -1.
         21    1    1    2  504  502  0.28049742461E+02  0.88894637860E+02 -0.29449222903E+03  0.30889272839E+03  0.00000000000E+00 0.  1.
         21    1    1    2  505  504  0.12781849731E+03  0.15332404175E+03  0.33532419400E+03  0.39024113714E+03  0.00000000000E+00 0.  1.
         21    1    1    2  506  503 -0.12585136188E+03 -0.21322904523E+03  0.40499455674E+03  0.47468492919E+03  0.00000000000E+00 0. -1.
<scales pt_clust_3="35.84131" pt_clust_4="93.21505" pt_clust_5="236.54328" pt_clust_6="35.84131"></scales>
<clustering>
<clus scale="   35.841">  3  6 -1 -1</clus>
<clus scale="   93.215">  2  4  1 -1</clus>
<clus scale="  236.543">  1  5  2 -1</clus>
<clus scale="  236.543">  1  3  2 -1</clus>
</clustering>
</event>
<event>
 6    0  0.4390142E+002  0.1163669E+03  0.7546771E-02  0.1249214E+00
         21   -1    0    0  503  501  0.00000000000E+00  0.00000000000E+00  0.46489364295E+02  0.46489364295E+02  0.00000000000E+00 0.  1.
         21   -1    0    0  505  502 -0.00000000000E+00 -0.00000000000E+00 -0.20012253270E+04  0.20012253270E+04  0.00000000000E+00 0.  1.
         21    1    1    2  503  502 -0.82985411182E+02  0.73969964408E+02 -0.14604888382E+04  0.14647135490E+04  0.00000000000E+00 0.  1.
         21    1    1    2  504  501  0.20066059450E+02  0.40889249429E+02 -0.87050821023E+02  0.98246744992E+02  0.00000000000E+00 0. -1.
         21    1    1    2  505  506  0.69409629709E+02 -0.16371146353E+03 -0.39618179873E+03  0.43425701794E+03  0.00000000000E+00 0.  1.
         21    1    1    2  506  504 -0.64902779762E+01  0.48852249691E+02 -0.11014504753E+02  0.50497379368E+02  0.00000000000E+00 0.  1.
<scales pt_clust_3="14000.00000" pt_clust_4="45.54753" pt_clust_5="116.36686" pt_clust_6="68.66712"></scales>
<clustering>
<clus scale="   45.548">  1  4  2 -1</clus>
<clus scale="   68.667">  1  6  2 -1</clus>
<clus scale="  116.367">  1  5  2 -1</clus>
<clus scale="   45.548">  1  3  2 -1</clus>
</clustering>
</event>
<event>
 6    0  0.4390142E+002  0.1123634E+03  0.7546771E-02  0.1256255E+00
         21   -1    0    0  503  501  0.00000000000E+00  0.00000000000E+00  0.70674606037E+03  0.70674606037E+03  0.00000000000E+00 0. -1.
         21   -1    0    0  505  502 -0.00000000000E+00 -0.00000000000E+00 -0.10423269931E+03  0.10423269931E+03  0.00000000000E+00 0. -1.
         21    1    1    2  503  502 -0.51866125680E+02  0.12224037626E+03  0.40277061909E+03  0.42409548003E+03  0.00000000000E+00 0. -1.
         21    1    1    2  504  506 -0.40544344674E+02 -0.65080618068E+02  0.18288444810E+03  0.19830797283E+03  0.00000000000E+00 0. -1.
         21    1    1    2  505  504  0.71837101604E+02 -0.84608421920E+02 -0.43450419331E+02  0.11919351143E+03  0.00000000000E+00 0. -1.
         21    1    1    2  506  501  0.20573368750E+02  0.27448663732E+02  0.60308713206E+02  0.69381795385E+02  0.00000000000E+00 0.  1.
<scales pt_clust_3="14000.00000" pt_clust_4="66.53484" pt_clust_5="112.36337" pt_clust_6="34.30295"></scales>
<clustering>
<clus scale="   34.303">  1  6  2 -1</clus>
<clus scale="   66.535">  1  4  2 -1</clus>
<clus scale="  112.363">  2  5  1 -1</clus>
<clus scale="   34.303">  1  3  2 -1</clus>
</clustering>
</event>
<event>
 6    0  0.4390142E+002  0.1518010E+03  0.7546771E-02  0.1198277E+00
         21   -1    0    0  503  501  0.00000000000E+00  0.00000000000E+00  0.15588377823E+04  0.15588377823E+04  0.00000000000E+00 0.  1.
         21   -1    0    0  501  502 -0.00000000000E+00 -0.00000000000E+00 -0.12083885468E+03  0.12083885468E+03  0.00000000000E+00 0. -1.
         21    1    1    2  503  505  0.36143751943E+02  0.22927479549E+02  0.34784467483E+03  0.35046819818E+03  0.00000000000E+00 0.  1.
         21    1    1    2  504  506 -0.12733456464E+03 -0.29261135725E+02 -0.48585789183E+02  0.13939470695E+03  0.00000000000E+00 0. -1.
         21    1    1    2  505  504  0.10666041313E+03 -0.19657257289E+02  0.11517808312E+04  0.11568759374E+04  0.00000000000E+00 0.  1.
         21    1    1    2  506  502 -0.15469600432E+02  0.25990913465E+02 -0.13040789198E+02  0.32937794450E+02  0.00000000000E+00 0.  1.
<scales pt_clust_3="33.36202" pt_clust_4="142.25888" pt_clust_5="33.36202" pt_clust_6="30.24626"></scales>
<clustering>
<clus scale="   30.246">  2  6  1 -1</clus>
<clus scale="   33.362">  3  5 -1 -1</clus>
<clus scale="  142.259">  2  4  1 -1</clus>
<clus scale="  151.801">  1  3  2 -1</clus>
</clustering>
</event>
<event>
 6    0  0.4390142E+002  0.1206145E+03  0.7546771E-02  0.1242087E+00
         21   -1    0    0  505  501  0.00000000000E+00  0.00000000000E+00  0.21553512289E+03  0.21553512289E+03  0.00000000000E+00 0. -1.
         21   -1    0    0  506  502 -0.00000000000E+00 -0.00000000000E+00 -0.26886982987E+03  0.26886982987E+03  0.00000000000E+00 0. -1.
         21    1    1    2  503  502  0.56747701913E+02  0.45864720810E+02 -0.20076808253E+02  0.75676631248E+02  0.00000000000E+00 0.  1.
         21    1    1    2  504  501 -0.12139026888E+03 -0.22694907324E+02  0.11719268151E+03  0.17024917267E+03  0.00000000000E+00 0. -1.
         21    1    1    2  505  503  0.11272225561E+03 -0.53330290485E+02 -0.12400918182E+03  0.17586558495E+03  0.00000000000E+00 0. -1.
         21    1    1    2  506  504 -0.48079688646E+02  0.30160476999E+02 -0.26441398411E+02  0.62613563890E+02  0.00000000000E+00 0. -1.
<scales pt_clust_3="69.97475" pt_clust_4="120.61450" pt_clust_5="14000.00000" pt_clust_6="56.75659"></scales>
<clustering>
<clus scale="   56.757">  2  6  1 -1</clus>
<clus scale="   69.975">  2  3  1 -1</clus>
<clus scale="  120.614">  1  4  2 -1</clus>
<clus scale="  120.614">  1  3  2 -1</clus>
</clustering>
</event>
<event>
 6    0  0.5316676E+002  0.1437017E+03  0.7546771E-02  0.1208433E+00
         21   -1    0    0  504  501  0.00000000000E+00  0.00000000000E+00  0.92127417608E+03  0.92127417608E+03  0.00000000000E+00 0.  1.
         21   -1    0    0  503  502 -0.00000000000E+00 -0.00000000000E+00 -0.99161717190E+03  0.99161717190E+03  0.00000000000E+00 0. -1.
         21    1    1    2  503  501 -0.19901142489E+02 -0.33789778356E+02 -0.29237931348E+02  0.48914836433E+02  0.00000000000E+00 0.  1.
         21    1    1    2  504  505  0.71440551721E+02  0.11578541091E+03  0.90328675962E+03  0.91347522348E+03  0.00000000000E+00 0.  1.
         21    1    1    2  505  506 -0.27051096466E+02 -0.26493399261E+02 -0.56718290100E+03  0.56844534057E+03  0.00000000000E+00 0. -1.
         21    1    1    2  506  502 -0.24488312765E+02 -0.55502233291E+02 -0.37720892309E+03  0.38205594750E+03  0.00000000000E+00 0. -1.
<scales pt_clust_3="39.21485" pt_clust_4="135.84183" pt_clust_5="37.03208" pt_clust_6="37.03208"></scales>
<clustering>
<clus scale="   37.032">  5  6 -1 -1</clus>
<clus scale="   39.215">  2  3  1 -1</clus>
<clus scale="  135.842">  1  4  2 -1</clus>
<clus scale="  135.842">  1  3  2 -1</clus>
</clustering>
</event>
<event>
 6    0  0.4390142E+002  0.1043723E+03  0.7546771E-02  0.1271361E+00
         21   -1    0    0  504  501  0.00000000000E+00  0.00000000000E+00  0.69489749427E+02  0.69489749427E+02  0.00000000000E+00 0.  1.
         21   -1    0    0  506  502 -0.00000000000E+00 -0.00000000000E+00 -0.62948551747E+03  0.62948551747E+03  0.00000000000E+00 0.  1.
         21    1    1    2  503  501 -0.84695927650E+02 -0.11659267141E+03 -0.60380027252E+02  0.15624659637E+03  0.00000000000E+00 0.  1.
         21    1    1    2  504  502  0.19337547963E+00  0.53943383416E+02 -0.39631473110E+02  0.66937132216E+02  0.00000000000E+00 0. -1.
         21    1    1    2  505  503  0.80222269622E+02  0.30750933012E+02 -0.37965780301E+03  0.38925734394E+03  0.00000000000E+00 0.  1.
         21    1    1    2  506  505  0.42802825483E+01  0.31898354979E+02 -0.80326464673E+02  0.86534194374E+02  0.00000000000E+00 0.  1.
<scales pt_clust_3="104.37232" pt_clust_4="57.05931" pt_clust_5="14000.00000" pt_clust_6="32.18425"></scales>
<clustering>
<clus scale="   32.184">  2  6  1 -1</clus>
<clus scale="   57.059">  1  4  2 -1</clus>
<clus scale="  104.372">  1  3  2 -1</clus>
<clus scale="   57.059">  1  3  2 -1</clus>
</clustering>
</event>
<event>
 6    0  0.4390142E+002  0.1171045E+03  0.7546771E-02  0.1247952E+00
         21   -1    0    0  505  501  0.00000000000E+00  0.00000000000E+00  0.10971398337E+03  0.10971398337E+03  0.00000000000E+00 0. -1.
         21   -1    0    0  506  502 -0.00000000000E+00 -0.00000000000E+00 -0.58599115829E+03  0.58599115829E+03  0.00000000000E+00 0. -1.
         21    1    1    2  503  501 -0.73951796716E+02 -0.53923295809E+02  0.15537407199E+02  0.92833189598E+02  0.00000000000E+00 0. -1.
         21    1    1    2  504  502 -0.79125193817E+01  0.52407343950E+02  0.62452528707E+01  0.53367975850E+02  0.00000000000E+00 0. -1.
         21    1    1    2  505  504 -0.41152920341E+02  0.17731800831E+02 -0.99926835578E+01  0.45911146120E+02  0.00000000000E+00 0.  1.
         21    1    1    2  506  503  0.12301723644E+03 -0.16215848973E+02 -0.48806715143E+03  0.50359283009E+03  0.00000000000E+00 0. -1.
<scales pt_clust_3="14000.00000" pt_clust_4="61.93825" pt_clust_5="44.81049" pt_clust_6="117.10448"></scales>
<clustering>
<clus scale="   44.810">  1  5  2 -1</clus>
<clus scale="   61.938">  1  4  2 -1</clus>
<clus scale="  117.104">  2  6  1 -1</clus>
<clus scale="   44.810">  1  3  2 -1</clus>
</clustering>
</event>
<event>
 6    0  0.4390142E+002  0.1904161E+03  0.7546771E-02  0.1158087E+00
         21   -1    0    0  506  501  0.00000000000E+00  0.00000000000E+00  0.46487287430E+04  0.46487287430E+04  0.00000000000E+00 0.  1.
         21   -1    0    0  501  502 -0.00000000000E+00 -0.00000000000E+00 -0.28341083085E+02  0.28341083085E+02  0.00000000000E+00 0.  1.
         21    1    1    2  503  504  0.38946850070E+01 -0.43329931173E+02  0.66345630606E+03  0.66488113340E+03  0.00000000000E+00 0.  1.
         21    1    1    2  504  502 -0.12232075011E+03  0.13944535240E+03  0.31899728532E+03  0.36900764255E+03  0.00000000000E+00 0.  1.
         21    1    1    2  505  503  0.63577986124E+02 -0.97246977923E+02  0.31554240549E+04  0.31575623670E+04  0.00000000000E+00 0.  1.
         21    1    1    2  506  505  0.54848078982E+02  0.11315566996E+01  0.48251001365E+03  0.48561868319E+03  0.00000000000E+00 0. -1.
<scales pt_clust_3="33.02456" pt_clust_4="182.60787" pt_clust_5="33.02456" pt_clust_6="54.85975"></scales>
<clustering>
<clus scale="   33.025">  3  5 -1 -1</clus>
<clus scale="   54.860">  1  6  2 -1</clus>
<clus scale="  182.608">  2  4  1 -1</clus>
<clus scale="   54.860">  1  3  2 -1</clus>
</clustering>
</event>
<event>
 6    0  0.4390142E+002  0.1659834E+03  0.7546771E-02  0.1182102E+00
         21   -1    0    0  505  501  0.00000000000E+00  0.00000000000E+00  0.23858204521E+03  0.23858204521E+03  0.00000000000E+00 0.  1.
         21   -1    0    0  501  502 -0.00000000000E+00 -0.00000000000E+00 -0.73451668631E+03  0.73451668631E+03  0.00000000000E+00 0.  1.
         21    1    1    2  503  506 -0.16860285446E+03  0.84076051785E+01  0.40208813926E+01  0.16886023169E+03  0.00000000000E+00 0.  1.
         21    1    1    2  504  503 -0.43078052583E+02  0.30371363762E+02  0.26697911024E+02  0.59083980943E+02  0.00000000000E+00 0.  1.
         21    1    1    2  505  504  0.64675319646E+02 -0.36112421466E+02  0.86925030704E+02  0.11420580072E+03  0.00000000000E+00 0.  1.
         21    1    1    2  506  502  0.14700558740E+03 -0.26665474740E+01 -0.61357846422E+03  0.63094871817E+03  0.00000000000E+00 0.  1.
<scales pt_clust_3="38.31702" pt_clust_4="38.31702" pt_clust_5="74.07431" pt_clust_6="151.15620"></scales>
<clustering>
<clus scale="   38.317">  3  4 -1 -1</clus>
<clus scale="   74.074">  1  5  2 -1</clus>
<clus scale="  151.156">  2  6  1 -1</clus>
<clus scale="   74.074">  1  3  2 -1</clus>
</clustering>
</event>
<event>
 6    0  0.4390142E+002  0.9063414E+02  0.7546771E-02  0.1301323E+00
         21   -1    0    0  505  501  0.00000000000E+00  0.00000000000E+00  0.25914461352E+02  0.25914461352E+02  0.00000000000E+00 0. -1.
         21   -1    0    0  503  502 -0.00000000000E+00 -0.00000000000E+00 -0.21554277546E+04  0.21554277546E+04  0.00000000000E+00 0.  1.
         21    1    1    2  503  501 -0.41213574135E+02  0.40223631054E+02 -0.58271834258E+03  0.58555714150E+03  0.00000000000E+00 0.  1.
         21    1    1    2  504  506 -0.37081132721E+02 -0.54231954051E+02 -0.26135273834E+03  0.26948352284E+03  0.00000000000E+00 0. -1.
         21    1    1    2  505  504  0.10435553655E+03  0.36119462978E+02 -0.13092123835E+03  0.17127482087E+03  0.00000000000E+00 0. -1.
         21    1    1    2  506  502 -0.26060829692E+02 -0.22111139981E+02 -0.11545209740E+04  0.11550267308E+04  0.00000000000E+00 0.  1.
<scales pt_clust_3="62.69089" pt_clust_4="14000.00000" pt_clust_5="90.63414" pt_clust_6="34.17703"></scales>
<clustering>
<clus scale="   34.177">  2  6  1 -1</clus>
<clus scale="   62.691">  2  3  1 -1</clus>
<clus scale="   90.634">  1  5  2 -1</clus>
<clus scale="   90.634">  1  3  2 -1</clus>
</clustering>
</event>
<event>
 6    0  0.4390142E+002  0.8842390E+02  0.7546771E-02  0.1306714E+00
         21   -1    0    0  505  501  0.00000000000E+00  0.00000000000E+00  0.31955393434E+03  0.31955393434E+03  0.00000000000E+00 0.  1.
         21   -1    0    0  506  502 -0.00000000000E+00 -0.00000000000E+00 -0.28536374590E+03  0.28536374590E+03  0.00000000000E+00 0.  1.
         21    1    1    2  503  502 -0.39328667667E+02  0.79939980178E+02 -0.24871432192E+03  0.26418924743E+03  0.00000000000E+00 0.  1.
         21    1    1    2  504  503  0.67169506086E+02 -0.51349252156E+02  0.13003338752E+03  0.15510373985E+03  0.00000000000E+00 0.  1.
         21    1    1    2  505  504  0.28047434380E+02  0.17094608549E+02  0.54035724953E+02  0.63235621195E+02  0.00000000000E+00 0. -1.
         21    1    1    2  506  501 -0.55888272799E+02 -0.45685336571E+02  0.98835397878E+02  0.12238907177E+03  0.00000000000E+00 0. -1.
<scales pt_clust_3="14000.00000" pt_clust_4="88.42390" pt_clust_5="32.84637" pt_clust_6="58.42371"></scales>
<clustering>
<clus scale="   32.846">  1  5  2 -1</clus>
<clus scale="   58.424">  1  6  2 -1</clus>
<clus scale="   88.424">  1  4  2 -1</clus>
<clus scale="   32.846">  1  3  2 -1</clus>
</clustering>
</event>
<event>
 6    0  0.4390142E+002  0.6793395E+02  0.7546771E-02  0.1367263E+00
         21   -1    0    0  506  501  0.00000000000E+00  0.00000000000E+00  0.76632610636E+02  0.76632610636E+02  0.00000000000E+00 0. -1.
         21   -1    0    0  504  502 -0.00000000000E+00 -0.00000000000E+00 -0.29840858337E+03  0.29840858337E+03  0.00000000000E+00 0. -1.
         21    1    1    2  503  501  0.99210256806E+01 -0.36882988490E+02 -0.43726536696E+00  0.38196502347E+02  0.00000000000E+00 0. -1.
         21    1    1    2  504  503  0.48255124389E+02 -0.28433596572E+02 -0.10049576622E+03  0.11504966524E+03  0.00000000000E+00 0. -1.
         21    1    1    2  505  502 -0.97377442962E+02  0.19091874020E+02 -0.12666552182E+03  0.16090686893E+03  0.00000000000E+00 0. -1.
         21    1    1    2  506  505  0.39201292892E+02  0.46224711043E+02  0.58225806817E+01  0.60888157479E+02  0.00000000000E+00 0. -1.
<scales pt_clust_3="38.19400" pt_clust_4="14000.00000" pt_clust_5="67.93395" pt_clust_6="51.38056"></scales>
<clustering>
<clus scale="   38.194">  1  3  2 -1</clus>
<clus scale="   51.381">  1  6  2 -1</clus>
<clus scale="   67.934">  1  5  2 -1</clus>
<clus scale="   38.194">  1  3  2 -1</clus>
</clustering>
</event>
<event>
 6    0  0.4390142E+002  0.1657867E+03  0.7546771E-02  0.1182314E+00
         21   -1    0    0  505  501  0.00000000000E+00  0.00000000000E+00  0.51843321945E+03  0.51843321945E+03  0.00000000000E+00 0.  1.
         21   -1    0    0  506  502 -0.00000000000E+00 -0.00000000000E+00 -0.98609790871E+02  0.98609790871E+02  0.00000000000E+00 0.  1.
         21    1    1    2  503  502 -0.18660772219E+02  0.11757764149E+03  0.18298336374E+03  0.21830171233E+03  0.00000000000E+00 0.  1.
         21    1    1    2  504  501  0.67976893448E+02 -0.12823376017E+03  0.13164307538E+03  0.19594553985E+03  0.00000000000E+00 0.  1.
         21    1    1    2  505  503 -0.28652352818E+02  0.37167200146E+02  0.14400261836E+03  0.15145663466E+03  0.00000000000E+00 0.  1.
         21    1    1    2  506  504 -0.20663768412E+02 -0.26511081459E+02 -0.38805628905E+02  0.51339123481E+02  0.00000000000E+00 0.  1.
<scales pt_clust_3="38.74903" pt_clust_4="154.49374" pt_clust_5="38.74903" pt_clust_6="33.61293"></scales>
<clustering>
<clus scale="   33.613">  2  6  1 -1</clus>
<clus scale="   38.749">  3  5 -1 -1</clus>
<clus scale="  154.494">  2  4  1 -1</clus>
<clus scale="  165.787">  1  3  2 -1</clus>
</clustering>
</event>
<event>
 6    0  0.4390142E+002  0.7578187E+02  0.7546771E-02  0.1341467E+00
         21   -1    0    0  503  501  0.00000000000E+00  0.00000000000E+00  0.53563218588E+02  0.53563218588E+02  0.00000000000E+00 0. -1.
         21   -1    0    0  505  502 -0.00000000000E+00 -0.00000000000E+00 -0.94150220582E+03  0.94150220582E+03  0.00000000000E+00 0.  1.
         21    1    1    2  503  506 -0.16319328457E+02 -0.43278132762E+02 -0.20995939057E+02  0.50795144586E+02  0.00000000000E+00 0. -1.
         21    1    1    2  504  501 -0.34885606508E+02  0.94038867423E+02 -0.77210069783E+02  0.12657688969E+03  0.00000000000E+00 0. -1.
         21    1    1    2  505  504 -0.33707613303E+02 -0.45805710989E+02 -0.66073145904E+03  0.66317450744E+03  0.00000000000E+00 0.  1.
         21    1    1    2  506  502  0.84912548267E+02 -0.49550236729E+01 -0.12900151934E+03  0.15451888268E+03  0.00000000000E+00 0. -1.
<scales pt_clust_3="46.25275" pt_clust_4="14000.00000" pt_clust_5="58.27968" pt_clust_6="75.78187"></scales>
<clustering>
<clus scale="   46.253">  1  3  2 -1</clus>
<clus scale="   58.280">  2  5  1 -1</clus>
<clus scale="   75.782">  2  6  1 -1</clus>
<clus scale="   46.253">  1  3  2 -1</clus>
</clustering>
</event>
<event>
 6    0  0.4390142E+002  0.1809086E+03  0.7546771E-02  0.1166927E+00
         21   -1    0    0  505  501  0.00000000000E+00  0.00000000000E+00  0.17097546609E+04  0.17097546609E+04  0.00000000000E+00 0. -1.
         21   -1    0    0  506  502 -0.00000000000E+00 -0.00000000000E+00 -0.10907165890E+03  0.10907165890E+03  0.00000000000E+00 0. -1.
         21    1    1    2  503  501 -0.14431295997E+03 -0.79761413840E+02  0.89849728360E+03  0.91350176913E+03  0.00000000000E+00 0. -1.
         21    1    1    2  504  503  0.20910878810E+03  0.63857082925E+02  0.71737652201E+03  0.74995552310E+03  0.00000000000E+00 0. -1.
         21    1    1    2  505  502 -0.99411558939E+02  0.30111961391E+02  0.17917964595E+02  0.10540608011E+03  0.00000000000E+00 0. -1.
         21    1    1    2  506  504  0.34615730808E+02 -0.14207630477E+02 -0.33108768234E+02  0.49962947442E+02  0.00000000000E+00 0. -1.
<scales pt_clust_3="14000.00000" pt_clust_4="180.90862" pt_clust_5="79.77921" pt_clust_6="37.41798"></scales>
<clustering>
<clus scale="   37.418">  2  6  1 -1</clus>
<clus scale="   79.779">  2  5  1 -1</clus>
<clus scale="  180.909">  2  4  1 -1</clus>
<clus scale="  180.909">  1  3  2 -1</clus>
</clustering>
</event>
<event>
 6    0  0.4390142E+002  0.1365452E+03  0.7546771E-02  0.1218055E+00
         21   -1    0    0  505  501  0.00000000000E+00  0.00000000000E+00  0.13585052857E+03  0.13585052857E+03  0.00000000000E+00 0.  1.
         21   -1    0    0  504  502 -0.00000000000E+00 -0.00000000000E+00 -0.60140856874E+03  0.60140856874E+03  0.00000000000E+00 0.  1.
         21    1    1    2  503  502 -0.14585625758E+03  0.36182262574E+02  0.48301040145E+02  0.15784864421E+03  0.00000000000E+00 0.  1.
         21    1    1    2  504  506  0.13549732546E+03 -0.29271208018E+01 -0.44644842468E+03  0.46656648952E+03  0.00000000000E+00 0.  1.
         21    1    1    2  505  503 -0.34677973621E+02 -0.29039646798E+02 -0.35186515604E+02  0.57305792211E+02  0.00000000000E+00 0.  1.
         21    1    1    2  506  501  0.45036905748E+02 -0.42154949739E+01 -0.32224140035E+02  0.55538171362E+02  0.00000000000E+00 0. -1.
<scales pt_clust_3="136.54520" pt_clust_4="14000.00000" pt_clust_5="45.23122" pt_clust_6="42.36785"></scales>
<clustering>
<clus scale="   45.231">  1  5  2 -1</clus>
<clus scale="   42.368">  1  6  2 -1</clus>
<clus scale="  136.545">  1  3  2 -1</clus>
<clus scale="   45.231">  1  3  2 -1</clus>
</clustering>
</event>
<event>
 6    0  0.4390142E+002  0.1598657E+03  0.7546771E-02  0.1188848E+00
         21   -1    0    0  505  501  0.00000000000E+00  0.00000000000E+00  0.64289091844E+02  0.64289091844E+02  0.00000000000E+00 0. -1.
         21   -1    0    0  503  502 -0.00000000000E+00 -0.00000000000E+00 -0.17386833126E+04  0.17386833126E+04  0.00000000000E+00 0.  1.
         21    1    1    2  503  506 -0.39396976208E+02 -0.28301184177E+01 -0.12119014151E+03  0.12746443310E+03  0.00000000000E+00 0. -1.
         21    1    1    2  504  502 -0.13282574077E+03 -0.87443938003E+01 -0.14385772142E+04  0.14447226527E+04  0.00000000000E+00 0.  1.
         21    1    1    2  505  504  0.61203014216E+02  0.25690702580E+02 -0.96933750470E+02  0.11748179914E+03  0.00000000000E+00 0. -1.
         21    1    1    2  506  501  0.11101970276E+03 -0.14116190362E+02 -0.17693114508E+02  0.11330351951E+03  0.00000000000E+00 0. -1.
<scales pt_clust_3="39.49850" pt_clust_4="14000.00000" pt_clust_5="63.89673" pt_clust_6="159.86571"></scales>
<clustering>
<clus scale="   39.498">  2  3  1 -1</clus>
<clus scale="   63.897">  1  5  2 -1</clus>
<clus scale="  159.866">  1  6  2 -1</clus>
<clus scale="   63.897">  1  3  2 -1</clus>
</clustering>
</event>
<event>
 6    0  0.4390142E+002  0.1123506E+03  0.7546771E-02  0.1256278E+00
         21   -1    0    0  506  501  0.00000000000E+00  0.00000000000E+00  0.18582734632E+03  0.18582734632E+03  0.00000000000E+00 0.  1.
         21   -1    0    0  505  502 -0.00000000000E+00 -0.00000000000E+00 -0.44754165097E+03  0.44754165097E+03  0.00000000000E+00 0.  1.
         21    1    1    2  503  504 -0.77185467266E+02  0.14063635817E+02 -0.13554595082E+03  0.15661445333E+03  0.00000000000E+00 0.  1.
         21    1    1    2  504  501  0.11115760193E+03 -0.38396233913E+02  0.13438999901E+03  0.17858038828E+03  0.00000000000E+00 0.  1.
         21    1    1    2  505  503  0.16285014187E+02  0.25686304051E+02 -0.24303775756E+03  0.24493333686E+03  0.00000000000E+00 0.  1.
         21    1    1    2  506  502 -0.50257148852E+02 -0.13537059555E+01 -0.17520595275E+02  0.53240818827E+02  0.00000000000E+00 0. -1.
<scales pt_clust_3="14000.00000" pt_clust_4="112.35064" pt_clust_5="30.41361" pt_clust_6="47.52852"></scales>
<clustering>
<clus scale="   30.414">  2  5  1 -1</clus>
<clus scale="   47.529">  2  6  1 -1</clus>
<clus scale="  112.351">  1  4  2 -1</clus>
<clus scale="  112.351">  1  3  2 -1</clus>
</clustering>
</event>
<event>
 6    0  0.4390142E+002  0.1166225E+03  0.7546771E-02  0.1248775E+00
         21   -1    0    0  504  501  0.00000000000E+00  0.00000000000E+00  0.13522759242E+03  0.13522759242E+03  0.00000000000E+00 0. -1.
         21   -1    0    0  506  502 -0.00000000000E+00 -0.00000000000E+00 -0.12899477010E+04  0.12899477010E+04  0.00000000000E+00 0.  1.
         21    1    1    2  503  502 -0.13272116357E+02 -0.27571156854E+02 -0.88209114056E+03  0.88262171853E+03  0.00000000000E+00 0.  1.
         21    1    1    2  504  503  0.11465175321E+03  0.95469810795E+02 -0.35046742960E+03  0.38090278090E+03  0.00000000000E+00 0. -1.
         21    1    1    2  505  501 -0.37552538218E+02 -0.19368456115E+02  0.69099728398E+02  0.80994460820E+02  0.00000000000E+00 0. -1.
         21    1    1    2  506  505 -0.63827098634E+02 -0.48530197826E+02  0.87387331917E+01  0.80656333161E+02  0.00000000000E+00 0. -1.
<scales pt_clust_3="30.59931" pt_clust_4="116.62251" pt_clust_5="42.61054" pt_clust_6="14000.00000"></scales>
<clustering>
<clus scale="   30.599">  2  3  1 -1</clus>
<clus scale="   42.611">  1  5  2 -1</clus>
<clus scale="  116.623">  2  4  1 -1</clus>
<clus scale="   42.611">  1  3  2 -1</clus>
</clustering>
</event>
<event>
 6    0  0.4390142E+002  0.1367292E+03  0.7546771E-02  0.1217799E+00
         21   -1    0    0  505  501  0.00000000000E+00  0.00000000000E+00  0.70339488125E+02  0.70339488125E+02  0.00000000000E+00 0.  1.
         21   -1    0    0  504  502 -0.00000000000E+00 -0.00000000000E+00 -0.78459163206E+03  0.78459163206E+03  0.00000000000E+00 0. -1.
         21    1    1    2  503  506  0.46294327421E+02  0.12212579955E+03 -0.10641854084E+03  0.16847190122E+03  0.00000000000E+00 0. -1.
         21    1    1    2  504  501  0.28722268535E+02 -0.14362688448E+03 -0.56234354070E+03  0.58110576354E+03  0.00000000000E+00 0. -1.
         21    1    1    2  505  503 -0.43864429157E+02  0.19476944256E+02  0.25492670787E+01  0.48061817126E+02  0.00000000000E+00 0.  1.
         21    1    1    2  506  502 -0.31152166799E+02  0.20241406669E+01 -0.48039329476E+02  0.57291638292E+02  0.00000000000E+00 0. -1.
<scales pt_clust_3="136.72923" pt_clust_4="14000.00000" pt_clust_5="48.90606" pt_clust_6="31.21786"></scales>
<clustering>
<clus scale="   31.218">  2  6  1 -1</clus>
<clus scale="   48.906">  1  5  2 -1</clus>
<clus scale="  136.729">  1  3  2 -1</clus>
<clus scale="   48.906">  1  3  2 -1</clus>
</clustering>
</event>
<event>
 6    0  0.4390142E+002  0.9329413E+02  0.7546771E-02  0.1295065E+00
         21   -1    0    0  506  501  0.00000000000E+00  0.00000000000E+00  0.19774180713E+03  0.19774180713E+03  0.00000000000E+00 0. -1.
         21   -1    0    0  503  502 -0.00000000000E+00 -0.00000000000E+00 -0.52390977836E+03  0.52390977836E+03  0.00000000000E+00 0. -1.
         21    1    1    2  503  501  0.35213780246E+02 -0.10506397658E+03  0.14456615680E+03  0.18214780587E+03  0.00000000000E+00 0. -1.
         21    1    1    2  504  505  0.41129245464E+02  0.36559182383E+02 -0.83851579736E+02  0.10029594246E+03  0.00000000000E+00 0. -1.
         21    1    1    2  505  502 -0.18234069815E+02  0.36310824307E+02 -0.36787329244E+03  0.37011041130E+03  0.00000000000E+00 0. -1.
         21    1    1    2  506  504 -0.58108955895E+02  0.32193969888E+02 -0.19009255854E+02  0.69097425860E+02  0.00000000000E+00 0. -1.
<scales pt_clust_3="14000.00000" pt_clust_4="65.55822" pt_clust_5="40.63197" pt_clust_6="93.29413"></scales>
<clustering>
<clus scale="   40.632">  2  5  1 -1</clus>
<clus scale="   65.558">  2  4  1 -1</clus>
<clus scale="   93.294">  2  6  1 -1</clus>
<clus scale="   93.294">  1  3  2 -1</clus>
</clustering>
</event>
<event>
 6    0  0.4390142E+002  0.8189852E+02  0.7546771E-02  0.1323748E+00
         21   -1    0    0  504  501  0.00000000000E+00  0.00000000000E+00  0.32055174022E+03  0.32055174022E+03  0.00000000000E+00 0. -1.
         21   -1    0    0  506  502 -0.00000000000E+00 -0.00000000000E+00 -0.19916683629E+03  0.19916683629E+03  0.00000000000E+00 0. -1.
         21    1    1    2  503  502 -0.74353830913E+02  0.93960878534E+01 -0.13510018171E+03  0.15449542950E+03  0.00000000000E+00 0. -1.
         21    1    1    2  504  503 -0.18014100692E+02 -0.77379498124E+02  0.98396997757E+02  0.12646763903E+03  0.00000000000E+00 0. -1.
         21    1    1    2  505  501  0.39834824520E+02 -0.93370714975E+01  0.13693101154E+03  0.14291289679E+03  0.00000000000E+00 0. -1.
         21    1    1    2  506  505  0.52533107085E+02  0.77320481768E+02  0.21157076343E+02  0.95842611193E+02  0.00000000000E+00 0. -1.
<scales pt_clust_3="72.76091" pt_clust_4="14000.00000" pt_clust_5="40.91447" pt_clust_6="81.89852"></scales>
<clustering>
<clus scale="   40.914">  1  5  2 -1</clus>
<clus scale="   72.761">  2  3  1 -1</clus>
<clus scale="   81.899">  2  6  1 -1</clus>
<clus scale="   40.914">  1  3  2 -1</clus>
</clustering>
</event>
<event>
 6    0  0.4390142E+002  0.7535485E+02  0.7546771E-02  0.1342776E+00
         21   -1    0    0  505  501  0.00000000000E+00  0.00000000000E+00  0.31781388168E+03  0.31781388168E+03  0.00000000000E+00 0. -1.
         21   -1    0    0  503  502 -0.00000000000E+00 -0.00000000000E+00 -0.44135848566E+03  0.44135848566E+03  0.00000000000E+00 0. -1.
         21    1    1    2  503  504 -0.70511915762E+01  0.45007587312E+02 -0.62290066147E+02  0.77171591658E+02  0.00000000000E+00 0.  1.
         21    1    1    2  504  501 -0.13871305971E+02 -0.73919611294E+02  0.14413483703E+03  0.16257728411E+03  0.00000000000E+00 0. -1.
         21    1    1    2  505  506  0.58337787843E+02  0.59166868249E+02  0.14426037579E+03  0.16647844248E+03  0.00000000000E+00 0. -1.
         21    1    1    2  506  502 -0.37415290295E+02 -0.30254844267E+02 -0.34964975064E+03  0.35294504909E+03  0.00000000000E+00 0. -1.
<scales pt_clust_3="45.55658" pt_clust_4="14000.00000" pt_clust_5="75.35485" pt_clust_6="45.76210"></scales>
<clustering>
<clus scale="   45.557">  2  3  1 -1</clus>
<clus scale="   45.762">  2  6  1 -1</clus>
<clus scale="   75.355">  2  5  1 -1</clus>
<clus scale="   75.355">  1  3  2 -1</clus>
</clustering>
</event>
<event>
 6    0  0.4390142E+002  0.8590326E+02  0.7546771E-02  0.1313087E+00
         21   -1    0    0  505  501  0.00000000000E+00  0.00000000000E+00  0.66000769093E+03  0.66000769093E+03  0.00000000000E+00 0. -1.
         21   -1    0    0  503  502 -0.00000000000E+00 -0.00000000000E+00 -0.38818359822E+03  0.38818359822E+03  0.00000000000E+00 0.  1.
         21    1    1    2  503  504  0.12798233858E+02  0.75385701959E+02 -0.30000769654E+03  0.30959879979E+03  0.00000000000E+00 0.  1.
         21    1    1    2  504  506  0.12368457266E+02 -0.15693344811E+03 -0.77089218069E+00  0.15742198114E+03  0.00000000000E+00 0.  1.
         21    1    1    2  505  502 -0.90257666670E+01  0.32159041964E+02  0.94046967708E+02  0.99802307484E+02  0.00000000000E+00 0. -1.
         21    1    1    2  506  501 -0.16140924457E+02  0.49388704192E+02  0.47855571372E+03  0.48136820074E+03  0.00000000000E+00 0. -1.
<scales pt_clust_3="76.72162" pt_clust_4="85.90326" pt_clust_5="33.40162" pt_clust_6="14000.00000"></scales>
<clustering>
<clus scale="   33.402">  1  5  2 -1</clus>
<clus scale="   76.722">  2  3  1 -1</clus>
<clus scale="   85.903">  2  4  1 -1</clus>
<clus scale="   33.402">  1  3  2 -1</clus>
</clustering>
</event>
<event>
 6    0  0.4390142E+002  0.2212846E+03  0.7546771E-02  0.1132929E+00
         21   -1    0    0  505  501  0.00000000000E+00  0.00000000000E+00  0.46929159564E+02  0.46929159564E+02  0.00000000000E+00 0. -1.
         21   -1    0    0  506  502 -0.00000000000E+00 -0.00000000000E+00 -0.40950576876E+04  0.40950576876E+04  0.00000000000E+00 0. -1.
         21    1    1    2  503  501  0.61775692099E+02 -0.10299384917E+02 -0.12412671291E+03  0.13903148680E+03  0.00000000000E+00 0. -1.
         21    1    1    2  504  502 -0.18838120636E+02 -0.40662320348E+02 -0.29486442433E+04  0.29489847698E+04  0.00000000000E+00 0. -1.
         21    1    1    2  505  504 -0.16388822964E+03  0.14879639464E+03 -0.73544419700E+03  0.76803508108E+03  0.00000000000E+00 0. -1.
         21    1    1    2  506  503  0.12095065818E+03 -0.97834689377E+02 -0.23991337491E+03  0.28593550955E+03  0.00000000000E+00 0. -1.
<scales pt_clust_3="34.69401" pt_clust_4="44.81405" pt_clust_5="214.42246" pt_clust_6="34.69401"></scales>
<clustering>
<clus scale="   34.694">  3  6 -1 -1</clus>
<clus scale="   44.814">  2  4  1 -1</clus>
<clus scale="  214.422">  2  5  1 -1</clus>
<clus scale="  221.285">  1  3  2 -1</clus>
</clustering>
</event>
<event>
 6    0  0.4390142E+002  0.8399575E+02  0.7546771E-02  0.1318080E+00
         21   -1    0    0  505  501  0.00000000000E+00  0.00000000000E+00  0.16960607587E+04  0.16960607587E+04  0.00000000000E+00 0. -1.
         21   -1    0    0  506  502 -0.00000000000E+00 -0.00000000000E+00 -0.54786918546E+02  0.54786918546E+02  0.00000000000E+00 0. -1.
         21    1    1    2  503  502 -0.44128923592E+02  0.87335152224E+01 -0.15009087963E+02  0.47422662378E+02  0.00000000000E+00 0. -1.
         21    1    1    2  504  501  0.11070743523E+03 -0.28613262613E+02  0.58501629979E+03  0.59608634109E+03  0.00000000000E+00 0. -1.
         21    1    1    2  505  503 -0.68447701785E+02 -0.48176316535E+02  0.10165612859E+04  0.10200014183E+04  0.00000000000E+00 0. -1.
         21    1    1    2  506  504  0.18691901463E+01  0.68056063926E+02  0.54705342507E+02  0.87337255554E+02  0.00000000000E+00 0. -1.
<scales pt_clust_3="44.98484" pt_clust_4="83.99575" pt_clust_5="14000.00000" pt_clust_6="79.45686"></scales>
<clustering>
<clus scale="   44.985">  2  3  1 -1</clus>
<clus scale="   79.457">  2  6  1 -1</clus>
<clus scale="   83.996">  2  4  1 -1</clus>
<clus scale="   83.996">  1  3  2 -1</clus>
</clustering>
</event>
<event>
 6    0  0.4390142E+002  0.1750136E+03  0.7546771E-02  0.1172718E+00
         21   -1    0    0  503  501  0.00000000000E+00  0.00000000000E+00  0.37708004018E+03  0.37708004018E+03  0.00000000000E+00 0.  1.
         21   -1    0    0  505  502 -0.00000000000E+00 -0.00000000000E+00 -0.22214893383E+03  0.22214893383E+03  0.00000000000E+00 0.  1.
         21    1    1    2  503  504 -0.16863550717E+02 -0.60191350506E+02  0.12443268465E+03  0.13925110782E+03  0.00000000000E+00 0.  1.
         21    1    1    2  504  502 -0.15899755107E+03  0.36718664436E+02 -0.13341286763E+03  0.21077825982E+03  0.00000000000E+00 0.  1.
         21    1    1    2  505  506  0.95888056930E+02  0.25744768609E+02  0.12669313016E+03  0.16096105679E+03  0.00000000000E+00 0. -1.
         21    1    1    2  506  501  0.79973044853E+02 -0.22720825391E+01  0.37218159162E+02  0.88238549589E+02  0.00000000000E+00 0.  1.
<scales pt_clust_3="62.50902" pt_clust_4="163.93390" pt_clust_5="55.01108" pt_clust_6="55.01108"></scales>
<clustering>
<clus scale="   55.011">  5  6 -1 -1</clus>
<clus scale="   62.509">  1  3  2 -1</clus>
<clus scale="  163.934">  2  4  1 -1</clus>
<clus scale="   62.509">  1  3  2 -1</clus>
</clustering>
</event>
<event>
 6    0  0.4390142E+002  0.8445726E+02  0.7546771E-02  0.1316858E+00
         21   -1    0    0  503  501  0.00000000000E+00  0.00000000000E+00  0.56026054723E+03  0.56026054723E+03  0.00000000000E+00 0. -1.
         21   -1    0    0  504  502 -0.00000000000E+00 -0.00000000000E+00 -0.47687727368E+03  0.47687727368E+03  0.00000000000E+00 0. -1.
         21    1    1    2  503  506  0.81902734600E+02 -0.53462157233E+02  0.41300585873E+03  0.42442914549E+03  0.00000000000E+00 0. -1.
         21    1    1    2  504  505  0.62982334408E+02  0.13930326761E+02 -0.67784536603E+01  0.64859663005E+02  0.00000000000E+00 0. -1.
         21    1    1    2  505  501 -0.20042561528E+02  0.66510164851E+02  0.91148886952E+02  0.11460116009E+03  0.00000000000E+00 0.  1.
         21    1    1    2  506  502 -0.12484250748E+03 -0.26978334379E+02 -0.41399301847E+03  0.43324785232E+03  0.00000000000E+00 0. -1.
<scales pt_clust_3="84.45726" pt_clust_4="64.50448" pt_clust_5="14000.00000" pt_clust_6="65.77144"></scales>
<clustering>
<clus scale="   64.504">  2  4  1 -1</clus>
<clus scale="   65.771">  2  6  1 -1</clus>
<clus scale="   84.457">  1  3  2 -1</clus>
<clus scale="   84.457">  1  3  2 -1</clus>
</clustering>
</event>
<event>
 6    0  0.4390142E+002  0.1156897E+03  0.7546771E-02  0.1250382E+00
         21   -1    0    0  504  501  0.00000000000E+00  0.00000000000E+00  0.15992846610E+03  0.15992846610E+03  0.00000000000E+00 0. -1.
         21   -1    0    0  503  502 -0.00000000000E+00 -0.00000000000E+00 -0.60553773935E+03  0.60553773935E+03  0.00000000000E+00 0. -1.
         21    1    1    2  503  505 -0.10216593873E+02 -0.35670893686E+02 -0.18171922601E+03  0.18546878052E+03  0.00000000000E+00 0. -1.
         21    1    1    2  504  506 -0.42551829128E+02  0.12853085108E+02  0.23735369624E+02  0.50390750442E+02  0.00000000000E+00 0. -1.
         21    1    1    2  505  501 -0.95019838390E+02 -0.13275666453E+02 -0.35168544825E+03  0.36453760783E+03  0.00000000000E+00 0. -1.
         21    1    1    2  506  502  0.14778826139E+03  0.36093475031E+02  0.64060031390E+02  0.16506906666E+03  0.00000000000E+00 0. -1.
<scales pt_clust_3="37.10514" pt_clust_4="44.44922" pt_clust_5="14000.00000" pt_clust_6="115.68969"></scales>
<clustering>
<clus scale="   37.105">  2  3  1 -1</clus>
<clus scale="   44.449">  1  4  2 -1</clus>
<clus scale="  115.690">  1  6  2 -1</clus>
<clus scale="   44.449">  1  3  2 -1</clus>
</clustering>
</event>
<event>
 6    0  0.4390142E+002  0.1316354E+03  0.7546771E-02  0.1225049E+00
         21   -1    0    0  502  501  0.00000000000E+00  0.00000000000E+00  0.22123829473E+03  0.22123829473E+03  0.00000000000E+00 0. -1.
         21   -1    0    0  505  502 -0.00000000000E+00 -0.00000000000E+00 -0.19446318539E+04  0.19446318539E+04  0.00000000000E+00 0.  1.
         21    1    1    2  503  504  0.30733853930E+02 -0.38234027653E+02  0.41291758153E+02  0.64120355109E+02  0.00000000000E+00 0. -1.
         21    1    1    2  504  501  0.80973976372E+02 -0.13760956026E+02  0.13240753139E+03  0.15581368082E+03  0.00000000000E+00 0. -1.
         21    1    1    2  505  506 -0.97742082220E+02 -0.88172301580E+02 -0.16920936735E+04  0.16972061953E+04  0.00000000000E+00 0.  1.
         21    1    1    2  506  503 -0.13965748083E+02  0.14016728526E+03 -0.20499917518E+03  0.24872991739E+03  0.00000000000E+00 0. -1.
<scales pt_clust_3="42.45182" pt_clust_4="42.45182" pt_clust_5="131.63537" pt_clust_6="118.99079"></scales>
<clustering>
<clus scale="   42.452">  3  4 -1 -1</clus>
<clus scale="  131.635">  2  5  1 -1</clus>
<clus scale="  118.991">  2  6  1 -1</clus>
<clus scale="  131.635">  1  3  2 -1</clus>
</clustering>
</event>
<event>
 6    0  0.4390142E+002  0.1055869E+03  0.7546771E-02  0.1268968E+00
         21   -1    0    0  505  501  0.00000000000E+00  0.00000000000E+00  0.13572440895E+03  0.13572440895E+03  0.00000000000E+00 0. -1.
         21   -1    0    0  501  502 -0.00000000000E+00 -0.00000000000E+00 -0.50728750635E+03  0.50728750635E+03  0.00000000000E+00 0. -1.
         21    1    1    2  503  502 -0.46278254286E+02 -0.16167906770E+02 -0.31101098472E+03  0.31485061640E+03  0.00000000000E+00 0. -1.
         21    1    1    2  504  503  0.79510950315E+02 -0.10359441426E+03 -0.11767175324E+03  0.17578519675E+03  0.00000000000E+00 0. -1.
         21    1    1    2  505  506  0.41861797432E+01  0.52260752359E+02  0.53806839419E+02  0.75125803199E+02  0.00000000000E+00 0. -1.
         21    1    1    2  506  504 -0.37418875772E+02  0.67501568669E+02  0.33128011522E+01  0.77250298953E+02  0.00000000000E+00 0. -1.
<scales pt_clust_3="49.02120" pt_clust_4="14000.00000" pt_clust_5="51.40045" pt_clust_6="105.58691"></scales>
<clustering>
<clus scale="   49.021">  2  3  1 -1</clus>
<clus scale="   51.400">  1  5  2 -1</clus>
<clus scale="  105.587">  1  6  2 -1</clus>
<clus scale="   51.400">  1  3  2 -1</clus>
</clustering>
</event>
<event>
 6    0  0.4390142E+002  0.7130774E+02  0.7546771E-02  0.1355702E+00
         21   -1    0    0  504  501  0.00000000000E+00  0.00000000000E+00  0.10770049821E+04  0.10770049821E+04  0.00000000000E+00 0.  1.
         21   -1    0    0  506  502 -0.00000000000E+00 -0.00000000000E+00 -0.14685479418E+03  0.14685479418E+03  0.00000000000E+00 0. -1.
         21    1    1    2  503  505 -0.45162123375E+02 -0.51027848553E+02  0.11283805228E+03  0.13181761930E+03  0.00000000000E+00 0.  1.
         21    1    1    2  504  502 -0.75840689920E+02  0.41241112228E+02 -0.31576725841E+02  0.91922408585E+02  0.00000000000E+00 0. -1.
         21    1    1    2  505  501  0.70940227143E+02 -0.52993836901E+01  0.91391510132E+03  0.91667955781E+03  0.00000000000E+00 0.  1.
         21    1    1    2  506  503  0.50062586153E+02  0.15086120016E+02 -0.65026239791E+02  0.83440190621E+02  0.00000000000E+00 0. -1.
<scales pt_clust_3="62.43444" pt_clust_4="71.30774" pt_clust_5="14000.00000" pt_clust_6="52.28627"></scales>
<clustering>
<clus scale="   52.286">  2  6  1 -1</clus>
<clus scale="   62.434">  2  3  1 -1</clus>
<clus scale="   71.308">  2  4  1 -1</clus>
<clus scale="   71.308">  1  3  2 -1</clus>
</clustering>
</event>
<event>
 6    0  0.4390142E+002  0.1074356E+03  0.7546771E-02  0.1265394E+00
         21   -1    0    0  504  501  0.00000000000E+00  0.00000000000E+00  0.38398632604E+03  0.38398632604E+03  0.00000000000E+00 0.  1.
         21   -1    0    0  503  502 -0.00000000000E+00 -0.00000000000E+00 -0.50366094738E+03  0.50366094738E+03  0.00000000000E+00 0.  1.
         21    1    1    2  503  501  0.46252171376E+02  0.44869618168E+02 -0.98705263999E+00  0.64447810393E+02  0.00000000000E+00 0. -1.
         21    1    1    2  504  506 -0.66583823700E+02 -0.62294379588E+02  0.23695120324E+03  0.25388947994E+03  0.00000000000E+00 0.  1.
         21    1    1    2  505  502  0.82604882879E+02  0.19017749164E+02 -0.44907887896E+03  0.45700884126E+03  0.00000000000E+00 0.  1.
         21    1    1    2  506  505 -0.62273230556E+02 -0.15929877439E+01  0.93440107027E+02  0.11230114182E+03  0.00000000000E+00 0.  1.
<scales pt_clust_3="64.44025" pt_clust_4="53.89347" pt_clust_5="85.38728" pt_clust_6="53.89347"></scales>
<clustering>
<clus scale="   53.893">  4  6 -1 -1</clus>
<clus scale="   64.440">  1  3  2 -1</clus>
<clus scale="   85.387">  2  5  1 -1</clus>
<clus scale="   64.440">  1  3  2 -1</clus>
</clustering>
</event>
<event>
 6    0  0.4390142E+002  0.1182717E+03  0.7546771E-02  0.1245976E+00
         21   -1    0    0  503  501  0.00000000000E+00  0.00000000000E+00  0.47293120123E+02  0.47293120123E+02  0.00000000000E+00 0. -1.
         21   -1    0    0  504  502 -0.00000000000E+00 -0.00000000000E+00 -0.17732677776E+04  0.17732677776E+04  0.00000000000E+00 0. -1.
         21    1    1    2  503  506  0.15603896432E+02 -0.64774597167E+02 -0.21018386774E+02  0.69864172539E+02  0.00000000000E+00 0. -1.
         21    1    1    2  504  505  0.11112130795E+03  0.10113992192E+02 -0.79213684773E+03  0.79995688850E+03  0.00000000000E+00 0. -1.
         21    1    1    2  505  501 -0.28581849238E+01  0.87047088214E+02 -0.12359981060E+03  0.15120277103E+03  0.00000000000E+00 0. -1.
         21    1    1    2  506  502 -0.12386701946E+03 -0.32386483240E+02 -0.78921961236E+03  0.79953706565E+03  0.00000000000E+00 0. -1.
<scales pt_clust_3="66.62755" pt_clust_4="118.27172" pt_clust_5="48.40396" pt_clust_6="14000.00000"></scales>
<clustering>
<clus scale="   66.628">  1  3  2 -1</clus>
<clus scale="   48.404">  1  5  2 -1</clus>
<clus scale="  118.272">  2  4  1 -1</clus>
<clus scale="   66.628">  1  3  2 -1</clus>
</clustering>
</event>
<event>
 6    0  0.4390142E+002  0.1134807E+03  0.7546771E-02  0.1254257E+00
         21   -1    0    0  506  501  0.00000000000E+00  0.00000000000E+00  0.25816983048E+02  0.25816983048E+02  0.00000000000E+00 0.  1.
         21   -1    0    0  503  502 -0.00000000000E+00 -0.00000000000E+00 -0.79591970280E+03  0.79591970280E+03  0.00000000000E+00 0.  1.
         21    1    1    2  503  505  0.29106450706E+02  0.42105536444E+02 -0.11468411502E+03  0.12558864563E+03  0.00000000000E+00 0.  1.
         21    1    1    2  504  502 -0.35508002985E+02  0.83906548695E+01 -0.22733537697E+03  0.23024464160E+03  0.00000000000E+00 0.  1.
         21    1    1    2  505  501  0.47519598605E+02  0.41584643189E+02 -0.71770538656E+02  0.95595005203E+02  0.00000000000E+00 0.  1.
         21    1    1    2  506  504 -0.41118046325E+02 -0.92080834503E+02 -0.35631268910E+03  0.37030839341E+03  0.00000000000E+00 0.  1.
<scales pt_clust_3="32.22747" pt_clust_4="36.48591" pt_clust_5="32.22747" pt_clust_6="107.68752"></scales>
<clustering>
<clus scale="   32.227">  3  5 -1 -1</clus>
<clus scale="   36.486">  2  4  1 -1</clus>
<clus scale="  107.688">  2  6  1 -1</clus>
<clus scale="  113.481">  1  3  2 -1</clus>
</clustering>
</event>
<event>
 6    0  0.4390142E+002  0.2634240E+03  0.7546771E-02  0.1105103E+00
         21   -1    0    0  504  501  0.00000000000E+00  0.00000000000E+00  0.56042103997E+03  0.56042103997E+03  0.00000000000E+00 0.  1.
         21   -1    0    0  506  502 -0.00000000000E+00 -0.00000000000E+00 -0.39863336263E+03  0.39863336263E+03  0.00000000000E+00 0. -1.
         21    1    1    2  503  501  0.14500583095E+03  0.29520652677E+02  0.21370943110E+03  0.25994207217E+03  0.00000000000E+00 0.  1.
         21    1    1    2  504  502 -0.26657910660E+03  0.23200720346E+01  0.16659332592E+03  0.31436147832E+03  0.00000000000E+00 0.  1.
         21    1    1    2  505  503  0.93305805464E+02 -0.13289520003E+02  0.55021376806E+02  0.10913265589E+03  0.00000000000E+00 0.  1.
         21    1    1    2  506  505  0.28267470182E+02 -0.18551204708E+02 -0.27353645649E+03  0.27561819623E+03  0.00000000000E+00 0. -1.
<scales pt_clust_3="67.80208" pt_clust_4="249.89633" pt_clust_5="67.80208" pt_clust_6="33.81120"></scales>
<clustering>
<clus scale="   33.811">  2  6  1 -1</clus>
<clus scale="   67.802">  3  5 -1 -1</clus>
<clus scale="  249.896">  2  4  1 -1</clus>
<clus scale="  263.424">  1  3  2 -1</clus>
</clustering>
</event>
<event>
 6    0  0.4390142E+002  0.1450842E+03  0.7546771E-02  0.1206647E+00
         21   -1    0    0  503  501  0.00000000000E+00  0.00000000000E+00  0.99817236870E+03  0.99817236870E+03  0.00000000000E+00 0. -1.
         21   -1    0    0  504  502 -0.00000000000E+00 -0.00000000000E+00 -0.77411223454E+03  0.77411223454E+03  0.00000000000E+00 0.  1.
         21    1    1    2  503  505 -0.73436882243E+01  0.40186386885E+02  0.17951626874E+03  0.18410585593E+03  0.00000000000E+00 0.  1.
         21    1    1    2  504  506  0.28631101045E+02 -0.14029487665E+02 -0.74383939771E+03  0.74452240803E+03  0.00000000000E+00 0.  1.
         21    1    1    2  505  502  0.12728338343E+03  0.26188031098E+02  0.23789106891E+03  0.27107016313E+03  0.00000000000E+00 0. -1.
         21    1    1    2  506  501 -0.14857079625E+03 -0.52344930317E+02  0.55049219422E+03  0.57258617616E+03  0.00000000000E+00 0. -1.
<scales pt_clust_3="39.44819" pt_clust_4="31.88364" pt_clust_5="14000.00000" pt_clust_6="145.08425"></scales>
<clustering>
<clus scale="   31.884">  2  4  1 -1</clus>
<clus scale="   39.448">  1  3  2 -1</clus>
<clus scale="  145.084">  1  6  2 -1</clus>
<clus scale="   39.448">  1  3  2 -1</clus>
</clustering>
</event>
<event>
 6    0  0.4390142E+002  0.9256638E+02  0.7546771E-02  0.1296753E+00
         21   -1    0    0  504  501  0.00000000000E+00  0.00000000000E+00  0.51010553770E+03  0.51010553770E+03  0.00000000000E+00 0.  1.
         21   -1    0    0  506  502 -0.00000000000E+00 -0.00000000000E+00 -0.76143074858E+03  0.76143074858E+03  0.00000000000E+00 0.  1.
         21    1    1    2  503  505  0.60596843495E+02 -0.81896057408E+02  0.42359643796E+03  0.43567520461E+03  0.00000000000E+00 0.  1.
         21    1    1    2  504  503 -0.65707332281E+02 -0.11909378208E+02  0.59980509612E+02  0.89760505447E+02  0.00000000000E+00 0. -1.
         21    1    1    2  505  502  0.44581849555E+02  0.63773108548E+02 -0.50011426860E+03  0.50613124023E+03  0.00000000000E+00 0.  1.
         21    1    1    2  506  501 -0.39471360769E+02  0.30032327068E+02 -0.23478788986E+03  0.23996933599E+03  0.00000000000E+00 0.  1.
<scales pt_clust_3="92.56638" pt_clust_4="67.73722" pt_clust_5="14000.00000" pt_clust_6="49.59767"></scales>
<clustering>
<clus scale="   49.598">  2  6  1 -1</clus>
<clus scale="   67.737">  1  4  2 -1</clus>
<clus scale="   92.566">  1  3  2 -1</clus>
<clus scale="   67.737">  1  3  2 -1</clus>
</clustering>
</event>
<event>
 6    0  0.4390142E+002  0.1323628E+03  0.7546771E-02  0.1223991E+00
         21   -1    0    0  506  501  0.00000000000E+00  0.00000000000E+00  0.48771521142E+02  0.48771521142E+02  0.00000000000E+00 0. -1.
         21   -1    0    0  505  502 -0.00000000000E+00 -0.00000000000E+00 -0.36419083919E+04  0.36419083919E+04  0.00000000000E+00 0. -1.
         21    1    1    2  503  501 -0.26265231560E+02 -0.23487647978E+02 -0.13882083825E+02  0.37871417292E+02  0.00000000000E+00 0. -1.
         21    1    1    2  504  502  0.49025468475E+02 -0.10169808215E+02 -0.29758256932E+04  0.29762468779E+04  0.00000000000E+00 0. -1.
         21    1    1    2  505  503  0.33176934720E+02 -0.11047309428E+03 -0.10966342990E+03  0.15915741081E+03  0.00000000000E+00 0. -1.
         21    1    1    2  506  504 -0.55937171635E+02  0.14413055047E+03 -0.49376566385E+03  0.51740420712E+03  0.00000000000E+00 0. -1.
<scales pt_clust_3="35.23538" pt_clust_4="49.94948" pt_clust_5="14000.00000" pt_clust_6="132.36280"></scales>
<clustering>
<clus scale="   35.235">  1  3  2 -1</clus>
<clus scale="   49.949">  2  4  1 -1</clus>
<clus scale="  132.363">  2  6  1 -1</clus>
<clus scale="   35.235">  1  3  2 -1</clus>
</clustering>
</event>
<event>
 6    0  0.4390142E+002  0.6945619E+02  0.7546771E-02  0.1361952E+00
         21   -1    0    0  506  501  0.00000000000E+00  0.00000000000E+00  0.26311465022E+04  0.26311465022E+04  0.00000000000E+00 0.  1.
         21   -1    0    0  505  502 -0.00000000000E+00 -0.00000000000E+00 -0.13694458329E+02  0.13694458329E+02  0.00000000000E+00 0.  1.
         21    1    1    2  503  502 -0.99751320182E+01  0.72400678928E+02  0.12352478431E+04  0.12374080149E+04  0.00000000000E+00 0.  1.
         21    1    1    2  504  501 -0.14061597659E+02 -0.54742657990E+02  0.77059395874E+03  0.77266392201E+03  0.00000000000E+00 0.  1.
         21    1    1    2  505  504  0.74986564777E+02 -0.51907505285E+01  0.12888308808E+03  0.14920046642E+03  0.00000000000E+00 0.  1.
         21    1    1    2  506  503 -0.50949835100E+02 -0.12467270409E+02  0.48272715397E+03  0.48556855716E+03  0.00000000000E+00 0.  1.
<scales pt_clust_3="14000.00000" pt_clust_4="67.49381" pt_clust_5="69.45619" pt_clust_6="52.45301"></scales>
<clustering>
<clus scale="   52.453">  1  6  2 -1</clus>
<clus scale="   67.494">  1  4  2 -1</clus>
<clus scale="   69.456">  2  5  1 -1</clus>
<clus scale="   52.453">  1  3  2 -1</clus>
</clustering>
</event>
<event>
 6    0  0.4390142E+002  0.8232325E+02  0.7546771E-02  0.1322585E+00
         21   -1    0    0  506  501  0.00000000000E+00  0.00000000000E+00  0.48032347872E+02  0.48032347872E+02  0.00000000000E+00 0.  1.
         21   -1    0    0  505  502 -0.00000000000E+00 -0.00000000000E+00 -0.64029351612E+03  0.64029351612E+03  0.00000000000E+00 0.  1.
         21    1    1    2  503  504 -0.12843516685E+02  0.51516273865E+02 -0.71667623874E+02  0.89191539428E+02  0.00000000000E+00 0.  1.
         21    1    1    2  504  502 -0.18643924028E+02  0.50105369783E+02 -0.38872190005E+03  0.39238101325E+03  0.00000000000E+00 0.  1.
         21    1    1    2  505  501 -0.30357148844E+02  0.72052165885E+01 -0.43486859074E+02  0.53521757670E+02  0.00000000000E+00 0.  1.
         21    1    1    2  506  503  0.61844589557E+02 -0.10882686024E+03 -0.88384785249E+02  0.15323155364E+03  0.00000000000E+00 0.  1.
<scales pt_clust_3="14000.00000" pt_clust_4="54.21034" pt_clust_5="31.20051" pt_clust_6="82.32325"></scales>
<clustering>
<clus scale="   31.201">  1  5  2 -1</clus>
<clus scale="   54.210">  2  4  1 -1</clus>
<clus scale="   82.323">  1  6  2 -1</clus>
<clus scale="   31.201">  1  3  2 -1</clus>
</clustering>
</event>
<event>
 6    0  0.4390142E+002  0.6340173E+02  0.7546771E-02  0.1384086E+00
         21   -1    0    0  506  501  0.00000000000E+00  0.00000000000E+00  0.51345102121E+03  0.51345102121E+03  0.00000000000E+00 0.  1.
         21   -1    0    0  503  502 -0.00000000000E+00 -0.00000000000E+00 -0.71461294209E+02  0.71461294209E+02  0.00000000000E+00 0. -1.
         21    1    1    2  503  505  0.41766194396E+02 -0.38465442501E+02 -0.18874431968E+02  0.59835185662E+02  0.00000000000E+00 0. -1.
         21    1    1    2  504  502 -0.33277495868E+02  0.73906316247E+02  0.57800841792E+02  0.99551356717E+02  0.00000000000E+00 0.  1.
         21    1    1    2  505  501 -0.64845790772E+02 -0.27538702002E+02  0.29610051073E+03  0.30436634036E+03  0.00000000000E+00 0.  1.
         21    1    1    2  506  504  0.56357092245E+02 -0.79021717444E+01  0.10696280645E+03  0.12115943268E+03  0.00000000000E+00 0. -1.
<scales pt_clust_3="56.78032" pt_clust_4="49.27825" pt_clust_5="63.40173" pt_clust_6="14000.00000"></scales>
<clustering>
<clus scale="   56.780">  2  3  1 -1</clus>
<clus scale="   49.278">  2  4  1 -1</clus>
<clus scale="   63.402">  1  5  2 -1</clus>
<clus scale="   63.402">  1  3  2 -1</clus>
</clustering>
</event>
<event>
 6    0  0.4390142E+002  0.9783410E+02  0.7546771E-02  0.1284918E+00
         21   -1    0    0  504  501  0.00000000000E+00  0.00000000000E+00  0.48642337860E+03  0.48642337860E+03  0.00000000000E+00 0.  1.
         21   -1    0    0  506  502 -0.00000000000E+00 -0.00000000000E+00 -0.15860050585E+04  0.15860050585E+04  0.00000000000E+00 0. -1.
         21    1    1    2  503  501  0.33345330998E+02  0.28552439264E+02 -0.19058504372E+02  0.47857909233E+02  0.00000000000E+00 0. -1.
         21    1    1    2  504  502 -0.64488464845E+02 -0.12251123153E+03  0.45811560875E+03  0.47857880744E+03  0.00000000000E+00 0.  1.
         21    1    1    2  505  503 -0.27636988690E+02  0.68191456046E+02 -0.11249891647E+04  0.11273927880E+04  0.00000000000E+00 0. -1.
         21    1    1    2  506  505  0.58780122537E+02  0.25767336223E+02 -0.41364961959E+03  0.41859893240E+03  0.00000000000E+00 0.  1.
<scales pt_clust_3="43.89935" pt_clust_4="97.83410" pt_clust_5="14000.00000" pt_clust_6="64.40013"></scales>
<clustering>
<clus scale="   43.899">  1  3  2 -1</clus>
<clus scale="   64.400">  2  6  1 -1</clus>
<clus scale="   97.834">  1  4  2 -1</clus>
<clus scale="   43.899">  1  3  2 -1</clus>
</clustering>
</event>
<event>
 6    0  0.4390142E+002  0.7395541E+02  0.7546771E-02  0.1347137E+00
         21   -1    0    0  506  501  0.00000000000E+00  0.00000000000E+00  0.16681455482E+03  0.16681455482E+03  0.00000000000E+00 0.  1.
         21   -1    0    0  505  502 -0.00000000000E+00 -0.00000000000E+00 -0.53379699338E+03  0.53379699338E+03  0.00000000000E+00 0. -1.
         21    1    1    2  503  504  0.42729882917E+02 -0.54885094473E+02 -0.10327222956E+02  0.70319755570E+02  0.00000000000E+00 0.  1.
         21    1    1    2  504  502 -0.51150927091E+01  0.75352123309E+02 -0.46175244987E+03  0.46788826831E+03  0.00000000000E+00 0. -1.
         21    1    1    2  505  501 -0.72827714937E+02 -0.40373146136E+02  0.73651787670E+02  0.11116857838E+03  0.00000000000E+00 0.  1.
         21    1    1    2  506  503  0.35212924728E+02  0.19906117300E+02  0.31445446595E+02  0.51234945940E+02  0.00000000000E+00 0.  1.
<scales pt_clust_3="73.95541" pt_clust_4="14000.00000" pt_clust_5="53.48056" pt_clust_6="40.45001"></scales>
<clustering>
<clus scale="   40.450">  1  6  2 -1</clus>
<clus scale="   53.481">  1  5  2 -1</clus>
<clus scale="   73.955">  1  3  2 -1</clus>
<clus scale="   40.450">  1  3  2 -1</clus>
</clustering>
</event>
<event>
 6    0  0.4390142E+002  0.1207334E+03  0.7546771E-02  0.1241892E+00
         21   -1    0    0  504  501  0.00000000000E+00  0.00000000000E+00  0.34253237792E+03  0.34253237792E+03  0.00000000000E+00 0.  1.
         21   -1    0    0  506  502 -0.00000000000E+00 -0.00000000000E+00 -0.27642548456E+03  0.27642548456E+03  0.00000000000E+00 0.  1.
         21    1    1    2  503  505 -0.42493532922E+01  0.61299503800E+02  0.11006155501E+03  0.12605249724E+03  0.00000000000E+00 0. -1.
         21    1    1    2  504  502 -0.16680533708E+02 -0.12641873144E+03 -0.17219324207E+03  0.21426723613E+03  0.00000000000E+00 0.  1.
         21    1    1    2  505  501 -0.27718109263E+02  0.45243380410E+02  0.19015949592E+03  0.19742312667E+03  0.00000000000E+00 0.  1.
         21    1    1    2  506  503  0.48647996263E+02  0.19875847233E+02 -0.61920915504E+02  0.81215002435E+02  0.00000000000E+00 0.  1.
<scales pt_clust_3="42.89146" pt_clust_4="111.56187" pt_clust_5="42.89146" pt_clust_6="52.55166"></scales>
<clustering>
<clus scale="   42.891">  3  5 -1 -1</clus>
<clus scale="   52.552">  2  6  1 -1</clus>
<clus scale="  111.562">  2  4  1 -1</clus>
<clus scale="  120.733">  1  3  2 -1</clus>
</clustering>
</event>
<event>
 6    0  0.4390142E+002  0.4185411E+03  0.7546771E-02  0.1037542E+00
         21   -1    0    0  504  501  0.00000000000E+00  0.00000000000E+00  0.24120015480E+04  0.24120015480E+04  0.00000000000E+00 0. -1.
         21   -1    0    0  506  502 -0.00000000000E+00 -0.00000000000E+00 -0.17834449034E+03  0.17834449034E+03  0.00000000000E+00 0. -1.
         21    1    1    2  503  501 -0.27266420178E+03  0.32398786876E+03  0.21136181691E+03  0.47327341324E+03  0.00000000000E+00 0. -1.
         21    1    1    2  504  505  0.25672113438E+02 -0.86064844397E+02  0.70115391531E+03  0.70688261246E+03  0.00000000000E+00 0. -1.
         21    1    1    2  505  502  0.21145551055E+03 -0.23027863599E+03  0.13351272930E+04  0.13712427107E+04  0.00000000000E+00 0. -1.
         21    1    1    2  506  503  0.35536577796E+02 -0.76443883727E+01 -0.13985967601E+02  0.38947301894E+02  0.00000000000E+00 0. -1.
<scales pt_clust_3="399.14370" pt_clust_4="67.24660" pt_clust_5="67.24660" pt_clust_6="36.34948"></scales>
<clustering>
<clus scale="   36.349">  2  6  1 -1</clus>
<clus scale="   67.247">  4  5 -1 -1</clus>
<clus scale="  399.144">  2  3  1 -1</clus>
<clus scale="  418.541">  1  3  2 -1</clus>
</clustering>
</event>
<event>
 6    0  0.4390142E+002  0.9146347E+02  0.7546771E-02  0.1299346E+00
         21   -1    0    0  505  501  0.00000000000E+00  0.00000000000E+00  0.23761633689E+03  0.23761633689E+03  0.00000000000E+00 0.  1.
         21   -1    0    0  503  502 -0.00000000000E+00 -0.00000000000E+00 -0.57812984152E+03  0.57812984152E+03  0.00000000000E+00 0. -1.
         21    1    1    2  503  504  0.66701298254E+02  0.70117460319E+02 -0.44785881797E+03  0.45819541930E+03  0.00000000000E+00 0. -1.
         21    1    1    2  504  501 -0.12875995633E+03 -0.64652034124E+02  0.11302067877E+03  0.18311932094E+03  0.00000000000E+00 0.  1.
         21    1    1    2  505  506  0.44638581474E+02  0.41167706617E+02  0.64374077895E+02  0.88495225458E+02  0.00000000000E+00 0.  1.
         21    1    1    2  506  502  0.17420076607E+02 -0.46633132812E+02 -0.70049443323E+02  0.85936212709E+02  0.00000000000E+00 0. -1.
<scales pt_clust_3="91.46347" pt_clust_4="14000.00000" pt_clust_5="60.28050" pt_clust_6="49.78060"></scales>
<clustering>
<clus scale="   49.781">  2  6  1 -1</clus>
<clus scale="   60.280">  1  5  2 -1</clus>
<clus scale="   91.463">  2  3  1 -1</clus>
<clus scale="   60.280">  1  3  2 -1</clus>
</clustering>
</event>
<event>
 6    0  0.4390142E+002  0.1445482E+03  0.7546771E-02  0.1207337E+00
         21   -1    0    0  504  501  0.00000000000E+00  0.00000000000E+00  0.80097082441E+03  0.80097082441E+03  0.00000000000E+00 0. -1.
         21   -1    0    0  503  502 -0.00000000000E+00 -0.00000000000E+00 -0.11807767765E+03  0.11807767765E+03  0.00000000000E+00 0. -1.
         21    1    1    2  503  505 -0.50472652704E+02  0.44411690450E+02  0.27230311552E+02  0.72535348533E+02  0.00000000000E+00 0. -1.
         21    1    1    2  504  502  0.34254899742E+02  0.77530873641E+01  0.13213707121E+02  0.37524799479E+02  0.00000000000E+00 0. -1.
         21    1    1    2  505  506 -0.12696098103E+03 -0.76120015709E+02 -0.23494564644E+01  0.14805021932E+03  0.00000000000E+00 0. -1.
         21    1    1    2  506  501  0.14317873399E+03  0.23955237895E+02  0.64479858455E+03  0.66093813472E+03  0.00000000000E+00 0. -1.
<scales pt_clust_3="63.11955" pt_clust_4="35.12134" pt_clust_5="144.54816" pt_clust_6="14000.00000"></scales>
<clustering>
<clus scale="   35.121">  2  4  1 -1</clus>
<clus scale="   63.120">  2  3  1 -1</clus>
<clus scale="  144.548">  2  5  1 -1</clus>
<clus scale="  144.548">  1  3  2 -1</clus>
</clustering>
</event>
<event>
 6    0  0.4390142E+002  0.5243741E+02  0.7546771E-02  0.1432621E+00
         21   -1    0    0  504  501  0.00000000000E+00  0.00000000000E+00  0.12574302179E+04  0.12574302179E+04  0.00000000000E+00 0. -1.
         21   -1    0    0  506  502 -0.00000000000E+00 -0.00000000000E+00 -0.55734878617E+03  0.55734878617E+03  0.00000000000E+00 0.  1.
         21    1    1    2  503  502  0.20303032584E+02  0.34785615008E+02 -0.34375505380E+03  0.34610661531E+03  0.00000000000E+00 0.  1.
         21    1    1    2  504  503 -0.28668353550E+02  0.85214212720E+02  0.18321061360E+03  0.20408200675E+03  0.00000000000E+00 0. -1.
         21    1    1    2  505  501  0.13431631662E+02 -0.48467832787E+02  0.10556254495E+04  0.10568228940E+04  0.00000000000E+00 0. -1.
         21    1    1    2  506  505 -0.50663106960E+01 -0.71531994941E+02 -0.19499957762E+03  0.20776748801E+03  0.00000000000E+00 0.  1.
<scales pt_clust_3="40.27719" pt_clust_4="14000.00000" pt_clust_5="52.43741" pt_clust_6="41.07911"></scales>
<clustering>
<clus scale="   40.277">  2  3  1 -1</clus>
<clus scale="   41.079">  2  6  1 -1</clus>
<clus scale="   52.437">  1  5  2 -1</clus>
<clus scale="   52.437">  1  3  2 -1</clus>
</clustering>
</event>
<event>
 6    0  0.4390142E+002  0.1910796E+03  0.7546771E-02  0.1157491E+00
         21   -1    0    0  506  501  0.00000000000E+00  0.00000000000E+00  0.96107833814E+03  0.96107833814E+03  0.00000000000E+00 0. -1.
         21   -1    0    0  504  502 -0.00000000000E+00 -0.00000000000E+00 -0.25999502950E+03  0.25999502950E+03  0.00000000000E+00 0. -1.
         21    1    1    2  503  502  0.24811513421E+02 -0.35171970097E+02 -0.90956528522E+02  0.10062687891E+03  0.00000000000E+00 0. -1.
         21    1    1    2  504  505 -0.35272410691E+02  0.13942510433E+02  0.26601730478E+03  0.26870754175E+03  0.00000000000E+00 0. -1.
         21    1    1    2  505  501 -0.42035607673E+02  0.14376198667E+03  0.65160412392E+03  0.66859736421E+03  0.00000000000E+00 0. -1.
         21    1    1    2  506  503  0.52496504944E+02 -0.12253252700E+03 -0.12558159154E+03  0.18314158277E+03  0.00000000000E+00 0. -1.
<scales pt_clust_3="30.00657" pt_clust_4="37.87206" pt_clust_5="37.87206" pt_clust_6="183.40061"></scales>
<clustering>
<clus scale="   30.007">  3  6 -1 -1</clus>
<clus scale="   37.872">  4  5 -1 -1</clus>
<clus scale="  183.401">  2  3  1 -1</clus>
<clus scale="  191.080">  1  3  2 -1</clus>
</clustering>
</event>
<event>
 6    0  0.4390142E+002  0.9381684E+02  0.7546771E-02  0.1293863E+00
         21   -1    0    0  506  501  0.00000000000E+00  0.00000000000E+00  0.44461558977E+02  0.44461558977E+02  0.00000000000E+00 0. -1.
         21   -1    0    0  504  502 -0.00000000000E+00 -0.00000000000E+00 -0.10486554670E+04  0.10486554670E+04  0.00000000000E+00 0. -1.
         21    1    1    2  503  502 -0.84837007317E+02  0.25950800798E+02 -0.73691822856E+03  0.74223933974E+03  0.00000000000E+00 0. -1.
         21    1    1    2  504  505  0.45988987872E+01  0.43876459604E+02 -0.20240350089E+03  0.20715566791E+03  0.00000000000E+00 0. -1.
         21    1    1    2  505  501  0.49172728641E+02 -0.17886234745E+01 -0.82053835514E+01  0.49884714444E+02  0.00000000000E+00 0. -1.
         21    1    1    2  506  503  0.31065379889E+02 -0.68038636928E+02 -0.56666795044E+02  0.93837303900E+02  0.00000000000E+00 0. -1.
<scales pt_clust_3="93.81684" pt_clust_4="44.11682" pt_clust_5="49.33180" pt_clust_6="14000.00000"></scales>
<clustering>
<clus scale="   44.117">  2  4  1 -1</clus>
<clus scale="   49.332">  1  5  2 -1</clus>
<clus scale="   93.817">  2  3  1 -1</clus>
<clus scale="   49.332">  1  3  2 -1</clus>
</clustering>
</event>
<event>
 6    0  0.4390142E+002  0.9002692E+02  0.7546771E-02  0.1302787E+00
         21   -1    0    0  504  501  0.00000000000E+00  0.00000000000E+00  0.18292627074E+04  0.18292627074E+04  0.00000000000E+00 0.  1.
         21   -1    0    0  505  502 -0.00000000000E+00 -0.00000000000E+00 -0.11374901088E+03  0.11374901088E+03  0.00000000000E+00 0. -1.
         21    1    1    2  503  506  0.73846224597E+02 -0.30978415642E+02 -0.81000151383E+02  0.11390325565E+03  0.00000000000E+00 0. -1.
         21    1    1    2  504  502 -0.13176481485E+03  0.45307992297E+02  0.15338598862E+04  0.15401756170E+04  0.00000000000E+00 0.  1.
         21    1    1    2  505  503  0.15626489506E+02  0.26169793157E+02  0.14116395587E+02  0.33590443172E+02  0.00000000000E+00 0.  1.
         21    1    1    2  506  501  0.42292100747E+02 -0.40499369812E+02  0.24853756608E+03  0.25534240246E+03  0.00000000000E+00 0. -1.
<scales pt_clust_3="90.02692" pt_clust_4="14000.00000" pt_clust_5="30.48024" pt_clust_6="58.34134"></scales>
<clustering>
<clus scale="   30.480">  2  5  1 -1</clus>
<clus scale="   58.341">  1  6  2 -1</clus>
<clus scale="   90.027">  2  3  1 -1</clus>
<clus scale="   58.341">  1  3  2 -1</clus>
</clustering>
</event>
<event>
 6    0  0.4390142E+002  0.2596209E+03  0.7546771E-02  0.1107371E+00
         21   -1    0    0  505  501  0.00000000000E+00  0.00000000000E+00  0.22994566725E+03  0.22994566725E+03  0.00000000000E+00 0.  1.
         21   -1    0    0  504  502 -0.00000000000E+00 -0.00000000000E+00 -0.22755967207E+04  0.22755967207E+04  0.00000000000E+00 0. -1.
         21    1    1    2  503  506  0.87160642198E+01 -0.71286727822E+02  0.43118009888E+02  0.83767118345E+02  0.00000000000E+00 0. -1.
         21    1    1    2  504  503 -0.54348224086E+02  0.88443605116E+02 -0.87832289551E+03  0.88443604038E+03  0.00000000000E+00 0. -1.
         21    1    1    2  505  502  0.17782835305E+03  0.11943816629E+03 -0.13067880783E+04  0.13242293911E+04  0.00000000000E+00 0. -1.
         21    1    1    2  506  501 -0.13219619318E+03 -0.13659504358E+03  0.96341910410E+02  0.21310983817E+03  0.00000000000E+00 0.  1.
<scales pt_clust_3="62.15288" pt_clust_4="103.80752" pt_clust_5="239.11992" pt_clust_6="62.15288"></scales>
<clustering>
<clus scale="   62.153">  3  6 -1 -1</clus>
<clus scale="  103.808">  2  4  1 -1</clus>
<clus scale="  239.120">  2  5  1 -1</clus>
<clus scale="  259.621">  1  3  2 -1</clus>
</clustering>
</event>
<event>
 6    0  0.4390142E+002  0.7135031E+02  0.7546771E-02  0.1355561E+00
         21   -1    0    0  503  501  0.00000000000E+00  0.00000000000E+00  0.19746140751E+03  0.19746140751E+03  0.00000000000E+00 0. -1.
         21   -1    0    0  505  502 -0.00000000000E+00 -0.00000000000E+00 -0.36119538807E+04  0.36119538807E+04  0.00000000000E+00 0. -1.
         21    1    1    2  503  504  0.41816607281E+02 -0.81317934084E+01  0.46801855636E+02  0.63286399799E+02  0.00000000000E+00 0. -1.
         21    1    1    2  504  502  0.58464743445E+02  0.69952817655E+02  0.55056058457E+02  0.10650207743E+03  0.00000000000E+00 0. -1.
         21    1    1    2  505  506 -0.53268040233E+02 -0.47345060806E+02 -0.35677611955E+04  0.35684729209E+04  0.00000000000E+00 0. -1.
         21    1    1    2  506  501 -0.47013310492E+02 -0.14475963441E+02  0.51410808198E+02  0.71153890129E+02  0.00000000000E+00 0. -1.
<scales pt_clust_3="42.59994" pt_clust_4="14000.00000" pt_clust_5="71.35031" pt_clust_6="34.13560"></scales>
<clustering>
<clus scale="   42.600">  1  3  2 -1</clus>
<clus scale="   34.136">  1  6  2 -1</clus>
<clus scale="   71.350">  2  5  1 -1</clus>
<clus scale="   42.600">  1  3  2 -1</clus>
</clustering>
</event>
<event>
 6    0  0.4390142E+002  0.1646476E+03  0.7546771E-02  0.1183547E+00
         21   -1    0    0  502  501  0.00000000000E+00  0.00000000000E+00  0.69341247687E+03  0.69341247687E+03  0.00000000000E+00 0.  1.
         21   -1    0    0  506  502 -0.00000000000E+00 -0.00000000000E+00 -0.10057212919E+04  0.10057212919E+04  0.00000000000E+00 0. -1.
         21    1    1    2  503  504 -0.23277462270E+02 -0.28396900820E+02  0.95792500180E+02  0.10258863152E+03  0.00000000000E+00 0.  1.
         21    1    1    2  504  501 -0.13538802769E+01 -0.33745889437E+02  0.49207021790E+03  0.49322785544E+03  0.00000000000E+00 0.  1.
         21    1    1    2  505  503 -0.13214737739E+03  0.11319015372E+03  0.13846406228E+02  0.17454702294E+03  0.00000000000E+00 0.  1.
         21    1    1    2  506  505  0.15677871993E+03 -0.51047363465E+02 -0.91401793937E+03  0.92877025891E+03  0.00000000000E+00 0. -1.
<scales pt_clust_3="51.03626" pt_clust_4="33.77304" pt_clust_5="164.64760" pt_clust_6="14000.00000"></scales>
<clustering>
<clus scale="   33.773">  1  4  2 -1</clus>
<clus scale="   51.036">  1  3  2 -1</clus>
<clus scale="  164.648">  1  5  2 -1</clus>
<clus scale="   33.773">  1  3  2 -1</clus>
</clustering>
</event>
<event>
 6    0  0.4390142E+002  0.8838589E+02  0.7546771E-02  0.1306808E+00
         21   -1    0    0  505  501  0.00000000000E+00  0.00000000000E+00  0.12516719469E+04  0.12516719469E+04  0.00000000000E+00 0.  1.
         21   -1    0    0  501  502 -0.00000000000E+00 -0.00000000000E+00 -0.21530840161E+03  0.21530840161E+03  0.00000000000E+00 0. -1.
         21    1    1    2  503  502  0.55249150373E+01  0.58248112452E+02 -0.15272225816E+03  0.16354649317E+03  0.00000000000E+00 0. -1.
         21    1    1    2  504  506  0.52651781480E+02 -0.16506638502E+02  0.27901021812E+03  0.28441410131E+03  0.00000000000E+00 0.  1.
         21    1    1    2  505  504  0.33941209398E+02 -0.26998618658E+02  0.92371953723E+03  0.92473710565E+03  0.00000000000E+00 0.  1.
         21    1    1    2  506  503 -0.92117905916E+02 -0.14742855291E+02 -0.13643951842E+02  0.94282648426E+02  0.00000000000E+00 0. -1.
<scales pt_clust_3="58.12138" pt_clust_4="14000.00000" pt_clust_5="43.36970" pt_clust_6="88.38589"></scales>
<clustering>
<clus scale="   43.370">  1  5  2 -1</clus>
<clus scale="   58.121">  2  3  1 -1</clus>
<clus scale="   88.386">  2  6  1 -1</clus>
<clus scale="   43.370">  1  3  2 -1</clus>
</clustering>
</event>
<event>
 6    0  0.4390142E+002  0.1175234E+03  0.7546771E-02  0.1247240E+00
         21   -1    0    0  504  501  0.00000000000E+00  0.00000000000E+00  0.50213831960E+03  0.50213831960E+03  0.00000000000E+00 0.  1.
         21   -1    0    0  505  502 -0.00000000000E+00 -0.00000000000E+00 -0.21086172589E+03  0.21086172589E+03  0.00000000000E+00 0.  1.
         21    1    1    2  503  502  0.84641975357E+02  0.13540128542E+03  0.58836315134E+02  0.17017486320E+03  0.00000000000E+00 0.  1.
         21    1    1    2  504  503  0.47247247452E+01  0.36537491515E+02  0.82928521480E+02  0.90743875743E+02  0.00000000000E+00 0.  1.
         21    1    1    2  505  506 -0.26120404072E+02 -0.58039737037E+02 -0.12942036739E+03  0.14422384712E+03  0.00000000000E+00 0.  1.
         21    1    1    2  506  501 -0.63246296031E+02 -0.11389903990E+03  0.27893212448E+03  0.30785745942E+03  0.00000000000E+00 0.  1.
<scales pt_clust_3="14000.00000" pt_clust_4="36.84171" pt_clust_5="63.01848" pt_clust_6="117.52337"></scales>
<clustering>
<clus scale="   36.842">  1  4  2 -1</clus>
<clus scale="   63.018">  2  5  1 -1</clus>
<clus scale="  117.523">  1  6  2 -1</clus>
<clus scale="   36.842">  1  3  2 -1</clus>
</clustering>
</event>
<event>
 6    0  0.4390142E+002  0.1244576E+03  0.7546771E-02  0.1235919E+00
         21   -1    0    0  504  501  0.00000000000E+00  0.00000000000E+00  0.42582489696E+03  0.42582489696E+03  0.00000000000E+00 0. -1.
         21   -1    0    0  503  502 -0.00000000000E+00 -0.00000000000E+00 -0.20860460228E+03  0.20860460228E+03  0.00000000000E+00 0.  1.
         21    1    1    2  503  505  0.66290336159E+02  0.70429282683E+02 -0.43126447755E+02  0.10589892834E+03  0.00000000000E+00 0. -1.
         21    1    1    2  504  502 -0.11511631672E+03 -0.14220340664E+03 -0.61110703246E+02  0.19289399495E+03  0.00000000000E+00 0.  1.
         21    1    1    2  505  506  0.34060801782E+02  0.42314299715E+02  0.12298108702E+03  0.13444324432E+03  0.00000000000E+00 0. -1.
         21    1    1    2  506  501  0.14765178776E+02  0.29459824245E+02  0.19847635866E+03  0.20119333163E+03  0.00000000000E+00 0. -1.
<scales pt_clust_3="14000.00000" pt_clust_4="124.45756" pt_clust_5="96.52472" pt_clust_6="32.87480"></scales>
<clustering>
<clus scale="   32.875">  5  6 -1 -1</clus>
<clus scale="   96.525">  1  5  2 -1</clus>
<clus scale="  124.458">  1  4  2 -1</clus>
<clus scale="   96.525">  1  3  2 -1</clus>
</clustering>
</event>
<event>
 6    0  0.4390142E+002  0.6870698E+02  0.7546771E-02  0.1364546E+00
         21   -1    0    0  506  501  0.00000000000E+00  0.00000000000E+00  0.13098609489E+03  0.13098609489E+03  0.00000000000E+00 0. -1.
         21   -1    0    0  504  502 -0.00000000000E+00 -0.00000000000E+00 -0.53323820030E+03  0.53323820030E+03  0.00000000000E+00 0.  1.
         21    1    1    2  503  505 -0.36878303603E+02  0.20348263460E+02 -0.95897402583E+02  0.10473954804E+03  0.00000000000E+00 0. -1.
         21    1    1    2  504  503 -0.16801758524E+01  0.41773011947E+02 -0.36279838514E+03  0.36519922752E+03  0.00000000000E+00 0.  1.
         21    1    1    2  505  501  0.26252860067E+02 -0.11809248057E+03  0.11624203130E+02  0.12153258298E+03  0.00000000000E+00 0. -1.
         21    1    1    2  506  502  0.12305619388E+02  0.55971205160E+02  0.44819479190E+02  0.72752936645E+02  0.00000000000E+00 0. -1.
<scales pt_clust_3="58.90111" pt_clust_4="41.80679" pt_clust_5="14000.00000" pt_clust_6="68.70698"></scales>
<clustering>
<clus scale="   41.807">  2  4  1 -1</clus>
<clus scale="   58.901">  2  3  1 -1</clus>
<clus scale="   68.707">  1  6  2 -1</clus>
<clus scale="   68.707">  1  3  2 -1</clus>
</clustering>
</event>
<event>
 6    0  0.4390142E+002  0.6040473E+02  0.7546771E-02  0.1396141E+00
         21   -1    0    0  506  501  0.00000000000E+00  0.00000000000E+00  0.20389239284E+04  0.20389239284E+04  0.00000000000E+00 0. -1.
         21   -1    0    0  503  502 -0.00000000000E+00 -0.00000000000E+00 -0.81965110137E+02  0.81965110137E+02  0.00000000000E+00 0.  1.
         21    1    1    2  503  504 -0.29138333235E+02 -0.61539547671E+02  0.17951658116E+02  0.70416052292E+02  0.00000000000E+00 0.  1.
         21    1    1    2  504  505  0.54706874845E+02 -0.45033056072E+02  0.61629794358E+03  0.62035793987E+03  0.00000000000E+00 0. -1.
         21    1    1    2  505  501  0.48934829043E+00  0.63685636670E+02  0.13637811761E+04  0.13652674449E+04  0.00000000000E+00 0. -1.
         21    1    1    2  506  502 -0.26057889901E+02  0.42886967073E+02 -0.41071959480E+02  0.64847601547E+02  0.00000000000E+00 0.  1.
<scales pt_clust_3="57.40645" pt_clust_4="60.40473" pt_clust_5="14000.00000" pt_clust_6="50.18272"></scales>
<clustering>
<clus scale="   50.183">  2  6  1 -1</clus>
<clus scale="   57.406">  2  3  1 -1</clus>
<clus scale="   60.405">  2  4  1 -1</clus>
<clus scale="   60.405">  1  3  2 -1</clus>
</clustering>
</event>
<event>
 6    0  0.4390142E+002  0.7599728E+02  0.7546771E-02  0.1340810E+00
         21   -1    0    0  504  501  0.00000000000E+00  0.00000000000E+00  0.18061474930E+04  0.18061474930E+04  0.00000000000E+00 0. -1.
         21   -1    0    0  503  502 -0.00000000000E+00 -0.00000000000E+00 -0.18838885026E+02  0.18838885026E+02  0.00000000000E+00 0. -1.
         21    1    1    2  503  506 -0.12191448242E+01 -0.12624373917E+03  0.59926827807E+03  0.61242259682E+03  0.00000000000E+00 0. -1.
         21    1    1    2  504  505 -0.72040183898E+01  0.40105843723E+02  0.27634942843E+03  0.27933740024E+03  0.00000000000E+00 0. -1.
         21    1    1    2  505  502 -0.13328242725E+02  0.49383716427E+02  0.53661263798E+02  0.74134504346E+02  0.00000000000E+00 0. -1.
         21    1    1    2  506  501  0.21751405940E+02  0.36754179019E+02  0.85802963768E+03  0.85909187662E+03  0.00000000000E+00 0.  1.
<scales pt_clust_3="75.99728" pt_clust_4="40.74772" pt_clust_5="52.84827" pt_clust_6="14000.00000"></scales>
<clustering>
<clus scale="   40.748">  1  4  2 -1</clus>
<clus scale="   52.848">  2  5  1 -1</clus>
<clus scale="   75.997">  2  3  1 -1</clus>
<clus scale="   40.748">  1  3  2 -1</clus>
</clustering>
</event>
<event>
 6    0  0.4390142E+002  0.9562133E+02  0.7546771E-02  0.1289783E+00
         21   -1    0    0  504  501  0.00000000000E+00  0.00000000000E+00  0.17622397852E+03  0.17622397852E+03  0.00000000000E+00 0. -1.
         21   -1    0    0  506  502 -0.00000000000E+00 -0.00000000000E+00 -0.80372007804E+03  0.80372007804E+03  0.00000000000E+00 0.  1.
         21    1    1    2  503  502 -0.58214207372E+02  0.67979257015E+02 -0.59846822657E+03  0.60512336886E+03  0.00000000000E+00 0.  1.
         21    1    1    2  504  503 -0.11722443061E+02  0.48400351105E+02  0.98152996932E+02  0.11006371094E+03  0.00000000000E+00 0. -1.
         21    1    1    2  505  501 -0.33638219906E+02 -0.44402489967E+01  0.30332331022E+02  0.45511492558E+02  0.00000000000E+00 0. -1.
         21    1    1    2  506  505  0.10357487034E+03 -0.11193935912E+03 -0.15751320090E+03  0.21924548421E+03  0.00000000000E+00 0.  1.
<scales pt_clust_3="95.62133" pt_clust_4="58.33070" pt_clust_5="33.93001" pt_clust_6="14000.00000"></scales>
<clustering>
<clus scale="   33.930">  1  5  2 -1</clus>
<clus scale="   58.331">  1  4  2 -1</clus>
<clus scale="   95.621">  2  3  1 -1</clus>
<clus scale="   33.930">  1  3  2 -1</clus>
</clustering>
</event>
<event>
 6    0  0.4390142E+002  0.1313086E+03  0.7546771E-02  0.1225527E+00
         21   -1    0    0  503  501  0.00000000000E+00  0.00000000000E+00  0.19750303806E+03  0.19750303806E+03  0.00000000000E+00 0.  1.
         21   -1    0    0  506  502 -0.00000000000E+00 -0.00000000000E+00 -0.19451055036E+03  0.19451055036E+03  0.00000000000E+00 0.  1.
         21    1    1    2  503  505 -0.67900582907E+02  0.36160902836E+02  0.10525200392E+03  0.13036903153E+03  0.00000000000E+00 0.  1.
         21    1    1    2  504  502  0.10909356663E+03 -0.41044205425E+02 -0.85668443924E+02  0.14465516017E+03  0.00000000000E+00 0.  1.
         21    1    1    2  505  504 -0.36355080856E+02  0.37047665533E+02  0.30163483130E+02  0.60033799980E+02  0.00000000000E+00 0.  1.
         21    1    1    2  506  501 -0.48379028723E+01 -0.32164362944E+02 -0.46754555421E+02  0.56955596743E+02  0.00000000000E+00 0. -1.
<scales pt_clust_3="33.28841" pt_clust_4="124.71894" pt_clust_5="33.28841" pt_clust_6="32.52617"></scales>
<clustering>
<clus scale="   32.526">  2  6  1 -1</clus>
<clus scale="   33.288">  3  5 -1 -1</clus>
<clus scale="  124.719">  2  4  1 -1</clus>
<clus scale="  131.309">  1  3  2 -1</clus>
</clustering>
</event>
<event>
 6    0  0.4390142E+002  0.1056539E+03  0.7546771E-02  0.1268837E+00
         21   -1    0    0  505  501  0.00000000000E+00  0.00000000000E+00  0.18760546194E+03  0.18760546194E+03  0.00000000000E+00 0.  1.
         21   -1    0    0  503  502 -0.00000000000E+00 -0.00000000000E+00 -0.31170102186E+03  0.31170102186E+03  0.00000000000E+00 0. -1.
         21    1    1    2  503  504  0.21446994293E+02 -0.33635160644E+02 -0.24865340116E+02  0.47006198898E+02  0.00000000000E+00 0.  1.
         21    1    1    2  504  501 -0.35161170115E+02 -0.34020370481E+02  0.26828672683E+02  0.55798487161E+02  0.00000000000E+00 0.  1.
         21    1    1    2  505  506  0.26253621291E+02  0.14085576505E+03  0.89208820335E+02  0.16878333094E+03  0.00000000000E+00 0.  1.
         21    1    1    2  506  502 -0.12539445469E+02 -0.73200233924E+02 -0.21526771282E+03  0.22771846680E+03  0.00000000000E+00 0. -1.
<scales pt_clust_3="39.89107" pt_clust_4="49.38697" pt_clust_5="105.65388" pt_clust_6="14000.00000"></scales>
<clustering>
<clus scale="   39.891">  2  3  1 -1</clus>
<clus scale="   49.387">  1  4  2 -1</clus>
<clus scale="  105.654">  1  5  2 -1</clus>
<clus scale="   49.387">  1  3  2 -1</clus>
</clustering>
</event>
<event>
 6    0  0.4390142E+002  0.1317419E+03  0.7546771E-02  0.1224894E+00
         21   -1    0    0  503  501  0.00000000000E+00  0.00000000000E+00  0.33614993433E+03  0.33614993433E+03  0.00000000000E+00 0.  1.
         21   -1    0    0  506  502 -0.00000000000E+00 -0.00000000000E+00 -0.46927260844E+03  0.46927260844E+03  0.00000000000E+00 0.  1.
         21    1    1    2  503  504 -0.14752255361E+03 -0.17309598240E+02  0.26819375955E+03  0.30657856852E+03  0.00000000000E+00 0.  1.
         21    1    1    2  504  502  0.32103994551E+02  0.27650614705E+01 -0.35628720625E+03  0.35774136659E+03  0.00000000000E+00 0.  1.
         21    1    1    2  505  501  0.86509163293E+02  0.27164766700E+02 -0.59330598218E+01  0.90867822040E+02  0.00000000000E+00 0.  1.
         21    1    1    2  506  505  0.28909395763E+02 -0.12620229930E+02 -0.39096167590E+02  0.50234785628E+02  0.00000000000E+00 0.  1.
<scales pt_clust_3="131.74191" pt_clust_4="56.95437" pt_clust_5="14000.00000" pt_clust_6="31.54399"></scales>
<clustering>
<clus scale="   31.544">  2  6  1 -1</clus>
<clus scale="   56.954">  2  4  1 -1</clus>
<clus scale="  131.742">  1  3  2 -1</clus>
<clus scale="  131.742">  1  3  2 -1</clus>
</clustering>
</event>
<event>
 6    0  0.4390142E+002  0.1212816E+03  0.7546771E-02  0.1240998E+00
         21   -1    0    0  505  501  0.00000000000E+00  0.00000000000E+00  0.98145023498E+03  0.98145023498E+03  0.00000000000E+00 0.  1.
         21   -1    0    0  504  502 -0.00000000000E+00 -0.00000000000E+00 -0.45302871224E+02  0.45302871224E+02  0.00000000000E+00 0.  1.
         21    1    1    2  503  501 -0.60014623106E+02  0.86693947441E+02  0.25219777801E+03  0.27335199787E+03  0.00000000000E+00 0.  1.
         21    1    1    2  504  503 -0.54501441417E+02 -0.29516874547E+02  0.11385091907E+03  0.12962902750E+03  0.00000000000E+00 0.  1.
         21    1    1    2  505  506  0.14128700943E+03 -0.43568302159E+02  0.57467870651E+03  0.59339348808E+03  0.00000000000E+00 0.  1.
         21    1    1    2  506  502 -0.26770944911E+02 -0.13608770735E+02 -0.45800398228E+01  0.30378592744E+02  0.00000000000E+00 0.  1.
<scales pt_clust_3="121.28159" pt_clust_4="70.49358" pt_clust_5="14000.00000" pt_clust_6="30.03135"></scales>
<clustering>
<clus scale="   30.031">  2  6  1 -1</clus>
<clus scale="   70.494">  2  4  1 -1</clus>
<clus scale="  121.282">  2  3  1 -1</clus>
<clus scale="  121.282">  1  3  2 -1</clus>
</clustering>
</event>
<event>
 6    0  0.4390142E+002  0.1481468E+03  0.7546771E-02  0.1202769E+00
         21   -1    0    0  504  501  0.00000000000E+00  0.00000000000E+00  0.25530216783E+03  0.25530216783E+03  0.00000000000E+00 0.  1.
         21   -1    0    0  505  502 -0.00000000000E+00 -0.00000000000E+00 -0.33567665149E+03  0.33567665149E+03  0.00000000000E+00 0.  1.
         21    1    1    2  503  502 -0.93879080639E+02 -0.23587903945E+02 -0.35750990734E+02  0.10318819861E+03  0.00000000000E+00 0.  1.
         21    1    1    2  504  506 -0.58522179173E+02  0.58219161127E+02  0.82934489051E+01  0.82964434984E+02  0.00000000000E+00 0.  1.
         21    1    1    2  505  501  0.44712365194E+02 -0.14189801493E+03 -0.16031688572E+03  0.21871384522E+03  0.00000000000E+00 0.  1.
         21    1    1    2  506  503  0.10768889462E+03  0.10726675774E+03  0.10739994389E+03  0.18611234051E+03  0.00000000000E+00 0.  1.
<scales pt_clust_3="104.26530" pt_clust_4="82.54887" pt_clust_5="148.14684" pt_clust_6="14000.00000"></scales>
<clustering>
<clus scale="   82.549">  1  4  2 -1</clus>
<clus scale="  104.265">  2  3  1 -1</clus>
<clus scale="  148.147">  2  5  1 -1</clus>
<clus scale="   82.549">  1  3  2 -1</clus>
</clustering>
</event>
<event>
 6    0  0.4390142E+002  0.7321650E+02  0.7546771E-02  0.1349485E+00
         21   -1    0    0  506  501  0.00000000000E+00  0.00000000000E+00  0.25626443829E+03  0.25626443829E+03  0.00000000000E+00 0. -1.
         21   -1    0    0  503  502 -0.00000000000E+00 -0.00000000000E+00 -0.22001403643E+03  0.22001403643E+03  0.00000000000E+00 0. -1.
         21    1    1    2  503  505  0.10825349080E+03 -0.21868145252E+02 -0.15047876123E+03  0.18665714995E+03  0.00000000000E+00 0. -1.
         21    1    1    2  504  502 -0.51642619276E+02 -0.35245813483E+02 -0.17841001955E+02  0.65019449740E+02  0.00000000000E+00 0. -1.
         21    1    1    2  505  501 -0.40551983098E+02  0.13595562192E+02  0.67639595039E+02  0.80027604372E+02  0.00000000000E+00 0. -1.
         21    1    1    2  506  504 -0.16058888431E+02  0.43518396543E+02  0.13693057000E+03  0.14457427066E+03  0.00000000000E+00 0. -1.
<scales pt_clust_3="73.21650" pt_clust_4="66.01117" pt_clust_5="42.77035" pt_clust_6="14000.00000"></scales>
<clustering>
<clus scale="   42.770">  1  5  2 -1</clus>
<clus scale="   66.011">  2  4  1 -1</clus>
<clus scale="   73.217">  2  3  1 -1</clus>
<clus scale="   42.770">  1  3  2 -1</clus>
</clustering>
</event>
<event>
 6    0  0.4390142E+002  0.1912824E+03  0.7546771E-02  0.1157310E+00
         21   -1    0    0  504  501  0.00000000000E+00  0.00000000000E+00  0.14589923942E+04  0.14589923942E+04  0.00000000000E+00 0.  1.
         21   -1    0    0  506  502 -0.00000000000E+00 -0.00000000000E+00 -0.81012475232E+02  0.81012475232E+02  0.00000000000E+00 0.  1.
         21    1    1    2  503  501  0.72891424382E+02 -0.74010904703E+02  0.69718811840E+03  0.70488442045E+03  0.00000000000E+00 0.  1.
         21    1    1    2  504  502 -0.14371990097E+03  0.44390325636E+02  0.23687337276E+03  0.28059740852E+03  0.00000000000E+00 0.  1.
         21    1    1    2  505  503  0.79266495811E+02 -0.65321423625E+02  0.44750301627E+03  0.45913942906E+03  0.00000000000E+00 0. -1.
         21    1    1    2  506  505 -0.84380192228E+01  0.94942002692E+02 -0.35845884913E+01  0.95383611371E+02  0.00000000000E+00 0.  1.
<scales pt_clust_3="45.22168" pt_clust_4="185.79759" pt_clust_5="45.22168" pt_clust_6="95.31623"></scales>
<clustering>
<clus scale="   45.222">  3  5 -1 -1</clus>
<clus scale="   95.316">  2  6  1 -1</clus>
<clus scale="  185.798">  2  4  1 -1</clus>
<clus scale="  191.282">  1  3  2 -1</clus>
</clustering>
</event>
<event>
 6    0  0.4390142E+002  0.1244704E+03  0.7546771E-02  0.1235899E+00
         21   -1    0    0  505  501  0.00000000000E+00  0.00000000000E+00  0.49597404742E+03  0.49597404742E+03  0.00000000000E+00 0.  1.
         21   -1    0    0  506  502 -0.00000000000E+00 -0.00000000000E+00 -0.83955853912E+03  0.83955853912E+03  0.00000000000E+00 0. -1.
         21    1    1    2  503  501  0.31617267415E+02  0.14104239020E+02  0.31593653648E+03  0.31782774617E+03  0.00000000000E+00 0.  1.
         21    1    1    2  504  502 -0.39877433609E+02 -0.16815551215E+02 -0.57218047795E+02  0.71741741458E+02  0.00000000000E+00 0. -1.
         21    1    1    2  505  504 -0.13479430645E+03 -0.75335628932E+02  0.12621774553E+03  0.19943891627E+03  0.00000000000E+00 0. -1.
         21    1    1    2  506  503  0.14305447264E+03  0.78046941127E+02 -0.72852072591E+03  0.74652418263E+03  0.00000000000E+00 0. -1.
<scales pt_clust_3="34.62053" pt_clust_4="41.87436" pt_clust_5="124.47044" pt_clust_6="14000.00000"></scales>
<clustering>
<clus scale="   34.621">  1  3  2 -1</clus>
<clus scale="   41.874">  2  4  1 -1</clus>
<clus scale="  124.470">  1  5  2 -1</clus>
<clus scale="   34.621">  1  3  2 -1</clus>
</clustering>
</event>
<event>
 6    0  0.4390142E+002  0.1079116E+03  0.7546771E-02  0.1264487E+00
         21   -1    0    0  506  501  0.00000000000E+00  0.00000000000E+00  0.66854141470E+03  0.66854141470E+03  0.00000000000E+00 0.  1.
         21   -1    0    0  504  502 -0.00000000000E+00 -0.00000000000E+00 -0.20640373133E+03  0.20640373133E+03  0.00000000000E+00 0.  1.
         21    1    1    2  503  502  0.48340268766E+02  0.14737860674E+03  0.30701190535E+03  0.34396736086E+03  0.00000000000E+00 0.  1.
         21    1    1    2  504  505  0.63125738199E+02 -0.76639333842E+02 -0.15464399435E+03  0.18377489302E+03  0.00000000000E+00 0.  1.
         21    1    1    2  505  501 -0.39267527865E+02 -0.31745134117E+02  0.37664654090E+02  0.62994590660E+02  0.00000000000E+00 0. -1.
         21    1    1    2  506  503 -0.72198479100E+02 -0.38994138778E+02  0.27210511828E+03  0.28420830149E+03  0.00000000000E+00 0.  1.
<scales pt_clust_3="107.91164" pt_clust_4="99.28595" pt_clust_5="50.49448" pt_clust_6="14000.00000"></scales>
<clustering>
<clus scale="   50.494">  1  5  2 -1</clus>
<clus scale="   99.286">  2  4  1 -1</clus>
<clus scale="  107.912">  2  3  1 -1</clus>
<clus scale="   50.494">  1  3  2 -1</clus>
</clustering>
</event>
<event>
 6    0  0.4390142E+002  0.7604182E+02  0.7546771E-02  0.1340675E+00
         21   -1    0    0  504  501  0.00000000000E+00  0.00000000000E+00  0.27158618089E+04  0.27158618089E+04  0.00000000000E+00 0. -1.
         21   -1    0    0  506  502 -0.00000000000E+00 -0.00000000000E+00 -0.11335968757E+03  0.11335968757E+03  0.00000000000E+00 0. -1.
         21    1    1    2  503  502  0.10316058831E+03  0.53615510833E+02 -0.68714367553E+02  0.13504959937E+03  0.00000000000E+00 0. -1.
         21    1    1    2  504  503 -0.29673522463E+02  0.59100091652E+02  0.19473686153E+03  0.20565938832E+03  0.00000000000E+00 0. -1.
         21    1    1    2  505  501 -0.41703113373E+02 -0.79582795579E+02  0.23796877576E+04  0.23813832943E+04  0.00000000000E+00 0. -1.
         21    1    1    2  506  505 -0.31783952476E+02 -0.33132806906E+02  0.96791869832E+02  0.10712921448E+03  0.00000000000E+00 0.  1.
<scales pt_clust_3="76.04182" pt_clust_4="65.39296" pt_clust_5="14000.00000" pt_clust_6="45.91299"></scales>
<clustering>
<clus scale="   45.913">  2  6  1 -1</clus>
<clus scale="   65.393">  1  4  2 -1</clus>
<clus scale="   76.042">  2  3  1 -1</clus>
<clus scale="   65.393">  1  3  2 -1</clus>
</clustering>
</event>
<event>
 6    0  0.2169866E+003  0.1008000E+03  0.7546771E-02  0.1278623E+00
         21   -1    0    0  506  501  0.00000000000E+00  0.00000000000E+00  0.52633385665E+03  0.52633385665E+03  0.00000000000E+00 0.  1.
         21   -1    0    0  503  502 -0.00000000000E+00 -0.00000000000E+00 -0.92558448071E+03  0.92558448071E+03  0.00000000000E+00 0.  1.
         21    1    1    2  503  504 -0.41441697389E+02 -0.91832670089E+02 -0.89746489428E+03  0.90310236964E+03  0.00000000000E+00 0.  1.
         21    1    1    2  504  505  0.49743979528E+02  0.96059853422E+02  0.40387118752E+03  0.41810751613E+03  0.00000000000E+00 0.  1.
         21    1    1    2  505  501 -0.41919815409E+02 -0.20467438489E+02  0.75843488559E+02  0.89041685288E+02  0.00000000000E+00 0.  1.
         21    1    1    2  506  502  0.33617533269E+02  0.16240255155E+02  0.18499594143E+02  0.41666766302E+02  0.00000000000E+00 0.  1.
<scales pt_clust_3="100.79997" pt_clust_4="14000.00000" pt_clust_5="40.44722" pt_clust_6="37.33476"></scales>
<clustering>
<clus scale="   37.335">  1  6  2 -1</clus>
<clus scale="   40.447">  1  5  2 -1</clus>
<clus scale="  100.800">  2  3  1 -1</clus>
<clus scale="   37.335">  1  3  2 -1</clus>
</clustering>
</event>
<event>
 6    0  0.4390142E+002  0.1438539E+03  0.7546771E-02  0.1208235E+00
         21   -1    0    0  504  501  0.00000000000E+00  0.00000000000E+00  0.28684073384E+03  0.28684073384E+03  0.00000000000E+00 0. -1.
         21   -1    0    0  505  502 -0.00000000000E+00 -0.00000000000E+00 -0.14580571448E+04  0.14580571448E+04  0.00000000000E+00 0. -1.
         21    1    1    2  503  502 -0.22166808353E+02  0.92747888765E+02  0.88060762400E+02  0.12980075553E+03  0.00000000000E+00 0. -1.
         21    1    1    2  504  503 -0.49283653497E+02  0.36703913345E+02  0.16160026464E+03  0.17288927465E+03  0.00000000000E+00 0. -1.
         21    1    1    2  505  506  0.14320018046E+02  0.30466113211E+02 -0.46650724546E+02  0.57528576131E+02  0.00000000000E+00 0. -1.
         21    1    1    2  506  501  0.57130443804E+02 -0.15991791532E+03 -0.13742267135E+04  0.13846792724E+04  0.00000000000E+00 0. -1.
<scales pt_clust_3="14000.00000" pt_clust_4="61.47671" pt_clust_5="33.66373" pt_clust_6="143.85391"></scales>
<clustering>
<clus scale="   33.664">  2  5  1 -1</clus>
<clus scale="   61.477">  1  4  2 -1</clus>
<clus scale="  143.854">  2  6  1 -1</clus>
<clus scale="   61.477">  1  3  2 -1</clus>
</clustering>
</event>
<event>
 6    0  0.4390142E+002  0.1538630E+03  0.7546771E-02  0.1195805E+00
         21   -1    0    0  503  501  0.00000000000E+00  0.00000000000E+00  0.12458564178E+03  0.12458564178E+03  0.00000000000E+00 0. -1.
         21   -1    0    0  506  502 -0.00000000000E+00 -0.00000000000E+00 -0.45123275664E+03  0.45123275664E+03  0.00000000000E+00 0. -1.
         21    1    1    2  503  505 -0.54245523448E+02  0.23654207130E+02 -0.24079476187E+02  0.63889901413E+02  0.00000000000E+00 0. -1.
         21    1    1    2  504  502 -0.77078830673E+02  0.67949286498E+01 -0.24578922740E+03  0.25768131772E+03  0.00000000000E+00 0. -1.
         21    1    1    2  505  504 -0.50119684033E+02 -0.27292954387E+02 -0.44486685733E+02  0.72359887329E+02  0.00000000000E+00 0. -1.
         21    1    1    2  506  501  0.18144403815E+03 -0.31561813921E+01 -0.12291725537E+02  0.18188729197E+03  0.00000000000E+00 0. -1.
<scales pt_clust_3="53.40353" pt_clust_4="77.37776" pt_clust_5="53.40353" pt_clust_6="143.93214"></scales>
<clustering>
<clus scale="   53.404">  3  5 -1 -1</clus>
<clus scale="   77.378">  2  4  1 -1</clus>
<clus scale="  143.932">  2  6  1 -1</clus>
<clus scale="  153.863">  1  3  2 -1</clus>
</clustering>
</event>
<event>
 6    0  0.4390142E+002  0.1312905E+03  0.7546771E-02  0.1225553E+00
         21   -1    0    0  504  501  0.00000000000E+00  0.00000000000E+00  0.21139521343E+03  0.21139521343E+03  0.00000000000E+00 0. -1.
         21   -1    0    0  503  502 -0.00000000000E+00 -0.00000000000E+00 -0.63936646488E+03  0.63936646488E+03  0.00000000000E+00 0. -1.
         21    1    1    2  503  501  0.37888058790E+02 -0.20659360908E+02 -0.75043591399E+02  0.86567053791E+02  0.00000000000E+00 0.  1.
         21    1    1    2  504  506 -0.41131066674E+02  0.45902450118E+02  0.11907880966E+03  0.13408416194E+03  0.00000000000E+00 0. -1.
         21    1    1    2  505  502  0.36206255314E+02 -0.82038070501E+02 -0.53299750717E+03  0.54048818728E+03  0.00000000000E+00 0. -1.
         21    1    1    2  506  505 -0.32963247430E+02  0.56794981291E+02  0.60991037456E+02  0.89622275305E+02  0.00000000000E+00 0.  1.
<scales pt_clust_3="43.15454" pt_clust_4="38.54195" pt_clust_5="125.11797" pt_clust_6="38.54195"></scales>
<clustering>
<clus scale="   38.542">  4  6 -1 -1</clus>
<clus scale="   43.155">  2  3  1 -1</clus>
<clus scale="  125.118">  2  5  1 -1</clus>
<clus scale="  131.291">  1  3  2 -1</clus>
</clustering>
</event>
<event>
 6    0  0.4390142E+002  0.8808833E+02  0.7546771E-02  0.1307548E+00
         21   -1    0    0  506  501  0.00000000000E+00  0.00000000000E+00  0.13714138117E+04  0.13714138117E+04  0.00000000000E+00 0.  1.
         21   -1    0    0  503  502 -0.00000000000E+00 -0.00000000000E+00 -0.39905437136E+02  0.39905437136E+02  0.00000000000E+00 0. -1.
         21    1    1    2  503  505 -0.40142223063E+02 -0.33727457207E+01  0.24023533390E+02  0.46903130414E+02  0.00000000000E+00 0. -1.
         21    1    1    2  504  501 -0.41157066512E+02  0.88799378297E+01  0.75261680480E+03  0.75379361385E+03  0.00000000000E+00 0.  1.
         21    1    1    2  505  504 -0.20293717422E+02  0.61122117450E+02  0.43572492366E+03  0.44045880319E+03  0.00000000000E+00 0.  1.
         21    1    1    2  506  502  0.10159300700E+03 -0.66629309558E+02  0.11914311275E+03  0.17016370141E+03  0.00000000000E+00 0. -1.
<scales pt_clust_3="40.28366" pt_clust_4="42.90121" pt_clust_5="88.08833" pt_clust_6="14000.00000"></scales>
<clustering>
<clus scale="   40.284">  2  3  1 -1</clus>
<clus scale="   42.901">  1  4  2 -1</clus>
<clus scale="   88.088">  1  5  2 -1</clus>
<clus scale="   42.901">  1  3  2 -1</clus>
</clustering>
</event>
<event>
 6    0  0.4390142E+002  0.1120981E+03  0.7546771E-02  0.1256733E+00
         21   -1    0    0  506  501  0.00000000000E+00  0.00000000000E+00  0.23956287119E+03  0.23956287119E+03  0.00000000000E+00 0.  1.
         21   -1    0    0  503  502 -0.00000000000E+00 -0.00000000000E+00 -0.57399060119E+03  0.57399060119E+03  0.00000000000E+00 0. -1.
         21    1    1    2  503  505  0.50495164062E+02 -0.25977582688E+02 -0.27584325591E+03  0.28162758783E+03  0.00000000000E+00 0. -1.
         21    1    1    2  504  501 -0.88366840928E+02 -0.83311273936E+02  0.19002790215E+03  0.22552177397E+03  0.00000000000E+00 0.  1.
         21    1    1    2  505  504  0.57439782425E+02  0.70602874993E+02 -0.24676060240E+03  0.26301119645E+03  0.00000000000E+00 0. -1.
         21    1    1    2  506  502 -0.19568105560E+02  0.38685981631E+02 -0.18517738551E+01  0.43392914126E+02  0.00000000000E+00 0.  1.
<scales pt_clust_3="56.32258" pt_clust_4="14000.00000" pt_clust_5="112.09811" pt_clust_6="43.35338"></scales>
<clustering>
<clus scale="   43.353">  1  6  2 -1</clus>
<clus scale="   56.323">  2  3  1 -1</clus>
<clus scale="  112.098">  2  5  1 -1</clus>
<clus scale="   43.353">  1  3  2 -1</clus>
</clustering>
</event>
<event>
 6    0  0.4390142E+002  0.9060121E+02  0.7546771E-02  0.1301402E+00
         21   -1    0    0  505  501  0.00000000000E+00  0.00000000000E+00  0.14151508861E+03  0.14151508861E+03  0.00000000000E+00 0. -1.
         21   -1    0    0  506  502 -0.00000000000E+00 -0.00000000000E+00 -0.17562063271E+03  0.17562063271E+03  0.00000000000E+00 0. -1.
         21    1    1    2  503  502  0.35127731418E+02 -0.14620638946E+02  0.15542368226E+02  0.41100922226E+02  0.00000000000E+00 0.  1.
         21    1    1    2  504  501  0.37248312537E+02  0.67661408559E+02  0.26808876737E+02  0.81757072274E+02  0.00000000000E+00 0. -1.
         21    1    1    2  505  503  0.14503423820E+02 -0.53513854134E+02  0.24901392377E+02  0.60779611953E+02  0.00000000000E+00 0. -1.
         21    1    1    2  506  504 -0.86879467775E+02  0.47308452190E+00 -0.10135818144E+03  0.13349811487E+03  0.00000000000E+00 0. -1.
<scales pt_clust_3="33.53129" pt_clust_4="77.23667" pt_clust_5="33.53129" pt_clust_6="81.05673"></scales>
<clustering>
<clus scale="   33.531">  3  5 -1 -1</clus>
<clus scale="   77.237">  1  4  2 -1</clus>
<clus scale="   81.057">  2  6  1 -1</clus>
<clus scale="   77.237">  1  3  2 -1</clus>
</clustering>
</event>
<event>
 6    0  0.4390142E+002  0.2187635E+03  0.7546771E-02  0.1134808E+00
         21   -1    0    0  504  501  0.00000000000E+00  0.00000000000E+00  0.23574716800E+04  0.23574716800E+04  0.00000000000E+00 0. -1.
         21   -1    0    0  503  502 -0.00000000000E+00 -0.00000000000E+00 -0.14012691658E+03  0.14012691658E+03  0.00000000000E+00 0. -1.
         21    1    1    2  503  505 -0.66628167110E+02 -0.69586893006E+02 -0.86630742347E+02  0.12956285675E+03  0.00000000000E+00 0. -1.
         21    1    1    2  504  506 -0.12386467092E+03  0.40258604864E+02  0.24000814610E+03  0.27306981188E+03  0.00000000000E+00 0. -1.
         21    1    1    2  505  501  0.22502224430E+03 -0.75602995034E+01  0.20037435467E+04  0.20163532353E+04  0.00000000000E+00 0. -1.
         21    1    1    2  506  502 -0.34529406268E+02  0.36888587645E+02  0.60223812996E+02  0.78612692662E+02  0.00000000000E+00 0. -1.
<scales pt_clust_3="96.34131" pt_clust_4="31.14892" pt_clust_5="212.97067" pt_clust_6="31.14892"></scales>
<clustering>
<clus scale="   31.149">  4  6 -1 -1</clus>
<clus scale="   96.341">  2  3  1 -1</clus>
<clus scale="  212.971">  1  5  2 -1</clus>
<clus scale="  212.971">  1  3  2 -1</clus>
</clustering>
</event>
<event>
 6    0  0.4390142E+002  0.1376379E+03  0.7546771E-02  0.1216543E+00
         21   -1    0    0  506  501  0.00000000000E+00  0.00000000000E+00  0.77050802064E+03  0.77050802064E+03  0.00000000000E+00 0. -1.
         21   -1    0    0  504  502 -0.00000000000E+00 -0.00000000000E+00 -0.23767237467E+03  0.23767237467E+03  0.00000000000E+00 0. -1.
         21    1    1    2  503  501 -0.52863812509E+02  0.34699282052E+02  0.28225240042E+03  0.28924909748E+03  0.00000000000E+00 0. -1.
         21    1    1    2  504  505  0.95414214112E+02 -0.87088779683E+02 -0.19653314163E+03  0.23518844266E+03  0.00000000000E+00 0. -1.
         21    1    1    2  505  503 -0.46834811094E+02  0.96301424805E+02  0.41648495959E+03  0.43003160990E+03  0.00000000000E+00 0. -1.
         21    1    1    2  506  502  0.42844094910E+01 -0.43911927174E+02  0.30631427588E+02  0.53711245275E+02  0.00000000000E+00 0. -1.
<scales pt_clust_3="34.62114" pt_clust_4="130.05522" pt_clust_5="34.62114" pt_clust_6="44.12044"></scales>
<clustering>
<clus scale="   34.621">  3  5 -1 -1</clus>
<clus scale="   44.120">  1  6  2 -1</clus>
<clus scale="  130.055">  2  4  1 -1</clus>
<clus scale="   44.120">  1  3  2 -1</clus>
</clustering>
</event>
<event>
 6    0  0.4390142E+002  0.9729045E+02  0.7546771E-02  0.1286099E+00
         21   -1    0    0  506  501  0.00000000000E+00  0.00000000000E+00  0.58316109933E+03  0.58316109933E+03  0.00000000000E+00 0. -1.
         21   -1    0    0  504  502 -0.00000000000E+00 -0.00000000000E+00 -0.21815455918E+04  0.21815455918E+04  0.00000000000E+00 0. -1.
         21    1    1    2  503  501  0.71949499722E+02 -0.13477623078E+02  0.10611461655E+03  0.12891349301E+03  0.00000000000E+00 0. -1.
         21    1    1    2  504  505  0.21834949950E+02  0.52815454098E+02 -0.18802970383E+04  0.18811653807E+04  0.00000000000E+00 0. -1.
         21    1    1    2  505  503 -0.11557530468E+03 -0.84020808903E+02 -0.27031313156E+03  0.30575535396E+03  0.00000000000E+00 0. -1.
         21    1    1    2  506  502  0.21790855005E+02  0.44682977884E+02  0.44611106084E+03  0.44887246349E+03  0.00000000000E+00 0. -1.
<scales pt_clust_3="14000.00000" pt_clust_4="57.30979" pt_clust_5="97.29045" pt_clust_6="49.71328"></scales>
<clustering>
<clus scale="   49.713">  1  6  2 -1</clus>
<clus scale="   57.310">  2  4  1 -1</clus>
<clus scale="   97.290">  2  5  1 -1</clus>
<clus scale="   49.713">  1  3  2 -1</clus>
</clustering>
</event>
<event>
 6    0  0.4390142E+002  0.8302869E+02  0.7546771E-02  0.1320670E+00
         21   -1    0    0  505  501  0.00000000000E+00  0.00000000000E+00  0.16867811565E+03  0.16867811565E+03  0.00000000000E+00 0. -1.
         21   -1    0    0  506  502 -0.00000000000E+00 -0.00000000000E+00 -0.22422244630E+04  0.22422244630E+04  0.00000000000E+00 0.  1.
         21    1    1    2  503  502  0.78108655028E+01  0.11431703763E+03 -0.11344765838E+04  0.11402484439E+04  0.00000000000E+00 0.  1.
         21    1    1    2  504  501 -0.20647869589E+01 -0.29970593475E+02 -0.13522320094E+02  0.32944695463E+02  0.00000000000E+00 0.  1.
         21    1    1    2  505  503  0.31675726122E+02 -0.47552742348E+02  0.15019075499E+03  0.16069187228E+03  0.00000000000E+00 0. -1.
         21    1    1    2  506  504 -0.37421804666E+02 -0.36793701809E+02 -0.10757381985E+04  0.10770175670E+04  0.00000000000E+00 0.  1.
<scales pt_clust_3="14000.00000" pt_clust_4="30.04163" pt_clust_5="83.02869" pt_clust_6="52.57071"></scales>
<clustering>
<clus scale="   30.042">  1  4  2 -1</clus>
<clus scale="   52.571">  2  6  1 -1</clus>
<clus scale="   83.029">  1  5  2 -1</clus>
<clus scale="   30.042">  1  3  2 -1</clus>
</clustering>
</event>
<event>
 6    0  0.4390142E+002  0.9159117E+02  0.7546771E-02  0.1299044E+00
         21   -1    0    0  504  501  0.00000000000E+00  0.00000000000E+00  0.45007635277E+03  0.45007635277E+03  0.00000000000E+00 0.  1.
         21   -1    0    0  501  502 -0.00000000000E+00 -0.00000000000E+00 -0.11555304712E+03  0.11555304712E+03  0.00000000000E+00 0.  1.
         21    1    1    2  503  505 -0.57699437836E+02  0.26031666549E+02 -0.51134404956E+02  0.81373215250E+02  0.00000000000E+00 0.  1.
         21    1    1    2  504  506  0.11319068492E+02 -0.10595576718E+03  0.33749520601E+03  0.35391773053E+03  0.00000000000E+00 0.  1.
         21    1    1    2  505  502  0.28856543455E+02  0.13960887250E+02 -0.16732002732E+02  0.36160287449E+02  0.00000000000E+00 0.  1.
         21    1    1    2  506  503  0.17523825889E+02  0.65963213381E+02  0.64894507330E+02  0.94178166657E+02  0.00000000000E+00 0.  1.
<scales pt_clust_3="51.37548" pt_clust_4="91.59117" pt_clust_5="32.05630" pt_clust_6="14000.00000"></scales>
<clustering>
<clus scale="   32.056">  2  5  1 -1</clus>
<clus scale="   51.375">  2  3  1 -1</clus>
<clus scale="   91.591">  1  4  2 -1</clus>
<clus scale="   91.591">  1  3  2 -1</clus>
</clustering>
</event>
<event>
 6    0  0.4390142E+002  0.7938379E+02  0.7546771E-02  0.1330809E+00
         21   -1    0    0  503  501  0.00000000000E+00  0.00000000000E+00  0.15408832125E+03  0.15408832125E+03  0.00000000000E+00 0.  1.
         21   -1    0    0  506  502 -0.00000000000E+00 -0.00000000000E+00 -0.44627657145E+03  0.44627657145E+03  0.00000000000E+00 0. -1.
         21    1    1    2  503  502  0.42828200329E+02 -0.17230995378E+02  0.46926870121E+02  0.65827753147E+02  0.00000000000E+00 0.  1.
         21    1    1    2  504  505 -0.51684273528E+01  0.83083820471E+02 -0.11096382269E+03  0.13871771268E+03  0.00000000000E+00 0.  1.
         21    1    1    2  505  501 -0.69789547759E+02  0.66813063104E+01  0.62875969092E+02  0.94173288781E+02  0.00000000000E+00 0.  1.
         21    1    1    2  506  504  0.32129774783E+02 -0.72534131403E+02 -0.29102726672E+03  0.30164613808E+03  0.00000000000E+00 0. -1.
<scales pt_clust_3="46.16451" pt_clust_4="79.38379" pt_clust_5="36.08967" pt_clust_6="14000.00000"></scales>
<clustering>
<clus scale="   46.165">  1  3  2 -1</clus>
<clus scale="   36.090">  1  5  2 -1</clus>
<clus scale="   79.384">  1  4  2 -1</clus>
<clus scale="   46.165">  1  3  2 -1</clus>
</clustering>
</event>
<event>
 6    0  0.4390142E+002  0.8836712E+02  0.7546771E-02  0.1306855E+00
         21   -1    0    0  503  501  0.00000000000E+00  0.00000000000E+00  0.22015921812E+04  0.22015921812E+04  0.00000000000E+00 0.  1.
         21   -1    0    0  505  502 -0.00000000000E+00 -0.00000000000E+00 -0.16296014995E+04  0.16296014995E+04  0.00000000000E+00 0. -1.
         21    1    1    2  503  504 -0.42336261930E+02  0.14852965725E+02  0.48790013254E+03  0.48995868091E+03  0.00000000000E+00 0. -1.
         21    1    1    2  504  502 -0.12270960562E+01  0.62172649794E+02  0.17086819080E+04  0.17098130912E+04  0.00000000000E+00 0.  1.
         21    1    1    2  505  506 -0.38501735962E+02 -0.44112866895E+02 -0.78753141693E+03  0.78970504706E+03  0.00000000000E+00 0. -1.
         21    1    1    2  506  501  0.82065093948E+02 -0.32912748623E+02 -0.83705994192E+03  0.84171686156E+03  0.00000000000E+00 0. -1.
<scales pt_clust_3="44.86613" pt_clust_4="88.36712" pt_clust_5="58.56250" pt_clust_6="14000.00000"></scales>
<clustering>
<clus scale="   44.866">  1  3  2 -1</clus>
<clus scale="   58.563">  2  5  1 -1</clus>
<clus scale="   88.367">  1  4  2 -1</clus>
<clus scale="   44.866">  1  3  2 -1</clus>
</clustering>
</event>
<event>
 6    0  0.4390142E+002  0.1038861E+03  0.7546771E-02  0.1272330E+00
         21   -1    0    0  504  501  0.00000000000E+00  0.00000000000E+00  0.21655195337E+03  0.21655195337E+03  0.00000000000E+00 0. -1.
         21   -1    0    0  503  502 -0.00000000000E+00 -0.00000000000E+00 -0.57984800793E+03  0.57984800793E+03  0.00000000000E+00 0.  1.
         21    1    1    2  503  506  0.26374254380E+02 -0.52991685818E+02 -0.48565842225E+03  0.48925231033E+03  0.00000000000E+00 0.  1.
         21    1    1    2  504  502 -0.22489775027E+02  0.14040381658E+03 -0.11339495970E+02  0.14264503448E+03  0.00000000000E+00 0. -1.
         21    1    1    2  505  501 -0.15036412421E+02 -0.50419007578E+02  0.10100620990E+03  0.11388777134E+03  0.00000000000E+00 0. -1.
         21    1    1    2  506  505  0.11151933068E+02 -0.36993123188E+02  0.32695653763E+02  0.50614845148E+02  0.00000000000E+00 0. -1.
<scales pt_clust_3="59.19223" pt_clust_4="96.24636" pt_clust_5="33.50838" pt_clust_6="33.50838"></scales>
<clustering>
<clus scale="   33.508">  5  6 -1 -1</clus>
<clus scale="   59.192">  2  3  1 -1</clus>
<clus scale="   96.246">  2  4  1 -1</clus>
<clus scale="  103.886">  1  3  2 -1</clus>
</clustering>
</event>
<event>
 6    0  0.4390142E+002  0.1694630E+03  0.7546771E-02  0.1178409E+00
         21   -1    0    0  503  501  0.00000000000E+00  0.00000000000E+00  0.12309529824E+04  0.12309529824E+04  0.00000000000E+00 0.  1.
         21   -1    0    0  506  502 -0.00000000000E+00 -0.00000000000E+00 -0.63591786832E+03  0.63591786832E+03  0.00000000000E+00 0.  1.
         21    1    1    2  503  505  0.19638103694E+03 -0.19031578137E+02  0.18052896592E+03  0.26742928069E+03  0.00000000000E+00 0.  1.
         21    1    1    2  504  501 -0.27931499654E+02 -0.25611739914E+02  0.67356402200E+03  0.67462924753E+03  0.00000000000E+00 0.  1.
         21    1    1    2  505  502 -0.14710866226E+03  0.82817803709E+02 -0.57837748428E+03  0.60251162764E+03  0.00000000000E+00 0.  1.
         21    1    1    2  506  504 -0.21340875029E+02 -0.38174485658E+02  0.31931961045E+03  0.32230069488E+03  0.00000000000E+00 0. -1.
<scales pt_clust_3="14000.00000" pt_clust_4="36.70658" pt_clust_5="169.46301" pt_clust_6="89.72961"></scales>
<clustering>
<clus scale="   36.707">  4  6 -1 -1</clus>
<clus scale="   89.730">  1  4  2 -1</clus>
<clus scale="  169.463">  2  5  1 -1</clus>
<clus scale="   89.730">  1  3  2 -1</clus>
</clustering>
</event>
<event>
 6    0  0.4390142E+002  0.8784564E+02  0.7546771E-02  0.1308154E+00
         21   -1    0    0  503  501  0.00000000000E+00  0.00000000000E+00  0.26873225514E+04  0.26873225514E+04  0.00000000000E+00 0.  1.
         21   -1    0    0  504  502 -0.00000000000E+00 -0.00000000000E+00 -0.11472339389E+02  0.11472339389E+02  0.00000000000E+00 0.  1.
         21    1    1    2  503  506 -0.42920967424E+02 -0.41517779175E+01  0.69043264971E+03  0.69177791992E+03  0.00000000000E+00 0.  1.
         21    1    1    2  504  505 -0.17100531106E+02  0.25275265957E+02  0.19071884735E+03  0.19314488336E+03  0.00000000000E+00 0.  1.
         21    1    1    2  505  501  0.20441338702E+02  0.84924783917E+02  0.14141566339E+04  0.14168518103E+04  0.00000000000E+00 0.  1.
         21    1    1    2  506  502  0.39580159828E+02 -0.10604827196E+03  0.38054208111E+03  0.39702027723E+03  0.00000000000E+00 0.  1.
<scales pt_clust_3="44.11273" pt_clust_4="30.51667" pt_clust_5="14000.00000" pt_clust_6="87.84564"></scales>
<clustering>
<clus scale="   30.517">  2  4  1 -1</clus>
<clus scale="   44.113">  1  3  2 -1</clus>
<clus scale="   87.846">  2  6  1 -1</clus>
<clus scale="   44.113">  1  3  2 -1</clus>
</clustering>
</event>
<event>
 6    0  0.4390142E+002  0.7352477E+02  0.7546771E-02  0.1348501E+00
         21   -1    0    0  505  501  0.00000000000E+00  0.00000000000E+00  0.69958696645E+03  0.69958696645E+03  0.00000000000E+00 0. -1.
         21   -1    0    0  503  502 -0.00000000000E+00 -0.00000000000E+00 -0.10175021335E+04  0.10175021335E+04  0.00000000000E+00 0. -1.
         21    1    1    2  503  504  0.34045205885E+02 -0.61839307463E+02 -0.83134897089E+03  0.83434063031E+03  0.00000000000E+00 0. -1.
         21    1    1    2  504  501  0.45931668295E+02  0.31526305252E+01  0.54674609888E+03  0.54868110399E+03  0.00000000000E+00 0. -1.
         21    1    1    2  505  506 -0.29450533533E+02 -0.29386797129E+02  0.13291925806E+03  0.13927830748E+03  0.00000000000E+00 0.  1.
         21    1    1    2  506  502 -0.50526340647E+02  0.88073474067E+02 -0.16623155311E+03  0.19478905817E+03  0.00000000000E+00 0.  1.
<scales pt_clust_3="73.52477" pt_clust_4="30.74455" pt_clust_5="41.60430" pt_clust_6="14000.00000"></scales>
<clustering>
<clus scale="   41.604">  1  5  2 -1</clus>
<clus scale="   30.745">  1  4  2 -1</clus>
<clus scale="   73.525">  2  3  1 -1</clus>
<clus scale="   41.604">  1  3  2 -1</clus>
</clustering>
</event>
<event>
 6    0  0.4390142E+002  0.8623787E+02  0.7546771E-02  0.1312227E+00
         21   -1    0    0  504  501  0.00000000000E+00  0.00000000000E+00  0.51412253372E+03  0.51412253372E+03  0.00000000000E+00 0.  1.
         21   -1    0    0  503  502 -0.00000000000E+00 -0.00000000000E+00 -0.10454989258E+04  0.10454989258E+04  0.00000000000E+00 0. -1.
         21    1    1    2  503  506 -0.70007000615E+01  0.61833212376E+02 -0.72452929606E+03  0.72719671121E+03  0.00000000000E+00 0. -1.
         21    1    1    2  504  505 -0.70909447347E+02  0.43356952448E+02 -0.75839456383E+02  0.11251487987E+03  0.00000000000E+00 0. -1.
         21    1    1    2  505  502  0.22156132171E+02 -0.39016554554E+02 -0.21938492304E+03  0.22392617127E+03  0.00000000000E+00 0. -1.
         21    1    1    2  506  501  0.55754015237E+02 -0.66173610270E+02  0.48837728340E+03  0.49598369716E+03  0.00000000000E+00 0.  1.
<scales pt_clust_3="30.17686" pt_clust_4="14000.00000" pt_clust_5="44.86854" pt_clust_6="86.23787"></scales>
<clustering>
<clus scale="   44.869">  2  5  1 -1</clus>
<clus scale="   30.177">  2  3  1 -1</clus>
<clus scale="   86.238">  1  6  2 -1</clus>
<clus scale="   86.238">  1  3  2 -1</clus>
</clustering>
</event>
<event>
 6    0  0.4390142E+002  0.9727800E+02  0.7546771E-02  0.1286126E+00
         21   -1    0    0  504  501  0.00000000000E+00  0.00000000000E+00  0.16011924984E+04  0.16011924984E+04  0.00000000000E+00 0. -1.
         21   -1    0    0  505  502 -0.00000000000E+00 -0.00000000000E+00 -0.62569286366E+02  0.62569286366E+02  0.00000000000E+00 0.  1.
         21    1    1    2  503  502  0.10820741149E+03  0.63575932274E+02  0.12015269010E+04  0.12080635898E+04  0.00000000000E+00 0. -1.
         21    1    1    2  504  503 -0.68664853540E+00  0.48281838346E+02  0.17781461503E+03  0.18425429363E+03  0.00000000000E+00 0. -1.
         21    1    1    2  505  506 -0.85886350289E+02 -0.43264355437E+02 -0.55572434398E+00  0.96169529722E+02  0.00000000000E+00 0.  1.
         21    1    1    2  506  501 -0.21634412670E+02 -0.68593415183E+02  0.15983742031E+03  0.17527437163E+03  0.00000000000E+00 0.  1.
<scales pt_clust_3="14000.00000" pt_clust_4="48.28672" pt_clust_5="97.27800" pt_clust_6="66.54009"></scales>
<clustering>
<clus scale="   48.287">  1  4  2 -1</clus>
<clus scale="   66.540">  1  6  2 -1</clus>
<clus scale="   97.278">  2  5  1 -1</clus>
<clus scale="   48.287">  1  3  2 -1</clus>
</clustering>
</event>
<event>
 6    0  0.4390142E+002  0.1188858E+03  0.7546771E-02  0.1244947E+00
         21   -1    0    0  505  501  0.00000000000E+00  0.00000000000E+00  0.10669769564E+04  0.10669769564E+04  0.00000000000E+00 0.  1.
         21   -1    0    0  503  502 -0.00000000000E+00 -0.00000000000E+00 -0.12742589163E+03  0.12742589163E+03  0.00000000000E+00 0.  1.
         21    1    1    2  503  506  0.38890896817E+02 -0.53637239554E+02 -0.71015487686E+02  0.97121855488E+02  0.00000000000E+00 0.  1.
         21    1    1    2  504  502  0.18055306920E+02  0.42842921966E+02  0.71303633703E+01  0.47035647676E+02  0.00000000000E+00 0.  1.
         21    1    1    2  505  504 -0.16484908695E+03  0.17278704351E+02  0.34217764260E+03  0.38020956614E+03  0.00000000000E+00 0.  1.
         21    1    1    2  506  501  0.10790288321E+03 -0.64843867629E+01  0.66125854646E+03  0.67003577871E+03  0.00000000000E+00 0.  1.
<scales pt_clust_3="56.70538" pt_clust_4="46.49204" pt_clust_5="118.88578" pt_clust_6="14000.00000"></scales>
<clustering>
<clus scale="   46.492">  2  4  1 -1</clus>
<clus scale="   56.705">  2  3  1 -1</clus>
<clus scale="  118.886">  2  5  1 -1</clus>
<clus scale="  118.886">  1  3  2 -1</clus>
</clustering>
</event>
<event>
 6    0  0.4390142E+002  0.1282701E+03  0.7546771E-02  0.1230045E+00
         21   -1    0    0  506  501  0.00000000000E+00  0.00000000000E+00  0.46278413755E+02  0.46278413755E+02  0.00000000000E+00 0.  1.
         21   -1    0    0  503  502 -0.00000000000E+00 -0.00000000000E+00 -0.20256837393E+04  0.20256837393E+04  0.00000000000E+00 0.  1.
         21    1    1    2  503  501 -0.56900174641E+02  0.11663849864E+03 -0.29741217731E+03  0.32449371712E+03  0.00000000000E+00 0.  1.
         21    1    1    2  504  502  0.14871528645E+03  0.47645675286E+02 -0.10510886735E+04  0.10626258731E+04  0.00000000000E+00 0.  1.
         21    1    1    2  505  504 -0.57422297656E+02 -0.10432226502E+03 -0.59528693746E+03  0.60708071387E+03  0.00000000000E+00 0.  1.
         21    1    1    2  506  505 -0.34392814153E+02 -0.59961908902E+02 -0.35617537337E+02  0.77761848940E+02  0.00000000000E+00 0.  1.
<scales pt_clust_3="113.17888" pt_clust_4="128.27006" pt_clust_5="14000.00000" pt_clust_6="69.12522"></scales>
<clustering>
<clus scale="   69.125">  1  6  2 -1</clus>
<clus scale="  113.179">  1  3  2 -1</clus>
<clus scale="  128.270">  2  4  1 -1</clus>
<clus scale="   69.125">  1  3  2 -1</clus>
</clustering>
</event>
<event>
 6    0  0.4390142E+002  0.1661735E+03  0.7546771E-02  0.1181898E+00
         21   -1    0    0  506  501  0.00000000000E+00  0.00000000000E+00  0.64462415846E+02  0.64462415846E+02  0.00000000000E+00 0. -1.
         21   -1    0    0  503  502 -0.00000000000E+00 -0.00000000000E+00 -0.84250638561E+03  0.84250638561E+03  0.00000000000E+00 0.  1.
         21    1    1    2  503  501  0.11831286225E+03  0.59816167569E+02 -0.55333797463E+03  0.56899808563E+03  0.00000000000E+00 0.  1.
         21    1    1    2  504  502  0.41657508757E+02 -0.24038391394E+02 -0.13488269407E+03  0.14320102464E+03  0.00000000000E+00 0. -1.
         21    1    1    2  505  504 -0.78140933814E+02 -0.31318077422E+02 -0.72293865485E+02  0.11096499672E+03  0.00000000000E+00 0. -1.
         21    1    1    2  506  505 -0.81829437192E+02 -0.44596987530E+01 -0.17529435575E+02  0.83804694473E+02  0.00000000000E+00 0. -1.
<scales pt_clust_3="156.89865" pt_clust_4="48.09566" pt_clust_5="54.26465" pt_clust_6="54.26465"></scales>
<clustering>
<clus scale="   48.096">  2  4  1 -1</clus>
<clus scale="   54.265">  5  6 -1 -1</clus>
<clus scale="  156.899">  2  3  1 -1</clus>
<clus scale="  166.173">  1  3  2 -1</clus>
</clustering>
</event>
<event>
 6    0  0.4390142E+002  0.7869821E+02  0.7546771E-02  0.1332787E+00
         21   -1    0    0  505  501  0.00000000000E+00  0.00000000000E+00  0.39403870869E+03  0.39403870869E+03  0.00000000000E+00 0.  1.
         21   -1    0    0  503  502 -0.00000000000E+00 -0.00000000000E+00 -0.68393192740E+03  0.68393192740E+03  0.00000000000E+00 0.  1.
         21    1    1    2  503  501  0.27949115996E+02 -0.69914575057E+02 -0.56461677118E+03  0.56961504473E+03  0.00000000000E+00 0.  1.
         21    1    1    2  504  506  0.22993106862E+02  0.50383890198E+02  0.82127467951E+02  0.99056248398E+02  0.00000000000E+00 0.  1.
         21    1    1    2  505  504  0.39654447002E+02  0.17038107000E+02  0.28004882318E+03  0.28335510516E+03  0.00000000000E+00 0.  1.
         21    1    1    2  506  502 -0.90596669860E+02  0.24925778590E+01 -0.87452738661E+02  0.12594423779E+03  0.00000000000E+00 0.  1.
<scales pt_clust_3="75.27572" pt_clust_4="14000.00000" pt_clust_5="43.15985" pt_clust_6="78.69821"></scales>
<clustering>
<clus scale="   43.160">  1  5  2 -1</clus>
<clus scale="   75.276">  2  3  1 -1</clus>
<clus scale="   78.698">  2  6  1 -1</clus>
<clus scale="   43.160">  1  3  2 -1</clus>
</clustering>
</event>
<event>
 6    0  0.4390142E+002  0.7880861E+02  0.7546771E-02  0.1332467E+00
         21   -1    0    0  506  501  0.00000000000E+00  0.00000000000E+00  0.12607610293E+04  0.12607610293E+04  0.00000000000E+00 0.  1.
         21   -1    0    0  505  502 -0.00000000000E+00 -0.00000000000E+00 -0.10626569753E+03  0.10626569753E+03  0.00000000000E+00 0. -1.
         21    1    1    2  503  504  0.48240912488E+02  0.94784772018E+02  0.68713066857E+03  0.69531280323E+03  0.00000000000E+00 0.  1.
         21    1    1    2  504  502 -0.64837310878E+02 -0.37244445696E+02 -0.75933500599E+02  0.10656886098E+03  0.00000000000E+00 0. -1.
         21    1    1    2  505  501  0.38346200777E+02 -0.34457982249E+02  0.53412822574E+02  0.74234178584E+02  0.00000000000E+00 0. -1.
         21    1    1    2  506  503 -0.21749802387E+02 -0.23082344073E+02  0.48988534124E+03  0.49091088405E+03  0.00000000000E+00 0.  1.
<scales pt_clust_3="14000.00000" pt_clust_4="78.80861" pt_clust_5="51.55854" pt_clust_6="31.71511"></scales>
<clustering>
<clus scale="   31.715">  1  6  2 -1</clus>
<clus scale="   51.559">  2  5  1 -1</clus>
<clus scale="   78.809">  2  4  1 -1</clus>
<clus scale="   31.715">  1  3  2 -1</clus>
</clustering>
</event>
<event>
 6    0  0.4390142E+002  0.6371566E+02  0.7546771E-02  0.1382869E+00
         21   -1    0    0  504  501  0.00000000000E+00  0.00000000000E+00  0.18000050619E+04  0.18000050619E+04  0.00000000000E+00 0. -1.
         21   -1    0    0  505  502 -0.00000000000E+00 -0.00000000000E+00 -0.23032169448E+03  0.23032169448E+03  0.00000000000E+00 0.  1.
         21    1    1    2  503  506  0.74288536814E+02 -0.63364094852E+02 -0.70143121116E+02  0.12022417668E+03  0.00000000000E+00 0.  1.
         21    1    1    2  504  503 -0.70599093295E+02 -0.93002972320E+01  0.16180883897E+04  0.16196545200E+04  0.00000000000E+00 0. -1.
         21    1    1    2  505  501  0.16733115355E+02  0.40884669851E+02  0.15019229710E+03  0.15655439785E+03  0.00000000000E+00 0. -1.
         21    1    1    2  506  502 -0.20422558874E+02  0.31779722233E+02 -0.12845419819E+03  0.13389366187E+03  0.00000000000E+00 0.  1.
<scales pt_clust_3="63.71566" pt_clust_4="14000.00000" pt_clust_5="44.88282" pt_clust_6="37.77607"></scales>
<clustering>
<clus scale="   37.776">  2  6  1 -1</clus>
<clus scale="   44.883">  1  5  2 -1</clus>
<clus scale="   63.716">  2  3  1 -1</clus>
<clus scale="   44.883">  1  3  2 -1</clus>
</clustering>
</event>
<event>
 6    0  0.4390142E+002  0.2483496E+03  0.7546771E-02  0.1114352E+00
         21   -1    0    0  504  501  0.00000000000E+00  0.00000000000E+00  0.86321481230E+02  0.86321481230E+02  0.00000000000E+00 0.  1.
         21   -1    0    0  503  502 -0.00000000000E+00 -0.00000000000E+00 -0.24657511717E+04  0.24657511717E+04  0.00000000000E+00 0. -1.
         21    1    1    2  503  505  0.93268297510E+02  0.80103494264E+02 -0.70405544267E+02  0.14167740038E+03  0.00000000000E+00 0.  1.
         21    1    1    2  504  506 -0.78309895648E+02 -0.17197077632E+03 -0.11033409086E+04  0.11194049975E+04  0.00000000000E+00 0. -1.
         21    1    1    2  505  501 -0.25392242199E+01  0.13074938370E+03 -0.58807127021E+02  0.14338803013E+03  0.00000000000E+00 0.  1.
         21    1    1    2  506  502 -0.12419177642E+02 -0.38882101642E+02 -0.11468761105E+04  0.11476022249E+04  0.00000000000E+00 0. -1.
<scales pt_clust_3="105.66266" pt_clust_4="223.16325" pt_clust_5="105.66266" pt_clust_6="40.81732"></scales>
<clustering>
<clus scale="   40.817">  2  6  1 -1</clus>
<clus scale="  105.663">  3  5 -1 -1</clus>
<clus scale="  223.163">  2  4  1 -1</clus>
<clus scale="  248.350">  1  3  2 -1</clus>
</clustering>
</event>
<event>
 6    0  0.4390142E+002  0.1343897E+03  0.7546771E-02  0.1221084E+00
         21   -1    0    0  504  501  0.00000000000E+00  0.00000000000E+00  0.28499644131E+03  0.28499644131E+03  0.00000000000E+00 0.  1.
         21   -1    0    0  506  502 -0.00000000000E+00 -0.00000000000E+00 -0.32552713208E+03  0.32552713208E+03  0.00000000000E+00 0. -1.
         21    1    1    2  503  505 -0.69175202050E+02 -0.31048200379E+02  0.99033082841E+02  0.12472670453E+03  0.00000000000E+00 0.  1.
         21    1    1    2  504  502  0.12141937936E+02  0.38066949134E+02 -0.68879610083E+01  0.40545817048E+02  0.00000000000E+00 0. -1.
         21    1    1    2  505  501 -0.53005745631E+02 -0.11185910440E+02  0.14057187054E+03  0.15064920992E+03  0.00000000000E+00 0.  1.
         21    1    1    2  506  503  0.11003900975E+03  0.41671616847E+01 -0.27324768314E+03  0.29460184189E+03  0.00000000000E+00 0. -1.
<scales pt_clust_3="34.94776" pt_clust_4="39.95647" pt_clust_5="34.94776" pt_clust_6="127.87155"></scales>
<clustering>
<clus scale="   34.948">  3  5 -1 -1</clus>
<clus scale="   39.956">  2  4  1 -1</clus>
<clus scale="  127.872">  2  6  1 -1</clus>
<clus scale="  134.390">  1  3  2 -1</clus>
</clustering>
</event>
<event>
 6    0  0.4390142E+002  0.1646658E+03  0.7546771E-02  0.1183528E+00
         21   -1    0    0  504  501  0.00000000000E+00  0.00000000000E+00  0.24591219240E+03  0.24591219240E+03  0.00000000000E+00 0. -1.
         21   -1    0    0  503  502 -0.00000000000E+00 -0.00000000000E+00 -0.67058416199E+03  0.67058416199E+03  0.00000000000E+00 0. -1.
         21    1    1    2  503  506  0.16274775348E+03  0.70348499343E+02 -0.58270280631E+03  0.60907988236E+03  0.00000000000E+00 0. -1.
         21    1    1    2  504  505 -0.80870106259E+02  0.42356474780E+02  0.10721893944E+03  0.14081884113E+03  0.00000000000E+00 0. -1.
         21    1    1    2  505  502 -0.39804544114E+02 -0.10031647578E+03  0.57410892308E+02  0.12224486738E+03  0.00000000000E+00 0. -1.
         21    1    1    2  506  501 -0.42073103110E+02 -0.12388498345E+02 -0.65989950252E+01  0.44352763520E+02  0.00000000000E+00 0.  1.
<scales pt_clust_3="164.66577" pt_clust_4="109.78149" pt_clust_5="14000.00000" pt_clust_6="43.85910"></scales>
<clustering>
<clus scale="   43.859">  1  6  2 -1</clus>
<clus scale="  109.781">  1  4  2 -1</clus>
<clus scale="  164.666">  2  3  1 -1</clus>
<clus scale="   43.859">  1  3  2 -1</clus>
</clustering>
</event>
<event>
 6    0  0.4390142E+002  0.1745357E+03  0.7546771E-02  0.1173199E+00
         21   -1    0    0  505  501  0.00000000000E+00  0.00000000000E+00  0.55367340003E+02  0.55367340003E+02  0.00000000000E+00 0. -1.
         21   -1    0    0  501  502 -0.00000000000E+00 -0.00000000000E+00 -0.66921254845E+03  0.66921254845E+03  0.00000000000E+00 0. -1.
         21    1    1    2  503  506 -0.47106180733E+02  0.72537752109E+02 -0.14819581883E+03  0.17158880635E+03  0.00000000000E+00 0. -1.
         21    1    1    2  504  502  0.42471341896E+02  0.14630611580E+02 -0.14031532196E+03  0.14733044239E+03  0.00000000000E+00 0. -1.
         21    1    1    2  505  503  0.35281625293E+02  0.71908035869E+02 -0.99606463300E+02  0.12781629879E+03  0.00000000000E+00 0. -1.
         21    1    1    2  506  504 -0.30646786457E+02 -0.15907639956E+03 -0.22572760436E+03  0.27784434093E+03  0.00000000000E+00 0. -1.
<scales pt_clust_3="83.56156" pt_clust_4="44.92070" pt_clust_5="83.56156" pt_clust_6="152.41283"></scales>
<clustering>
<clus scale="   44.921">  2  4  1 -1</clus>
<clus scale="   83.562">  3  5 -1 -1</clus>
<clus scale="  152.413">  2  6  1 -1</clus>
<clus scale="  174.536">  1  3  2 -1</clus>
</clustering>
</event>
<event>
 6    0  0.4390142E+002  0.1249915E+03  0.7546771E-02  0.1235083E+00
         21   -1    0    0  506  501  0.00000000000E+00  0.00000000000E+00  0.16533683136E+03  0.16533683136E+03  0.00000000000E+00 0.  1.
         21   -1    0    0  503  502 -0.00000000000E+00 -0.00000000000E+00 -0.64787903598E+03  0.64787903598E+03  0.00000000000E+00 0. -1.
         21    1    1    2  503  504 -0.11247066512E+03 -0.47397930932E+02 -0.47572621638E+03  0.49113302406E+03  0.00000000000E+00 0. -1.
         21    1    1    2  504  505 -0.57405616581E+02  0.39926301418E+02 -0.15131953861E+02  0.71543625765E+02  0.00000000000E+00 0.  1.
         21    1    1    2  505  501 -0.14713243618E+02  0.50519549434E+02  0.28643698195E+02  0.59909647462E+02  0.00000000000E+00 0.  1.
         21    1    1    2  506  502  0.18458952532E+03 -0.43047919920E+02 -0.20327732573E+02  0.19062957005E+03  0.00000000000E+00 0.  1.
<scales pt_clust_3="124.99145" pt_clust_4="79.83295" pt_clust_5="52.61848" pt_clust_6="14000.00000"></scales>
<clustering>
<clus scale="   52.618">  1  5  2 -1</clus>
<clus scale="   79.833">  1  4  2 -1</clus>
<clus scale="  124.991">  2  3  1 -1</clus>
<clus scale="   52.618">  1  3  2 -1</clus>
</clustering>
</event>
<event>
 6    0  0.4390142E+002  0.1379207E+03  0.7546771E-02  0.1216155E+00
         21   -1    0    0  506  501  0.00000000000E+00  0.00000000000E+00  0.55749009374E+03  0.55749009374E+03  0.00000000000E+00 0.  1.
         21   -1    0    0  503  502 -0.00000000000E+00 -0.00000000000E+00 -0.65883871622E+03  0.65883871622E+03  0.00000000000E+00 0. -1.
         21    1    1    2  503  501 -0.26446727188E+02 -0.18012566738E+02  0.21534508886E+02  0.38569638479E+02  0.00000000000E+00 0.  1.
         21    1    1    2  504  505  0.99617761646E+02  0.18530581621E+02 -0.14114233740E+03  0.17374763393E+03  0.00000000000E+00 0. -1.
         21    1    1    2  505  502  0.31575522206E+02  0.40172795112E+02 -0.48534252344E+03  0.48802482737E+03  0.00000000000E+00 0. -1.
         21    1    1    2  506  504 -0.10474655666E+03 -0.40690809996E+02  0.50360172948E+03  0.51598671018E+03  0.00000000000E+00 0.  1.
<scales pt_clust_3="31.99816" pt_clust_4="137.92065" pt_clust_5="51.01908" pt_clust_6="14000.00000"></scales>
<clustering>
<clus scale="   31.998">  1  3  2 -1</clus>
<clus scale="   51.019">  2  5  1 -1</clus>
<clus scale="  137.921">  2  4  1 -1</clus>
<clus scale="   31.998">  1  3  2 -1</clus>
</clustering>
</event>
<event>
 6    0  0.4390142E+002  0.9678500E+02  0.7546771E-02  0.1287206E+00
         21   -1    0    0  504  501  0.00000000000E+00  0.00000000000E+00  0.20716795330E+03  0.20716795330E+03  0.00000000000E+00 0.  1.
         21   -1    0    0  503  502 -0.00000000000E+00 -0.00000000000E+00 -0.61859085014E+03  0.61859085014E+03  0.00000000000E+00 0.  1.
         21    1    1    2  503  505  0.25635539096E+02  0.29823439420E+02 -0.42191715280E+03  0.42374603506E+03  0.00000000000E+00 0.  1.
         21    1    1    2  504  506 -0.99862512784E+02 -0.54941532550E+02  0.15407770476E+03  0.19165341782E+03  0.00000000000E+00 0.  1.
         21    1    1    2  505  501  0.48564728471E+02  0.45218660670E+02 -0.34089880025E+01  0.66444573319E+02  0.00000000000E+00 0.  1.
         21    1    1    2  506  502  0.25662245217E+02 -0.20100567540E+02 -0.14017446080E+03  0.14391477723E+03  0.00000000000E+00 0.  1.
<scales pt_clust_3="49.86773" pt_clust_4="14000.00000" pt_clust_5="96.78500" pt_clust_6="32.59730"></scales>
<clustering>
<clus scale="   32.597">  2  6  1 -1</clus>
<clus scale="   49.868">  2  3  1 -1</clus>
<clus scale="   96.785">  2  5  1 -1</clus>
<clus scale="   96.785">  1  3  2 -1</clus>
</clustering>
</event>
<event>
 6    0  0.4390142E+002  0.1366338E+03  0.7546771E-02  0.1217932E+00
         21   -1    0    0  505  501  0.00000000000E+00  0.00000000000E+00  0.10067930346E+04  0.10067930346E+04  0.00000000000E+00 0.  1.
         21   -1    0    0  503  502 -0.00000000000E+00 -0.00000000000E+00 -0.98244861994E+02  0.98244861994E+02  0.00000000000E+00 0. -1.
         21    1    1    2  503  504  0.13121767637E+02  0.32510887512E+02  0.16319411781E+02  0.38671201088E+02  0.00000000000E+00 0. -1.
         21    1    1    2  504  501  0.12781010302E+03  0.53677882394E+02  0.87130133578E+03  0.88226002699E+03  0.00000000000E+00 0.  1.
         21    1    1    2  505  506 -0.10772158781E+03 -0.57609461687E+02  0.49491508596E+02  0.13180364175E+03  0.00000000000E+00 0. -1.
         21    1    1    2  506  502 -0.33210282847E+02 -0.28579308219E+02 -0.28564083515E+02  0.52303026797E+02  0.00000000000E+00 0. -1.
<scales pt_clust_3="35.05907" pt_clust_4="14000.00000" pt_clust_5="136.63375" pt_clust_6="30.28323"></scales>
<clustering>
<clus scale="   35.059">  2  3  1 -1</clus>
<clus scale="   30.283">  2  6  1 -1</clus>
<clus scale="  136.634">  2  5  1 -1</clus>
<clus scale="  136.634">  1  3  2 -1</clus>
</clustering>
</event>
<event>
 6    0  0.4390142E+002  0.1053325E+03  0.7546771E-02  0.1269466E+00
         21   -1    0    0  505  501  0.00000000000E+00  0.00000000000E+00  0.17870909548E+03  0.17870909548E+03  0.00000000000E+00 0.  1.
         21   -1    0    0  504  502 -0.00000000000E+00 -0.00000000000E+00 -0.11570487811E+04  0.11570487811E+04  0.00000000000E+00 0.  1.
         21    1    1    2  503  502  0.11557556865E+02  0.80012484969E+02 -0.15517145438E+03  0.17496786884E+03  0.00000000000E+00 0.  1.
         21    1    1    2  504  506  0.13339597232E+02 -0.28486100976E+02 -0.78967574030E+03  0.79030195345E+03  0.00000000000E+00 0.  1.
         21    1    1    2  505  503 -0.99346284160E+02  0.36187521342E+02  0.13188060587E+03  0.16903169846E+03  0.00000000000E+00 0.  1.
         21    1    1    2  506  501  0.74449130063E+02 -0.87713905334E+02 -0.16537309684E+03  0.20145635585E+03  0.00000000000E+00 0.  1.
<scales pt_clust_3="69.45752" pt_clust_4="31.45477" pt_clust_5="14000.00000" pt_clust_6="105.33251"></scales>
<clustering>
<clus scale="   31.455">  2  4  1 -1</clus>
<clus scale="   69.458">  2  3  1 -1</clus>
<clus scale="  105.333">  2  6  1 -1</clus>
<clus scale="  105.333">  1  3  2 -1</clus>
</clustering>
</event>
<event>
 6    0  0.4390142E+002  0.1097140E+03  0.7546771E-02  0.1261100E+00
         21   -1    0    0  503  501  0.00000000000E+00  0.00000000000E+00  0.51042856312E+03  0.51042856312E+03  0.00000000000E+00 0. -1.
         21   -1    0    0  504  502 -0.00000000000E+00 -0.00000000000E+00 -0.67294059707E+02  0.67294059707E+02  0.00000000000E+00 0. -1.
         21    1    1    2  503  502 -0.58944879092E+02  0.57899953873E+02  0.12013991625E+02  0.83493948430E+02  0.00000000000E+00 0. -1.
         21    1    1    2  504  505 -0.52300909324E+02 -0.63276916045E+02  0.53098079182E+02  0.97768907292E+02  0.00000000000E+00 0. -1.
         21    1    1    2  505  506  0.65963538813E+02  0.19770554033E+02  0.26616688684E+03  0.27493067292E+03  0.00000000000E+00 0. -1.
         21    1    1    2  506  501  0.45282249603E+02 -0.14393591861E+02  0.11185554576E+03  0.12152909418E+03  0.00000000000E+00 0. -1.
<scales pt_clust_3="100.80833" pt_clust_4="82.09356" pt_clust_5="35.96715" pt_clust_6="35.96715"></scales>
<clustering>
<clus scale="   35.967">  5  6 -1 -1</clus>
<clus scale="   82.094">  2  4  1 -1</clus>
<clus scale="  100.808">  2  3  1 -1</clus>
<clus scale="  109.714">  1  3  2 -1</clus>
</clustering>
</event>
<event>
 6    0  0.4390142E+002  0.8581597E+02  0.7546771E-02  0.1313312E+00
         21   -1    0    0  504  501  0.00000000000E+00  0.00000000000E+00  0.35707104156E+03  0.35707104156E+03  0.00000000000E+00 0. -1.
         21   -1    0    0  506  502 -0.00000000000E+00 -0.00000000000E+00 -0.16375996078E+03  0.16375996078E+03  0.00000000000E+00 0. -1.
         21    1    1    2  503  502  0.33423207452E+02 -0.23797360706E+02 -0.96996232921E+01  0.42160501242E+02  0.00000000000E+00 0. -1.
         21    1    1    2  504  503 -0.78294503868E+02 -0.12159499637E+02  0.22544786898E+03  0.23896573896E+03  0.00000000000E+00 0. -1.
         21    1    1    2  505  501  0.90766324923E+01 -0.44377635824E+02  0.87732529150E+02  0.98735791332E+02  0.00000000000E+00 0. -1.
         21    1    1    2  506  505  0.35794663924E+02  0.80334496167E+02 -0.11016969406E+03  0.14096897080E+03  0.00000000000E+00 0. -1.
<scales pt_clust_3="41.02956" pt_clust_4="14000.00000" pt_clust_5="46.50773" pt_clust_6="85.81597"></scales>
<clustering>
<clus scale="   41.030">  2  3  1 -1</clus>
<clus scale="   46.508">  1  5  2 -1</clus>
<clus scale="   85.816">  2  6  1 -1</clus>
<clus scale="   46.508">  1  3  2 -1</clus>
</clustering>
</event>
<event>
 6    0  0.4390142E+002  0.1504975E+03  0.7546771E-02  0.1199863E+00
         21   -1    0    0  505  501  0.00000000000E+00  0.00000000000E+00  0.26367610014E+04  0.26367610014E+04  0.00000000000E+00 0.  1.
         21   -1    0    0  503  502 -0.00000000000E+00 -0.00000000000E+00 -0.36864703552E+02  0.36864703552E+02  0.00000000000E+00 0.  1.
         21    1    1    2  503  504 -0.25779906133E+02 -0.19722785366E+02 -0.14459530520E+02  0.35534065988E+02  0.00000000000E+00 0.  1.
         21    1    1    2  504  501  0.14054913226E+03 -0.91707356718E+02  0.13812478958E+04  0.13914057810E+04  0.00000000000E+00 0.  1.
         21    1    1    2  505  506 -0.83291179044E+02  0.11285811878E+03  0.11351864461E+04  0.11438193227E+04  0.00000000000E+00 0.  1.
         21    1    1    2  506  502 -0.31478047084E+02 -0.14279766982E+01  0.97921486529E+02  0.10286653532E+03  0.00000000000E+00 0.  1.
<scales pt_clust_3="52.90247" pt_clust_4="150.49752" pt_clust_5="14000.00000" pt_clust_6="31.51042"></scales>
<clustering>
<clus scale="   31.510">  2  6  1 -1</clus>
<clus scale="   52.902">  2  3  1 -1</clus>
<clus scale="  150.498">  2  4  1 -1</clus>
<clus scale="  150.498">  1  3  2 -1</clus>
</clustering>
</event>
<event>
 6    0  0.4390142E+002  0.1338824E+03  0.7546771E-02  0.1221806E+00
         21   -1    0    0  503  501  0.00000000000E+00  0.00000000000E+00  0.10575444591E+04  0.10575444591E+04  0.00000000000E+00 0.  1.
         21   -1    0    0  501  502 -0.00000000000E+00 -0.00000000000E+00 -0.36510726419E+03  0.36510726419E+03  0.00000000000E+00 0. -1.
         21    1    1    2  503  504 -0.33669518999E+02  0.53829174734E+02  0.59525142933E+03  0.59862799858E+03  0.00000000000E+00 0.  1.
         21    1    1    2  504  505  0.11771911857E+03 -0.51173186242E+01  0.24020568109E+03  0.26754952262E+03  0.00000000000E+00 0. -1.
         21    1    1    2  505  506 -0.22932919258E+02  0.76552075195E+02  0.18421038555E+03  0.20079742316E+03  0.00000000000E+00 0.  1.
         21    1    1    2  506  502 -0.61116680308E+02 -0.12526393130E+03 -0.32723030110E+03  0.35567677891E+03  0.00000000000E+00 0. -1.
<scales pt_clust_3="63.49186" pt_clust_4="102.15544" pt_clust_5="133.88237" pt_clust_6="14000.00000"></scales>
<clustering>
<clus scale="   63.492">  1  3  2 -1</clus>
<clus scale="  102.155">  1  4  2 -1</clus>
<clus scale="  133.882">  1  5  2 -1</clus>
<clus scale="   63.492">  1  3  2 -1</clus>
</clustering>
</event>
<event>
 6    0  0.4390142E+002  0.7631190E+02  0.7546771E-02  0.1339856E+00
         21   -1    0    0  504  501  0.00000000000E+00  0.00000000000E+00  0.37001833585E+03  0.37001833585E+03  0.00000000000E+00 0.  1.
         21   -1    0    0  506  502 -0.00000000000E+00 -0.00000000000E+00 -0.20416958671E+03  0.20416958671E+03  0.00000000000E+00 0. -1.
         21    1    1    2  503  501 -0.62252628448E+02 -0.51563916478E+02  0.29104489832E+03  0.30206184808E+03  0.00000000000E+00 0.  1.
         21    1    1    2  504  505 -0.97124190440E+01  0.36988354167E+02  0.30503006687E+02  0.48917306187E+02  0.00000000000E+00 0.  1.
         21    1    1    2  505  502 -0.37422938085E+02 -0.80302319816E+01 -0.98893999341E+01  0.39531773950E+02  0.00000000000E+00 0.  1.
         21    1    1    2  506  503  0.10938798558E+03  0.22605794293E+02 -0.14580975593E+03  0.18367699433E+03  0.00000000000E+00 0. -1.
<scales pt_clust_3="76.31190" pt_clust_4="38.24225" pt_clust_5="38.39099" pt_clust_6="14000.00000"></scales>
<clustering>
<clus scale="   38.242">  1  4  2 -1</clus>
<clus scale="   38.391">  2  5  1 -1</clus>
<clus scale="   76.312">  1  3  2 -1</clus>
<clus scale="   38.242">  1  3  2 -1</clus>
</clustering>
</event>
<event>
 6    0  0.4390142E+002  0.9926022E+02  0.7546771E-02  0.1281859E+00
         21   -1    0    0  503  501  0.00000000000E+00  0.00000000000E+00  0.18446063607E+04  0.18446063607E+04  0.00000000000E+00 0.  1.
         21   -1    0    0  504  502 -0.00000000000E+00 -0.00000000000E+00 -0.84189790268E+03  0.84189790268E+03  0.00000000000E+00 0.  1.
         21    1    1    2  503  502 -0.59916686728E+01  0.90476578134E+02  0.13893605254E+04  0.13923162647E+04  0.00000000000E+00 0.  1.
         21    1    1    2  504  506 -0.73417751300E+02  0.52061010370E+02 -0.55041252475E+03  0.55772256760E+03  0.00000000000E+00 0.  1.
         21    1    1    2  505  501 -0.27339329004E+02 -0.31703571346E+02  0.42834521487E+03  0.43038608069E+03  0.00000000000E+00 0.  1.
         21    1    1    2  506  505  0.10674874898E+03 -0.11083401716E+03 -0.26458475758E+03  0.30607935035E+03  0.00000000000E+00 0.  1.
<scales pt_clust_3="67.81279" pt_clust_4="14000.00000" pt_clust_5="41.86353" pt_clust_6="99.26022"></scales>
<clustering>
<clus scale="   41.864">  1  5  2 -1</clus>
<clus scale="   67.813">  1  3  2 -1</clus>
<clus scale="   99.260">  1  6  2 -1</clus>
<clus scale="   41.864">  1  3  2 -1</clus>
</clustering>
</event>
<event>
 6    0  0.4390142E+002  0.9996500E+02  0.7546771E-02  0.1280370E+00
         21   -1    0    0  505  501  0.00000000000E+00  0.00000000000E+00  0.68601847152E+02  0.68601847152E+02  0.00000000000E+00 0. -1.
         21   -1    0    0  504  502 -0.00000000000E+00 -0.00000000000E+00 -0.60264282139E+03  0.60264282139E+03  0.00000000000E+00 0. -1.
         21    1    1    2  503  502  0.27144461041E+02  0.19655652703E+02 -0.26083940395E+03  0.26298357573E+03  0.00000000000E+00 0. -1.
         21    1    1    2  504  506 -0.11753206847E+03 -0.72904678522E+02 -0.10163497260E+03  0.17163492338E+03  0.00000000000E+00 0. -1.
         21    1    1    2  505  503  0.59999220552E+01  0.39510611024E+02 -0.13982763463E+03  0.14542645858E+03  0.00000000000E+00 0. -1.
         21    1    1    2  506  501  0.84387685375E+02  0.13738414795E+02 -0.31738963056E+02  0.91199710854E+02  0.00000000000E+00 0. -1.
<scales pt_clust_3="33.51368" pt_clust_4="99.96500" pt_clust_5="50.79759" pt_clust_6="14000.00000"></scales>
<clustering>
<clus scale="   33.514">  2  3  1 -1</clus>
<clus scale="   50.798">  2  5  1 -1</clus>
<clus scale="   99.965">  2  4  1 -1</clus>
<clus scale="   99.965">  1  3  2 -1</clus>
</clustering>
</event>
<event>
 6    0  0.4390142E+002  0.1157880E+03  0.7546771E-02  0.1250212E+00
         21   -1    0    0  505  501  0.00000000000E+00  0.00000000000E+00  0.10413143853E+04  0.10413143853E+04  0.00000000000E+00 0. -1.
         21   -1    0    0  506  502 -0.00000000000E+00 -0.00000000000E+00 -0.36383274311E+03  0.36383274311E+03  0.00000000000E+00 0. -1.
         21    1    1    2  503  501 -0.61607575767E+02  0.11581564645E+03  0.69198183138E+03  0.70430647613E+03  0.00000000000E+00 0. -1.
         21    1    1    2  504  503 -0.26074142572E+02 -0.58317795330E+02  0.76933857208E+02  0.99998222724E+02  0.00000000000E+00 0. -1.
         21    1    1    2  505  502  0.51787171725E+02 -0.78680618987E+02  0.24466407624E+03  0.26216990895E+03  0.00000000000E+00 0. -1.
         21    1    1    2  506  504  0.35894546614E+02  0.21182767865E+02 -0.33609812267E+03  0.33867252058E+03  0.00000000000E+00 0. -1.
<scales pt_clust_3="115.78803" pt_clust_4="50.17566" pt_clust_5="14000.00000" pt_clust_6="41.67887"></scales>
<clustering>
<clus scale="   41.679">  2  6  1 -1</clus>
<clus scale="   50.176">  2  4  1 -1</clus>
<clus scale="  115.788">  1  3  2 -1</clus>
<clus scale="  115.788">  1  3  2 -1</clus>
</clustering>
</event>
<event>
 6    0  0.4390142E+002  0.1528722E+03  0.7546771E-02  0.1196987E+00
         21   -1    0    0  505  501  0.00000000000E+00  0.00000000000E+00  0.48542628799E+03  0.48542628799E+03  0.00000000000E+00 0.  1.
         21   -1    0    0  506  502 -0.00000000000E+00 -0.00000000000E+00 -0.91082193374E+03  0.91082193374E+03  0.00000000000E+00 0. -1.
         21    1    1    2  503  502  0.41778753557E+02  0.10956666069E+02 -0.55207498197E+03  0.55376195111E+03  0.00000000000E+00 0. -1.
         21    1    1    2  504  503  0.40641441500E+02 -0.43927445215E+02 -0.25911199569E+02  0.65213016135E+02  0.00000000000E+00 0.  1.
         21    1    1    2  505  504 -0.16305588533E+02 -0.10789963118E+03 -0.28907987348E+03  0.30899089935E+03  0.00000000000E+00 0. -1.
         21    1    1    2  506  501 -0.66114606523E+02  0.14087041033E+03  0.44167040927E+03  0.46828235513E+03  0.00000000000E+00 0.  1.
<scales pt_clust_3="43.19158" pt_clust_4="62.62065" pt_clust_5="14000.00000" pt_clust_6="152.87220"></scales>
<clustering>
<clus scale="   43.192">  2  3  1 -1</clus>
<clus scale="   62.621">  2  4  1 -1</clus>
<clus scale="  152.872">  1  6  2 -1</clus>
<clus scale="  152.872">  1  3  2 -1</clus>
</clustering>
</event>
<event>
 6    0  0.4390142E+002  0.3865859E+03  0.7546771E-02  0.1048526E+00
         21   -1    0    0  506  501  0.00000000000E+00  0.00000000000E+00  0.29725596357E+03  0.29725596357E+03  0.00000000000E+00 0.  1.
         21   -1    0    0  501  502 -0.00000000000E+00 -0.00000000000E+00 -0.91500019604E+03  0.91500019604E+03  0.00000000000E+00 0.  1.
         21    1    1    2  503  504 -0.47284225617E+02  0.56730506479E+02  0.43241707329E+02  0.85580334250E+02  0.00000000000E+00 0. -1.
         21    1    1    2  504  505  0.74863471713E+02 -0.42070875268E+03 -0.43705044485E+03  0.61123930283E+03  0.00000000000E+00 0.  1.
         21    1    1    2  505  502  0.72789721058E+01  0.35067324715E+03 -0.27951055406E+03  0.44849844987E+03  0.00000000000E+00 0.  1.
         21    1    1    2  506  503 -0.34858218202E+02  0.13304999054E+02  0.55575059112E+02  0.66938072659E+02  0.00000000000E+00 0. -1.
<scales pt_clust_3="116.17707" pt_clust_4="14000.00000" pt_clust_5="386.58594" pt_clust_6="30.52861"></scales>
<clustering>
<clus scale="   30.529">  3  6 -1 -1</clus>
<clus scale="  116.177">  1  3  2 -1</clus>
<clus scale="  386.586">  2  5  1 -1</clus>
<clus scale="  116.177">  1  3  2 -1</clus>
</clustering>
</event>
<event>
 6    0  0.4390142E+002  0.1027392E+03  0.7546771E-02  0.1274639E+00
         21   -1    0    0  505  501  0.00000000000E+00  0.00000000000E+00  0.26105934535E+02  0.26105934535E+02  0.00000000000E+00 0.  1.
         21   -1    0    0  506  502 -0.00000000000E+00 -0.00000000000E+00 -0.69142879780E+03  0.69142879780E+03  0.00000000000E+00 0.  1.
         21    1    1    2  503  504 -0.34341238122E+02 -0.38233652268E+02 -0.15567424942E+03  0.16393780751E+03  0.00000000000E+00 0.  1.
         21    1    1    2  504  502  0.40414960783E+02 -0.41506587634E+02 -0.19508969150E+03  0.20350959094E+03  0.00000000000E+00 0.  1.
         21    1    1    2  505  503 -0.41325696181E+02 -0.19694314766E+02 -0.68767415251E+02  0.82611358778E+02  0.00000000000E+00 0.  1.
         21    1    1    2  506  501  0.35251973520E+02  0.99434554667E+02 -0.24579150710E+03  0.26747597511E+03  0.00000000000E+00 0.  1.
<scales pt_clust_3="34.43666" pt_clust_4="57.93243" pt_clust_5="34.43666" pt_clust_6="96.04186"></scales>
<clustering>
<clus scale="   34.437">  3  5 -1 -1</clus>
<clus scale="   57.932">  2  4  1 -1</clus>
<clus scale="   96.042">  2  6  1 -1</clus>
<clus scale="  102.739">  1  3  2 -1</clus>
</clustering>
</event>
<event>
 6    0  0.4390142E+002  0.1020542E+03  0.7546771E-02  0.1276035E+00
         21   -1    0    0  506  501  0.00000000000E+00  0.00000000000E+00  0.45590849213E+03  0.45590849213E+03  0.00000000000E+00 0. -1.
         21   -1    0    0  505  502 -0.00000000000E+00 -0.00000000000E+00 -0.31856562525E+03  0.31856562525E+03  0.00000000000E+00 0. -1.
         21    1    1    2  503  504 -0.72210982798E+02  0.95769240411E+02 -0.19522220882E+02  0.12152074125E+03  0.00000000000E+00 0. -1.
         21    1    1    2  504  501 -0.17956121779E+02 -0.10217019220E+03  0.37389116969E+03  0.38801517658E+03  0.00000000000E+00 0. -1.
         21    1    1    2  505  503  0.38603985881E+02  0.12053062282E+01  0.31444974414E+01  0.38750591650E+02  0.00000000000E+00 0. -1.
         21    1    1    2  506  502  0.51563118696E+02  0.51956455638E+01 -0.22017057938E+03  0.22618760790E+03  0.00000000000E+00 0. -1.
<scales pt_clust_3="102.05424" pt_clust_4="14000.00000" pt_clust_5="38.62280" pt_clust_6="80.43985"></scales>
<clustering>
<clus scale="   38.623">  2  5  1 -1</clus>
<clus scale="   80.440">  2  6  1 -1</clus>
<clus scale="  102.054">  2  3  1 -1</clus>
<clus scale="  102.054">  1  3  2 -1</clus>
</clustering>
</event>
<event>
 6    0  0.4390142E+002  0.6341924E+02  0.7546771E-02  0.1384018E+00
         21   -1    0    0  503  501  0.00000000000E+00  0.00000000000E+00  0.17347286707E+02  0.17347286707E+02  0.00000000000E+00 0.  1.
         21   -1    0    0  504  502 -0.00000000000E+00 -0.00000000000E+00 -0.19361489992E+04  0.19361489992E+04  0.00000000000E+00 0. -1.
         21    1    1    2  503  502 -0.96264321307E+02  0.64583269292E+02 -0.51995697710E+03  0.53272232567E+03  0.00000000000E+00 0.  1.
         21    1    1    2  504  506  0.47267450758E+02 -0.33473263174E+02 -0.12529704010E+04  0.12543083740E+04  0.00000000000E+00 0. -1.
         21    1    1    2  505  501  0.32766015782E+02  0.96073199564E+01 -0.45073301507E+02  0.56546572802E+02  0.00000000000E+00 0.  1.
         21    1    1    2  506  505  0.16230854768E+02 -0.40717326075E+02 -0.10080103288E+03  0.10991901346E+03  0.00000000000E+00 0.  1.
<scales pt_clust_3="63.41924" pt_clust_4="14000.00000" pt_clust_5="34.14546" pt_clust_6="47.02705"></scales>
<clustering>
<clus scale="   34.145">  1  5  2 -1</clus>
<clus scale="   47.027">  1  6  2 -1</clus>
<clus scale="   63.419">  1  3  2 -1</clus>
<clus scale="   34.145">  1  3  2 -1</clus>
</clustering>
</event>
<event>
 6    0  0.4390142E+002  0.1367914E+03  0.7546771E-02  0.1217713E+00
         21   -1    0    0  505  501  0.00000000000E+00  0.00000000000E+00  0.58774074833E+03  0.58774074833E+03  0.00000000000E+00 0.  1.
         21   -1    0    0  503  502 -0.00000000000E+00 -0.00000000000E+00 -0.32183676142E+03  0.32183676142E+03  0.00000000000E+00 0.  1.
         21    1    1    2  503  506 -0.37022803579E+02  0.41115509377E+02 -0.50356044320E+02  0.74812460832E+02  0.00000000000E+00 0.  1.
         21    1    1    2  504  502  0.17303169247E+03 -0.54636770964E+02 -0.20713860542E+03  0.27537528066E+03  0.00000000000E+00 0.  1.
         21    1    1    2  505  504 -0.99089460949E+02 -0.23215732404E+02  0.48264172169E+03  0.49325523111E+03  0.00000000000E+00 0.  1.
         21    1    1    2  506  501 -0.36919427946E+02  0.36736993991E+02  0.40756914959E+02  0.66134537152E+02  0.00000000000E+00 0. -1.
<scales pt_clust_3="56.51812" pt_clust_4="136.79141" pt_clust_5="14000.00000" pt_clust_6="52.08312"></scales>
<clustering>
<clus scale="   52.083">  1  6  2 -1</clus>
<clus scale="   56.518">  2  3  1 -1</clus>
<clus scale="  136.791">  2  4  1 -1</clus>
<clus scale="   52.083">  1  3  2 -1</clus>
</clustering>
</event>
<event>
 6    0  0.4390142E+002  0.1326176E+03  0.7546771E-02  0.1223623E+00
         21   -1    0    0  504  501  0.00000000000E+00  0.00000000000E+00  0.43321815706E+02  0.43321815706E+02  0.00000000000E+00 0. -1.
         21   -1    0    0  505  502 -0.00000000000E+00 -0.00000000000E+00 -0.13158534522E+04  0.13158534522E+04  0.00000000000E+00 0. -1.
         21    1    1    2  503  501  0.86854818314E+02  0.10943985847E+03 -0.11283438126E+03  0.17958964247E+03  0.00000000000E+00 0. -1.
         21    1    1    2  504  502 -0.44805786934E+02 -0.31705113657E+01 -0.26281535111E+03  0.26662617925E+03  0.00000000000E+00 0. -1.
         21    1    1    2  505  506  0.29005712528E+02 -0.19643195329E+02 -0.48024427874E+03  0.48152025269E+03  0.00000000000E+00 0. -1.
         21    1    1    2  506  503 -0.71054743908E+02 -0.86626151778E+02 -0.41663762536E+03  0.43143919347E+03  0.00000000000E+00 0. -1.
<scales pt_clust_3="132.61760" pt_clust_4="36.82909" pt_clust_5="35.03122" pt_clust_6="14000.00000"></scales>
<clustering>
<clus scale="   35.031">  2  5  1 -1</clus>
<clus scale="   36.829">  2  4  1 -1</clus>
<clus scale="  132.618">  1  3  2 -1</clus>
<clus scale="  132.618">  1  3  2 -1</clus>
</clustering>
</event>
<event>
 6    0  0.4390142E+002  0.1078661E+03  0.7546771E-02  0.1264573E+00
         21   -1    0    0  503  501  0.00000000000E+00  0.00000000000E+00  0.60917044041E+02  0.60917044041E+02  0.00000000000E+00 0. -1.
         21   -1    0    0  504  502 -0.00000000000E+00 -0.00000000000E+00 -0.22383791928E+04  0.22383791928E+04  0.00000000000E+00 0.  1.
         21    1    1    2  503  505  0.65369806034E+02 -0.16175779899E+02  0.24462780941E+02  0.71647017019E+02  0.00000000000E+00 0. -1.
         21    1    1    2  504  501 -0.24399386420E+02 -0.18733356885E+02 -0.30041838812E+02  0.42997451053E+02  0.00000000000E+00 0. -1.
         21    1    1    2  505  506  0.58100578768E+02  0.89062514641E+02 -0.65531656338E+03  0.66388824888E+03  0.00000000000E+00 0. -1.
         21    1    1    2  506  502 -0.99070998383E+02 -0.54153377857E+02 -0.15165665276E+04  0.15207635199E+04  0.00000000000E+00 0.  1.
<scales pt_clust_3="54.69295" pt_clust_4="30.76148" pt_clust_5="107.86611" pt_clust_6="14000.00000"></scales>
<clustering>
<clus scale="   30.761">  1  4  2 -1</clus>
<clus scale="   54.693">  1  3  2 -1</clus>
<clus scale="  107.866">  1  5  2 -1</clus>
<clus scale="   30.761">  1  3  2 -1</clus>
</clustering>
</event>
<event>
 6    0  0.4390142E+002  0.1472062E+03  0.7546771E-02  0.1203949E+00
         21   -1    0    0  506  501  0.00000000000E+00  0.00000000000E+00  0.21618029413E+03  0.21618029413E+03  0.00000000000E+00 0.  1.
         21   -1    0    0  504  502 -0.00000000000E+00 -0.00000000000E+00 -0.22519857457E+04  0.22519857457E+04  0.00000000000E+00 0.  1.
         21    1    1    2  503  502 -0.68352588230E+02  0.13147355372E+03 -0.21654826307E+04  0.21705465661E+04  0.00000000000E+00 0.  1.
         21    1    1    2  504  505 -0.99593852927E+01 -0.79205283744E+02  0.40448733285E+02  0.89491711084E+02  0.00000000000E+00 0.  1.
         21    1    1    2  505  501 -0.48320172435E+02  0.30716428455E+01  0.34675015791E+02  0.59553595811E+02  0.00000000000E+00 0.  1.
         21    1    1    2  506  503  0.12663214596E+03 -0.55339912827E+02  0.54553430011E+02  0.14857416689E+03  0.00000000000E+00 0. -1.
<scales pt_clust_3="14000.00000" pt_clust_4="83.07675" pt_clust_5="48.41770" pt_clust_6="147.20620"></scales>
<clustering>
<clus scale="   48.418">  1  5  2 -1</clus>
<clus scale="   83.077">  1  4  2 -1</clus>
<clus scale="  147.206">  1  6  2 -1</clus>
<clus scale="   48.418">  1  3  2 -1</clus>
</clustering>
</event>
<event>
 6    0  0.4390142E+002  0.1469432E+03  0.7546771E-02  0.1204280E+00
         21   -1    0    0  505  501  0.00000000000E+00  0.00000000000E+00  0.99029875912E+03  0.99029875912E+03  0.00000000000E+00 0. -1.
         21   -1    0    0  504  502 -0.00000000000E+00 -0.00000000000E+00 -0.24315571097E+03  0.24315571097E+03  0.00000000000E+00 0.  1.
         21    1    1    2  503  501  0.30252289557E+02 -0.50772050938E+01  0.73964740522E+02  0.80073477977E+02  0.00000000000E+00 0. -1.
         21    1    1    2  504  506 -0.82259940668E+02  0.11637429342E+03 -0.12674382013E+03  0.19071882431E+03  0.00000000000E+00 0.  1.
         21    1    1    2  505  502 -0.12282192253E+02  0.35407925370E+02  0.80160422815E+03  0.80247985147E+03  0.00000000000E+00 0. -1.
         21    1    1    2  506  503  0.64289843363E+02 -0.14670501369E+03 -0.16821004012E+01  0.16018231633E+03  0.00000000000E+00 0. -1.
<scales pt_clust_3="30.67538" pt_clust_4="146.94321" pt_clust_5="34.08695" pt_clust_6="14000.00000"></scales>
<clustering>
<clus scale="   30.675">  1  3  2 -1</clus>
<clus scale="   34.087">  1  5  2 -1</clus>
<clus scale="  146.943">  2  4  1 -1</clus>
<clus scale="   30.675">  1  3  2 -1</clus>
</clustering>
</event>
<event>
 6    0  0.4390142E+002  0.1352965E+03  0.7546771E-02  0.1219802E+00
         21   -1    0    0  503  501  0.00000000000E+00  0.00000000000E+00  0.54897497760E+03  0.54897497760E+03  0.00000000000E+00 0.  1.
         21   -1    0    0  506  502 -0.00000000000E+00 -0.00000000000E+00 -0.52751561760E+02  0.52751561760E+02  0.00000000000E+00 0.  1.
         21    1    1    2  503  504  0.66015133648E+02 -0.96427318058E+02  0.12394046227E+03  0.17034513121E+03  0.00000000000E+00 0.  1.
         21    1    1    2  504  502 -0.19005373359E+02 -0.30373577335E+02  0.34432124775E+01  0.35994640279E+02  0.00000000000E+00 0.  1.
         21    1    1    2  505  501 -0.42110428407E+02  0.50943222503E+02  0.15828092478E+03  0.17152653220E+03  0.00000000000E+00 0.  1.
         21    1    1    2  506  505 -0.48993318816E+01  0.75857672890E+02  0.21055881631E+03  0.22386023568E+03  0.00000000000E+00 0.  1.
<scales pt_clust_3="127.69334" pt_clust_4="35.82957" pt_clust_5="42.62277" pt_clust_6="42.62277"></scales>
<clustering>
<clus scale="   35.830">  2  4  1 -1</clus>
<clus scale="   42.623">  5  6 -1 -1</clus>
<clus scale="  127.693">  2  3  1 -1</clus>
<clus scale="  135.297">  1  3  2 -1</clus>
</clustering>
</event>
<event>
 6    0  0.4390142E+002  0.1265978E+03  0.7546771E-02  0.1232593E+00
         21   -1    0    0  506  501  0.00000000000E+00  0.00000000000E+00  0.49484855280E+02  0.49484855280E+02  0.00000000000E+00 0. -1.
         21   -1    0    0  503  502 -0.00000000000E+00 -0.00000000000E+00 -0.98354329501E+03  0.98354329501E+03  0.00000000000E+00 0. -1.
         21    1    1    2  503  501  0.60241292378E+02 -0.15396612209E+03 -0.36416132635E+03  0.39993505931E+03  0.00000000000E+00 0. -1.
         21    1    1    2  504  502 -0.71427058401E+01  0.42308852772E+02 -0.44446542167E+03  0.44653171032E+03  0.00000000000E+00 0. -1.
         21    1    1    2  505  504 -0.65830138604E+02  0.78519124488E+02 -0.96740742771E+02  0.14091710816E+03  0.00000000000E+00 0. -1.
         21    1    1    2  506  505  0.12731552066E+02  0.33138144829E+02 -0.28690948950E+02  0.45644272503E+02  0.00000000000E+00 0. -1.
<scales pt_clust_3="126.59781" pt_clust_4="43.67974" pt_clust_5="14000.00000" pt_clust_6="35.49971"></scales>
<clustering>
<clus scale="   35.500">  1  6  2 -1</clus>
<clus scale="   43.680">  2  4  1 -1</clus>
<clus scale="  126.598">  2  3  1 -1</clus>
<clus scale="   35.500">  1  3  2 -1</clus>
</clustering>
</event>
<event>
 6    0  0.4390142E+002  0.6667965E+02  0.7546771E-02  0.1371762E+00
         21   -1    0    0  504  501  0.00000000000E+00  0.00000000000E+00  0.28683751987E+03  0.28683751987E+03  0.00000000000E+00 0. -1.
         21   -1    0    0  503  502 -0.00000000000E+00 -0.00000000000E+00 -0.88780918373E+02  0.88780918373E+02  0.00000000000E+00 0. -1.
         21    1    1    2  503  506 -0.47933118328E+02 -0.24503165867E+01  0.16222364450E+02  0.50663132477E+02  0.00000000000E+00 0. -1.
         21    1    1    2  504  505  0.87173085765E+02  0.12435096578E+01  0.78167116475E+02  0.11709308817E+03  0.00000000000E+00 0. -1.
         21    1    1    2  505  502 -0.10153958459E+02  0.58234414359E+02 -0.24974502956E+02  0.64172234542E+02  0.00000000000E+00 0. -1.
         21    1    1    2  506  501 -0.29086008978E+02 -0.57027607431E+02  0.12864162352E+03  0.14368998306E+03  0.00000000000E+00 0. -1.
<scales pt_clust_3="47.99571" pt_clust_4="14000.00000" pt_clust_5="63.43589" pt_clust_6="66.67965"></scales>
<clustering>
<clus scale="   47.996">  2  3  1 -1</clus>
<clus scale="   66.680">  1  6  2 -1</clus>
<clus scale="   63.436">  2  5  1 -1</clus>
<clus scale="   66.680">  1  3  2 -1</clus>
</clustering>
</event>
<event>
 6    0  0.4390142E+002  0.1677632E+03  0.7546771E-02  0.1180201E+00
         21   -1    0    0  502  501  0.00000000000E+00  0.00000000000E+00  0.17160116050E+04  0.17160116050E+04  0.00000000000E+00 0.  1.
         21   -1    0    0  506  502 -0.00000000000E+00 -0.00000000000E+00 -0.32200756759E+03  0.32200756759E+03  0.00000000000E+00 0.  1.
         21    1    1    2  503  505 -0.66067281530E+02 -0.37134961963E+02  0.99729008149E+03  0.10001656851E+04  0.00000000000E+00 0.  1.
         21    1    1    2  504  503  0.15953585591E+03  0.77009140848E+02 -0.82493944105E+02  0.19541583332E+03  0.00000000000E+00 0.  1.
         21    1    1    2  505  501 -0.85594703432E+02 -0.27972160559E+01  0.65603119099E+03  0.66159746163E+03  0.00000000000E+00 0.  1.
         21    1    1    2  506  504 -0.78738709519E+01 -0.37076962829E+02 -0.17682329094E+03  0.18084019253E+03  0.00000000000E+00 0.  1.
<scales pt_clust_3="54.80266" pt_clust_4="157.33687" pt_clust_5="54.80266" pt_clust_6="37.90381"></scales>
<clustering>
<clus scale="   37.904">  2  6  1 -1</clus>
<clus scale="   54.803">  3  5 -1 -1</clus>
<clus scale="  157.337">  2  4  1 -1</clus>
<clus scale="  167.763">  1  3  2 -1</clus>
</clustering>
</event>
<event>
 6    0  0.4390142E+002  0.1483365E+03  0.7546771E-02  0.1202532E+00
         21   -1    0    0  506  501  0.00000000000E+00  0.00000000000E+00  0.42890595828E+02  0.42890595828E+02  0.00000000000E+00 0. -1.
         21   -1    0    0  503  502 -0.00000000000E+00 -0.00000000000E+00 -0.66334496250E+03  0.66334496250E+03  0.00000000000E+00 0. -1.
         21    1    1    2  503  501  0.17630173903E+02 -0.33332467690E+02 -0.47557797321E+02  0.60692837470E+02  0.00000000000E+00 0.  1.
         21    1    1    2  504  505  0.44024388434E+02  0.58102948037E+02 -0.17239557938E+03  0.18717461136E+03  0.00000000000E+00 0.  1.
         21    1    1    2  505  502 -0.94308429976E+02 -0.89632133942E+02 -0.33933491874E+03  0.36342287556E+03  0.00000000000E+00 0. -1.
         21    1    1    2  506  504  0.32653867639E+02  0.64861653596E+02 -0.61166071227E+02  0.94945233942E+02  0.00000000000E+00 0. -1.
<scales pt_clust_3="37.70778" pt_clust_4="60.81430" pt_clust_5="134.02613" pt_clust_6="60.81430"></scales>
<clustering>
<clus scale="   37.708">  1  3  2 -1</clus>
<clus scale="   60.814">  4  6 -1 -1</clus>
<clus scale="  134.026">  2  5  1 -1</clus>
<clus scale="   37.708">  1  3  2 -1</clus>
</clustering>
</event>
<event>
 6    0  0.4390142E+002  0.1259325E+03  0.7546771E-02  0.1233619E+00
         21   -1    0    0  505  501  0.00000000000E+00  0.00000000000E+00  0.16353019528E+04  0.16353019528E+04  0.00000000000E+00 0. -1.
         21   -1    0    0  504  502 -0.00000000000E+00 -0.00000000000E+00 -0.22697290822E+02  0.22697290822E+02  0.00000000000E+00 0. -1.
         21    1    1    2  503  506 -0.10646359406E+03 -0.10128888490E+02  0.60608074896E+03  0.61544371433E+03  0.00000000000E+00 0. -1.
         21    1    1    2  504  503 -0.31102201347E+02  0.55753773369E+02  0.12520535098E+03  0.14054255614E+03  0.00000000000E+00 0. -1.
         21    1    1    2  505  502  0.15254973523E+03 -0.19376497754E+02  0.61283398854E+03  0.63183254735E+03  0.00000000000E+00 0. -1.
         21    1    1    2  506  501 -0.14983939826E+02 -0.26248387125E+02  0.26848457353E+03  0.27018042583E+03  0.00000000000E+00 0. -1.
<scales pt_clust_3="125.93249" pt_clust_4="62.37330" pt_clust_5="14000.00000" pt_clust_6="30.22410"></scales>
<clustering>
<clus scale="   30.224">  1  6  2 -1</clus>
<clus scale="   62.373">  2  4  1 -1</clus>
<clus scale="  125.932">  1  3  2 -1</clus>
<clus scale="   30.224">  1  3  2 -1</clus>
</clustering>
</event>
<event>
 6    0  0.4390142E+002  0.1859884E+03  0.7546771E-02  0.1162130E+00
         21   -1    0    0  505  501  0.00000000000E+00  0.00000000000E+00  0.31166978398E+03  0.31166978398E+03  0.00000000000E+00 0. -1.
         21   -1    0    0  503  502 -0.00000000000E+00 -0.00000000000E+00 -0.91387635189E+03  0.91387635189E+03  0.00000000000E+00 0. -1.
         21    1    1    2  503  504  0.19593426703E+02  0.39260327187E+02 -0.29521070134E+02  0.52884489623E+02  0.00000000000E+00 0. -1.
         21    1    1    2  504  501 -0.60048368855E+02  0.27825467588E+02  0.15737178142E+03  0.17072182296E+03  0.00000000000E+00 0. -1.
         21    1    1    2  505  506 -0.13602535063E+03 -0.31491535900E+02  0.87512865210E+02  0.16478202094E+03  0.00000000000E+00 0. -1.
         21    1    1    2  506  502  0.17648029278E+03 -0.35594258875E+02 -0.81757014440E+03  0.83715780234E+03  0.00000000000E+00 0. -1.
<scales pt_clust_3="43.87796" pt_clust_4="66.17317" pt_clust_5="14000.00000" pt_clust_6="185.98841"></scales>
<clustering>
<clus scale="   43.878">  2  3  1 -1</clus>
<clus scale="   66.173">  1  4  2 -1</clus>
<clus scale="  185.988">  2  6  1 -1</clus>
<clus scale="   66.173">  1  3  2 -1</clus>
</clustering>
</event>
<event>
 6    0  0.4390142E+002  0.1481186E+03  0.7546771E-02  0.1202804E+00
         21   -1    0    0  504  501  0.00000000000E+00  0.00000000000E+00  0.20257111724E+04  0.20257111724E+04  0.00000000000E+00 0. -1.
         21   -1    0    0  503  502 -0.00000000000E+00 -0.00000000000E+00 -0.75679698828E+02  0.75679698828E+02  0.00000000000E+00 0. -1.
         21    1    1    2  503  506 -0.12294025174E+03  0.23426415193E+02  0.10857591529E+04  0.10929483248E+04  0.00000000000E+00 0. -1.
         21    1    1    2  504  505  0.11721758796E+03  0.34571415291E+02  0.71864928441E+02  0.14177345881E+03  0.00000000000E+00 0. -1.
         21    1    1    2  505  502  0.40807253930E+02 -0.45701666191E+02 -0.11130457235E+02  0.62271673690E+02  0.00000000000E+00 0. -1.
         21    1    1    2  506  501 -0.35084590156E+02 -0.12296164293E+02  0.80353784942E+03  0.80439741395E+03  0.00000000000E+00 0. -1.
<scales pt_clust_3="14000.00000" pt_clust_4="148.11859" pt_clust_5="60.97600" pt_clust_6="37.17693"></scales>
<clustering>
<clus scale="   37.177">  1  6  2 -1</clus>
<clus scale="   60.976">  2  5  1 -1</clus>
<clus scale="  148.119">  2  4  1 -1</clus>
<clus scale="   37.177">  1  3  2 -1</clus>
</clustering>
</event>
<event>
 6    0  0.4390142E+002  0.1033480E+03  0.7546771E-02  0.1273409E+00
         21   -1    0    0  503  501  0.00000000000E+00  0.00000000000E+00  0.11672987678E+03  0.11672987678E+03  0.00000000000E+00 0. -1.
         21   -1    0    0  505  502 -0.00000000000E+00 -0.00000000000E+00 -0.94858231236E+03  0.94858231236E+03  0.00000000000E+00 0. -1.
         21    1    1    2  503  504 -0.93846933123E+02  0.77211019811E+02  0.48556663076E+02  0.13086839942E+03  0.00000000000E+00 0. -1.
         21    1    1    2  504  502 -0.15962245106E+02 -0.53340695474E+02 -0.17036515108E+03  0.17923255219E+03  0.00000000000E+00 0. -1.
         21    1    1    2  505  506  0.43094693592E+02  0.11603665257E+02 -0.66652067138E+03  0.66801317580E+03  0.00000000000E+00 0. -1.
         21    1    1    2  506  501  0.66714484636E+02 -0.35473989593E+02 -0.43523276199E+02  0.87198061728E+02  0.00000000000E+00 0. -1.
<scales pt_clust_3="103.34800" pt_clust_4="47.38145" pt_clust_5="44.62956" pt_clust_6="14000.00000"></scales>
<clustering>
<clus scale="   44.630">  2  5  1 -1</clus>
<clus scale="   47.381">  2  4  1 -1</clus>
<clus scale="  103.348">  1  3  2 -1</clus>
<clus scale="  103.348">  1  3  2 -1</clus>
</clustering>
</event>
<event>
 6    0  0.4390142E+002  0.9608470E+02  0.7546771E-02  0.1288752E+00
         21   -1    0    0  504  501  0.00000000000E+00  0.00000000000E+00  0.13684210677E+04  0.13684210677E+04  0.00000000000E+00 0.  1.
         21   -1    0    0  506  502 -0.00000000000E+00 -0.00000000000E+00 -0.32482081618E+02  0.32482081618E+02  0.00000000000E+00 0.  1.
         21    1    1    2  503  505  0.39731117373E+02 -0.14070816006E+03  0.54897072747E+03  0.56810756694E+03  0.00000000000E+00 0.  1.
         21    1    1    2  504  502 -0.22448914951E+02  0.24479755574E+02  0.54722084397E+03  0.54822793097E+03  0.00000000000E+00 0.  1.
         21    1    1    2  505  501  0.19726317106E+01  0.30485824988E+02  0.16903195089E+03  0.17177042011E+03  0.00000000000E+00 0.  1.
         21    1    1    2  506  503 -0.19254834133E+02  0.85742579494E+02  0.70715463731E+02  0.11279723129E+03  0.00000000000E+00 0.  1.
<scales pt_clust_3="96.08470" pt_clust_4="44.04757" pt_clust_5="30.54958" pt_clust_6="14000.00000"></scales>
<clustering>
<clus scale="   30.550">  1  5  2 -1</clus>
<clus scale="   44.048">  1  4  2 -1</clus>
<clus scale="   96.085">  1  3  2 -1</clus>
<clus scale="   30.550">  1  3  2 -1</clus>
</clustering>
</event>
<event>
 6    0  0.4390142E+002  0.2303240E+03  0.7546771E-02  0.1126412E+00
         21   -1    0    0  505  501  0.00000000000E+00  0.00000000000E+00  0.77847828538E+03  0.77847828538E+03  0.00000000000E+00 0.  1.
         21   -1    0    0  504  502 -0.00000000000E+00 -0.00000000000E+00 -0.16496270469E+03  0.16496270469E+03  0.00000000000E+00 0.  1.
         21    1    1    2  503  506  0.41692048176E+02 -0.32047935717E+01 -0.55427172303E+02  0.69431037818E+02  0.00000000000E+00 0.  1.
         21    1    1    2  504  503 -0.22891463029E+02 -0.22890677729E+02 -0.17756862169E+02  0.36923005845E+02  0.00000000000E+00 0.  1.
         21    1    1    2  505  502 -0.24144381916E+03  0.35243679960E+02  0.26561780053E+03  0.36067998384E+03  0.00000000000E+00 0.  1.
         21    1    1    2  506  501  0.22264323401E+03 -0.91482086587E+01  0.42108181463E+03  0.47640696257E+03  0.00000000000E+00 0.  1.
<scales pt_clust_3="34.12967" pt_clust_4="32.37286" pt_clust_5="230.32400" pt_clust_6="14000.00000"></scales>
<clustering>
<clus scale="   32.373">  2  4  1 -1</clus>
<clus scale="   34.130">  2  3  1 -1</clus>
<clus scale="  230.324">  2  5  1 -1</clus>
<clus scale="  230.324">  1  3  2 -1</clus>
</clustering>
</event>
<event>
 6    0  0.4390142E+002  0.5917390E+02  0.7546771E-02  0.1401332E+00
         21   -1    0    0  506  501  0.00000000000E+00  0.00000000000E+00  0.56221812602E+03  0.56221812602E+03  0.00000000000E+00 0.  1.
         21   -1    0    0  505  502 -0.00000000000E+00 -0.00000000000E+00 -0.22801808489E+03  0.22801808489E+03  0.00000000000E+00 0. -1.
         21    1    1    2  503  502 -0.40148746877E+02  0.36345533589E+02 -0.89613455286E+02  0.10470669060E+03  0.00000000000E+00 0. -1.
         21    1    1    2  504  503  0.77771281679E+02 -0.75398343464E+02 -0.96380022622E+02  0.14499100390E+03  0.00000000000E+00 0. -1.
         21    1    1    2  505  501 -0.72229551526E+02  0.37122766141E+02  0.48267814618E+03  0.48946235880E+03  0.00000000000E+00 0.  1.
         21    1    1    2  506  504  0.34607016724E+02  0.19300437343E+01  0.37515372865E+02  0.51076157613E+02  0.00000000000E+00 0. -1.
<scales pt_clust_3="53.80268" pt_clust_4="14000.00000" pt_clust_5="59.17390" pt_clust_6="34.66079"></scales>
<clustering>
<clus scale="   34.661">  1  6  2 -1</clus>
<clus scale="   53.803">  2  3  1 -1</clus>
<clus scale="   59.174">  1  5  2 -1</clus>
<clus scale="   34.661">  1  3  2 -1</clus>
</clustering>
</event>
<event>
 6    0  0.4390142E+002  0.1231931E+03  0.7546771E-02  0.1237920E+00
         21   -1    0    0  502  501  0.00000000000E+00  0.00000000000E+00  0.81985211508E+02  0.81985211508E+02  0.00000000000E+00 0. -1.
         21   -1    0    0  504  502 -0.00000000000E+00 -0.00000000000E+00 -0.68495949231E+03  0.68495949231E+03  0.00000000000E+00 0. -1.
         21    1    1    2  503  506  0.33019776471E+01  0.10755981057E+03 -0.45726965506E+02  0.11692292880E+03  0.00000000000E+00 0. -1.
         21    1    1    2  504  505  0.31440746611E+02 -0.28663876956E+02 -0.12334289368E+03  0.13047454852E+03  0.00000000000E+00 0. -1.
         21    1    1    2  505  503 -0.10825771543E+03 -0.85352981622E+02 -0.42306254415E+03  0.44495705487E+03  0.00000000000E+00 0. -1.
         21    1    1    2  506  501  0.73514991167E+02  0.64570480112E+01 -0.10841877465E+02  0.74590171619E+02  0.00000000000E+00 0. -1.
<scales pt_clust_3="14000.00000" pt_clust_4="42.54572" pt_clust_5="123.19310" pt_clust_6="76.04121"></scales>
<clustering>
<clus scale="   42.546">  2  4  1 -1</clus>
<clus scale="   76.041">  1  6  2 -1</clus>
<clus scale="  123.193">  2  5  1 -1</clus>
<clus scale="   76.041">  1  3  2 -1</clus>
</clustering>
</event>
<event>
 6    0  0.4390142E+002  0.9576771E+02  0.7546771E-02  0.1289456E+00
         21   -1    0    0  503  501  0.00000000000E+00  0.00000000000E+00  0.51766827530E+03  0.51766827530E+03  0.00000000000E+00 0. -1.
         21   -1    0    0  505  502 -0.00000000000E+00 -0.00000000000E+00 -0.24501444607E+03  0.24501444607E+03  0.00000000000E+00 0. -1.
         21    1    1    2  503  502 -0.19124083109E+02  0.32039411098E+02 -0.31450594714E+02  0.48799532028E+02  0.00000000000E+00 0.  1.
         21    1    1    2  504  506 -0.87604405512E+02 -0.75453947188E+02  0.11565046985E+03  0.16353244689E+03  0.00000000000E+00 0. -1.
         21    1    1    2  505  504  0.44430321980E+02  0.63474399321E+02 -0.16954964684E+03  0.18641388259E+03  0.00000000000E+00 0. -1.
         21    1    1    2  506  501  0.62298166641E+02 -0.20059863231E+02  0.35800360094E+03  0.36393685986E+03  0.00000000000E+00 0. -1.
<scales pt_clust_3="37.31293" pt_clust_4="95.76771" pt_clust_5="14000.00000" pt_clust_6="65.04336"></scales>
<clustering>
<clus scale="   37.313">  2  3  1 -1</clus>
<clus scale="   65.043">  1  6  2 -1</clus>
<clus scale="   95.768">  1  4  2 -1</clus>
<clus scale="   65.043">  1  3  2 -1</clus>
</clustering>
</event>
<event>
 6    0  0.4390142E+002  0.1056115E+03  0.7546771E-02  0.1268919E+00
         21   -1    0    0  506  501  0.00000000000E+00  0.00000000000E+00  0.39984858590E+03  0.39984858590E+03  0.00000000000E+00 0. -1.
         21   -1    0    0  504  502 -0.00000000000E+00 -0.00000000000E+00 -0.92679419149E+02  0.92679419149E+02  0.00000000000E+00 0. -1.
         21    1    1    2  503  505 -0.39591017976E+02  0.66900705379E+01  0.68264879240E+02  0.79197850260E+02  0.00000000000E+00 0. -1.
         21    1    1    2  504  503 -0.26694071288E+02 -0.39242459215E+02 -0.24830634834E+02  0.53564022192E+02  0.00000000000E+00 0. -1.
         21    1    1    2  505  501 -0.47983492497E+02  0.26430389501E+02  0.23565540640E+03  0.24193894190E+03  0.00000000000E+00 0. -1.
         21    1    1    2  506  502  0.11426858176E+03  0.61219991757E+01  0.28079515944E+02  0.11782719070E+03  0.00000000000E+00 0. -1.
<scales pt_clust_3="38.23975" pt_clust_4="47.46097" pt_clust_5="38.23975" pt_clust_6="95.70140"></scales>
<clustering>
<clus scale="   38.240">  3  5 -1 -1</clus>
<clus scale="   47.461">  2  4  1 -1</clus>
<clus scale="   95.701">  2  6  1 -1</clus>
<clus scale="  105.612">  1  3  2 -1</clus>
</clustering>
</event>
<event>
 6    0  0.4390142E+002  0.6942478E+02  0.7546771E-02  0.1362060E+00
         21   -1    0    0  506  501  0.00000000000E+00  0.00000000000E+00  0.19362469207E+03  0.19362469207E+03  0.00000000000E+00 0.  1.
         21   -1    0    0  504  502 -0.00000000000E+00 -0.00000000000E+00 -0.10458565884E+03  0.10458565884E+03  0.00000000000E+00 0.  1.
         21    1    1    2  503  501  0.58463270530E+02 -0.19943077282E+02  0.83082373910E+02  0.10352951843E+03  0.00000000000E+00 0.  1.
         21    1    1    2  504  505  0.17254351878E+01 -0.38630096493E+02 -0.71663365797E+01  0.39327062713E+02  0.00000000000E+00 0.  1.
         21    1    1    2  505  503  0.41256889083E+02  0.18714935940E+02  0.95585667575E+01  0.46300603911E+02  0.00000000000E+00 0.  1.
         21    1    1    2  506  502 -0.10144559480E+03  0.39858237835E+02  0.35644291370E+01  0.10905316585E+03  0.00000000000E+00 0.  1.
<scales pt_clust_3="69.42478" pt_clust_4="38.66861" pt_clust_5="42.82802" pt_clust_6="14000.00000"></scales>
<clustering>
<clus scale="   38.669">  2  4  1 -1</clus>
<clus scale="   42.828">  2  5  1 -1</clus>
<clus scale="   69.425">  1  3  2 -1</clus>
<clus scale="   69.425">  1  3  2 -1</clus>
</clustering>
</event>
<event>
 6    0  0.4390142E+002  0.2293412E+03  0.7546771E-02  0.1127104E+00
         21   -1    0    0  506  501  0.00000000000E+00  0.00000000000E+00  0.63610844345E+03  0.63610844345E+03  0.00000000000E+00 0. -1.
         21   -1    0    0  503  502 -0.00000000000E+00 -0.00000000000E+00 -0.29702187708E+03  0.29702187708E+03  0.00000000000E+00 0. -1.
         21    1    1    2  503  501 -0.16965058505E+03  0.14615357431E+03  0.28206812001E+03  0.36014526600E+03  0.00000000000E+00 0. -1.
         21    1    1    2  504  502  0.37853692461E+02  0.13930034461E+02 -0.21667264517E+03  0.22039506133E+03  0.00000000000E+00 0. -1.
         21    1    1    2  505  504  0.45711203127E+02 -0.73671100566E+01  0.46444092449E+02  0.65580806074E+02  0.00000000000E+00 0. -1.
         21    1    1    2  506  505  0.86085689462E+02 -0.15271649871E+03  0.22724699907E+03  0.28700918713E+03  0.00000000000E+00 0. -1.
<scales pt_clust_3="214.89919" pt_clust_4="40.33544" pt_clust_5="42.67533" pt_clust_6="42.67533"></scales>
<clustering>
<clus scale="   40.335">  2  4  1 -1</clus>
<clus scale="   42.675">  5  6 -1 -1</clus>
<clus scale="  214.899">  2  3  1 -1</clus>
<clus scale="  229.341">  1  3  2 -1</clus>
</clustering>
</event>
<event>
 6    0  0.4390142E+002  0.7841399E+02  0.7546771E-02  0.1333614E+00
         21   -1    0    0  504  501  0.00000000000E+00  0.00000000000E+00  0.71891653496E+03  0.71891653496E+03  0.00000000000E+00 0.  1.
         21   -1    0    0  505  502 -0.00000000000E+00 -0.00000000000E+00 -0.11202898177E+04  0.11202898177E+04  0.00000000000E+00 0.  1.
         21    1    1    2  503  501  0.21551964622E+02  0.25160643644E+02  0.37570658454E+03  0.37716439762E+03  0.00000000000E+00 0.  1.
         21    1    1    2  504  502 -0.11125318731E+03 -0.61806735784E+02 -0.48435728335E+03  0.50079868431E+03  0.00000000000E+00 0.  1.
         21    1    1    2  505  506  0.36809566720E+02  0.36541790970E+02 -0.62380753492E+03  0.62596013237E+03  0.00000000000E+00 0.  1.
         21    1    1    2  506  503  0.52891655967E+02  0.10430116984E+00  0.33108495095E+03  0.33528313840E+03  0.00000000000E+00 0.  1.
<scales pt_clust_3="33.12922" pt_clust_4="14000.00000" pt_clust_5="51.97136" pt_clust_6="78.41399"></scales>
<clustering>
<clus scale="   33.129">  1  3  2 -1</clus>
<clus scale="   51.971">  2  5  1 -1</clus>
<clus scale="   78.414">  1  6  2 -1</clus>
<clus scale="   33.129">  1  3  2 -1</clus>
</clustering>
</event>
<event>
 6    0  0.4390142E+002  0.1155013E+03  0.7546771E-02  0.1250709E+00
         21   -1    0    0  503  501  0.00000000000E+00  0.00000000000E+00  0.40019275332E+03  0.40019275332E+03  0.00000000000E+00 0.  1.
         21   -1    0    0  505  502 -0.00000000000E+00 -0.00000000000E+00 -0.35721399130E+03  0.35721399130E+03  0.00000000000E+00 0.  1.
         21    1    1    2  503  506  0.92008826610E+02  0.31904148887E+02  0.11511202878E+03  0.15077890456E+03  0.00000000000E+00 0.  1.
         21    1    1    2  504  502  0.36336072492E+02  0.36387673869E+02 -0.10483529546E+03  0.11676819836E+03  0.00000000000E+00 0.  1.
         21    1    1    2  505  501  0.21662178638E+02 -0.63701485592E+02  0.23132598568E+03  0.24091251711E+03  0.00000000000E+00 0.  1.
         21    1    1    2  506  504 -0.15000707774E+03 -0.45903371649E+01 -0.19862395697E+03  0.24894712460E+03  0.00000000000E+00 0.  1.
<scales pt_clust_3="14000.00000" pt_clust_4="51.42347" pt_clust_5="66.84739" pt_clust_6="115.50126"></scales>
<clustering>
<clus scale="   51.423">  2  4  1 -1</clus>
<clus scale="   66.847">  1  5  2 -1</clus>
<clus scale="  115.501">  2  6  1 -1</clus>
<clus scale="   66.847">  1  3  2 -1</clus>
</clustering>
</event>
<event>
 6    0  0.4390142E+002  0.8447639E+02  0.7546771E-02  0.1316808E+00
         21   -1    0    0  505  501  0.00000000000E+00  0.00000000000E+00  0.23474574003E+03  0.23474574003E+03  0.00000000000E+00 0. -1.
         21   -1    0    0  503  502 -0.00000000000E+00 -0.00000000000E+00 -0.16859382668E+04  0.16859382668E+04  0.00000000000E+00 0.  1.
         21    1    1    2  503  506 -0.28019356892E+02  0.86359139475E+02 -0.15536047143E+04  0.15562553112E+04  0.00000000000E+00 0.  1.
         21    1    1    2  504  502  0.38689496111E+02 -0.39545768494E+02 -0.98878708807E+02  0.11330376856E+03  0.00000000000E+00 0. -1.
         21    1    1    2  505  504 -0.17627100490E+02  0.47722431779E+02  0.10122153063E+03  0.11328699585E+03  0.00000000000E+00 0.  1.
         21    1    1    2  506  501  0.69569612698E+01 -0.94535802760E+02  0.10006936574E+03  0.13783793119E+03  0.00000000000E+00 0. -1.
<scales pt_clust_3="14000.00000" pt_clust_4="84.47639" pt_clust_5="50.87382" pt_clust_6="50.90165"></scales>
<clustering>
<clus scale="   50.874">  1  5  2 -1</clus>
<clus scale="   50.902">  1  6  2 -1</clus>
<clus scale="   84.476">  1  4  2 -1</clus>
<clus scale="   50.874">  1  3  2 -1</clus>
</clustering>
</event>
<event>
 6    0  0.4390142E+002  0.8393186E+02  0.7546771E-02  0.1318250E+00
         21   -1    0    0  503  501  0.00000000000E+00  0.00000000000E+00  0.56192513061E+03  0.56192513061E+03  0.00000000000E+00 0.  1.
         21   -1    0    0  504  502 -0.00000000000E+00 -0.00000000000E+00 -0.64212312474E+02  0.64212312474E+02  0.00000000000E+00 0. -1.
         21    1    1    2  503  506  0.19934432474E+02  0.61064978501E+02  0.31335274716E+03  0.31986912535E+03  0.00000000000E+00 0.  1.
         21    1    1    2  504  501 -0.37106194455E+02 -0.35518149216E+02  0.19984165572E+01  0.51404301954E+02  0.00000000000E+00 0. -1.
         21    1    1    2  505  502  0.90721811914E+02 -0.39837917803E+02  0.76543369186E+02  0.12520540810E+03  0.00000000000E+00 0. -1.
         21    1    1    2  506  505 -0.73550049933E+02  0.14291088518E+02  0.10581828524E+03  0.12965860768E+03  0.00000000000E+00 0.  1.
<scales pt_clust_3="60.53538" pt_clust_4="51.36544" pt_clust_5="14000.00000" pt_clust_6="83.93186"></scales>
<clustering>
<clus scale="   51.365">  2  4  1 -1</clus>
<clus scale="   60.535">  1  3  2 -1</clus>
<clus scale="   83.932">  1  6  2 -1</clus>
<clus scale="   60.535">  1  3  2 -1</clus>
</clustering>
</event>
<event>
 6    0  0.4390142E+002  0.7083640E+02  0.7546771E-02  0.1357272E+00
         21   -1    0    0  503  501  0.00000000000E+00  0.00000000000E+00  0.79982909468E+03  0.79982909468E+03  0.00000000000E+00 0.  1.
         21   -1    0    0  506  502 -0.00000000000E+00 -0.00000000000E+00 -0.84758676382E+03  0.84758676382E+03  0.00000000000E+00 0. -1.
         21    1    1    2  503  504 -0.53324086113E+02 -0.73224196380E+02  0.13141713283E+03  0.15961110205E+03  0.00000000000E+00 0.  1.
         21    1    1    2  504  502  0.60923604997E+02  0.47674095900E+02 -0.16806081997E+03  0.18501065989E+03  0.00000000000E+00 0.  1.
         21    1    1    2  505  501  0.23780126961E+02  0.64406582044E+02  0.64306080572E+03  0.64671547229E+03  0.00000000000E+00 0.  1.
         21    1    1    2  506  505 -0.31379645846E+02 -0.38856481564E+02 -0.65417478772E+03  0.65607862427E+03  0.00000000000E+00 0. -1.
<scales pt_clust_3="70.83640" pt_clust_4="34.31888" pt_clust_5="14000.00000" pt_clust_6="49.94505"></scales>
<clustering>
<clus scale="   49.945">  2  6  1 -1</clus>
<clus scale="   34.319">  2  4  1 -1</clus>
<clus scale="   70.836">  2  3  1 -1</clus>
<clus scale="   70.836">  1  3  2 -1</clus>
</clustering>
</event>
<event>
 6    0  0.4942439E+002  0.1306346E+03  0.7546771E-02  0.1226517E+00
         21   -1    0    0  506  501  0.00000000000E+00  0.00000000000E+00  0.10365186341E+04  0.10365186341E+04  0.00000000000E+00 0.  1.
         21   -1    0    0  504  502 -0.00000000000E+00 -0.00000000000E+00 -0.59022942035E+03  0.59022942035E+03  0.00000000000E+00 0.  1.
         21    1    1    2  503  502 -0.35169638503E+02  0.78305673390E+01 -0.45141575672E+02  0.57757970111E+02  0.00000000000E+00 0. -1.
         21    1    1    2  504  505 -0.86195852798E+02  0.42026604837E+02 -0.52572786879E+03  0.53440223856E+03  0.00000000000E+00 0.  1.
         21    1    1    2  505  501  0.10944347417E+03 -0.78269792596E+02  0.96235959459E+03  0.97172013654E+03  0.00000000000E+00 0.  1.
         21    1    1    2  506  503  0.11922017133E+02  0.28412620420E+02  0.54799063624E+02  0.62867709246E+02  0.00000000000E+00 0. -1.
<scales pt_clust_3="35.99613" pt_clust_4="14000.00000" pt_clust_5="130.63460" pt_clust_6="30.81252"></scales>
<clustering>
<clus scale="   30.813">  1  6  2 -1</clus>
<clus scale="   35.996">  2  3  1 -1</clus>
<clus scale="  130.635">  1  5  2 -1</clus>
<clus scale="   30.813">  1  3  2 -1</clus>
</clustering>
</event>
<event>
 6    0  0.4390142E+002  0.3200279E+03  0.7546771E-02  0.1075636E+00
         21   -1    0    0  503  501  0.00000000000E+00  0.00000000000E+00  0.13215720644E+04  0.13215720644E+04  0.00000000000E+00 0.  1.
         21   -1    0    0  506  502 -0.00000000000E+00 -0.00000000000E+00 -0.90777275885E+03  0.90777275885E+03  0.00000000000E+00 0. -1.
         21    1    1    2  503  502 -0.36627022999E+02  0.54601829237E+02  0.49184037031E+02  0.82109488298E+02  0.00000000000E+00 0. -1.
         21    1    1    2  504  501  0.29177743157E+03  0.12163632981E+03  0.12061552117E+04  0.12468920807E+04  0.00000000000E+00 0.  1.
         21    1    1    2  505  504 -0.17123277360E+03 -0.16030008724E+03 -0.62514630482E+03  0.66770104325E+03  0.00000000000E+00 0. -1.
         21    1    1    2  506  505 -0.83917634979E+02 -0.15938071814E+02 -0.21639363837E+03  0.23264221096E+03  0.00000000000E+00 0. -1.
<scales pt_clust_3="65.74875" pt_clust_4="310.08224" pt_clust_5="47.77228" pt_clust_6="47.77228"></scales>
<clustering>
<clus scale="   47.772">  5  6 -1 -1</clus>
<clus scale="   65.749">  1  3  2 -1</clus>
<clus scale="  310.082">  1  4  2 -1</clus>
<clus scale="   65.749">  1  3  2 -1</clus>
</clustering>
</event>
<event>
 6    0  0.4390142E+002  0.8096069E+02  0.7546771E-02  0.1326347E+00
         21   -1    0    0  504  501  0.00000000000E+00  0.00000000000E+00  0.32173040556E+03  0.32173040556E+03  0.00000000000E+00 0. -1.
         21   -1    0    0  503  502 -0.00000000000E+00 -0.00000000000E+00 -0.16653184914E+03  0.16653184914E+03  0.00000000000E+00 0.  1.
         21    1    1    2  503  501 -0.35624271437E+02  0.44763435765E+02  0.12099502230E+03  0.13383814598E+03  0.00000000000E+00 0. -1.
         21    1    1    2  504  505 -0.42023722393E+02 -0.14088093219E+02  0.11840997826E+03  0.12643334436E+03  0.00000000000E+00 0. -1.
         21    1    1    2  505  506  0.10701204020E+03 -0.46728898728E+02  0.20064465625E+02  0.11848100905E+03  0.00000000000E+00 0.  1.
         21    1    1    2  506  502 -0.29364046368E+02  0.16053556182E+02 -0.10427090977E+03  0.10950975532E+03  0.00000000000E+00 0.  1.
<scales pt_clust_3="14000.00000" pt_clust_4="45.88152" pt_clust_5="80.96069" pt_clust_6="33.46586"></scales>
<clustering>
<clus scale="   33.466">  2  6  1 -1</clus>
<clus scale="   45.882">  1  4  2 -1</clus>
<clus scale="   80.961">  2  5  1 -1</clus>
<clus scale="   45.882">  1  3  2 -1</clus>
</clustering>
</event>
<event>
 6    0  0.4390142E+002  0.2553837E+03  0.7546771E-02  0.1109949E+00
         21   -1    0    0  503  501  0.00000000000E+00  0.00000000000E+00  0.41093700441E+03  0.41093700441E+03  0.00000000000E+00 0.  1.
         21   -1    0    0  506  502 -0.00000000000E+00 -0.00000000000E+00 -0.76644501030E+03  0.76644501030E+03  0.00000000000E+00 0. -1.
         21    1    1    2  503  502 -0.23499587574E+03  0.11833637639E+03 -0.65343099241E+02  0.27110197382E+03  0.00000000000E+00 0. -1.
         21    1    1    2  504  501  0.66798149019E+02 -0.19866152040E+02  0.92026434530E+02  0.11543622205E+03  0.00000000000E+00 0. -1.
         21    1    1    2  505  504  0.18394477529E+03  0.61532938549E+00  0.15734346416E+03  0.24205996096E+03  0.00000000000E+00 0.  1.
         21    1    1    2  506  505 -0.15747048571E+02 -0.99085553732E+02 -0.53953480534E+03  0.54878385788E+03  0.00000000000E+00 0. -1.
<scales pt_clust_3="250.68954" pt_clust_4="30.00012" pt_clust_5="30.00012" pt_clust_6="100.32904"></scales>
<clustering>
<clus scale="   30.000">  4  5 -1 -1</clus>
<clus scale="  100.329">  2  6  1 -1</clus>
<clus scale="  250.690">  2  3  1 -1</clus>
<clus scale="  255.384">  1  3  2 -1</clus>
</clustering>
</event>
<event>
 6    0  0.4390142E+002  0.1242005E+03  0.7546771E-02  0.1236324E+00
         21   -1    0    0  506  501  0.00000000000E+00  0.00000000000E+00  0.25757772835E+03  0.25757772835E+03  0.00000000000E+00 0.  1.
         21   -1    0    0  505  502 -0.00000000000E+00 -0.00000000000E+00 -0.46773700047E+03  0.46773700047E+03  0.00000000000E+00 0. -1.
         21    1    1    2  503  501  0.57350227859E+02 -0.31066878444E+02  0.16198381902E+03  0.17462232732E+03  0.00000000000E+00 0.  1.
         21    1    1    2  504  502  0.38548394767E+02 -0.56183392294E+02 -0.13412983554E+03  0.15044389350E+03  0.00000000000E+00 0. -1.
         21    1    1    2  505  503  0.37260997899E+02 -0.29355639411E+02  0.45688876034E+02  0.65860526288E+02  0.00000000000E+00 0.  1.
         21    1    1    2  506  504 -0.13315962052E+03  0.11660591015E+03 -0.28370213164E+03  0.33438798172E+03  0.00000000000E+00 0. -1.
<scales pt_clust_3="39.09783" pt_clust_4="68.13628" pt_clust_5="39.09783" pt_clust_6="115.42913"></scales>
<clustering>
<clus scale="   39.098">  3  5 -1 -1</clus>
<clus scale="   68.136">  2  4  1 -1</clus>
<clus scale="  115.429">  2  6  1 -1</clus>
<clus scale="  124.201">  1  3  2 -1</clus>
</clustering>
</event>
<event>
 6    0  0.4390142E+002  0.1024394E+03  0.7546771E-02  0.1275248E+00
         21   -1    0    0  505  501  0.00000000000E+00  0.00000000000E+00  0.37873986936E+03  0.37873986936E+03  0.00000000000E+00 0. -1.
         21   -1    0    0  506  502 -0.00000000000E+00 -0.00000000000E+00 -0.82994488713E+02  0.82994488713E+02  0.00000000000E+00 0. -1.
         21    1    1    2  503  501  0.51324658397E+02  0.10926782252E+02  0.13917826719E+03  0.14874207605E+03  0.00000000000E+00 0. -1.
         21    1    1    2  504  503  0.28789188974E+02 -0.92229380120E+02  0.12715831798E+03  0.15970070066E+03  0.00000000000E+00 0. -1.
         21    1    1    2  505  502 -0.99237460255E+02  0.57798012980E+02  0.39357188192E+02  0.12139881418E+03  0.00000000000E+00 0. -1.
         21    1    1    2  506  504  0.19123612885E+02  0.23504584888E+02 -0.99483927211E+01  0.31892767178E+02  0.00000000000E+00 0. -1.
<scales pt_clust_3="54.31259" pt_clust_4="14000.00000" pt_clust_5="102.43945" pt_clust_6="30.30145"></scales>
<clustering>
<clus scale="   30.301">  2  6  1 -1</clus>
<clus scale="   54.313">  1  3  2 -1</clus>
<clus scale="  102.439">  2  5  1 -1</clus>
<clus scale="   54.313">  1  3  2 -1</clus>
</clustering>
</event>
<event>
 6    0  0.4390142E+002  0.9745629E+02  0.7546771E-02  0.1285738E+00
         21   -1    0    0  505  501  0.00000000000E+00  0.00000000000E+00  0.63404723609E+03  0.63404723609E+03  0.00000000000E+00 0.  1.
         21   -1    0    0  506  502 -0.00000000000E+00 -0.00000000000E+00 -0.83318039242E+03  0.83318039242E+03  0.00000000000E+00 0. -1.
         21    1    1    2  503  501 -0.37332765724E+02 -0.11368218632E+02  0.11019349567E+03  0.11689986433E+03  0.00000000000E+00 0. -1.
         21    1    1    2  504  502 -0.33953689230E+02 -0.32217042727E+02 -0.14744694287E+03  0.15469774341E+03  0.00000000000E+00 0. -1.
         21    1    1    2  505  504 -0.56354316596E+02 -0.16506630246E+02  0.50783415555E+03  0.51121796465E+03  0.00000000000E+00 0.  1.
         21    1    1    2  506  503  0.12764077155E+03  0.60091891605E+02 -0.66971386469E+03  0.68441205612E+03  0.00000000000E+00 0. -1.
<scales pt_clust_3="39.02527" pt_clust_4="47.04917" pt_clust_5="97.45629" pt_clust_6="14000.00000"></scales>
<clustering>
<clus scale="   39.025">  1  3  2 -1</clus>
<clus scale="   47.049">  2  4  1 -1</clus>
<clus scale="   97.456">  1  5  2 -1</clus>
<clus scale="   39.025">  1  3  2 -1</clus>
</clustering>
</event>
<event>
 6    0  0.4390142E+002  0.9868125E+02  0.7546771E-02  0.1283094E+00
         21   -1    0    0  503  501  0.00000000000E+00  0.00000000000E+00  0.22091055693E+04  0.22091055693E+04  0.00000000000E+00 0.  1.
         21   -1    0    0  504  502 -0.00000000000E+00 -0.00000000000E+00 -0.90105976833E+02  0.90105976833E+02  0.00000000000E+00 0.  1.
         21    1    1    2  503  506  0.36331256859E+02 -0.13446409123E+02  0.12085044830E+03  0.12690782874E+03  0.00000000000E+00 0. -1.
         21    1    1    2  504  501 -0.13026990345E+02  0.11314215553E+03  0.20015852563E+04  0.20048227822E+04  0.00000000000E+00 0.  1.
         21    1    1    2  505  502  0.53163485697E+02 -0.61215783481E+02  0.63117497905E+01  0.81323837489E+02  0.00000000000E+00 0.  1.
         21    1    1    2  506  505 -0.76467752211E+02 -0.38479962923E+02 -0.97478618945E+01  0.86157097713E+02  0.00000000000E+00 0.  1.
<scales pt_clust_3="38.73972" pt_clust_4="14000.00000" pt_clust_5="81.79340" pt_clust_6="98.68125"></scales>
<clustering>
<clus scale="   38.740">  1  3  2 -1</clus>
<clus scale="   81.793">  2  5  1 -1</clus>
<clus scale="   98.681">  2  6  1 -1</clus>
<clus scale="   38.740">  1  3  2 -1</clus>
</clustering>
</event>
<event>
 6    0  0.4390142E+002  0.1550158E+03  0.7546771E-02  0.1194442E+00
         21   -1    0    0  504  501  0.00000000000E+00  0.00000000000E+00  0.39282667316E+03  0.39282667316E+03  0.00000000000E+00 0.  1.
         21   -1    0    0  506  502 -0.00000000000E+00 -0.00000000000E+00 -0.31790664944E+03  0.31790664944E+03  0.00000000000E+00 0.  1.
         21    1    1    2  503  502  0.36761184082E+02  0.89534598131E+01 -0.80738162090E+02  0.89163893563E+02  0.00000000000E+00 0.  1.
         21    1    1    2  504  503  0.41656531661E+00 -0.13971389202E+03  0.15205924985E+03  0.20649978357E+03  0.00000000000E+00 0.  1.
         21    1    1    2  505  501 -0.33216266239E+02  0.17512165023E+03  0.16788125332E+03  0.24485715824E+03  0.00000000000E+00 0.  1.
         21    1    1    2  506  505 -0.39614831595E+01 -0.44361218029E+02 -0.16428231736E+03  0.17021248723E+03  0.00000000000E+00 0.  1.
<scales pt_clust_3="37.83582" pt_clust_4="155.01576" pt_clust_5="14000.00000" pt_clust_6="44.06887"></scales>
<clustering>
<clus scale="   37.836">  2  3  1 -1</clus>
<clus scale="   44.069">  2  6  1 -1</clus>
<clus scale="  155.016">  1  4  2 -1</clus>
<clus scale="  155.016">  1  3  2 -1</clus>
</clustering>
</event>
<event>
 6    0  0.4390142E+002  0.5718697E+02  0.7546771E-02  0.1410031E+00
         21   -1    0    0  506  501  0.00000000000E+00  0.00000000000E+00  0.10519784661E+04  0.10519784661E+04  0.00000000000E+00 0. -1.
         21   -1    0    0  505  502 -0.00000000000E+00 -0.00000000000E+00 -0.23766986388E+02  0.23766986388E+02  0.00000000000E+00 0. -1.
         21    1    1    2  503  502 -0.95127776720E+01 -0.51887361576E+02  0.42485595377E+02  0.67733426349E+02  0.00000000000E+00 0. -1.
         21    1    1    2  504  501 -0.55093724314E+02  0.21097107088E+02  0.26701484248E+03  0.27345444318E+03  0.00000000000E+00 0. -1.
         21    1    1    2  505  504  0.66169980487E+02  0.76534255214E+02  0.40098167100E+03  0.41354837567E+03  0.00000000000E+00 0. -1.
         21    1    1    2  506  503 -0.15634785006E+01 -0.45744000726E+02  0.31772937086E+03  0.32100920731E+03  0.00000000000E+00 0. -1.
<scales pt_clust_3="57.18697" pt_clust_4="55.83043" pt_clust_5="14000.00000" pt_clust_6="45.77071"></scales>
<clustering>
<clus scale="   45.771">  1  6  2 -1</clus>
<clus scale="   55.830">  1  4  2 -1</clus>
<clus scale="   57.187">  2  3  1 -1</clus>
<clus scale="   45.771">  1  3  2 -1</clus>
</clustering>
</event>
<event>
 6    0  0.4390142E+002  0.1520754E+03  0.7546771E-02  0.1197946E+00
         21   -1    0    0  504  501  0.00000000000E+00  0.00000000000E+00  0.59735539701E+02  0.59735539701E+02  0.00000000000E+00 0.  1.
         21   -1    0    0  506  502 -0.00000000000E+00 -0.00000000000E+00 -0.57021409745E+03  0.57021409745E+03  0.00000000000E+00 0.  1.
         21    1    1    2  503  505 -0.10976306966E+02  0.60862740569E+02 -0.99611759024E+02  0.11724868886E+03  0.00000000000E+00 0.  1.
         21    1    1    2  504  503 -0.53081987838E+02  0.51120218485E+02 -0.10439315881E+03  0.12778460696E+03  0.00000000000E+00 0.  1.
         21    1    1    2  505  502 -0.28701939529E+02  0.17464718736E+02 -0.17560657160E+03  0.17879173840E+03  0.00000000000E+00 0.  1.
         21    1    1    2  506  501  0.92760234332E+02 -0.12944767779E+03 -0.13086706832E+03  0.20612460292E+03  0.00000000000E+00 0.  1.
<scales pt_clust_3="38.18714" pt_clust_4="38.18714" pt_clust_5="33.59788" pt_clust_6="146.10703"></scales>
<clustering>
<clus scale="   33.598">  2  5  1 -1</clus>
<clus scale="   38.187">  3  4 -1 -1</clus>
<clus scale="  146.107">  1  6  2 -1</clus>
<clus scale="  146.107">  1  3  2 -1</clus>
</clustering>
</event>
<event>
 6    0  0.4390142E+002  0.1331320E+03  0.7546771E-02  0.1222881E+00
         21   -1    0    0  504  501  0.00000000000E+00  0.00000000000E+00  0.42865167101E+02  0.42865167101E+02  0.00000000000E+00 0. -1.
         21   -1    0    0  505  502 -0.00000000000E+00 -0.00000000000E+00 -0.69786621282E+03  0.69786621282E+03  0.00000000000E+00 0. -1.
         21    1    1    2  503  501 -0.14907328910E+02 -0.58866882498E+02 -0.66320696723E+02  0.89922039146E+02  0.00000000000E+00 0. -1.
         21    1    1    2  504  502 -0.34339708251E+02  0.13263552146E+03 -0.17922849525E+03  0.22559754127E+03  0.00000000000E+00 0. -1.
         21    1    1    2  505  506  0.15249440595E+02 -0.29576183417E+02 -0.30500066270E+03  0.30681052836E+03  0.00000000000E+00 0. -1.
         21    1    1    2  506  503  0.33997596566E+02 -0.44192455545E+02 -0.10445119105E+03  0.11840127115E+03  0.00000000000E+00 0. -1.
<scales pt_clust_3="56.68047" pt_clust_4="120.30889" pt_clust_5="33.27606" pt_clust_6="56.68047"></scales>
<clustering>
<clus scale="   33.276">  2  5  1 -1</clus>
<clus scale="   56.680">  3  6 -1 -1</clus>
<clus scale="  120.309">  2  4  1 -1</clus>
<clus scale="  133.132">  1  3  2 -1</clus>
</clustering>
</event>
<event>
 6    0  0.4390142E+002  0.1288649E+03  0.7546771E-02  0.1229150E+00
         21   -1    0    0  506  501  0.00000000000E+00  0.00000000000E+00  0.14852846817E+03  0.14852846817E+03  0.00000000000E+00 0. -1.
         21   -1    0    0  505  502 -0.00000000000E+00 -0.00000000000E+00 -0.64356380916E+03  0.64356380916E+03  0.00000000000E+00 0.  1.
         21    1    1    2  503  502  0.33615167247E+02 -0.17272183456E+02 -0.36325546307E+03  0.36521615413E+03  0.00000000000E+00 0.  1.
         21    1    1    2  504  503 -0.62715879977E+02 -0.55216890733E+01  0.27084363722E+02  0.68537095136E+02  0.00000000000E+00 0. -1.
         21    1    1    2  505  501  0.80201407169E+02  0.57777568594E+02 -0.23808300394E+03  0.25778679157E+03  0.00000000000E+00 0.  1.
         21    1    1    2  506  504 -0.51100694440E+02 -0.34983696064E+02  0.79218762293E+02  0.10055223648E+03  0.00000000000E+00 0. -1.
<scales pt_clust_3="37.79296" pt_clust_4="51.64615" pt_clust_5="117.94156" pt_clust_6="51.64615"></scales>
<clustering>
<clus scale="   37.793">  2  3  1 -1</clus>
<clus scale="   51.646">  4  6 -1 -1</clus>
<clus scale="  117.942">  2  5  1 -1</clus>
<clus scale="  128.865">  1  3  2 -1</clus>
</clustering>
</event>
<event>
 6    0  0.4390142E+002  0.1026338E+03  0.7546771E-02  0.1274853E+00
         21   -1    0    0  505  501  0.00000000000E+00  0.00000000000E+00  0.14331203415E+03  0.14331203415E+03  0.00000000000E+00 0. -1.
         21   -1    0    0  506  502 -0.00000000000E+00 -0.00000000000E+00 -0.84649022299E+03  0.84649022299E+03  0.00000000000E+00 0.  1.
         21    1    1    2  503  502  0.24310094205E+02 -0.28076645930E+02 -0.14962968462E+03  0.15416978058E+03  0.00000000000E+00 0. -1.
         21    1    1    2  504  503  0.53919496792E+02  0.33671386206E+02  0.17119626535E+02  0.65834307135E+02  0.00000000000E+00 0. -1.
         21    1    1    2  505  504  0.36384395594E+02  0.27086170587E+02  0.88764129820E+02  0.99682273361E+02  0.00000000000E+00 0. -1.
         21    1    1    2  506  501 -0.11461398659E+03 -0.32680910862E+02 -0.65943226058E+03  0.67011589605E+03  0.00000000000E+00 0.  1.
<scales pt_clust_3="37.13864" pt_clust_4="102.63376" pt_clust_5="45.38193" pt_clust_6="14000.00000"></scales>
<clustering>
<clus scale="   37.139">  2  3  1 -1</clus>
<clus scale="   45.382">  1  5  2 -1</clus>
<clus scale="  102.634">  1  4  2 -1</clus>
<clus scale="   45.382">  1  3  2 -1</clus>
</clustering>
</event>
<event>
 6    0  0.4390142E+002  0.8661509E+02  0.7546771E-02  0.1311262E+00
         21   -1    0    0  504  501  0.00000000000E+00  0.00000000000E+00  0.52473785293E+02  0.52473785293E+02  0.00000000000E+00 0. -1.
         21   -1    0    0  503  502 -0.00000000000E+00 -0.00000000000E+00 -0.56688642617E+03  0.56688642617E+03  0.00000000000E+00 0. -1.
         21    1    1    2  503  505 -0.58115152920E+01  0.43227351468E+02 -0.10243753316E+03  0.11133654308E+03  0.00000000000E+00 0. -1.
         21    1    1    2  504  506 -0.14361236968E+02  0.35647776856E+02 -0.11327141963E+02  0.40066360792E+02  0.00000000000E+00 0. -1.
         21    1    1    2  505  501  0.82814325952E+02  0.14881550431E+02 -0.46166071134E+02  0.95973846698E+02  0.00000000000E+00 0. -1.
         21    1    1    2  506  502 -0.62641573692E+02 -0.93756678755E+02 -0.35448189462E+03  0.37198346090E+03  0.00000000000E+00 0. -1.
<scales pt_clust_3="47.97803" pt_clust_4="38.43188" pt_clust_5="14000.00000" pt_clust_6="86.61509"></scales>
<clustering>
<clus scale="   38.432">  1  4  2 -1</clus>
<clus scale="   47.978">  2  3  1 -1</clus>
<clus scale="   86.615">  2  6  1 -1</clus>
<clus scale="   38.432">  1  3  2 -1</clus>
</clustering>
</event>
<event>
 6    0  0.4390142E+002  0.9408034E+02  0.7546771E-02  0.1293261E+00
         21   -1    0    0  504  501  0.00000000000E+00  0.00000000000E+00  0.13406831878E+03  0.13406831878E+03  0.00000000000E+00 0.  1.
         21   -1    0    0  505  502 -0.00000000000E+00 -0.00000000000E+00 -0.10184767743E+04  0.10184767743E+04  0.00000000000E+00 0. -1.
         21    1    1    2  503  501 -0.51001392044E+02  0.65571006046E+02  0.65204222330E+02  0.10560440064E+03  0.00000000000E+00 0.  1.
         21    1    1    2  504  502  0.55648263439E+02  0.25868467665E+02  0.58231681117E+01  0.61642648629E+02  0.00000000000E+00 0.  1.
         21    1    1    2  505  506  0.12171962674E+02  0.39447640621E+02 -0.66509133995E+03  0.66637134055E+03  0.00000000000E+00 0. -1.
         21    1    1    2  506  503 -0.16818834069E+02 -0.13088711433E+03 -0.29034450596E+03  0.31892670321E+03  0.00000000000E+00 0. -1.
<scales pt_clust_3="94.08034" pt_clust_4="63.60221" pt_clust_5="41.28284" pt_clust_6="14000.00000"></scales>
<clustering>
<clus scale="   41.283">  2  5  1 -1</clus>
<clus scale="   63.602">  1  4  2 -1</clus>
<clus scale="   94.080">  1  3  2 -1</clus>
<clus scale="   63.602">  1  3  2 -1</clus>
</clustering>
</event>
<event>
 6    0  0.4390142E+002  0.1129602E+03  0.7546771E-02  0.1255184E+00
         21   -1    0    0  506  501  0.00000000000E+00  0.00000000000E+00  0.12257455560E+04  0.12257455560E+04  0.00000000000E+00 0.  1.
         21   -1    0    0  503  502 -0.00000000000E+00 -0.00000000000E+00 -0.50030281125E+03  0.50030281125E+03  0.00000000000E+00 0. -1.
         21    1    1    2  503  501 -0.41312114661E+02 -0.33891866179E+02 -0.37369767467E+03  0.37749874366E+03  0.00000000000E+00 0. -1.
         21    1    1    2  504  505 -0.97673523976E+01  0.10030267342E+03  0.95413824352E+02  0.13877977283E+03  0.00000000000E+00 0.  1.
         21    1    1    2  505  502 -0.22223191515E+02  0.24540989014E+02 -0.97189428261E+02  0.10267382991E+03  0.00000000000E+00 0. -1.
         21    1    1    2  506  504  0.73302658574E+02 -0.90951796255E+02  0.11009160233E+04  0.11070960209E+04  0.00000000000E+00 0.  1.
<scales pt_clust_3="63.10340" pt_clust_4="14000.00000" pt_clust_5="33.10786" pt_clust_6="112.96018"></scales>
<clustering>
<clus scale="   33.108">  2  5  1 -1</clus>
<clus scale="   63.103">  2  3  1 -1</clus>
<clus scale="  112.960">  1  6  2 -1</clus>
<clus scale="  112.960">  1  3  2 -1</clus>
</clustering>
</event>
<event>
 6    0  0.4390142E+002  0.1066344E+03  0.7546771E-02  0.1266933E+00
         21   -1    0    0  506  501  0.00000000000E+00  0.00000000000E+00  0.59125778386E+03  0.59125778386E+03  0.00000000000E+00 0.  1.
         21   -1    0    0  503  502 -0.00000000000E+00 -0.00000000000E+00 -0.29725842276E+03  0.29725842276E+03  0.00000000000E+00 0. -1.
         21    1    1    2  503  504 -0.98105953579E+02 -0.47479452213E+02 -0.13540073513E+03  0.17381724766E+03  0.00000000000E+00 0. -1.
         21    1    1    2  504  505 -0.25918202078E+01  0.41523527642E+02  0.16374897267E+03  0.16895161121E+03  0.00000000000E+00 0. -1.
         21    1    1    2  505  501  0.40729130721E+02  0.47850076807E+02  0.39348049649E+03  0.39846630103E+03  0.00000000000E+00 0.  1.
         21    1    1    2  506  502  0.59968643066E+02 -0.41894152237E+02 -0.12782937292E+03  0.14728104672E+03  0.00000000000E+00 0. -1.
<scales pt_clust_3="96.71907" pt_clust_4="36.53761" pt_clust_5="36.53761" pt_clust_6="73.15298"></scales>
<clustering>
<clus scale="   36.538">  4  5 -1 -1</clus>
<clus scale="   73.153">  2  6  1 -1</clus>
<clus scale="   96.719">  2  3  1 -1</clus>
<clus scale="  106.634">  1  3  2 -1</clus>
</clustering>
</event>
<event>
 6    0  0.4390142E+002  0.1606683E+03  0.7546771E-02  0.1187944E+00
         21   -1    0    0  506  501  0.00000000000E+00  0.00000000000E+00  0.62679159725E+02  0.62679159725E+02  0.00000000000E+00 0. -1.
         21   -1    0    0  503  502 -0.00000000000E+00 -0.00000000000E+00 -0.73837498331E+03  0.73837498331E+03  0.00000000000E+00 0.  1.
         21    1    1    2  503  504  0.63639515874E+02  0.36844970831E+02 -0.21162784904E+03  0.22403992132E+03  0.00000000000E+00 0.  1.
         21    1    1    2  504  501 -0.21344166194E+02  0.13108627775E+03 -0.32784059960E+03  0.35372113930E+03  0.00000000000E+00 0.  1.
         21    1    1    2  505  502 -0.24688853411E+02 -0.98617500166E+02 -0.10199704907E+03  0.14400815547E+03  0.00000000000E+00 0. -1.
         21    1    1    2  506  505 -0.17606496269E+02 -0.69313748419E+02 -0.34230325877E+02  0.79284926944E+02  0.00000000000E+00 0. -1.
<scales pt_clust_3="73.53598" pt_clust_4="156.53177" pt_clust_5="30.38121" pt_clust_6="30.38121"></scales>
<clustering>
<clus scale="   30.381">  5  6 -1 -1</clus>
<clus scale="   73.536">  2  3  1 -1</clus>
<clus scale="  156.532">  2  4  1 -1</clus>
<clus scale="  160.668">  1  3  2 -1</clus>
</clustering>
</event>
<event>
 6    0  0.4390142E+002  0.1303413E+03  0.7546771E-02  0.1226950E+00
         21   -1    0    0  504  501  0.00000000000E+00  0.00000000000E+00  0.20903910584E+04  0.20903910584E+04  0.00000000000E+00 0.  1.
         21   -1    0    0  506  502 -0.00000000000E+00 -0.00000000000E+00 -0.14161385951E+03  0.14161385951E+03  0.00000000000E+00 0. -1.
         21    1    1    2  503  501  0.34314422301E+02  0.74842888419E+02  0.33927889236E+03  0.34912620115E+03  0.00000000000E+00 0.  1.
         21    1    1    2  504  505  0.75572702255E+02  0.12618006025E+02  0.16761218679E+04  0.16778721535E+04  0.00000000000E+00 0.  1.
         21    1    1    2  505  502 -0.84788183268E+02 -0.12085192324E+03 -0.69429820899E+02  0.16314019555E+03  0.00000000000E+00 0. -1.
         21    1    1    2  506  503 -0.25098941288E+02  0.33391028800E+02  0.28062595843E+01  0.41866367779E+02  0.00000000000E+00 0.  1.
<scales pt_clust_3="14000.00000" pt_clust_4="76.48126" pt_clust_5="130.34127" pt_clust_6="41.77221"></scales>
<clustering>
<clus scale="   41.772">  2  6  1 -1</clus>
<clus scale="   76.481">  1  4  2 -1</clus>
<clus scale="  130.341">  2  5  1 -1</clus>
<clus scale="   76.481">  1  3  2 -1</clus>
</clustering>
</event>
<event>
 6    0  0.4390142E+002  0.9205483E+02  0.7546771E-02  0.1297951E+00
         21   -1    0    0  505  501  0.00000000000E+00  0.00000000000E+00  0.43360970669E+03  0.43360970669E+03  0.00000000000E+00 0.  1.
         21   -1    0    0  504  502 -0.00000000000E+00 -0.00000000000E+00 -0.11250059055E+03  0.11250059055E+03  0.00000000000E+00 0.  1.
         21    1    1    2  503  502 -0.87036409648E+01  0.45273130200E+02 -0.38503477768E+02  0.60066026042E+02  0.00000000000E+00 0.  1.
         21    1    1    2  504  501 -0.60611488338E+02  0.31092439459E+02  0.18048628930E+02  0.70471592265E+02  0.00000000000E+00 0.  1.
         21    1    1    2  505  506  0.92829059580E+02 -0.32523527277E+02  0.35135952149E+03  0.36486782192E+03  0.00000000000E+00 0.  1.
         21    1    1    2  506  503 -0.23513930277E+02 -0.43842042382E+02 -0.97955565189E+01  0.50704857014E+02  0.00000000000E+00 0.  1.
<scales pt_clust_3="46.10217" pt_clust_4="92.05483" pt_clust_5="14000.00000" pt_clust_6="35.46792"></scales>
<clustering>
<clus scale="   46.102">  2  3  1 -1</clus>
<clus scale="   35.468">  2  6  1 -1</clus>
<clus scale="   92.055">  2  4  1 -1</clus>
<clus scale="   92.055">  1  3  2 -1</clus>
</clustering>
</event>
<event>
 6    0  0.4390142E+002  0.1367289E+03  0.7546771E-02  0.1217800E+00
         21   -1    0    0  502  501  0.00000000000E+00  0.00000000000E+00  0.32938717996E+03  0.32938717996E+03  0.00000000000E+00 0.  1.
         21   -1    0    0  503  502 -0.00000000000E+00 -0.00000000000E+00 -0.28142352490E+03  0.28142352490E+03  0.00000000000E+00 0. -1.
         21    1    1    2  503  505 -0.40966831771E+02  0.81732937660E+00 -0.12037529500E+03  0.12715801578E+03  0.00000000000E+00 0. -1.
         21    1    1    2  504  506  0.20517208152E+01 -0.41128193026E+02  0.53752901551E+02  0.67713456898E+02  0.00000000000E+00 0. -1.
         21    1    1    2  505  504 -0.81357163112E+01  0.11989393838E+03 -0.11629979038E+03  0.16723153884E+03  0.00000000000E+00 0. -1.
         21    1    1    2  506  501  0.47050827267E+02 -0.79583074734E+02  0.23088583888E+03  0.24870769334E+03  0.00000000000E+00 0.  1.
<scales pt_clust_3="40.97498" pt_clust_4="30.73543" pt_clust_5="128.73974" pt_clust_6="30.73543"></scales>
<clustering>
<clus scale="   30.735">  4  6 -1 -1</clus>
<clus scale="   40.975">  2  3  1 -1</clus>
<clus scale="  128.740">  2  5  1 -1</clus>
<clus scale="  136.729">  1  3  2 -1</clus>
</clustering>
</event>
<event>
 6    0  0.4390142E+002  0.8718391E+02  0.7546771E-02  0.1309818E+00
         21   -1    0    0  506  501  0.00000000000E+00  0.00000000000E+00  0.64388723047E+02  0.64388723047E+02  0.00000000000E+00 0. -1.
         21   -1    0    0  504  502 -0.00000000000E+00 -0.00000000000E+00 -0.53512865726E+03  0.53512865726E+03  0.00000000000E+00 0. -1.
         21    1    1    2  503  505  0.38411393266E+02 -0.12658536370E+03 -0.27294106868E+03  0.30330861578E+03  0.00000000000E+00 0. -1.
         21    1    1    2  504  501 -0.15363048913E+02  0.51374862817E+02  0.12707652588E+01  0.53637809852E+02  0.00000000000E+00 0. -1.
         21    1    1    2  505  502 -0.66809369136E+02  0.29035688279E+02 -0.12726190248E+03  0.14663613068E+03  0.00000000000E+00 0. -1.
         21    1    1    2  506  503  0.43761024783E+02  0.46174812605E+02 -0.71807728314E+02  0.95934823994E+02  0.00000000000E+00 0.  1.
<scales pt_clust_3="14000.00000" pt_clust_4="53.62275" pt_clust_5="87.18391" pt_clust_6="73.92124"></scales>
<clustering>
<clus scale="   53.623">  1  4  2 -1</clus>
<clus scale="   73.921">  1  6  2 -1</clus>
<clus scale="   87.184">  2  5  1 -1</clus>
<clus scale="   53.623">  1  3  2 -1</clus>
</clustering>
</event>
<event>
 6    0  0.4390142E+002  0.1296796E+03  0.7546771E-02  0.1227932E+00
         21   -1    0    0  506  501  0.00000000000E+00  0.00000000000E+00  0.11888929049E+04  0.11888929049E+04  0.00000000000E+00 0. -1.
         21   -1    0    0  505  502 -0.00000000000E+00 -0.00000000000E+00 -0.17991958527E+02  0.17991958527E+02  0.00000000000E+00 0. -1.
         21    1    1    2  503  501 -0.82653079901E+02  0.77264649901E+02  0.63538202125E+03  0.64537715382E+03  0.00000000000E+00 0. -1.
         21    1    1    2  504  503  0.44395164920E+02 -0.53048241631E+02  0.28023653923E+03  0.28864782093E+03  0.00000000000E+00 0. -1.
         21    1    1    2  505  504  0.24038101000E+02 -0.51654914548E+02  0.10528668300E+03  0.11971360037E+03  0.00000000000E+00 0. -1.
         21    1    1    2  506  502  0.14219813981E+02  0.27438506278E+02  0.14999570294E+03  0.15314628835E+03  0.00000000000E+00 0. -1.
<scales pt_clust_3="119.71534" pt_clust_4="45.37639" pt_clust_5="45.37639" pt_clust_6="30.90428"></scales>
<clustering>
<clus scale="   30.904">  1  6  2 -1</clus>
<clus scale="   45.376">  4  5 -1 -1</clus>
<clus scale="  119.715">  1  3  2 -1</clus>
<clus scale="   30.904">  1  3  2 -1</clus>
</clustering>
</event>
<event>
 6    0  0.4390142E+002  0.1440121E+03  0.7546771E-02  0.1208030E+00
         21   -1    0    0  503  501  0.00000000000E+00  0.00000000000E+00  0.21986823827E+03  0.21986823827E+03  0.00000000000E+00 0.  1.
         21   -1    0    0  505  502 -0.00000000000E+00 -0.00000000000E+00 -0.91791286271E+03  0.91791286271E+03  0.00000000000E+00 0. -1.
         21    1    1    2  503  504 -0.38077065697E+02  0.73942286707E+02  0.13463432213E+03  0.15825209443E+03  0.00000000000E+00 0.  1.
         21    1    1    2  504  502 -0.52484165291E+02  0.20763677367E+02  0.49240332850E+02  0.74902124691E+02  0.00000000000E+00 0.  1.
         21    1    1    2  505  506 -0.35730164426E+02 -0.11020350580E+02 -0.33604090564E+03  0.33811474834E+03  0.00000000000E+00 0. -1.
         21    1    1    2  506  501  0.12629139541E+03 -0.83685613494E+02 -0.54587837378E+03  0.56651213352E+03  0.00000000000E+00 0. -1.
<scales pt_clust_3="48.13062" pt_clust_4="48.13062" pt_clust_5="37.39108" pt_clust_6="131.75376"></scales>
<clustering>
<clus scale="   37.391">  2  5  1 -1</clus>
<clus scale="   48.131">  3  4 -1 -1</clus>
<clus scale="  131.754">  2  6  1 -1</clus>
<clus scale="  144.012">  1  3  2 -1</clus>
</clustering>
</event>
<event>
 6    0  0.4390142E+002  0.9064060E+02  0.7546771E-02  0.1301308E+00
         21   -1    0    0  503  501  0.00000000000E+00  0.00000000000E+00  0.67228840162E+02  0.67228840162E+02  0.00000000000E+00 0.  1.
         21   -1    0    0  504  502 -0.00000000000E+00 -0.00000000000E+00 -0.14866759508E+04  0.14866759508E+04  0.00000000000E+00 0.  1.
         21    1    1    2  503  505 -0.16952184348E+02  0.10126930090E+03 -0.25259952380E+02  0.10573983665E+03  0.00000000000E+00 0.  1.
         21    1    1    2  504  506  0.63061904302E+02 -0.63694417691E+02 -0.77882386249E+03  0.78396453453E+03  0.00000000000E+00 0.  1.
         21    1    1    2  505  502 -0.52987326138E+02  0.40381056861E+02 -0.56972391611E+03  0.57360581158E+03  0.00000000000E+00 0.  1.
         21    1    1    2  506  501  0.68776061831E+01 -0.77955940074E+02 -0.45639379642E+02  0.90594608194E+02  0.00000000000E+00 0.  1.
<scales pt_clust_3="14000.00000" pt_clust_4="34.21264" pt_clust_5="66.62047" pt_clust_6="90.64060"></scales>
<clustering>
<clus scale="   66.620">  2  5  1 -1</clus>
<clus scale="   34.213">  2  4  1 -1</clus>
<clus scale="   90.641">  2  6  1 -1</clus>
<clus scale="   90.641">  1  3  2 -1</clus>
</clustering>
</event>
<event>
 6    0  0.4390142E+002  0.8858259E+02  0.7546771E-02  0.1306321E+00
         21   -1    0    0  506  501  0.00000000000E+00  0.00000000000E+00  0.18566094937E+04  0.18566094937E+04  0.00000000000E+00 0. -1.
         21   -1    0    0  504  502 -0.00000000000E+00 -0.00000000000E+00 -0.16438714919E+03  0.16438714919E+03  0.00000000000E+00 0. -1.
         21    1    1    2  503  502  0.10059645425E+03  0.11591791484E+03  0.63529962605E+03  0.65357648706E+03  0.00000000000E+00 0. -1.
         21    1    1    2  504  505  0.10970270147E+02 -0.35133019942E+02 -0.12688460895E+03  0.13211502528E+03  0.00000000000E+00 0. -1.
         21    1    1    2  505  501 -0.43145120464E+02 -0.39669659862E+02  0.10815093347E+02  0.59599912563E+02  0.00000000000E+00 0.  1.
         21    1    1    2  506  503 -0.68421603929E+02 -0.41115235032E+02  0.11729922341E+04  0.11757052180E+04  0.00000000000E+00 0. -1.
<scales pt_clust_3="88.58259" pt_clust_4="36.80592" pt_clust_5="73.37888" pt_clust_6="14000.00000"></scales>
<clustering>
<clus scale="   36.806">  2  4  1 -1</clus>
<clus scale="   73.379">  2  5  1 -1</clus>
<clus scale="   88.583">  2  3  1 -1</clus>
<clus scale="   88.583">  1  3  2 -1</clus>
</clustering>
</event>
<event>
 6    0  0.4390142E+002  0.6244952E+02  0.7546771E-02  0.1387831E+00
         21   -1    0    0  506  501  0.00000000000E+00  0.00000000000E+00  0.80474480857E+02  0.80474480857E+02  0.00000000000E+00 0. -1.
         21   -1    0    0  503  502 -0.00000000000E+00 -0.00000000000E+00 -0.40880052794E+03  0.40880052794E+03  0.00000000000E+00 0. -1.
         21    1    1    2  503  501  0.10014606325E+03 -0.10131669893E+02 -0.16404901838E+03  0.19246808866E+03  0.00000000000E+00 0. -1.
         21    1    1    2  504  505 -0.42991215294E+02 -0.34911600871E+02 -0.40569684099E+02  0.68651028657E+02  0.00000000000E+00 0. -1.
         21    1    1    2  505  502  0.10009742478E+01  0.36605732862E+02 -0.15659130902E+03  0.16081610519E+03  0.00000000000E+00 0.  1.
         21    1    1    2  506  504 -0.58155822209E+02  0.84375379013E+01  0.32883964414E+02  0.67339786294E+02  0.00000000000E+00 0. -1.
<scales pt_clust_3="62.44952" pt_clust_4="50.53815" pt_clust_5="36.61942" pt_clust_6="14000.00000"></scales>
<clustering>
<clus scale="   36.619">  2  5  1 -1</clus>
<clus scale="   50.538">  2  4  1 -1</clus>
<clus scale="   62.450">  2  3  1 -1</clus>
<clus scale="   62.450">  1  3  2 -1</clus>
</clustering>
</event>
<event>
 6    0  0.4390142E+002  0.7040161E+02  0.7546771E-02  0.1358733E+00
         21   -1    0    0  503  501  0.00000000000E+00  0.00000000000E+00  0.44596706840E+03  0.44596706840E+03  0.00000000000E+00 0.  1.
         21   -1    0    0  504  502 -0.00000000000E+00 -0.00000000000E+00 -0.45540954118E+03  0.45540954118E+03  0.00000000000E+00 0.  1.
         21    1    1    2  503  502 -0.10842267217E+02  0.54869343568E+02  0.13263470899E+03  0.14394500912E+03  0.00000000000E+00 0. -1.
         21    1    1    2  504  506  0.45460875826E+02  0.26367604872E+02 -0.25136381593E+03  0.25679896763E+03  0.00000000000E+00 0.  1.
         21    1    1    2  505  501  0.64097295270E+02 -0.10844708147E+02  0.28212031496E+03  0.28951328651E+03  0.00000000000E+00 0.  1.
         21    1    1    2  506  505 -0.98715903879E+02 -0.70392240293E+02 -0.17283368080E+03  0.21111934632E+03  0.00000000000E+00 0.  1.
<scales pt_clust_3="56.42664" pt_clust_4="52.55418" pt_clust_5="14000.00000" pt_clust_6="70.40161"></scales>
<clustering>
<clus scale="   52.554">  2  4  1 -1</clus>
<clus scale="   56.427">  1  3  2 -1</clus>
<clus scale="   70.402">  2  6  1 -1</clus>
<clus scale="   56.427">  1  3  2 -1</clus>
</clustering>
</event>
<event>
 6    0  0.4390142E+002  0.1868507E+03  0.7546771E-02  0.1161333E+00
         21   -1    0    0  506  501  0.00000000000E+00  0.00000000000E+00  0.40934370109E+02  0.40934370109E+02  0.00000000000E+00 0.  1.
         21   -1    0    0  503  502 -0.00000000000E+00 -0.00000000000E+00 -0.42413907715E+04  0.42413907715E+04  0.00000000000E+00 0.  1.
         21    1    1    2  503  505 -0.33076784590E+02 -0.15954627322E+03 -0.12609756549E+04  0.12714592755E+04  0.00000000000E+00 0.  1.
         21    1    1    2  504  502 -0.15579478349E+03  0.73021946966E+02 -0.25568686961E+04  0.25626513123E+04  0.00000000000E+00 0.  1.
         21    1    1    2  505  501  0.16872049118E+03  0.35922473402E+02 -0.24005569410E+03  0.29560745003E+03  0.00000000000E+00 0.  1.
         21    1    1    2  506  504  0.20151076900E+02  0.50601852856E+02 -0.14255635635E+03  0.15260710386E+03  0.00000000000E+00 0.  1.
<scales pt_clust_3="155.11512" pt_clust_4="14000.00000" pt_clust_5="186.85070" pt_clust_6="54.46663"></scales>
<clustering>
<clus scale="   54.467">  1  6  2 -1</clus>
<clus scale="  155.115">  2  3  1 -1</clus>
<clus scale="  186.851">  1  5  2 -1</clus>
<clus scale="   54.467">  1  3  2 -1</clus>
</clustering>
</event>
<event>
 6    0  0.4390142E+002  0.1153460E+03  0.7546771E-02  0.1250978E+00
         21   -1    0    0  504  501  0.00000000000E+00  0.00000000000E+00  0.25789289034E+04  0.25789289034E+04  0.00000000000E+00 0.  1.
         21   -1    0    0  503  502 -0.00000000000E+00 -0.00000000000E+00 -0.14772542828E+02  0.14772542828E+02  0.00000000000E+00 0.  1.
         21    1    1    2  503  505 -0.54202075413E+02  0.99309814625E+02  0.30582302663E+03  0.32607978759E+03  0.00000000000E+00 0.  1.
         21    1    1    2  504  502  0.32011656992E+02 -0.65132227125E+01  0.47228627925E+03  0.47341472075E+03  0.00000000000E+00 0.  1.
         21    1    1    2  505  506  0.16737728660E+02 -0.13005573558E+03  0.12568594619E+04  0.12636812703E+04  0.00000000000E+00 0.  1.
         21    1    1    2  506  501  0.54526897604E+01  0.37259143666E+02  0.52918759277E+03  0.53052566758E+03  0.00000000000E+00 0.  1.
<scales pt_clust_3="115.34596" pt_clust_4="32.66754" pt_clust_5="14000.00000" pt_clust_6="38.09517"></scales>
<clustering>
<clus scale="   32.668">  1  4  2 -1</clus>
<clus scale="   38.095">  1  6  2 -1</clus>
<clus scale="  115.346">  2  3  1 -1</clus>
<clus scale="   32.668">  1  3  2 -1</clus>
</clustering>
</event>
<event>
 6    0  0.4390142E+002  0.1635978E+03  0.7546771E-02  0.1184694E+00
         21   -1    0    0  503  501  0.00000000000E+00  0.00000000000E+00  0.16240916783E+03  0.16240916783E+03  0.00000000000E+00 0. -1.
         21   -1    0    0  504  502 -0.00000000000E+00 -0.00000000000E+00 -0.33724884307E+03  0.33724884307E+03  0.00000000000E+00 0.  1.
         21    1    1    2  503  505 -0.43739823235E+02 -0.13460673727E+02 -0.23528364621E+01  0.45824640896E+02  0.00000000000E+00 0.  1.
         21    1    1    2  504  506 -0.15859097600E+02  0.15324402558E+03 -0.87997975437E+02  0.17742290166E+03  0.00000000000E+00 0. -1.
         21    1    1    2  505  502  0.27103165403E+02  0.24072157023E+02 -0.10218955705E+03  0.10842857506E+03  0.00000000000E+00 0.  1.
         21    1    1    2  506  501  0.32495755432E+02 -0.16385550888E+03  0.17700693707E+02  0.16798189328E+03  0.00000000000E+00 0. -1.
<scales pt_clust_3="42.36728" pt_clust_4="14000.00000" pt_clust_5="36.24983" pt_clust_6="163.59776"></scales>
<clustering>
<clus scale="   36.250">  2  5  1 -1</clus>
<clus scale="   42.367">  1  3  2 -1</clus>
<clus scale="  163.598">  1  6  2 -1</clus>
<clus scale="   42.367">  1  3  2 -1</clus>
</clustering>
</event>
<event>
 6    0  0.4390142E+002  0.8976694E+02  0.7546771E-02  0.1303417E+00
         21   -1    0    0  505  501  0.00000000000E+00  0.00000000000E+00  0.33185545522E+03  0.33185545522E+03  0.00000000000E+00 0.  1.
         21   -1    0    0  504  502 -0.00000000000E+00 -0.00000000000E+00 -0.11491547125E+04  0.11491547125E+04  0.00000000000E+00 0.  1.
         21    1    1    2  503  502 -0.47455180364E+01 -0.47910890088E+02 -0.18779158876E+03  0.19386504104E+03  0.00000000000E+00 0.  1.
         21    1    1    2  504  506 -0.78290995617E+02  0.98679458981E+01 -0.91939359732E+03  0.92277377680E+03  0.00000000000E+00 0.  1.
         21    1    1    2  505  503  0.49241143279E+02 -0.23510627705E+02 -0.10774551647E+02  0.55619517884E+02  0.00000000000E+00 0.  1.
         21    1    1    2  506  501  0.33795370375E+02  0.61553571895E+02  0.30066048044E+03  0.30875183201E+03  0.00000000000E+00 0.  1.
<scales pt_clust_3="48.14534" pt_clust_4="89.76694" pt_clust_5="55.15498" pt_clust_6="14000.00000"></scales>
<clustering>
<clus scale="   48.145">  2  3  1 -1</clus>
<clus scale="   55.155">  1  5  2 -1</clus>
<clus scale="   89.767">  2  4  1 -1</clus>
<clus scale="   55.155">  1  3  2 -1</clus>
</clustering>
</event>
<event>
 6    0  0.4390142E+002  0.1116684E+03  0.7546771E-02  0.1257511E+00
         21   -1    0    0  504  501  0.00000000000E+00  0.00000000000E+00  0.42711052571E+03  0.42711052571E+03  0.00000000000E+00 0. -1.
         21   -1    0    0  506  502 -0.00000000000E+00 -0.00000000000E+00 -0.19657865331E+03  0.19657865331E+03  0.00000000000E+00 0.  1.
         21    1    1    2  503  502 -0.25479345497E+02  0.33917416953E+02 -0.53809215969E+02  0.68520215579E+02  0.00000000000E+00 0.  1.
         21    1    1    2  504  503  0.38549764117E+02  0.14453721903E+02  0.29347168897E+02  0.50559378087E+02  0.00000000000E+00 0. -1.
         21    1    1    2  505  501  0.93441483843E+01  0.86809966388E+02  0.33482660818E+03  0.34602332424E+03  0.00000000000E+00 0. -1.
         21    1    1    2  506  505 -0.22414567004E+02 -0.13518110524E+03 -0.79832688705E+02  0.15858626112E+03  0.00000000000E+00 0.  1.
<scales pt_clust_3="42.20789" pt_clust_4="41.17031" pt_clust_5="14000.00000" pt_clust_6="111.66844"></scales>
<clustering>
<clus scale="   41.170">  1  4  2 -1</clus>
<clus scale="   42.208">  2  3  1 -1</clus>
<clus scale="  111.668">  2  6  1 -1</clus>
<clus scale="   41.170">  1  3  2 -1</clus>
</clustering>
</event>
<event>
 6    0  0.4390142E+002  0.1039832E+03  0.7546771E-02  0.1272136E+00
         21   -1    0    0  505  501  0.00000000000E+00  0.00000000000E+00  0.27235535150E+03  0.27235535150E+03  0.00000000000E+00 0.  1.
         21   -1    0    0  504  502 -0.00000000000E+00 -0.00000000000E+00 -0.18969161706E+03  0.18969161706E+03  0.00000000000E+00 0.  1.
         21    1    1    2  503  501  0.94521587300E+00 -0.37184247115E+02  0.76114555463E+02  0.84717101106E+02  0.00000000000E+00 0.  1.
         21    1    1    2  504  506 -0.59113437804E+02  0.12905373258E+03 -0.47156345527E+02  0.14957601862E+03  0.00000000000E+00 0.  1.
         21    1    1    2  505  502  0.43636365822E+01 -0.88589121148E+02 -0.56436047097E+02  0.10512897375E+03  0.00000000000E+00 0.  1.
         21    1    1    2  506  503  0.53804585349E+02 -0.32803643163E+01  0.11014157160E+03  0.12262487509E+03  0.00000000000E+00 0.  1.
<scales pt_clust_3="37.19626" pt_clust_4="103.98317" pt_clust_5="14000.00000" pt_clust_6="60.19949"></scales>
<clustering>
<clus scale="   37.196">  1  3  2 -1</clus>
<clus scale="   60.199">  1  6  2 -1</clus>
<clus scale="  103.983">  1  4  2 -1</clus>
<clus scale="   37.196">  1  3  2 -1</clus>
</clustering>
</event>
<event>
 6    0  0.4390142E+002  0.9002986E+02  0.7546771E-02  0.1302779E+00
         21   -1    0    0  504  501  0.00000000000E+00  0.00000000000E+00  0.11624193510E+04  0.11624193510E+04  0.00000000000E+00 0.  1.
         21   -1    0    0  503  502 -0.00000000000E+00 -0.00000000000E+00 -0.20894374130E+02  0.20894374130E+02  0.00000000000E+00 0.  1.
         21    1    1    2  503  505 -0.41742691608E+02 -0.25766097547E+02  0.66222766953E+02  0.82412371331E+02  0.00000000000E+00 0.  1.
         21    1    1    2  504  506  0.10227816357E+02  0.93099073991E+02  0.72540036218E+03  0.73142171916E+03  0.00000000000E+00 0.  1.
         21    1    1    2  505  501  0.37917572648E+01 -0.83444507593E+02  0.28653183866E+03  0.29845913931E+03  0.00000000000E+00 0.  1.
         21    1    1    2  506  502  0.27723117987E+02  0.16111531149E+02  0.63370009084E+02  0.71020495339E+02  0.00000000000E+00 0.  1.
<scales pt_clust_3="33.85597" pt_clust_4="14000.00000" pt_clust_5="90.02986" pt_clust_6="32.06482"></scales>
<clustering>
<clus scale="   32.065">  2  6  1 -1</clus>
<clus scale="   33.856">  2  3  1 -1</clus>
<clus scale="   90.030">  2  5  1 -1</clus>
<clus scale="   90.030">  1  3  2 -1</clus>
</clustering>
</event>
<event>
 6    0  0.4390142E+002  0.1211666E+03  0.7546771E-02  0.1241185E+00
         21   -1    0    0  504  501  0.00000000000E+00  0.00000000000E+00  0.63775985520E+03  0.63775985520E+03  0.00000000000E+00 0.  1.
         21   -1    0    0  503  502 -0.00000000000E+00 -0.00000000000E+00 -0.98500587384E+03  0.98500587384E+03  0.00000000000E+00 0. -1.
         21    1    1    2  503  506  0.31605965031E+02  0.13342906317E+01 -0.70564532838E+02  0.77330916532E+02  0.00000000000E+00 0. -1.
         21    1    1    2  504  505 -0.90163073784E+02 -0.80902813081E+02  0.51100873176E+03  0.52517099023E+03  0.00000000000E+00 0.  1.
         21    1    1    2  505  502  0.45291358936E+02 -0.79060372159E+02 -0.84588431513E+03  0.85077736466E+03  0.00000000000E+00 0. -1.
         21    1    1    2  506  501  0.13265749817E+02  0.15862889461E+03  0.58194097559E+02  0.16948645761E+03  0.00000000000E+00 0.  1.
<scales pt_clust_3="31.63412" pt_clust_4="121.16664" pt_clust_5="107.88371" pt_clust_6="14000.00000"></scales>
<clustering>
<clus scale="   31.634">  2  3  1 -1</clus>
<clus scale="  107.884">  2  5  1 -1</clus>
<clus scale="  121.167">  1  4  2 -1</clus>
<clus scale="  121.167">  1  3  2 -1</clus>
</clustering>
</event>
<event>
 6    0  0.4390142E+002  0.1496207E+03  0.7546771E-02  0.1200940E+00
         21   -1    0    0  503  501  0.00000000000E+00  0.00000000000E+00  0.93676785643E+03  0.93676785643E+03  0.00000000000E+00 0.  1.
         21   -1    0    0  504  502 -0.00000000000E+00 -0.00000000000E+00 -0.31059366430E+03  0.31059366430E+03  0.00000000000E+00 0. -1.
         21    1    1    2  503  505 -0.32464440720E+02  0.87534279278E+01  0.49156345168E+03  0.49271207559E+03  0.00000000000E+00 0.  1.
         21    1    1    2  504  506 -0.14385209521E+03 -0.32776058378E+02 -0.20683642360E+03  0.25406495513E+03  0.00000000000E+00 0. -1.
         21    1    1    2  505  502  0.97519853336E+01  0.59558300000E+02  0.32378107099E+03  0.32935766919E+03  0.00000000000E+00 0.  1.
         21    1    1    2  506  501  0.16656455060E+03 -0.35535669550E+02  0.17666093056E+02  0.17122682082E+03  0.00000000000E+00 0.  1.
<scales pt_clust_3="33.62384" pt_clust_4="149.62073" pt_clust_5="67.47547" pt_clust_6="14000.00000"></scales>
<clustering>
<clus scale="   33.624">  1  3  2 -1</clus>
<clus scale="   67.475">  1  5  2 -1</clus>
<clus scale="  149.621">  2  4  1 -1</clus>
<clus scale="   33.624">  1  3  2 -1</clus>
</clustering>
</event>
<event>
 6    0  0.4390142E+002  0.1570842E+03  0.7546771E-02  0.1192029E+00
         21   -1    0    0  505  501  0.00000000000E+00  0.00000000000E+00  0.86966007138E+03  0.86966007138E+03  0.00000000000E+00 0.  1.
         21   -1    0    0  506  502 -0.00000000000E+00 -0.00000000000E+00 -0.45607963040E+03  0.45607963040E+03  0.00000000000E+00 0. -1.
         21    1    1    2  503  504 -0.73298833070E+02  0.30162795934E+02  0.65549097766E+03  0.66026580631E+03  0.00000000000E+00 0.  1.
         21    1    1    2  504  502  0.14835112728E+03 -0.56794150291E+02 -0.40755897375E+03  0.43742193538E+03  0.00000000000E+00 0. -1.
         21    1    1    2  505  503 -0.24964437974E+02 -0.28392277137E+02  0.14638992593E+03  0.15119310493E+03  0.00000000000E+00 0.  1.
         21    1    1    2  506  501 -0.50087856234E+02  0.55023631495E+02  0.19258511130E+02  0.76858855156E+02  0.00000000000E+00 0.  1.
<scales pt_clust_3="14000.00000" pt_clust_4="157.08415" pt_clust_5="37.80667" pt_clust_6="74.16986"></scales>
<clustering>
<clus scale="   37.807">  1  5  2 -1</clus>
<clus scale="   74.170">  1  6  2 -1</clus>
<clus scale="  157.084">  2  4  1 -1</clus>
<clus scale="   37.807">  1  3  2 -1</clus>
</clustering>
</event>
<event>
 6    0  0.4390142E+002  0.1272710E+03  0.7546771E-02  0.1231562E+00
         21   -1    0    0  504  501  0.00000000000E+00  0.00000000000E+00  0.60334366873E+03  0.60334366873E+03  0.00000000000E+00 0.  1.
         21   -1    0    0  503  502 -0.00000000000E+00 -0.00000000000E+00 -0.14807195700E+03  0.14807195700E+03  0.00000000000E+00 0. -1.
         21    1    1    2  503  505 -0.37976983639E+02 -0.10424768982E+03 -0.86687635148E+01  0.11128782314E+03  0.00000000000E+00 0. -1.
         21    1    1    2  504  506  0.56816105598E+02  0.24976325890E+02  0.88183422349E+02  0.10783414435E+03  0.00000000000E+00 0. -1.
         21    1    1    2  505  501 -0.10177727755E+03  0.11024202879E+03  0.41059782758E+03  0.43715271376E+03  0.00000000000E+00 0.  1.
         21    1    1    2  506  502  0.82938155595E+02 -0.30970664862E+02 -0.34840774689E+02  0.95140944479E+02  0.00000000000E+00 0. -1.
<scales pt_clust_3="127.27104" pt_clust_4="62.06357" pt_clust_5="14000.00000" pt_clust_6="91.22294"></scales>
<clustering>
<clus scale="   62.064">  1  4  2 -1</clus>
<clus scale="   91.223">  2  6  1 -1</clus>
<clus scale="  127.271">  2  3  1 -1</clus>
<clus scale="   62.064">  1  3  2 -1</clus>
</clustering>
</event>
<event>
 6    0  0.4390142E+002  0.1233235E+03  0.7546771E-02  0.1237713E+00
         21   -1    0    0  503  501  0.00000000000E+00  0.00000000000E+00  0.12432834266E+03  0.12432834266E+03  0.00000000000E+00 0. -1.
         21   -1    0    0  504  502 -0.00000000000E+00 -0.00000000000E+00 -0.55492022368E+03  0.55492022368E+03  0.00000000000E+00 0. -1.
         21    1    1    2  503  506  0.10222262445E+03 -0.30957498164E+02 -0.20352054487E+03  0.22984439046E+03  0.00000000000E+00 0. -1.
         21    1    1    2  504  505 -0.36184643637E+02 -0.67886565799E+02 -0.41370553483E+02  0.87346648170E+02  0.00000000000E+00 0. -1.
         21    1    1    2  505  501 -0.10875338101E+03  0.66796535942E+02  0.37127950512E+02  0.13291937332E+03  0.00000000000E+00 0. -1.
         21    1    1    2  506  502  0.42715400192E+02  0.32047528020E+02 -0.22282873318E+03  0.22913815439E+03  0.00000000000E+00 0. -1.
<scales pt_clust_3="14000.00000" pt_clust_4="67.60851" pt_clust_5="123.32352" pt_clust_6="53.40084"></scales>
<clustering>
<clus scale="   53.401">  2  6  1 -1</clus>
<clus scale="   67.609">  2  4  1 -1</clus>
<clus scale="  123.324">  1  5  2 -1</clus>
<clus scale="  123.324">  1  3  2 -1</clus>
</clustering>
</event>
<event>
 6    0  0.4390142E+002  0.1395352E+03  0.7546771E-02  0.1213956E+00
         21   -1    0    0  505  501  0.00000000000E+00  0.00000000000E+00  0.54726194814E+03  0.54726194814E+03  0.00000000000E+00 0.  1.
         21   -1    0    0  506  502 -0.00000000000E+00 -0.00000000000E+00 -0.19582131278E+03  0.19582131278E+03  0.00000000000E+00 0. -1.
         21    1    1    2  503  504  0.17891819107E+02  0.11055660214E+03  0.21448997687E+03  0.24196865426E+03  0.00000000000E+00 0.  1.
         21    1    1    2  504  501 -0.60567275352E+01  0.48202759247E+02  0.26355141023E+03  0.26799167110E+03  0.00000000000E+00 0.  1.
         21    1    1    2  505  502 -0.33986272049E+02 -0.86780342953E+02 -0.12734886791E+03  0.15780883615E+03  0.00000000000E+00 0. -1.
         21    1    1    2  506  503  0.22151180477E+02 -0.71979018437E+02  0.74811617171E+00  0.75314099407E+02  0.00000000000E+00 0. -1.
<scales pt_clust_3="139.53519" pt_clust_4="48.58179" pt_clust_5="14000.00000" pt_clust_6="68.85461"></scales>
<clustering>
<clus scale="   48.582">  1  4  2 -1</clus>
<clus scale="   68.855">  2  6  1 -1</clus>
<clus scale="  139.535">  1  3  2 -1</clus>
<clus scale="   48.582">  1  3  2 -1</clus>
</clustering>
</event>
<event>
 6    0  0.4390142E+002  0.1160308E+03  0.7546771E-02  0.1249792E+00
         21   -1    0    0  503  501  0.00000000000E+00  0.00000000000E+00  0.41942329715E+03  0.41942329715E+03  0.00000000000E+00 0.  1.
         21   -1    0    0  505  502 -0.00000000000E+00 -0.00000000000E+00 -0.11861109141E+03  0.11861109141E+03  0.00000000000E+00 0. -1.
         21    1    1    2  503  504 -0.21497707486E+02  0.30231126753E+02  0.16995469716E+03  0.17395594712E+03  0.00000000000E+00 0.  1.
         21    1    1    2  504  506 -0.64303025684E+02  0.66806835010E+02  0.93577070977E+02  0.13173724048E+03  0.00000000000E+00 0. -1.
         21    1    1    2  505  501  0.11893450005E+03 -0.81128077611E+02  0.88726503299E+02  0.16911408181E+03  0.00000000000E+00 0. -1.
         21    1    1    2  506  502 -0.33133766881E+02 -0.15909884152E+02 -0.51446065690E+02  0.63227119153E+02  0.00000000000E+00 0. -1.
<scales pt_clust_3="37.31780" pt_clust_4="116.03082" pt_clust_5="14000.00000" pt_clust_6="36.75556"></scales>
<clustering>
<clus scale="   36.756">  2  6  1 -1</clus>
<clus scale="   37.318">  1  3  2 -1</clus>
<clus scale="  116.031">  1  4  2 -1</clus>
<clus scale="   37.318">  1  3  2 -1</clus>
</clustering>
</event>
<event>
 6    0  0.4390142E+002  0.1036652E+03  0.7546771E-02  0.1272772E+00
         21   -1    0    0  504  501  0.00000000000E+00  0.00000000000E+00  0.51448957341E+02  0.51448957341E+02  0.00000000000E+00 0.  1.
         21   -1    0    0  503  502 -0.00000000000E+00 -0.00000000000E+00 -0.26178085823E+04  0.26178085823E+04  0.00000000000E+00 0. -1.
         21    1    1    2  503  505 -0.11252354741E+03 -0.79779985821E+02 -0.18361929996E+04  0.18413666464E+04  0.00000000000E+00 0. -1.
         21    1    1    2  504  506  0.54539392160E+02 -0.12399675512E+02 -0.53863335533E+02  0.77650216772E+02  0.00000000000E+00 0.  1.
         21    1    1    2  505  501  0.40678549788E+02  0.55872061819E+02  0.35460140669E+01  0.69202643884E+02  0.00000000000E+00 0.  1.
         21    1    1    2  506  502  0.17305605463E+02  0.36307599515E+02 -0.67984930390E+03  0.68103803255E+03  0.00000000000E+00 0.  1.
<scales pt_clust_3="103.66518" pt_clust_4="56.24651" pt_clust_5="14000.00000" pt_clust_6="40.22096"></scales>
<clustering>
<clus scale="   40.221">  2  6  1 -1</clus>
<clus scale="   56.247">  1  4  2 -1</clus>
<clus scale="  103.665">  2  3  1 -1</clus>
<clus scale="   56.247">  1  3  2 -1</clus>
</clustering>
</event>
<event>
 6    0  0.4390142E+002  0.1113242E+03  0.7546771E-02  0.1258137E+00
         21   -1    0    0  505  501  0.00000000000E+00  0.00000000000E+00  0.28647487673E+03  0.28647487673E+03  0.00000000000E+00 0.  1.
         21   -1    0    0  504  502 -0.00000000000E+00 -0.00000000000E+00 -0.10490303723E+03  0.10490303723E+03  0.00000000000E+00 0.  1.
         21    1    1    2  503  501  0.84990178359E+02  0.75482048234E+02  0.15648158803E+03  0.19340981727E+03  0.00000000000E+00 0.  1.
         21    1    1    2  504  503 -0.35190594111E+02  0.92199856278E+01  0.33200915222E+01  0.36529564145E+02  0.00000000000E+00 0.  1.
         21    1    1    2  505  506 -0.22164551852E+02  0.22115981757E+02  0.38734539797E+02  0.49807113761E+02  0.00000000000E+00 0. -1.
         21    1    1    2  506  502 -0.27635032396E+02 -0.10681801562E+03 -0.16964379844E+02  0.11163141878E+03  0.00000000000E+00 0.  1.
<scales pt_clust_3="14000.00000" pt_clust_4="38.62512" pt_clust_5="31.31108" pt_clust_6="111.32424"></scales>
<clustering>
<clus scale="   31.311">  1  5  2 -1</clus>
<clus scale="   38.625">  2  4  1 -1</clus>
<clus scale="  111.324">  2  6  1 -1</clus>
<clus scale="   31.311">  1  3  2 -1</clus>
</clustering>
</event>
<event>
 6    0  0.4390142E+002  0.1774495E+03  0.7546771E-02  0.1170295E+00
         21   -1    0    0  503  501  0.00000000000E+00  0.00000000000E+00  0.34892233619E+03  0.34892233619E+03  0.00000000000E+00 0. -1.
         21   -1    0    0  506  502 -0.00000000000E+00 -0.00000000000E+00 -0.38238742652E+03  0.38238742652E+03  0.00000000000E+00 0. -1.
         21    1    1    2  503  504 -0.37278262307E+02  0.61685416354E+02  0.17875215632E+03  0.19273581094E+03  0.00000000000E+00 0. -1.
         21    1    1    2  504  502 -0.21986763105E+02  0.44373413079E+02  0.42852430991E+02  0.65488536264E+02  0.00000000000E+00 0. -1.
         21    1    1    2  505  501 -0.87368141214E+02 -0.10463199114E+02  0.64238415076E+02  0.10894606283E+03  0.00000000000E+00 0. -1.
         21    1    1    2  506  505  0.14663316663E+03 -0.95595630320E+02 -0.31930809271E+03  0.36413935267E+03  0.00000000000E+00 0. -1.
<scales pt_clust_3="43.94318" pt_clust_4="43.94318" pt_clust_5="87.99245" pt_clust_6="169.34555"></scales>
<clustering>
<clus scale="   43.943">  3  4 -1 -1</clus>
<clus scale="   87.992">  1  5  2 -1</clus>
<clus scale="  169.346">  2  6  1 -1</clus>
<clus scale="   87.992">  1  3  2 -1</clus>
</clustering>
</event>
<event>
 6    0  0.4390142E+002  0.1221014E+03  0.7546771E-02  0.1239670E+00
         21   -1    0    0  504  501  0.00000000000E+00  0.00000000000E+00  0.13139902981E+03  0.13139902981E+03  0.00000000000E+00 0. -1.
         21   -1    0    0  505  502 -0.00000000000E+00 -0.00000000000E+00 -0.10970547583E+04  0.10970547583E+04  0.00000000000E+00 0. -1.
         21    1    1    2  503  501 -0.13407509809E+02 -0.30370267813E+02 -0.25790382889E+01  0.33298136957E+02  0.00000000000E+00 0.  1.
         21    1    1    2  504  506  0.85982434343E+02  0.36743841568E+02  0.78054133631E+02  0.12180121792E+03  0.00000000000E+00 0. -1.
         21    1    1    2  505  503 -0.14957847660E+03  0.99119221949E+01 -0.89412807073E+03  0.90660739779E+03  0.00000000000E+00 0. -1.
         21    1    1    2  506  502  0.77003552065E+02 -0.16285495950E+02 -0.14700275315E+03  0.16674703548E+03  0.00000000000E+00 0. -1.
<scales pt_clust_3="33.19811" pt_clust_4="75.18612" pt_clust_5="14000.00000" pt_clust_6="122.10144"></scales>
<clustering>
<clus scale="   33.198">  1  3  2 -1</clus>
<clus scale="   75.186">  1  4  2 -1</clus>
<clus scale="  122.101">  1  6  2 -1</clus>
<clus scale="   33.198">  1  3  2 -1</clus>
</clustering>
</event>
<event>
 6    0  0.4390142E+002  0.1513087E+03  0.7546771E-02  0.1198874E+00
         21   -1    0    0  503  501  0.00000000000E+00  0.00000000000E+00  0.13064677679E+03  0.13064677679E+03  0.00000000000E+00 0. -1.
         21   -1    0    0  506  502 -0.00000000000E+00 -0.00000000000E+00 -0.14790791238E+04  0.14790791238E+04  0.00000000000E+00 0. -1.
         21    1    1    2  503  505  0.52974771274E+01 -0.30488870857E+02 -0.33487505506E+02  0.45596573721E+02  0.00000000000E+00 0. -1.
         21    1    1    2  504  501  0.57025290543E+01 -0.61121843242E+02  0.66482242870E+02  0.90489155019E+02  0.00000000000E+00 0. -1.
         21    1    1    2  505  502  0.14950198885E+03 -0.54805609696E+01 -0.12109756378E+04  0.12201814933E+04  0.00000000000E+00 0. -1.
         21    1    1    2  506  504 -0.16050199503E+03  0.97091275069E+02 -0.17045144659E+03  0.25345867858E+03  0.00000000000E+00 0. -1.
<scales pt_clust_3="30.94567" pt_clust_4="80.83505" pt_clust_5="14000.00000" pt_clust_6="151.30873"></scales>
<clustering>
<clus scale="   30.946">  1  3  2 -1</clus>
<clus scale="   80.835">  1  4  2 -1</clus>
<clus scale="  151.309">  1  6  2 -1</clus>
<clus scale="   30.946">  1  3  2 -1</clus>
</clustering>
</event>
<event>
 6    0  0.4390142E+002  0.9449306E+02  0.7546771E-02  0.1292322E+00
         21   -1    0    0  503  501  0.00000000000E+00  0.00000000000E+00  0.10483584996E+03  0.10483584996E+03  0.00000000000E+00 0. -1.
         21   -1    0    0  506  502 -0.00000000000E+00 -0.00000000000E+00 -0.36998013722E+03  0.36998013722E+03  0.00000000000E+00 0. -1.
         21    1    1    2  503  505  0.97200029990E+02 -0.88658393425E+02 -0.63650586214E+02  0.14614908033E+03  0.00000000000E+00 0. -1.
         21    1    1    2  504  501 -0.68944885612E+02  0.47283691336E+02  0.23829431137E+02  0.86930929517E+02  0.00000000000E+00 0. -1.
         21    1    1    2  505  502 -0.42220934733E+02  0.49222310524E+00 -0.84945916902E+02  0.94861258750E+02  0.00000000000E+00 0. -1.
         21    1    1    2  506  504  0.13965790355E+02  0.40882478984E+02 -0.14037721528E+03  0.14687471858E+03  0.00000000000E+00 0. -1.
<scales pt_clust_3="94.49306" pt_clust_4="14000.00000" pt_clust_5="42.22380" pt_clust_6="41.84671"></scales>
<clustering>
<clus scale="   42.224">  2  5  1 -1</clus>
<clus scale="   41.847">  2  6  1 -1</clus>
<clus scale="   94.493">  2  3  1 -1</clus>
<clus scale="   94.493">  1  3  2 -1</clus>
</clustering>
</event>
<event>
 6    0  0.4390142E+002  0.9892150E+02  0.7546771E-02  0.1282580E+00
         21   -1    0    0  504  501  0.00000000000E+00  0.00000000000E+00  0.15224994673E+04  0.15224994673E+04  0.00000000000E+00 0. -1.
         21   -1    0    0  503  502 -0.00000000000E+00 -0.00000000000E+00 -0.44450979844E+03  0.44450979844E+03  0.00000000000E+00 0.  1.
         21    1    1    2  503  506 -0.81170424294E+02 -0.19744780939E+02 -0.41651453126E+03  0.42480919117E+03  0.00000000000E+00 0.  1.
         21    1    1    2  504  505  0.26490716176E+02 -0.49280635192E+02  0.70295490292E+03  0.70517794533E+03  0.00000000000E+00 0. -1.
         21    1    1    2  505  502 -0.11548484291E+02 -0.40353997942E+02  0.62809249136E+03  0.62949343948E+03  0.00000000000E+00 0. -1.
         21    1    1    2  506  501  0.66228192409E+02  0.10937941407E+03  0.16345680579E+03  0.20752868971E+03  0.00000000000E+00 0. -1.
<scales pt_clust_3="83.53738" pt_clust_4="32.44186" pt_clust_5="32.44186" pt_clust_6="91.55633"></scales>
<clustering>
<clus scale="   32.442">  4  5 -1 -1</clus>
<clus scale="   83.537">  2  3  1 -1</clus>
<clus scale="   91.556">  2  6  1 -1</clus>
<clus scale="   98.921">  1  3  2 -1</clus>
</clustering>
</event>
<event>
 6    0  0.4390142E+002  0.1298120E+03  0.7546771E-02  0.1227735E+00
         21   -1    0    0  504  501  0.00000000000E+00  0.00000000000E+00  0.46598496079E+03  0.46598496079E+03  0.00000000000E+00 0.  1.
         21   -1    0    0  505  502 -0.00000000000E+00 -0.00000000000E+00 -0.23508937847E+03  0.23508937847E+03  0.00000000000E+00 0. -1.
         21    1    1    2  503  501 -0.54081299058E+02  0.70038632877E+01  0.23994597419E+03  0.24606485231E+03  0.00000000000E+00 0.  1.
         21    1    1    2  504  506  0.19002642331E+03 -0.40027368293E+02  0.30174321374E+02  0.19652664308E+03  0.00000000000E+00 0.  1.
         21    1    1    2  505  503 -0.54061438462E+02  0.76962085336E+01  0.88900494959E+02  0.10433201215E+03  0.00000000000E+00 0.  1.
         21    1    1    2  506  502 -0.81883685790E+02  0.25327296472E+02 -0.12812520820E+03  0.15415083173E+03  0.00000000000E+00 0. -1.
<scales pt_clust_3="52.18567" pt_clust_4="118.84506" pt_clust_5="52.18567" pt_clust_6="85.71120"></scales>
<clustering>
<clus scale="   52.186">  3  5 -1 -1</clus>
<clus scale="   85.711">  2  6  1 -1</clus>
<clus scale="  118.845">  2  4  1 -1</clus>
<clus scale="  129.812">  1  3  2 -1</clus>
</clustering>
</event>
<event>
 6    0  0.4390142E+002  0.9524018E+02  0.7546771E-02  0.1290636E+00
         21   -1    0    0  506  501  0.00000000000E+00  0.00000000000E+00  0.29197908866E+03  0.29197908866E+03  0.00000000000E+00 0.  1.
         21   -1    0    0  505  502 -0.00000000000E+00 -0.00000000000E+00 -0.30715866136E+03  0.30715866136E+03  0.00000000000E+00 0.  1.
         21    1    1    2  503  502  0.40837517860E+02 -0.91000956936E+02 -0.25325984536E+03  0.27219372936E+03  0.00000000000E+00 0.  1.
         21    1    1    2  504  503 -0.75573143715E+02  0.40387974540E+02  0.18541546715E+02  0.87671417766E+02  0.00000000000E+00 0.  1.
         21    1    1    2  505  501  0.32937645816E+02 -0.84814913213E+01  0.57770679774E+02  0.67039358951E+02  0.00000000000E+00 0. -1.
         21    1    1    2  506  504  0.17979800388E+01  0.59094473717E+02  0.16176804618E+03  0.17223324395E+03  0.00000000000E+00 0.  1.
<scales pt_clust_3="14000.00000" pt_clust_4="95.24018" pt_clust_5="34.01212" pt_clust_6="58.86003"></scales>
<clustering>
<clus scale="   34.012">  1  5  2 -1</clus>
<clus scale="   58.860">  1  6  2 -1</clus>
<clus scale="   95.240">  1  4  2 -1</clus>
<clus scale="   34.012">  1  3  2 -1</clus>
</clustering>
</event>
<event>
 6    0  0.4390142E+002  0.1640037E+03  0.7546771E-02  0.1184249E+00
         21   -1    0    0  506  501  0.00000000000E+00  0.00000000000E+00  0.18787115114E+03  0.18787115114E+03  0.00000000000E+00 0.  1.
         21   -1    0    0  501  502 -0.00000000000E+00 -0.00000000000E+00 -0.31383268824E+03  0.31383268824E+03  0.00000000000E+00 0.  1.
         21    1    1    2  503  502 -0.44781442868E+02  0.16623409019E+02 -0.12166748894E+03  0.13070842826E+03  0.00000000000E+00 0.  1.
         21    1    1    2  504  505  0.99771739494E+02  0.35948486289E+02  0.34261586703E+02  0.11144752124E+03  0.00000000000E+00 0.  1.
         21    1    1    2  505  503 -0.89455744312E+02 -0.93521254894E+02 -0.11029669456E+03  0.17004092489E+03  0.00000000000E+00 0.  1.
         21    1    1    2  506  504  0.34465447686E+02  0.40949359586E+02  0.71741059696E+02  0.89506964986E+02  0.00000000000E+00 0.  1.
<scales pt_clust_3="47.76730" pt_clust_4="52.79816" pt_clust_5="147.25474" pt_clust_6="52.79816"></scales>
<clustering>
<clus scale="   47.767">  2  3  1 -1</clus>
<clus scale="   52.798">  4  6 -1 -1</clus>
<clus scale="  147.255">  2  5  1 -1</clus>
<clus scale="  164.004">  1  3  2 -1</clus>
</clustering>
</event>
<event>
 6    0  0.4390142E+002  0.8627445E+02  0.7546771E-02  0.1312133E+00
         21   -1    0    0  503  501  0.00000000000E+00  0.00000000000E+00  0.24299781522E+03  0.24299781522E+03  0.00000000000E+00 0. -1.
         21   -1    0    0  501  502 -0.00000000000E+00 -0.00000000000E+00 -0.87721581594E+02  0.87721581594E+02  0.00000000000E+00 0. -1.
         21    1    1    2  503  506 -0.21913482424E+02 -0.34661418560E+02  0.56325765370E+02  0.69672135700E+02  0.00000000000E+00 0. -1.
         21    1    1    2  504  505  0.10151248389E+03  0.57940213763E+02  0.48501267248E+02  0.12654732586E+03  0.00000000000E+00 0. -1.
         21    1    1    2  505  502 -0.10565891920E+02 -0.35025985339E+02 -0.14152508295E+02  0.39226919483E+02  0.00000000000E+00 0.  1.
         21    1    1    2  506  504 -0.69033109549E+02  0.11747190137E+02  0.64601709308E+02  0.95273015779E+02  0.00000000000E+00 0. -1.
<scales pt_clust_3="44.87466" pt_clust_4="86.27445" pt_clust_5="36.58494" pt_clust_6="14000.00000"></scales>
<clustering>
<clus scale="   36.585">  2  5  1 -1</clus>
<clus scale="   44.875">  1  3  2 -1</clus>
<clus scale="   86.274">  2  4  1 -1</clus>
<clus scale="   44.875">  1  3  2 -1</clus>
</clustering>
</event>
<event>
 6    0  0.4390142E+002  0.1108269E+03  0.7546771E-02  0.1259046E+00
         21   -1    0    0  503  501  0.00000000000E+00  0.00000000000E+00  0.23371156750E+03  0.23371156750E+03  0.00000000000E+00 0.  1.
         21   -1    0    0  504  502 -0.00000000000E+00 -0.00000000000E+00 -0.51687338714E+03  0.51687338714E+03  0.00000000000E+00 0.  1.
         21    1    1    2  503  505  0.11156360184E+02  0.33051181426E+02  0.58454693602E+01  0.35369683039E+02  0.00000000000E+00 0.  1.
         21    1    1    2  504  506  0.39959714110E+02 -0.11766987497E+01 -0.84339545812E+02  0.93334465014E+02  0.00000000000E+00 0. -1.
         21    1    1    2  505  502 -0.14881746885E+03  0.27426812814E+01 -0.38561748549E+03  0.41334610976E+03  0.00000000000E+00 0.  1.
         21    1    1    2  506  501  0.97701394557E+02 -0.34617163958E+02  0.18094974230E+03  0.20853469682E+03  0.00000000000E+00 0.  1.
<scales pt_clust_3="34.88330" pt_clust_4="40.19802" pt_clust_5="14000.00000" pt_clust_6="110.82688"></scales>
<clustering>
<clus scale="   34.883">  1  3  2 -1</clus>
<clus scale="   40.198">  2  4  1 -1</clus>
<clus scale="  110.827">  1  6  2 -1</clus>
<clus scale="   34.883">  1  3  2 -1</clus>
</clustering>
</event>
<event>
 6    0  0.4390142E+002  0.1076723E+03  0.7546771E-02  0.1264942E+00
         21   -1    0    0  503  501  0.00000000000E+00  0.00000000000E+00  0.70333494050E+02  0.70333494050E+02  0.00000000000E+00 0.  1.
         21   -1    0    0  504  502 -0.00000000000E+00 -0.00000000000E+00 -0.11793211369E+04  0.11793211369E+04  0.00000000000E+00 0.  1.
         21    1    1    2  503  506 -0.34040897935E+02  0.16626446380E+02 -0.43538055759E+02  0.57712942662E+02  0.00000000000E+00 0.  1.
         21    1    1    2  504  501 -0.62543866090E+02  0.32085178018E+02  0.79181499742E+01  0.70738185819E+02  0.00000000000E+00 0.  1.
         21    1    1    2  505  502 -0.43788800321E+02  0.12441831456E+02 -0.84518074946E+03  0.84640578771E+03  0.00000000000E+00 0.  1.
         21    1    1    2  506  505  0.14037356435E+03 -0.61153455854E+02 -0.22818698765E+03  0.27479771481E+03  0.00000000000E+00 0.  1.
<scales pt_clust_3="37.88432" pt_clust_4="14000.00000" pt_clust_5="45.88324" pt_clust_6="107.67235"></scales>
<clustering>
<clus scale="   37.884">  1  3  2 -1</clus>
<clus scale="   45.883">  2  5  1 -1</clus>
<clus scale="  107.672">  2  6  1 -1</clus>
<clus scale="   37.884">  1  3  2 -1</clus>
</clustering>
</event>
<event>
 6    0  0.4390142E+002  0.1628254E+03  0.7546771E-02  0.1185543E+00
         21   -1    0    0  503  501  0.00000000000E+00  0.00000000000E+00  0.63355792959E+03  0.63355792959E+03  0.00000000000E+00 0. -1.
         21   -1    0    0  504  502 -0.00000000000E+00 -0.00000000000E+00 -0.17519949603E+03  0.17519949603E+03  0.00000000000E+00 0.  1.
         21    1    1    2  503  502 -0.57876763158E+02 -0.13720496773E+03  0.24640850663E+03  0.28790983836E+03  0.00000000000E+00 0. -1.
         21    1    1    2  504  506 -0.26929304245E+02 -0.26745544167E+02 -0.10422099147E+03  0.11091675537E+03  0.00000000000E+00 0.  1.
         21    1    1    2  505  501  0.11991273970E+03  0.13920527007E+03  0.31764496001E+03  0.36695434726E+03  0.00000000000E+00 0.  1.
         21    1    1    2  506  505 -0.35106672292E+02  0.24745241827E+02 -0.14740416157E+01  0.42976484631E+02  0.00000000000E+00 0.  1.
<scales pt_clust_3="162.82543" pt_clust_4="37.95407" pt_clust_5="14000.00000" pt_clust_6="46.76275"></scales>
<clustering>
<clus scale="   37.954">  2  4  1 -1</clus>
<clus scale="   46.763">  2  6  1 -1</clus>
<clus scale="  162.825">  1  3  2 -1</clus>
<clus scale="  162.825">  1  3  2 -1</clus>
</clustering>
</event>
<event>
 6    0  0.4390142E+002  0.1799122E+03  0.7546771E-02  0.1167888E+00
         21   -1    0    0  504  501  0.00000000000E+00  0.00000000000E+00  0.57849854909E+03  0.57849854909E+03  0.00000000000E+00 0. -1.
         21   -1    0    0  505  502 -0.00000000000E+00 -0.00000000000E+00 -0.59765388911E+03  0.59765388911E+03  0.00000000000E+00 0.  1.
         21    1    1    2  503  502  0.14222113089E+02 -0.21569912251E+03 -0.31751351547E+03  0.38411354111E+03  0.00000000000E+00 0.  1.
         21    1    1    2  504  506  0.36581773271E+02  0.12967954231E+02  0.31314643892E+03  0.31554252674E+03  0.00000000000E+00 0. -1.
         21    1    1    2  505  501 -0.11636980402E+02  0.15289455117E+03 -0.21636403083E+03  0.26518966218E+03  0.00000000000E+00 0.  1.
         21    1    1    2  506  503 -0.39166905958E+02  0.49836617108E+02  0.20157576737E+03  0.21130670817E+03  0.00000000000E+00 0.  1.
<scales pt_clust_3="14000.00000" pt_clust_4="38.81229" pt_clust_5="179.91217" pt_clust_6="60.89699"></scales>
<clustering>
<clus scale="   38.812">  1  4  2 -1</clus>
<clus scale="   60.897">  1  6  2 -1</clus>
<clus scale="  179.912">  2  5  1 -1</clus>
<clus scale="   38.812">  1  3  2 -1</clus>
</clustering>
</event>
<event>
 6    0  0.4390142E+002  0.3870360E+03  0.7546771E-02  0.1048363E+00
         21   -1    0    0  506  501  0.00000000000E+00  0.00000000000E+00  0.35601746464E+03  0.35601746464E+03  0.00000000000E+00 0.  1.
         21   -1    0    0  501  502 -0.00000000000E+00 -0.00000000000E+00 -0.12857800479E+04  0.12857800479E+04  0.00000000000E+00 0.  1.
         21    1    1    2  503  505  0.26339069399E+02  0.36525098248E+03  0.14465328951E+03  0.39373417548E+03  0.00000000000E+00 0.  1.
         21    1    1    2  504  502  0.53619313703E+02  0.37041040644E+02 -0.45097221518E+03  0.45565667817E+03  0.00000000000E+00 0.  1.
         21    1    1    2  505  504 -0.12333493703E+03 -0.41246636430E+03 -0.60853907166E+03  0.74542592530E+03  0.00000000000E+00 0.  1.
         21    1    1    2  506  503  0.43376553924E+02  0.10174341180E+02 -0.14904585965E+02  0.46980733621E+02  0.00000000000E+00 0.  1.
<scales pt_clust_3="387.03598" pt_clust_4="65.45535" pt_clust_5="14000.00000" pt_clust_6="44.55382"></scales>
<clustering>
<clus scale="   44.554">  1  6  2 -1</clus>
<clus scale="   65.455">  2  4  1 -1</clus>
<clus scale="  387.036">  1  3  2 -1</clus>
<clus scale="   44.554">  1  3  2 -1</clus>
</clustering>
</event>
<event>
 6    0  0.4390142E+002  0.1971972E+03  0.7546771E-02  0.1152126E+00
         21   -1    0    0  504  501  0.00000000000E+00  0.00000000000E+00  0.51342025916E+03  0.51342025916E+03  0.00000000000E+00 0. -1.
         21   -1    0    0  506  502 -0.00000000000E+00 -0.00000000000E+00 -0.16123501898E+03  0.16123501898E+03  0.00000000000E+00 0. -1.
         21    1    1    2  503  501  0.11430453088E+03  0.22683956160E+02  0.15524468701E+03  0.19411594600E+03  0.00000000000E+00 0. -1.
         21    1    1    2  504  502  0.18697250203E+02  0.55824595884E+02  0.18217323800E+03  0.19144989244E+03  0.00000000000E+00 0. -1.
         21    1    1    2  505  503  0.57475843979E+02 -0.19309497122E+02  0.59194473356E+02  0.84736739353E+02  0.00000000000E+00 0. -1.
         21    1    1    2  506  505 -0.19047762506E+03 -0.59199054922E+02 -0.44427158184E+02  0.20435270034E+03  0.00000000000E+00 0. -1.
<scales pt_clust_3="34.25155" pt_clust_4="58.87251" pt_clust_5="34.25155" pt_clust_6="191.39475"></scales>
<clustering>
<clus scale="   34.252">  3  5 -1 -1</clus>
<clus scale="   58.873">  1  4  2 -1</clus>
<clus scale="  191.395">  2  6  1 -1</clus>
<clus scale="   58.873">  1  3  2 -1</clus>
</clustering>
</event>
<event>
 6    0  0.4390142E+002  0.1159491E+03  0.7546771E-02  0.1249933E+00
         21   -1    0    0  504  501  0.00000000000E+00  0.00000000000E+00  0.17722856458E+04  0.17722856458E+04  0.00000000000E+00 0.  1.
         21   -1    0    0  503  502 -0.00000000000E+00 -0.00000000000E+00 -0.20885714344E+03  0.20885714344E+03  0.00000000000E+00 0. -1.
         21    1    1    2  503  506 -0.12188980666E+02  0.90925811900E+02  0.98786745708E+01  0.92269511382E+02  0.00000000000E+00 0.  1.
         21    1    1    2  504  502 -0.60921338236E+02  0.35062373849E+02  0.16008985156E+03  0.17484147130E+03  0.00000000000E+00 0. -1.
         21    1    1    2  505  501 -0.56349591092E+02 -0.54457923842E+02  0.15183980424E+04  0.15204188756E+04  0.00000000000E+00 0.  1.
         21    1    1    2  506  505  0.12945990999E+03 -0.71530261907E+02 -0.12493806621E+03  0.19361293101E+03  0.00000000000E+00 0. -1.
<scales pt_clust_3="93.11964" pt_clust_4="70.29068" pt_clust_5="14000.00000" pt_clust_6="115.94908"></scales>
<clustering>
<clus scale="   70.291">  1  4  2 -1</clus>
<clus scale="   93.120">  2  3  1 -1</clus>
<clus scale="  115.949">  2  6  1 -1</clus>
<clus scale="   70.291">  1  3  2 -1</clus>
</clustering>
</event>
<event>
 6    0  0.4390142E+002  0.9033136E+02  0.7546771E-02  0.1302051E+00
         21   -1    0    0  506  501  0.00000000000E+00  0.00000000000E+00  0.15839723409E+03  0.15839723409E+03  0.00000000000E+00 0.  1.
         21   -1    0    0  504  502 -0.00000000000E+00 -0.00000000000E+00 -0.31322155285E+03  0.31322155285E+03  0.00000000000E+00 0. -1.
         21    1    1    2  503  502  0.49411258308E+02  0.45803515878E+02 -0.65608273978E+02  0.94041906237E+02  0.00000000000E+00 0. -1.
         21    1    1    2  504  505  0.33441398248E+02 -0.11039889123E+03 -0.18461012804E+03  0.21768587845E+03  0.00000000000E+00 0. -1.
         21    1    1    2  505  501 -0.64064900852E+02  0.69218339642E+01  0.66862603848E+02  0.92859200406E+02  0.00000000000E+00 0.  1.
         21    1    1    2  506  503 -0.18787755703E+02  0.57673541393E+02  0.28531479406E+02  0.67031801842E+02  0.00000000000E+00 0.  1.
<scales pt_clust_3="70.99731" pt_clust_4="14000.00000" pt_clust_5="90.33136" pt_clust_6="60.65655"></scales>
<clustering>
<clus scale="   60.657">  1  6  2 -1</clus>
<clus scale="   70.997">  2  3  1 -1</clus>
<clus scale="   90.331">  1  5  2 -1</clus>
<clus scale="   60.657">  1  3  2 -1</clus>
</clustering>
</event>
<event>
 6    0  0.4390142E+002  0.8877775E+02  0.7546771E-02  0.1305839E+00
         21   -1    0    0  504  501  0.00000000000E+00  0.00000000000E+00  0.50518651688E+02  0.50518651688E+02  0.00000000000E+00 0. -1.
         21   -1    0    0  506  502 -0.00000000000E+00 -0.00000000000E+00 -0.57287389162E+03  0.57287389162E+03  0.00000000000E+00 0. -1.
         21    1    1    2  503  501  0.11964517536E+01 -0.44596641564E+02  0.11171758355E+02  0.45990217659E+02  0.00000000000E+00 0. -1.
         21    1    1    2  504  505 -0.26694754729E+02  0.15589288890E+02 -0.37583703869E+02  0.48663853676E+02  0.00000000000E+00 0.  1.
         21    1    1    2  505  502  0.31251247420E+02  0.10364255588E+03 -0.30545539757E+03  0.32407008464E+03  0.00000000000E+00 0. -1.
         21    1    1    2  506  503 -0.57529444443E+01 -0.74635203204E+02 -0.19048789685E+03  0.20466838733E+03  0.00000000000E+00 0.  1.
<scales pt_clust_3="38.10537" pt_clust_4="30.91336" pt_clust_5="88.77775" pt_clust_6="14000.00000"></scales>
<clustering>
<clus scale="   30.913">  1  4  2 -1</clus>
<clus scale="   38.105">  1  3  2 -1</clus>
<clus scale="   88.778">  1  5  2 -1</clus>
<clus scale="   30.913">  1  3  2 -1</clus>
</clustering>
</event>
<event>
 6    0  0.4390142E+002  0.1132734E+03  0.7546771E-02  0.1254625E+00
         21   -1    0    0  503  501  0.00000000000E+00  0.00000000000E+00  0.89866281182E+03  0.89866281182E+03  0.00000000000E+00 0. -1.
         21   -1    0    0  505  502 -0.00000000000E+00 -0.00000000000E+00 -0.16704305934E+03  0.16704305934E+03  0.00000000000E+00 0. -1.
         21    1    1    2  503  502  0.14980190033E+03  0.72766388801E+02  0.42621728333E+03  0.45759887379E+03  0.00000000000E+00 0. -1.
         21    1    1    2  504  501 -0.81609561500E+02  0.93184806607E+01  0.32397353102E+03  0.33422418137E+03  0.00000000000E+00 0. -1.
         21    1    1    2  505  506  0.17434226794E+02 -0.41665867340E+02 -0.12412243633E+03  0.13208473025E+03  0.00000000000E+00 0. -1.
         21    1    1    2  506  504 -0.85626565626E+02 -0.40419002122E+02  0.10555137445E+03  0.14179808575E+03  0.00000000000E+00 0. -1.
<scales pt_clust_3="14000.00000" pt_clust_4="79.40745" pt_clust_5="45.16632" pt_clust_6="113.27343"></scales>
<clustering>
<clus scale="   45.166">  2  5  1 -1</clus>
<clus scale="   79.407">  1  4  2 -1</clus>
<clus scale="  113.273">  2  6  1 -1</clus>
<clus scale="   79.407">  1  3  2 -1</clus>
</clustering>
</event>
<event>
 6    0  0.4390142E+002  0.1398646E+03  0.7546771E-02  0.1213511E+00
         21   -1    0    0  503  501  0.00000000000E+00  0.00000000000E+00  0.27279125485E+02  0.27279125485E+02  0.00000000000E+00 0.  1.
         21   -1    0    0  505  502 -0.00000000000E+00 -0.00000000000E+00 -0.16860217750E+04  0.16860217750E+04  0.00000000000E+00 0. -1.
         21    1    1    2  503  504  0.40662318022E+02  0.10670535849E+03 -0.91109836660E+03  0.91822638345E+03  0.00000000000E+00 0. -1.
         21    1    1    2  504  502  0.30057893384E+02  0.81635236955E+01 -0.54829751284E+03  0.54918146606E+03  0.00000000000E+00 0. -1.
         21    1    1    2  505  506 -0.50676911308E+01 -0.36722635965E+02 -0.84344080750E+02  0.92131196905E+02  0.00000000000E+00 0.  1.
         21    1    1    2  506  501 -0.65652520275E+02 -0.78146246218E+02 -0.11500268931E+03  0.15376185407E+03  0.00000000000E+00 0.  1.
<scales pt_clust_3="130.51461" pt_clust_4="31.14675" pt_clust_5="30.30200" pt_clust_6="30.30200"></scales>
<clustering>
<clus scale="   30.302">  5  6 -1 -1</clus>
<clus scale="   31.147">  2  4  1 -1</clus>
<clus scale="  130.515">  2  3  1 -1</clus>
<clus scale="  139.865">  1  3  2 -1</clus>
</clustering>
</event>
<event>
 6    0  0.4390142E+002  0.1080017E+03  0.7546771E-02  0.1264316E+00
         21   -1    0    0  503  501  0.00000000000E+00  0.00000000000E+00  0.38543186587E+03  0.38543186587E+03  0.00000000000E+00 0. -1.
         21   -1    0    0  506  502 -0.00000000000E+00 -0.00000000000E+00 -0.43941867609E+03  0.43941867609E+03  0.00000000000E+00 0. -1.
         21    1    1    2  503  504 -0.16295225415E+02  0.34650707049E+02  0.88775033629E+02  0.96680982960E+02  0.00000000000E+00 0. -1.
         21    1    1    2  504  502  0.98506068406E+02 -0.34348935295E+02 -0.18244004139E+03  0.21016104199E+03  0.00000000000E+00 0. -1.
         21    1    1    2  505  501 -0.61183921042E+02 -0.11181164077E+03  0.24910277708E+03  0.27981692007E+03  0.00000000000E+00 0. -1.
         21    1    1    2  506  505 -0.21026921949E+02  0.11150986902E+03 -0.20942457954E+03  0.23819159693E+03  0.00000000000E+00 0. -1.
<scales pt_clust_3="38.29107" pt_clust_4="103.06231" pt_clust_5="14000.00000" pt_clust_6="108.00173"></scales>
<clustering>
<clus scale="   38.291">  1  3  2 -1</clus>
<clus scale="  103.062">  2  4  1 -1</clus>
<clus scale="  108.002">  2  6  1 -1</clus>
<clus scale="   38.291">  1  3  2 -1</clus>
</clustering>
</event>
<event>
 6    0  0.4390142E+002  0.1100442E+03  0.7546771E-02  0.1260488E+00
         21   -1    0    0  503  501  0.00000000000E+00  0.00000000000E+00  0.41372970856E+04  0.41372970856E+04  0.00000000000E+00 0. -1.
         21   -1    0    0  506  502 -0.00000000000E+00 -0.00000000000E+00 -0.19261948614E+02  0.19261948614E+02  0.00000000000E+00 0. -1.
         21    1    1    2  503  504  0.41341957504E+02 -0.99807868808E+01  0.53465850548E+03  0.53634736043E+03  0.00000000000E+00 0. -1.
         21    1    1    2  504  502 -0.10365707965E+03  0.90549031497E+02  0.31799311604E+03  0.34650186019E+03  0.00000000000E+00 0. -1.
         21    1    1    2  505  501  0.65521278962E+02 -0.29343530713E+02  0.30933569434E+04  0.30941899198E+04  0.00000000000E+00 0. -1.
         21    1    1    2  506  505 -0.32061568114E+01 -0.51224713903E+02  0.17202657215E+03  0.17951989383E+03  0.00000000000E+00 0. -1.
<scales pt_clust_3="42.52968" pt_clust_4="110.04419" pt_clust_5="14000.00000" pt_clust_6="51.72545"></scales>
<clustering>
<clus scale="   42.530">  1  3  2 -1</clus>
<clus scale="   51.725">  2  6  1 -1</clus>
<clus scale="  110.044">  2  4  1 -1</clus>
<clus scale="   42.530">  1  3  2 -1</clus>
</clustering>
</event>
<event>
 6    0  0.4390142E+002  0.9533714E+02  0.7546771E-02  0.1290419E+00
         21   -1    0    0  505  501  0.00000000000E+00  0.00000000000E+00  0.15110032043E+04  0.15110032043E+04  0.00000000000E+00 0. -1.
         21   -1    0    0  504  502 -0.00000000000E+00 -0.00000000000E+00 -0.12272902111E+03  0.12272902111E+03  0.00000000000E+00 0. -1.
         21    1    1    2  503  501 -0.30072457074E+02 -0.88438821407E+02  0.94645115370E+03  0.95104971697E+03  0.00000000000E+00 0. -1.
         21    1    1    2  504  506 -0.55689362987E+02 -0.41219363090E+02 -0.85629043641E+02  0.11014841877E+03  0.00000000000E+00 0. -1.
         21    1    1    2  505  502 -0.42681882757E+02  0.66745994218E+02  0.20550585276E+03  0.22024855590E+03  0.00000000000E+00 0.  1.
         21    1    1    2  506  503  0.12844370282E+03  0.62912190278E+02  0.32194622034E+03  0.35228553372E+03  0.00000000000E+00 0.  1.
<scales pt_clust_3="14000.00000" pt_clust_4="69.28449" pt_clust_5="80.48195" pt_clust_6="95.33714"></scales>
<clustering>
<clus scale="   69.284">  2  4  1 -1</clus>
<clus scale="   80.482">  2  5  1 -1</clus>
<clus scale="   95.337">  2  6  1 -1</clus>
<clus scale="   95.337">  1  3  2 -1</clus>
</clustering>
</event>
<event>
 6    0  0.4390142E+002  0.1854981E+03  0.7546771E-02  0.1162586E+00
         21   -1    0    0  505  501  0.00000000000E+00  0.00000000000E+00  0.65528348137E+03  0.65528348137E+03  0.00000000000E+00 0. -1.
         21   -1    0    0  504  502 -0.00000000000E+00 -0.00000000000E+00 -0.98201736673E+02  0.98201736673E+02  0.00000000000E+00 0. -1.
         21    1    1    2  503  501 -0.15466611808E+03 -0.11364997380E+03  0.42950228765E+03  0.47043611652E+03  0.00000000000E+00 0. -1.
         21    1    1    2  504  503  0.56675670741E+02 -0.21353709311E+02 -0.12677572730E+02  0.61877567871E+02  0.00000000000E+00 0. -1.
         21    1    1    2  505  506  0.40372062875E+02  0.77946653106E+02  0.90269205423E+02  0.12591311941E+03  0.00000000000E+00 0. -1.
         21    1    1    2  506  502  0.57618384466E+02  0.57057030003E+02  0.49987824350E+02  0.95258414245E+02  0.00000000000E+00 0. -1.
<scales pt_clust_3="181.63938" pt_clust_4="60.56494" pt_clust_5="36.17565" pt_clust_6="36.17565"></scales>
<clustering>
<clus scale="   36.176">  5  6 -1 -1</clus>
<clus scale="   60.565">  2  4  1 -1</clus>
<clus scale="  181.639">  1  3  2 -1</clus>
<clus scale="  181.639">  1  3  2 -1</clus>
</clustering>
</event>
<event>
 6    0  0.4390142E+002  0.1125692E+03  0.7546771E-02  0.1255885E+00
         21   -1    0    0  503  501  0.00000000000E+00  0.00000000000E+00  0.11483715422E+04  0.11483715422E+04  0.00000000000E+00 0. -1.
         21   -1    0    0  504  502 -0.00000000000E+00 -0.00000000000E+00 -0.15519305553E+03  0.15519305553E+03  0.00000000000E+00 0.  1.
         21    1    1    2  503  505  0.88398175836E+01  0.31937470309E+02  0.54227924728E+03  0.54329083042E+03  0.00000000000E+00 0. -1.
         21    1    1    2  504  501  0.12397859970E+03  0.56989042027E+02  0.19554389742E+02  0.13784345561E+03  0.00000000000E+00 0.  1.
         21    1    1    2  505  506 -0.11662878236E+03 -0.43999224076E+02  0.51295012644E+03  0.52787880883E+03  0.00000000000E+00 0. -1.
         21    1    1    2  506  502 -0.16189634930E+02 -0.44927288260E+02 -0.81605276759E+02  0.94551502920E+02  0.00000000000E+00 0.  1.
<scales pt_clust_3="33.13826" pt_clust_4="14000.00000" pt_clust_5="112.56920" pt_clust_6="47.40208"></scales>
<clustering>
<clus scale="   33.138">  1  3  2 -1</clus>
<clus scale="   47.402">  2  6  1 -1</clus>
<clus scale="  112.569">  1  5  2 -1</clus>
<clus scale="   33.138">  1  3  2 -1</clus>
</clustering>
</event>
<event>
 6    0  0.4390142E+002  0.7838450E+02  0.7546771E-02  0.1333700E+00
         21   -1    0    0  503  501  0.00000000000E+00  0.00000000000E+00  0.19535835678E+03  0.19535835678E+03  0.00000000000E+00 0.  1.
         21   -1    0    0  504  502 -0.00000000000E+00 -0.00000000000E+00 -0.10505545148E+04  0.10505545148E+04  0.00000000000E+00 0.  1.
         21    1    1    2  503  502 -0.66406836275E+02 -0.61215441862E+01  0.12407730243E+03  0.14086347357E+03  0.00000000000E+00 0.  1.
         21    1    1    2  504  506  0.61590090097E+02 -0.48618830345E+02 -0.94134138551E+03  0.94460612635E+03  0.00000000000E+00 0.  1.
         21    1    1    2  505  501  0.21414696537E+02 -0.45267274109E+02 -0.30857835135E+02  0.58821095895E+02  0.00000000000E+00 0.  1.
         21    1    1    2  506  505 -0.16597950360E+02  0.10000764864E+03 -0.70742398118E+01  0.10162217579E+03  0.00000000000E+00 0.  1.
<scales pt_clust_3="64.12902" pt_clust_4="14000.00000" pt_clust_5="50.07709" pt_clust_6="78.38450"></scales>
<clustering>
<clus scale="   50.077">  1  5  2 -1</clus>
<clus scale="   64.129">  1  3  2 -1</clus>
<clus scale="   78.384">  1  6  2 -1</clus>
<clus scale="   50.077">  1  3  2 -1</clus>
</clustering>
</event>
<event>
 6    0  0.4390142E+002  0.1023854E+03  0.7546771E-02  0.1275358E+00
         21   -1    0    0  503  501  0.00000000000E+00  0.00000000000E+00  0.42774860615E+02  0.42774860615E+02  0.00000000000E+00 0. -1.
         21   -1    0    0  506  502 -0.00000000000E+00 -0.00000000000E+00 -0.78474261015E+03  0.78474261015E+03  0.00000000000E+00 0. -1.
         21    1    1    2  503  505 -0.63726846348E+02  0.63625338835E+02 -0.73674488097E+02  0.11634958050E+03  0.00000000000E+00 0. -1.
         21    1    1    2  504  501  0.19500835705E+02  0.26237282353E+02 -0.50257187165E+02  0.59953835909E+02  0.00000000000E+00 0. -1.
         21    1    1    2  505  502  0.21352296491E+02 -0.12776952846E+03 -0.26033947802E+03  0.29078792406E+03  0.00000000000E+00 0. -1.
         21    1    1    2  506  504  0.22873714151E+02  0.37906907273E+02 -0.35769659625E+03  0.36042613028E+03  0.00000000000E+00 0. -1.
<scales pt_clust_3="14000.00000" pt_clust_4="32.69063" pt_clust_5="102.38544" pt_clust_6="45.44453"></scales>
<clustering>
<clus scale="   32.691">  1  4  2 -1</clus>
<clus scale="   45.445">  2  6  1 -1</clus>
<clus scale="  102.385">  2  5  1 -1</clus>
<clus scale="   32.691">  1  3  2 -1</clus>
</clustering>
</event>
<event>
 6    0  0.4390142E+002  0.1367488E+03  0.7546771E-02  0.1217772E+00
         21   -1    0    0  503  501  0.00000000000E+00  0.00000000000E+00  0.11744193402E+04  0.11744193402E+04  0.00000000000E+00 0. -1.
         21   -1    0    0  505  502 -0.00000000000E+00 -0.00000000000E+00 -0.33719317096E+03  0.33719317096E+03  0.00000000000E+00 0.  1.
         21    1    1    2  503  502 -0.60912297849E+02 -0.29848138656E+02  0.33391420466E+03  0.34073437673E+03  0.00000000000E+00 0. -1.
         21    1    1    2  504  501 -0.21432503760E+02 -0.83908381680E+02  0.78111598711E+03  0.78590212753E+03  0.00000000000E+00 0. -1.
         21    1    1    2  505  506 -0.26925878028E+02  0.17761990900E+02 -0.22944260724E+03  0.23169894529E+03  0.00000000000E+00 0.  1.
         21    1    1    2  506  504  0.10927067964E+03  0.95994529436E+02 -0.48361415335E+02  0.15327706157E+03  0.00000000000E+00 0.  1.
<scales pt_clust_3="68.36141" pt_clust_4="136.74878" pt_clust_5="32.25665" pt_clust_6="14000.00000"></scales>
<clustering>
<clus scale="   32.257">  2  5  1 -1</clus>
<clus scale="   68.361">  1  3  2 -1</clus>
<clus scale="  136.749">  1  4  2 -1</clus>
<clus scale="   68.361">  1  3  2 -1</clus>
</clustering>
</event>
<event>
 6    0  0.4390142E+002  0.1002064E+03  0.7546771E-02  0.1279863E+00
         21   -1    0    0  505  501  0.00000000000E+00  0.00000000000E+00  0.27243829060E+03  0.27243829060E+03  0.00000000000E+00 0.  1.
         21   -1    0    0  503  502 -0.00000000000E+00 -0.00000000000E+00 -0.72373758352E+03  0.72373758352E+03  0.00000000000E+00 0. -1.
         21    1    1    2  503  506 -0.26571750650E+02 -0.18983163475E+02 -0.38316956961E+03  0.38455862687E+03  0.00000000000E+00 0. -1.
         21    1    1    2  504  502  0.12696728832E+03  0.18039493221E+02 -0.31206579986E+03  0.33738876546E+03  0.00000000000E+00 0. -1.
         21    1    1    2  505  504 -0.34560391090E+02 -0.86743604993E+01  0.20525969620E+02  0.41121534398E+02  0.00000000000E+00 0.  1.
         21    1    1    2  506  501 -0.65835146583E+02  0.96180307539E+01  0.22341010693E+03  0.23310694738E+03  0.00000000000E+00 0.  1.
<scales pt_clust_3="32.65606" pt_clust_4="100.20638" pt_clust_5="36.55505" pt_clust_6="14000.00000"></scales>
<clustering>
<clus scale="   32.656">  2  3  1 -1</clus>
<clus scale="   36.555">  1  5  2 -1</clus>
<clus scale="  100.206">  2  4  1 -1</clus>
<clus scale="   36.555">  1  3  2 -1</clus>
</clustering>
</event>
<event>
 6    0  0.4390142E+002  0.9396060E+02  0.7546771E-02  0.1293534E+00
         21   -1    0    0  504  501  0.00000000000E+00  0.00000000000E+00  0.96387691408E+03  0.96387691408E+03  0.00000000000E+00 0.  1.
         21   -1    0    0  505  502 -0.00000000000E+00 -0.00000000000E+00 -0.61376401204E+02  0.61376401204E+02  0.00000000000E+00 0.  1.
         21    1    1    2  503  501 -0.37005353507E+02 -0.47066698547E+02  0.46381063759E+03  0.46765904016E+03  0.00000000000E+00 0.  1.
         21    1    1    2  504  506  0.74247921467E+02 -0.58944636155E+02  0.40372713322E+03  0.41470811671E+03  0.00000000000E+00 0. -1.
         21    1    1    2  505  503 -0.43475971275E+02  0.27760326627E+02 -0.98232758672E+01  0.52509928219E+02  0.00000000000E+00 0.  1.
         21    1    1    2  506  502  0.62334033154E+01  0.78251008075E+02  0.44786017941E+02  0.90376230197E+02  0.00000000000E+00 0.  1.
<scales pt_clust_3="60.28241" pt_clust_4="93.96060" pt_clust_5="51.58290" pt_clust_6="14000.00000"></scales>
<clustering>
<clus scale="   51.583">  2  5  1 -1</clus>
<clus scale="   60.282">  1  3  2 -1</clus>
<clus scale="   93.961">  1  4  2 -1</clus>
<clus scale="   60.282">  1  3  2 -1</clus>
</clustering>
</event>
<event>
 6    0  0.4390142E+002  0.1148338E+03  0.7546771E-02  0.1251871E+00
         21   -1    0    0  506  501  0.00000000000E+00  0.00000000000E+00  0.86080639688E+02  0.86080639688E+02  0.00000000000E+00 0.  1.
         21   -1    0    0  503  502 -0.00000000000E+00 -0.00000000000E+00 -0.35535896261E+03  0.35535896261E+03  0.00000000000E+00 0.  1.
         21    1    1    2  503  504  0.21321074492E+02 -0.39243895980E+02 -0.15989852438E+03  0.16601870283E+03  0.00000000000E+00 0.  1.
         21    1    1    2  504  505  0.35327310285E+02 -0.49169487905E+02 -0.10056841022E+03  0.11738680730E+03  0.00000000000E+00 0.  1.
         21    1    1    2  505  501  0.29958505621E+02 -0.36938237015E+01  0.58827603481E+01  0.30753264248E+02  0.00000000000E+00 0.  1.
         21    1    1    2  506  502 -0.86606890398E+02  0.92107207586E+02 -0.14694148673E+02  0.12728082793E+03  0.00000000000E+00 0.  1.
<scales pt_clust_3="32.30843" pt_clust_4="32.30843" pt_clust_5="30.18537" pt_clust_6="108.33796"></scales>
<clustering>
<clus scale="   30.185">  1  5  2 -1</clus>
<clus scale="   32.308">  3  4 -1 -1</clus>
<clus scale="  108.338">  1  6  2 -1</clus>
<clus scale="   30.185">  1  3  2 -1</clus>
</clustering>
</event>
<event>
 6    0  0.4390142E+002  0.1095246E+03  0.7546771E-02  0.1261453E+00
         21   -1    0    0  504  501  0.00000000000E+00  0.00000000000E+00  0.13973009386E+03  0.13973009386E+03  0.00000000000E+00 0.  1.
         21   -1    0    0  506  502 -0.00000000000E+00 -0.00000000000E+00 -0.40228382632E+03  0.40228382632E+03  0.00000000000E+00 0.  1.
         21    1    1    2  503  502  0.94468932151E+02  0.91822148089E+02 -0.10909103007E+03  0.17104542924E+03  0.00000000000E+00 0.  1.
         21    1    1    2  504  503 -0.63176823539E+01 -0.10730100732E+03  0.51274955702E+02  0.11909047134E+03  0.00000000000E+00 0.  1.
         21    1    1    2  505  501 -0.41858074490E+02  0.11995558213E+02 -0.16738900651E+01  0.43575150313E+02  0.00000000000E+00 0.  1.
         21    1    1    2  506  505 -0.46293175307E+02  0.34833010160E+01 -0.20306376803E+03  0.20830286928E+03  0.00000000000E+00 0.  1.
<scales pt_clust_3="109.52455" pt_clust_4="14000.00000" pt_clust_5="43.54299" pt_clust_6="47.36482"></scales>
<clustering>
<clus scale="   43.543">  1  5  2 -1</clus>
<clus scale="   47.365">  2  6  1 -1</clus>
<clus scale="  109.525">  2  3  1 -1</clus>
<clus scale="   43.543">  1  3  2 -1</clus>
</clustering>
</event>
<event>
 6    0  0.4390142E+002  0.9592261E+02  0.7546771E-02  0.1289112E+00
         21   -1    0    0  503  501  0.00000000000E+00  0.00000000000E+00  0.15054297209E+03  0.15054297209E+03  0.00000000000E+00 0.  1.
         21   -1    0    0  506  502 -0.00000000000E+00 -0.00000000000E+00 -0.74799378410E+03  0.74799378410E+03  0.00000000000E+00 0.  1.
         21    1    1    2  503  504  0.83064377054E+02  0.28942295942E+02 -0.38167445588E+02  0.95885875563E+02  0.00000000000E+00 0.  1.
         21    1    1    2  504  502  0.27269865854E+02  0.14223078954E+02 -0.65591652480E+02  0.72444505890E+02  0.00000000000E+00 0.  1.
         21    1    1    2  505  501 -0.74178727379E+02 -0.67396480417E+02  0.96075442127E+02  0.13883536923E+03  0.00000000000E+00 0.  1.
         21    1    1    2  506  505 -0.36155515529E+02  0.24231105520E+02 -0.58976715607E+03  0.59137100551E+03  0.00000000000E+00 0.  1.
<scales pt_clust_3="14000.00000" pt_clust_4="30.75616" pt_clust_5="95.92261" pt_clust_6="38.65731"></scales>
<clustering>
<clus scale="   30.756">  2  4  1 -1</clus>
<clus scale="   38.657">  2  6  1 -1</clus>
<clus scale="   95.923">  1  5  2 -1</clus>
<clus scale="   95.923">  1  3  2 -1</clus>
</clustering>
</event>
<event>
 6    0  0.4390142E+002  0.1828304E+03  0.7546771E-02  0.1165092E+00
         21   -1    0    0  504  501  0.00000000000E+00  0.00000000000E+00  0.17009548201E+03  0.17009548201E+03  0.00000000000E+00 0. -1.
         21   -1    0    0  503  502 -0.00000000000E+00 -0.00000000000E+00 -0.40114487353E+03  0.40114487353E+03  0.00000000000E+00 0. -1.
         21    1    1    2  503  505  0.16590025388E+03 -0.12017048950E+03 -0.22973335035E+03  0.30780067096E+03  0.00000000000E+00 0. -1.
         21    1    1    2  504  502 -0.41764009892E+02  0.19746520192E+01 -0.63367854070E+02  0.75918487223E+02  0.00000000000E+00 0. -1.
         21    1    1    2  505  506 -0.71145922460E+02  0.37931627457E+02  0.24425838776E+02  0.84244716417E+02  0.00000000000E+00 0. -1.
         21    1    1    2  506  501 -0.52990321526E+02  0.80264210020E+02  0.37625974122E+02  0.10327648093E+03  0.00000000000E+00 0. -1.
<scales pt_clust_3="177.46338" pt_clust_4="41.81067" pt_clust_5="40.26187" pt_clust_6="40.26187"></scales>
<clustering>
<clus scale="   40.262">  5  6 -1 -1</clus>
<clus scale="   41.811">  2  4  1 -1</clus>
<clus scale="  177.463">  2  3  1 -1</clus>
<clus scale="  182.830">  1  3  2 -1</clus>
</clustering>
</event>
<event>
 6    0  0.4390142E+002  0.1321859E+03  0.7546771E-02  0.1224248E+00
         21   -1    0    0  506  501  0.00000000000E+00  0.00000000000E+00  0.51786297330E+02  0.51786297330E+02  0.00000000000E+00 0. -1.
         21   -1    0    0  505  502 -0.00000000000E+00 -0.00000000000E+00 -0.49380997584E+03  0.49380997584E+03  0.00000000000E+00 0. -1.
         21    1    1    2  503  504 -0.54137025870E+02  0.96895072021E+02 -0.13033095381E+03  0.17118887251E+03  0.00000000000E+00 0. -1.
         21    1    1    2  504  501 -0.34706153163E+02  0.28575963032E+01 -0.52641670768E+02  0.63117576199E+02  0.00000000000E+00 0. -1.
         21    1    1    2  505  503  0.32181185357E+02 -0.10835981920E+03 -0.19455230743E+03  0.22500684309E+03  0.00000000000E+00 0. -1.
         21    1    1    2  506  502  0.56661993676E+02  0.86071508790E+01 -0.64498746502E+02  0.86282981369E+02  0.00000000000E+00 0.  1.
<scales pt_clust_3="33.49945" pt_clust_4="33.49945" pt_clust_5="117.88247" pt_clust_6="57.31199"></scales>
<clustering>
<clus scale="   33.499">  3  4 -1 -1</clus>
<clus scale="   57.312">  1  6  2 -1</clus>
<clus scale="  117.882">  2  5  1 -1</clus>
<clus scale="   57.312">  1  3  2 -1</clus>
</clustering>
</event>
<event>
 6    0  0.4390142E+002  0.8068742E+02  0.7546771E-02  0.1327112E+00
         21   -1    0    0  505  501  0.00000000000E+00  0.00000000000E+00  0.31383870726E+03  0.31383870726E+03  0.00000000000E+00 0. -1.
         21   -1    0    0  506  502 -0.00000000000E+00 -0.00000000000E+00 -0.10230421534E+03  0.10230421534E+03  0.00000000000E+00 0. -1.
         21    1    1    2  503  504 -0.17281428853E+02  0.36578366762E+02  0.60711974902E+02  0.72955935979E+02  0.00000000000E+00 0. -1.
         21    1    1    2  504  502  0.60135417658E+02  0.19665103091E+02  0.21055731724E+02  0.66680796148E+02  0.00000000000E+00 0. -1.
         21    1    1    2  505  503  0.77784238725E+01  0.39476586197E+02  0.15926902154E+03  0.16427271824E+03  0.00000000000E+00 0.  1.
         21    1    1    2  506  501 -0.50632412678E+02 -0.95720056049E+02 -0.29502236251E+02  0.11223347222E+03  0.00000000000E+00 0. -1.
<scales pt_clust_3="55.68165" pt_clust_4="80.68742" pt_clust_5="40.23562" pt_clust_6="14000.00000"></scales>
<clustering>
<clus scale="   40.236">  1  5  2 -1</clus>
<clus scale="   55.682">  1  3  2 -1</clus>
<clus scale="   80.687">  1  4  2 -1</clus>
<clus scale="   40.236">  1  3  2 -1</clus>
</clustering>
</event>
<event>
 6    0  0.4390142E+002  0.1137176E+03  0.7546771E-02  0.1253836E+00
         21   -1    0    0  506  501  0.00000000000E+00  0.00000000000E+00  0.13058141892E+04  0.13058141892E+04  0.00000000000E+00 0. -1.
         21   -1    0    0  505  502 -0.00000000000E+00 -0.00000000000E+00 -0.21060401653E+03  0.21060401653E+03  0.00000000000E+00 0.  1.
         21    1    1    2  503  501 -0.65415771604E+02  0.31754707487E+02 -0.91776743654E+02  0.11709208042E+03  0.00000000000E+00 0.  1.
         21    1    1    2  504  502 -0.40142663460E+02  0.36329265193E+02  0.55020603513E+02  0.77191422776E+02  0.00000000000E+00 0.  1.
         21    1    1    2  505  503 -0.92745722821E+01 -0.63179858213E+02 -0.81331649194E+02  0.10340478391E+03  0.00000000000E+00 0.  1.
         21    1    1    2  506  504  0.11483300735E+03 -0.49041144666E+01  0.12132979620E+04  0.12187299186E+04  0.00000000000E+00 0. -1.
<scales pt_clust_3="14000.00000" pt_clust_4="54.14101" pt_clust_5="54.08752" pt_clust_6="113.71763"></scales>
<clustering>
<clus scale="   54.141">  2  4  1 -1</clus>
<clus scale="   54.088">  2  5  1 -1</clus>
<clus scale="  113.718">  1  6  2 -1</clus>
<clus scale="  113.718">  1  3  2 -1</clus>
</clustering>
</event>
<event>
 6    0  0.4390142E+002  0.1761083E+03  0.7546771E-02  0.1171623E+00
         21   -1    0    0  506  501  0.00000000000E+00  0.00000000000E+00  0.15177449597E+03  0.15177449597E+03  0.00000000000E+00 0.  1.
         21   -1    0    0  504  502 -0.00000000000E+00 -0.00000000000E+00 -0.30858320377E+03  0.30858320377E+03  0.00000000000E+00 0. -1.
         21    1    1    2  503  505  0.18299523315E+02 -0.38539864765E+02 -0.29159863977E+02  0.51676797470E+02  0.00000000000E+00 0.  1.
         21    1    1    2  504  501  0.94390590530E+02  0.14481631467E+03 -0.52477635072E+02  0.18065229242E+03  0.00000000000E+00 0.  1.
         21    1    1    2  505  502 -0.39655174573E+02 -0.12972331481E+03 -0.65756258188E+02  0.15074666420E+03  0.00000000000E+00 0. -1.
         21    1    1    2  506  503 -0.73034939272E+02  0.23446864908E+02 -0.94149505656E+01  0.77281945645E+02  0.00000000000E+00 0. -1.
<scales pt_clust_3="31.71282" pt_clust_4="166.78283" pt_clust_5="31.71282" pt_clust_6="76.70631"></scales>
<clustering>
<clus scale="   31.713">  3  5 -1 -1</clus>
<clus scale="   76.706">  1  6  2 -1</clus>
<clus scale="  166.783">  1  4  2 -1</clus>
<clus scale="   76.706">  1  3  2 -1</clus>
</clustering>
</event>
<event>
 6    0  0.4390142E+002  0.8612608E+02  0.7546771E-02  0.1312514E+00
         21   -1    0    0  504  501  0.00000000000E+00  0.00000000000E+00  0.20464627026E+04  0.20464627026E+04  0.00000000000E+00 0.  1.
         21   -1    0    0  503  502 -0.00000000000E+00 -0.00000000000E+00 -0.62839881015E+02  0.62839881015E+02  0.00000000000E+00 0.  1.
         21    1    1    2  503  506  0.30418306794E+02 -0.45876471097E+02  0.39042338708E+02  0.67485022044E+02  0.00000000000E+00 0.  1.
         21    1    1    2  504  502 -0.83402980901E+01  0.48386576751E+02  0.17452045714E+03  0.18129592203E+03  0.00000000000E+00 0.  1.
         21    1    1    2  505  501 -0.79640727182E+02 -0.57172833876E+02  0.17780390294E+04  0.17807397813E+04  0.00000000000E+00 0.  1.
         21    1    1    2  506  505  0.57562718478E+02  0.54662728222E+02 -0.79790036804E+01  0.79781858308E+02  0.00000000000E+00 0.  1.
<scales pt_clust_3="53.76678" pt_clust_4="49.10012" pt_clust_5="14000.00000" pt_clust_6="86.12608"></scales>
<clustering>
<clus scale="   49.100">  1  4  2 -1</clus>
<clus scale="   53.767">  2  3  1 -1</clus>
<clus scale="   86.126">  2  6  1 -1</clus>
<clus scale="   49.100">  1  3  2 -1</clus>
</clustering>
</event>
<event>
 6    0  0.4390142E+002  0.9920434E+02  0.7546771E-02  0.1281978E+00
         21   -1    0    0  506  501  0.00000000000E+00  0.00000000000E+00  0.44047841189E+03  0.44047841189E+03  0.00000000000E+00 0. -1.
         21   -1    0    0  503  502 -0.00000000000E+00 -0.00000000000E+00 -0.23876928063E+03  0.23876928063E+03  0.00000000000E+00 0. -1.
         21    1    1    2  503  501 -0.60312911014E+02  0.43979202671E+02 -0.18174358502E+03  0.19647531193E+03  0.00000000000E+00 0. -1.
         21    1    1    2  504  502  0.30068393433E+02 -0.12813281794E+03  0.58648064433E+02  0.14408928752E+03  0.00000000000E+00 0. -1.
         21    1    1    2  505  504  0.31320826554E+02  0.36754302978E+02  0.17629882324E+03  0.18279263672E+03  0.00000000000E+00 0. -1.
         21    1    1    2  506  505 -0.10763089737E+01  0.47399312293E+02  0.14850582861E+03  0.15589045634E+03  0.00000000000E+00 0. -1.
<scales pt_clust_3="74.64461" pt_clust_4="92.89718" pt_clust_5="34.49037" pt_clust_6="34.49037"></scales>
<clustering>
<clus scale="   34.490">  5  6 -1 -1</clus>
<clus scale="   74.645">  2  3  1 -1</clus>
<clus scale="   92.897">  2  4  1 -1</clus>
<clus scale="   99.204">  1  3  2 -1</clus>
</clustering>
</event>
<event>
 6    0  0.4390142E+002  0.8739770E+02  0.7546771E-02  0.1309279E+00
         21   -1    0    0  506  501  0.00000000000E+00  0.00000000000E+00  0.17566281805E+04  0.17566281805E+04  0.00000000000E+00 0. -1.
         21   -1    0    0  504  502 -0.00000000000E+00 -0.00000000000E+00 -0.10010217028E+03  0.10010217028E+03  0.00000000000E+00 0.  1.
         21    1    1    2  503  501 -0.19317592411E+02  0.28702739588E+02  0.81980184345E+03  0.82053158328E+03  0.00000000000E+00 0. -1.
         21    1    1    2  504  503 -0.33027058823E+02  0.62114752083E+02  0.68045675402E+02  0.97873607176E+02  0.00000000000E+00 0.  1.
         21    1    1    2  505  502 -0.18708614713E+02 -0.13329129630E+03 -0.27898245433E+02  0.13745869937E+03  0.00000000000E+00 0.  1.
         21    1    1    2  506  505  0.71053265947E+02  0.42473804628E+02  0.79657673676E+03  0.80086646092E+03  0.00000000000E+00 0. -1.
<scales pt_clust_3="34.59793" pt_clust_4="73.39853" pt_clust_5="14000.00000" pt_clust_6="87.39770"></scales>
<clustering>
<clus scale="   34.598">  1  3  2 -1</clus>
<clus scale="   73.399">  2  4  1 -1</clus>
<clus scale="   87.398">  1  6  2 -1</clus>
<clus scale="   34.598">  1  3  2 -1</clus>
</clustering>
</event>
<event>
 6    0  0.4390142E+002  0.1099997E+03  0.7546771E-02  0.1260570E+00
         21   -1    0    0  505  501  0.00000000000E+00  0.00000000000E+00  0.56598844962E+03  0.56598844962E+03  0.00000000000E+00 0. -1.
         21   -1    0    0  503  502 -0.00000000000E+00 -0.00000000000E+00 -0.18180835261E+03  0.18180835261E+03  0.00000000000E+00 0. -1.
         21    1    1    2  503  506 -0.97567668948E+02 -0.59449907458E+02  0.10295052296E+03  0.15379386105E+03  0.00000000000E+00 0. -1.
         21    1    1    2  504  501  0.37696618735E+02 -0.70630700410E+01  0.22961842386E+03  0.23279936125E+03  0.00000000000E+00 0. -1.
         21    1    1    2  505  502  0.36392421105E+01  0.35572888109E+02 -0.14762017334E+03  0.15188940064E+03  0.00000000000E+00 0. -1.
         21    1    1    2  506  504  0.56231808102E+02  0.30940089390E+02  0.19923132352E+03  0.20931417927E+03  0.00000000000E+00 0. -1.
<scales pt_clust_3="99.70115" pt_clust_4="34.97061" pt_clust_5="35.75856" pt_clust_6="34.97061"></scales>
<clustering>
<clus scale="   35.759">  2  5  1 -1</clus>
<clus scale="   34.971">  4  6 -1 -1</clus>
<clus scale="   99.701">  2  3  1 -1</clus>
<clus scale="  110.000">  1  3  2 -1</clus>
</clustering>
</event>
<event>
 6    0  0.4390142E+002  0.2014877E+03  0.7546771E-02  0.1148490E+00
         21   -1    0    0  504  501  0.00000000000E+00  0.00000000000E+00  0.31440441536E+03  0.31440441536E+03  0.00000000000E+00 0.  1.
         21   -1    0    0  506  502 -0.00000000000E+00 -0.00000000000E+00 -0.14554809721E+04  0.14554809721E+04  0.00000000000E+00 0.  1.
         21    1    1    2  503  501 -0.51257301990E+02 -0.16266115507E+02 -0.28625140385E+02  0.60920408592E+02  0.00000000000E+00 0. -1.
         21    1    1    2  504  505 -0.14579407898E+03  0.67253220440E+02  0.26421758159E+03  0.30917606561E+03  0.00000000000E+00 0.  1.
         21    1    1    2  505  502  0.14691659690E+02  0.38800603648E+02 -0.40293969419E+03  0.40507002957E+03  0.00000000000E+00 0. -1.
         21    1    1    2  506  503  0.18235972128E+03 -0.89787708581E+02 -0.97372930373E+03  0.99471888366E+03  0.00000000000E+00 0.  1.
<scales pt_clust_3="52.69856" pt_clust_4="14000.00000" pt_clust_5="41.48893" pt_clust_6="201.48774"></scales>
<clustering>
<clus scale="   41.489">  2  5  1 -1</clus>
<clus scale="   52.699">  1  3  2 -1</clus>
<clus scale="  201.488">  2  6  1 -1</clus>
<clus scale="   52.699">  1  3  2 -1</clus>
</clustering>
</event>
<event>
 6    0  0.4390142E+002  0.1093335E+03  0.7546771E-02  0.1261809E+00
         21   -1    0    0  504  501  0.00000000000E+00  0.00000000000E+00  0.77163950862E+03  0.77163950862E+03  0.00000000000E+00 0. -1.
         21   -1    0    0  503  502 -0.00000000000E+00 -0.00000000000E+00 -0.54275261040E+02  0.54275261040E+02  0.00000000000E+00 0. -1.
         21    1    1    2  503  506 -0.40638736156E+02  0.26810177454E+02  0.70350807447E+02  0.85554243611E+02  0.00000000000E+00 0.  1.
         21    1    1    2  504  502  0.11583580099E+03 -0.90967133675E+02  0.87835253868E+02  0.17148756230E+03  0.00000000000E+00 0. -1.
         21    1    1    2  505  501 -0.32579472592E+02  0.33776982421E+02  0.35522915660E+03  0.35831558754E+03  0.00000000000E+00 0. -1.
         21    1    1    2  506  505 -0.42617592243E+02  0.30379973800E+02  0.20394902967E+03  0.21055737621E+03  0.00000000000E+00 0.  1.
<scales pt_clust_3="48.68565" pt_clust_4="103.86684" pt_clust_5="32.32719" pt_clust_6="32.32719"></scales>
<clustering>
<clus scale="   32.327">  5  6 -1 -1</clus>
<clus scale="   48.686">  2  3  1 -1</clus>
<clus scale="  103.867">  2  4  1 -1</clus>
<clus scale="  109.333">  1  3  2 -1</clus>
</clustering>
</event>
<event>
 6    0  0.4390142E+002  0.5901645E+02  0.7546771E-02  0.1402006E+00
         21   -1    0    0  503  501  0.00000000000E+00  0.00000000000E+00  0.17811793193E+04  0.17811793193E+04  0.00000000000E+00 0.  1.
         21   -1    0    0  504  502 -0.00000000000E+00 -0.00000000000E+00 -0.19608941257E+03  0.19608941257E+03  0.00000000000E+00 0.  1.
         21    1    1    2  503  506  0.20626634561E+02  0.36185168344E+02  0.11311624699E+03  0.12054090506E+03  0.00000000000E+00 0. -1.
         21    1    1    2  504  501 -0.28060314627E+02 -0.78897700501E+02  0.16409311408E+04  0.16430664129E+04  0.00000000000E+00 0.  1.
         21    1    1    2  505  502  0.50758726050E+02 -0.19027960334E+02 -0.84850900071E+02  0.10068856334E+03  0.00000000000E+00 0.  1.
         21    1    1    2  506  505 -0.43325045985E+02  0.61740492491E+02 -0.84106580918E+02  0.11297285062E+03  0.00000000000E+00 0.  1.
<scales pt_clust_3="41.65122" pt_clust_4="43.88126" pt_clust_5="59.01645" pt_clust_6="14000.00000"></scales>
<clustering>
<clus scale="   41.651">  1  3  2 -1</clus>
<clus scale="   43.881">  1  4  2 -1</clus>
<clus scale="   59.016">  2  5  1 -1</clus>
<clus scale="   41.651">  1  3  2 -1</clus>
</clustering>
</event>
<event>
 6    0  0.4390142E+002  0.9305175E+02  0.7546771E-02  0.1295625E+00
         21   -1    0    0  505  501  0.00000000000E+00  0.00000000000E+00  0.70823836220E+03  0.70823836220E+03  0.00000000000E+00 0.  1.
         21   -1    0    0  504  502 -0.00000000000E+00 -0.00000000000E+00 -0.12514480437E+03  0.12514480437E+03  0.00000000000E+00 0.  1.
         21    1    1    2  503  502  0.43430516033E+02 -0.57023499080E+02  0.33183947841E+03  0.33949275191E+03  0.00000000000E+00 0.  1.
         21    1    1    2  504  506 -0.36693385999E+02  0.13930674173E+02 -0.64783658651E+02  0.75745565463E+02  0.00000000000E+00 0.  1.
         21    1    1    2  505  503 -0.38031714105E+02 -0.44490331224E+02  0.31975165566E+03  0.32506448921E+03  0.00000000000E+00 0.  1.
         21    1    1    2  506  501  0.31294584070E+02  0.87583156131E+02 -0.37139175819E+01  0.93080359979E+02  0.00000000000E+00 0.  1.
<scales pt_clust_3="93.05175" pt_clust_4="39.24880" pt_clust_5="59.19888" pt_clust_6="14000.00000"></scales>
<clustering>
<clus scale="   39.249">  2  4  1 -1</clus>
<clus scale="   59.199">  1  5  2 -1</clus>
<clus scale="   93.052">  1  3  2 -1</clus>
<clus scale="   59.199">  1  3  2 -1</clus>
</clustering>
</event>
<event>
 6    0  0.4390142E+002  0.1172195E+03  0.7546771E-02  0.1247756E+00
         21   -1    0    0  505  501  0.00000000000E+00  0.00000000000E+00  0.59365706125E+03  0.59365706125E+03  0.00000000000E+00 0.  1.
         21   -1    0    0  504  502 -0.00000000000E+00 -0.00000000000E+00 -0.33513151448E+03  0.33513151448E+03  0.00000000000E+00 0. -1.
         21    1    1    2  503  502  0.43231870789E+02  0.26715176831E+02 -0.26837153522E+03  0.27314094574E+03  0.00000000000E+00 0. -1.
         21    1    1    2  504  506 -0.18357597117E+03 -0.53566621477E+02  0.18290895197E+03  0.26462275949E+03  0.00000000000E+00 0.  1.
         21    1    1    2  505  503  0.75996127090E+02 -0.47360317169E+01  0.56717790447E+02  0.94946032472E+02  0.00000000000E+00 0.  1.
         21    1    1    2  506  501  0.64347973295E+02  0.31587476363E+02  0.28727033956E+03  0.29607883802E+03  0.00000000000E+00 0.  1.
<scales pt_clust_3="50.82023" pt_clust_4="117.21948" pt_clust_5="14000.00000" pt_clust_6="75.14407"></scales>
<clustering>
<clus scale="   50.820">  2  3  1 -1</clus>
<clus scale="   75.144">  1  6  2 -1</clus>
<clus scale="  117.219">  1  4  2 -1</clus>
<clus scale="   75.144">  1  3  2 -1</clus>
</clustering>
</event>
<event>
 6    0  0.4390142E+002  0.7640084E+02  0.7546771E-02  0.1339587E+00
         21   -1    0    0  506  501  0.00000000000E+00  0.00000000000E+00  0.99988888357E+02  0.99988888357E+02  0.00000000000E+00 0. -1.
         21   -1    0    0  503  502 -0.00000000000E+00 -0.00000000000E+00 -0.76165174588E+03  0.76165174588E+03  0.00000000000E+00 0. -1.
         21    1    1    2  503  504 -0.11654232956E+03  0.59180790340E+01 -0.56751603035E+03  0.57938897378E+03  0.00000000000E+00 0. -1.
         21    1    1    2  504  501  0.47596828083E+02 -0.45051060776E+02  0.65575858251E+02  0.92710567391E+02  0.00000000000E+00 0. -1.
         21    1    1    2  505  502  0.42661449073E+02  0.72263440525E+00 -0.12320013441E+03  0.13037942536E+03  0.00000000000E+00 0. -1.
         21    1    1    2  506  505  0.26284052403E+02  0.38410347337E+02 -0.36522551017E+02  0.59161667708E+02  0.00000000000E+00 0.  1.
<scales pt_clust_3="76.40084" pt_clust_4="14000.00000" pt_clust_5="42.66757" pt_clust_6="48.47400"></scales>
<clustering>
<clus scale="   42.668">  2  5  1 -1</clus>
<clus scale="   48.474">  1  6  2 -1</clus>
<clus scale="   76.401">  2  3  1 -1</clus>
<clus scale="   48.474">  1  3  2 -1</clus>
</clustering>
</event>
<event>
 6    0  0.4390142E+002  0.2413407E+03  0.7546771E-02  0.1118903E+00
         21   -1    0    0  504  501  0.00000000000E+00  0.00000000000E+00  0.29124732825E+03  0.29124732825E+03  0.00000000000E+00 0.  1.
         21   -1    0    0  505  502 -0.00000000000E+00 -0.00000000000E+00 -0.73606149144E+03  0.73606149144E+03  0.00000000000E+00 0. -1.
         21    1    1    2  503  501  0.59295736933E+01 -0.54294695365E+02  0.70564221089E+02  0.89232186384E+02  0.00000000000E+00 0. -1.
         21    1    1    2  504  506  0.21738257785E+03  0.14770744804E+03  0.88069780537E+02  0.27718037737E+03  0.00000000000E+00 0.  1.
         21    1    1    2  505  503 -0.18808752076E+03 -0.12133746706E+03 -0.51958805911E+03  0.56574857273E+03  0.00000000000E+00 0. -1.
         21    1    1    2  506  502 -0.35224630779E+02  0.27924714393E+02 -0.83860105713E+02  0.95147683196E+02  0.00000000000E+00 0. -1.
<scales pt_clust_3="54.16353" pt_clust_4="241.34068" pt_clust_5="14000.00000" pt_clust_6="44.95069"></scales>
<clustering>
<clus scale="   44.951">  2  6  1 -1</clus>
<clus scale="   54.164">  1  3  2 -1</clus>
<clus scale="  241.341">  1  4  2 -1</clus>
<clus scale="   54.164">  1  3  2 -1</clus>
</clustering>
</event>
<event>
 6    0  0.4390142E+002  0.1070094E+03  0.7546771E-02  0.1266210E+00
         21   -1    0    0  504  501  0.00000000000E+00  0.00000000000E+00  0.34330855374E+03  0.34330855374E+03  0.00000000000E+00 0. -1.
         21   -1    0    0  501  502 -0.00000000000E+00 -0.00000000000E+00 -0.36648037851E+03  0.36648037851E+03  0.00000000000E+00 0. -1.
         21    1    1    2  503  505  0.62789945207E+02  0.25193947353E+02 -0.22660467323E+03  0.23648887951E+03  0.00000000000E+00 0. -1.
         21    1    1    2  504  506 -0.62806386459E+00  0.30704998494E+02  0.14842972417E+03  0.15157366002E+03  0.00000000000E+00 0. -1.
         21    1    1    2  505  502  0.47877756632E+02 -0.32855968247E+02 -0.10864010859E+03  0.12318468827E+03  0.00000000000E+00 0.  1.
         21    1    1    2  506  503 -0.11003963797E+03 -0.23042977600E+02  0.16364323288E+03  0.19854170446E+03  0.00000000000E+00 0. -1.
<scales pt_clust_3="107.00938" pt_clust_4="30.71142" pt_clust_5="57.40175" pt_clust_6="14000.00000"></scales>
<clustering>
<clus scale="   30.711">  1  4  2 -1</clus>
<clus scale="   57.402">  2  5  1 -1</clus>
<clus scale="  107.009">  2  3  1 -1</clus>
<clus scale="   30.711">  1  3  2 -1</clus>
</clustering>
</event>
<event>
 6    0  0.4390142E+002  0.1949281E+03  0.7546771E-02  0.1154090E+00
         21   -1    0    0  505  501  0.00000000000E+00  0.00000000000E+00  0.40377671228E+03  0.40377671228E+03  0.00000000000E+00 0.  1.
         21   -1    0    0  504  502 -0.00000000000E+00 -0.00000000000E+00 -0.39390942444E+03  0.39390942444E+03  0.00000000000E+00 0.  1.
         21    1    1    2  503  506 -0.20951605316E+02  0.11665374022E+03  0.13866629656E+03  0.18241547817E+03  0.00000000000E+00 0.  1.
         21    1    1    2  504  501 -0.34594006446E+02 -0.34103110514E+02 -0.20772345663E+03  0.21332792096E+03  0.00000000000E+00 0.  1.
         21    1    1    2  505  503  0.18350246731E+02  0.63697565586E+02  0.19858303099E+03  0.20935455958E+03  0.00000000000E+00 0.  1.
         21    1    1    2  506  502  0.37195365031E+02 -0.14624819529E+03 -0.11965858309E+03  0.19258817802E+03  0.00000000000E+00 0.  1.
<scales pt_clust_3="63.78006" pt_clust_4="48.57744" pt_clust_5="63.78006" pt_clust_6="175.45279"></scales>
<clustering>
<clus scale="   48.577">  2  4  1 -1</clus>
<clus scale="   63.780">  3  5 -1 -1</clus>
<clus scale="  175.453">  2  6  1 -1</clus>
<clus scale="  194.928">  1  3  2 -1</clus>
</clustering>
</event>
<event>
 6    0  0.4390142E+002  0.1226533E+03  0.7546771E-02  0.1238783E+00
         21   -1    0    0  504  501  0.00000000000E+00  0.00000000000E+00  0.24217830858E+03  0.24217830858E+03  0.00000000000E+00 0.  1.
         21   -1    0    0  503  502 -0.00000000000E+00 -0.00000000000E+00 -0.85990609020E+03  0.85990609020E+03  0.00000000000E+00 0. -1.
         21    1    1    2  503  501  0.58311663735E+02  0.16302807000E+03 -0.11924508720E+02  0.17355286123E+03  0.00000000000E+00 0.  1.
         21    1    1    2  504  506 -0.44670119715E+02 -0.53742269255E+02  0.11666679152E+03  0.13599555634E+03  0.00000000000E+00 0.  1.
         21    1    1    2  505  502 -0.12795498726E+02 -0.73293176876E+02 -0.74588656228E+03  0.74958813915E+03  0.00000000000E+00 0. -1.
         21    1    1    2  506  505 -0.84604529367E+00 -0.35992623866E+02  0.23416497860E+02  0.42947842058E+02  0.00000000000E+00 0.  1.
<scales pt_clust_3="113.00657" pt_clust_4="34.22258" pt_clust_5="74.40171" pt_clust_6="34.22258"></scales>
<clustering>
<clus scale="   34.223">  4  6 -1 -1</clus>
<clus scale="   74.402">  2  5  1 -1</clus>
<clus scale="  113.007">  2  3  1 -1</clus>
<clus scale="  122.653">  1  3  2 -1</clus>
</clustering>
</event>
<event>
 6    0  0.4390142E+002  0.7734135E+02  0.7546771E-02  0.1336770E+00
         21   -1    0    0  506  501  0.00000000000E+00  0.00000000000E+00  0.24055733785E+02  0.24055733785E+02  0.00000000000E+00 0. -1.
         21   -1    0    0  504  502 -0.00000000000E+00 -0.00000000000E+00 -0.16644946181E+04  0.16644946181E+04  0.00000000000E+00 0. -1.
         21    1    1    2  503  501 -0.34108042179E+02  0.64075680991E+01 -0.43794554590E+02  0.55878246948E+02  0.00000000000E+00 0. -1.
         21    1    1    2  504  503 -0.34278886796E+02 -0.14811512631E+02 -0.17195175604E+03  0.17595973798E+03  0.00000000000E+00 0.  1.
         21    1    1    2  505  502  0.52421152676E+02  0.87832580934E+02 -0.13217996311E+04  0.13257514112E+04  0.00000000000E+00 0. -1.
         21    1    1    2  506  505  0.15965776300E+02 -0.79428636403E+02 -0.10289294251E+03  0.13096095568E+03  0.00000000000E+00 0. -1.
<scales pt_clust_3="34.70469" pt_clust_4="40.59987" pt_clust_5="77.34135" pt_clust_6="14000.00000"></scales>
<clustering>
<clus scale="   34.705">  1  3  2 -1</clus>
<clus scale="   40.600">  2  4  1 -1</clus>
<clus scale="   77.341">  2  5  1 -1</clus>
<clus scale="   34.705">  1  3  2 -1</clus>
</clustering>
</event>
<event>
 6    0  0.4390142E+002  0.8885797E+02  0.7546771E-02  0.1305641E+00
         21   -1    0    0  505  501  0.00000000000E+00  0.00000000000E+00  0.12828496718E+03  0.12828496718E+03  0.00000000000E+00 0.  1.
         21   -1    0    0  503  502 -0.00000000000E+00 -0.00000000000E+00 -0.10730443554E+04  0.10730443554E+04  0.00000000000E+00 0.  1.
         21    1    1    2  503  504 -0.38776787984E+02  0.39752160468E+02 -0.31677044529E+03  0.32160128818E+03  0.00000000000E+00 0.  1.
         21    1    1    2  504  506 -0.81224472627E+01 -0.54208149715E+02  0.56532186387E+02  0.78742528171E+02  0.00000000000E+00 0.  1.
         21    1    1    2  505  502  0.97555570926E+02  0.32210770454E+02 -0.72594754005E+03  0.73318105135E+03  0.00000000000E+00 0.  1.
         21    1    1    2  506  501 -0.50656335680E+02 -0.17754781207E+02  0.41426410718E+02  0.67804454906E+02  0.00000000000E+00 0.  1.
<scales pt_clust_3="56.29828" pt_clust_4="14000.00000" pt_clust_5="88.85797" pt_clust_6="53.67771"></scales>
<clustering>
<clus scale="   53.678">  1  6  2 -1</clus>
<clus scale="   56.298">  2  3  1 -1</clus>
<clus scale="   88.858">  2  5  1 -1</clus>
<clus scale="   53.678">  1  3  2 -1</clus>
</clustering>
</event>
<event>
 6    0  0.4390142E+002  0.2230212E+03  0.7546771E-02  0.1131650E+00
         21   -1    0    0  505  501  0.00000000000E+00  0.00000000000E+00  0.12413776581E+03  0.12413776581E+03  0.00000000000E+00 0. -1.
         21   -1    0    0  506  502 -0.00000000000E+00 -0.00000000000E+00 -0.16644343378E+04  0.16644343378E+04  0.00000000000E+00 0.  1.
         21    1    1    2  503  502  0.11234763552E+03 -0.65926078085E+02 -0.85576730372E+03  0.86562458208E+03  0.00000000000E+00 0.  1.
         21    1    1    2  504  503 -0.12008715282E+02 -0.15946337397E+03 -0.60560094374E+03  0.62635874700E+03  0.00000000000E+00 0.  1.
         21    1    1    2  505  504 -0.62175045104E+02  0.23667417732E+03 -0.77802819251E+02  0.25677554620E+03  0.00000000000E+00 0. -1.
         21    1    1    2  506  501 -0.38163875138E+02 -0.11284725264E+02 -0.11255052899E+01  0.39813228355E+02  0.00000000000E+00 0.  1.
<scales pt_clust_3="128.98997" pt_clust_4="14000.00000" pt_clust_5="223.02118" pt_clust_6="39.79732"></scales>
<clustering>
<clus scale="   39.797">  1  6  2 -1</clus>
<clus scale="  128.990">  2  3  1 -1</clus>
<clus scale="  223.021">  1  5  2 -1</clus>
<clus scale="   39.797">  1  3  2 -1</clus>
</clustering>
</event>
<event>
 6    0  0.4390142E+002  0.1531936E+03  0.7546771E-02  0.1196603E+00
         21   -1    0    0  505  501  0.00000000000E+00  0.00000000000E+00  0.11116426272E+04  0.11116426272E+04  0.00000000000E+00 0. -1.
         21   -1    0    0  506  502 -0.00000000000E+00 -0.00000000000E+00 -0.34931542505E+03  0.34931542505E+03  0.00000000000E+00 0. -1.
         21    1    1    2  503  504  0.11028948196E+03  0.30326760773E+02  0.41401836393E+03  0.42952844832E+03  0.00000000000E+00 0. -1.
         21    1    1    2  504  502  0.23594627859E+02 -0.13588769036E+03 -0.34166809242E+02  0.14208990714E+03  0.00000000000E+00 0. -1.
         21    1    1    2  505  503  0.50106472611E+02 -0.52301927496E+02  0.57513461249E+03  0.57967747300E+03  0.00000000000E+00 0. -1.
         21    1    1    2  506  501 -0.18399058243E+03  0.15786285709E+03 -0.19265896499E+03  0.30966222382E+03  0.00000000000E+00 0. -1.
<scales pt_clust_3="14000.00000" pt_clust_4="144.04955" pt_clust_5="72.43031" pt_clust_6="153.19360"></scales>
<clustering>
<clus scale="   72.430">  1  5  2 -1</clus>
<clus scale="  144.050">  2  4  1 -1</clus>
<clus scale="  153.194">  2  6  1 -1</clus>
<clus scale="   72.430">  1  3  2 -1</clus>
</clustering>
</event>
<event>
 6    0  0.4390142E+002  0.1261404E+03  0.7546771E-02  0.1233298E+00
         21   -1    0    0  506  501  0.00000000000E+00  0.00000000000E+00  0.19458832125E+03  0.19458832125E+03  0.00000000000E+00 0.  1.
         21   -1    0    0  504  502 -0.00000000000E+00 -0.00000000000E+00 -0.14552770832E+04  0.14552770832E+04  0.00000000000E+00 0. -1.
         21    1    1    2  503  502  0.25257292199E+01  0.12191265487E+03 -0.12099967864E+04  0.12161255271E+04  0.00000000000E+00 0. -1.
         21    1    1    2  504  501 -0.79440972507E+02  0.54562027301E+02  0.10817360557E+03  0.14487723036E+03  0.00000000000E+00 0.  1.
         21    1    1    2  505  503  0.58687769264E+02 -0.20109029483E+03 -0.14747194018E+03  0.25618261861E+03  0.00000000000E+00 0.  1.
         21    1    1    2  506  505  0.18227474024E+02  0.24615612656E+02 -0.11393640923E+02  0.32680028292E+02  0.00000000000E+00 0.  1.
<scales pt_clust_3="14000.00000" pt_clust_4="97.91530" pt_clust_5="126.14038" pt_clust_6="30.62955"></scales>
<clustering>
<clus scale="   30.630">  1  6  2 -1</clus>
<clus scale="   97.915">  1  4  2 -1</clus>
<clus scale="  126.140">  1  5  2 -1</clus>
<clus scale="   30.630">  1  3  2 -1</clus>
</clustering>
</event>
<event>
 6    0  0.4390142E+002  0.1912636E+03  0.7546771E-02  0.1157327E+00
         21   -1    0    0  502  501  0.00000000000E+00  0.00000000000E+00  0.16856692893E+04  0.16856692893E+04  0.00000000000E+00 0. -1.
         21   -1    0    0  503  502 -0.00000000000E+00 -0.00000000000E+00 -0.66987675376E+02  0.66987675376E+02  0.00000000000E+00 0. -1.
         21    1    1    2  503  505 -0.14676029140E+02  0.39369879136E+02 -0.20441828890E+02  0.46725170764E+02  0.00000000000E+00 0. -1.
         21    1    1    2  504  506 -0.13166298562E+02 -0.19357399115E+03  0.11539128958E+04  0.11701107694E+04  0.00000000000E+00 0. -1.
         21    1    1    2  505  504  0.60174227747E+02  0.15978627438E+03  0.27961178125E+03  0.32762072489E+03  0.00000000000E+00 0. -1.
         21    1    1    2  506  501 -0.32331900046E+02 -0.55821623631E+01  0.20559876574E+03  0.20820029964E+03  0.00000000000E+00 0.  1.
<scales pt_clust_3="42.07120" pt_clust_4="191.26364" pt_clust_5="14000.00000" pt_clust_6="32.81025"></scales>
<clustering>
<clus scale="   32.810">  1  6  2 -1</clus>
<clus scale="   42.071">  2  3  1 -1</clus>
<clus scale="  191.264">  1  4  2 -1</clus>
<clus scale="   32.810">  1  3  2 -1</clus>
</clustering>
</event>
<event>
 6    0  0.4390142E+002  0.9919041E+02  0.7546771E-02  0.1282008E+00
         21   -1    0    0  503  501  0.00000000000E+00  0.00000000000E+00  0.37427978578E+02  0.37427978578E+02  0.00000000000E+00 0.  1.
         21   -1    0    0  506  502 -0.00000000000E+00 -0.00000000000E+00 -0.76192731555E+03  0.76192731555E+03  0.00000000000E+00 0.  1.
         21    1    1    2  503  504  0.60069784856E+02  0.16066544471E+02 -0.45326214609E+02  0.76947895583E+02  0.00000000000E+00 0. -1.
         21    1    1    2  504  502  0.22207323858E+02  0.40781518276E+02 -0.58250639195E+02  0.74494526191E+02  0.00000000000E+00 0.  1.
         21    1    1    2  505  501  0.58951042182E+01 -0.66757957601E+02 -0.10604945605E+03  0.12545064482E+03  0.00000000000E+00 0.  1.
         21    1    1    2  506  505 -0.88172212932E+02  0.99098948537E+01 -0.51487302712E+03  0.52246222754E+03  0.00000000000E+00 0.  1.
<scales pt_clust_3="40.58287" pt_clust_4="40.58287" pt_clust_5="67.01774" pt_clust_6="87.36887"></scales>
<clustering>
<clus scale="   40.583">  3  4 -1 -1</clus>
<clus scale="   67.018">  1  5  2 -1</clus>
<clus scale="   87.369">  2  6  1 -1</clus>
<clus scale="   67.018">  1  3  2 -1</clus>
</clustering>
</event>
<event>
 6    0  0.4390142E+002  0.1230058E+03  0.7546771E-02  0.1238219E+00
         21   -1    0    0  503  501  0.00000000000E+00  0.00000000000E+00  0.50263216750E+03  0.50263216750E+03  0.00000000000E+00 0. -1.
         21   -1    0    0  504  502 -0.00000000000E+00 -0.00000000000E+00 -0.80616060790E+02  0.80616060790E+02  0.00000000000E+00 0. -1.
         21    1    1    2  503  505  0.69079786286E+02 -0.72016005428E+02  0.32862338342E+03  0.34344089745E+03  0.00000000000E+00 0. -1.
         21    1    1    2  504  501  0.36655766478E+02  0.33192001057E+02  0.10228903969E+03  0.11361514772E+03  0.00000000000E+00 0. -1.
         21    1    1    2  505  506 -0.78001785180E+02  0.31213133896E+01 -0.17912624445E+02  0.80092966002E+02  0.00000000000E+00 0. -1.
         21    1    1    2  506  502 -0.27733767584E+02  0.35702690981E+02  0.90163080367E+01  0.46099217112E+02  0.00000000000E+00 0. -1.
<scales pt_clust_3="109.41855" pt_clust_4="49.45052" pt_clust_5="42.76543" pt_clust_6="42.76543"></scales>
<clustering>
<clus scale="   42.765">  5  6 -1 -1</clus>
<clus scale="   49.451">  1  4  2 -1</clus>
<clus scale="  109.419">  1  3  2 -1</clus>
<clus scale="   49.451">  1  3  2 -1</clus>
</clustering>
</event>
<event>
 6    0  0.4390142E+002  0.8718098E+03  0.7546771E-02  0.9461523E-01
         21   -1    0    0  504  501  0.00000000000E+00  0.00000000000E+00  0.13132204582E+04  0.13132204582E+04  0.00000000000E+00 0.  1.
         21   -1    0    0  505  502 -0.00000000000E+00 -0.00000000000E+00 -0.11084826871E+04  0.11084826871E+04  0.00000000000E+00 0.  1.
         21    1    1    2  503  502 -0.67822225674E+03  0.56373560454E+03 -0.66659983077E+03  0.11055037746E+04  0.00000000000E+00 0.  1.
         21    1    1    2  504  506  0.41528603473E+03 -0.29664287112E+03  0.49721796958E+03  0.71252031052E+03  0.00000000000E+00 0.  1.
         21    1    1    2  505  501 -0.20787921045E+02 -0.48543090210E+02 -0.32359561811E+02  0.61933113188E+02  0.00000000000E+00 0.  1.
         21    1    1    2  506  503  0.28372414305E+03 -0.21854964321E+03  0.40647919409E+03  0.54174594703E+03  0.00000000000E+00 0.  1.
<scales pt_clust_3="870.38820" pt_clust_4="41.68977" pt_clust_5="52.80691" pt_clust_6="41.68977"></scales>
<clustering>
<clus scale="   41.690">  4  6 -1 -1</clus>
<clus scale="   52.807">  2  5  1 -1</clus>
<clus scale="  870.388">  2  3  1 -1</clus>
<clus scale="  871.810">  1  3  2 -1</clus>
</clustering>
</event>
<event>
 6    0  0.4390142E+002  0.2730607E+03  0.7546771E-02  0.1099541E+00
         21   -1    0    0  503  501  0.00000000000E+00  0.00000000000E+00  0.22342126920E+03  0.22342126920E+03  0.00000000000E+00 0. -1.
         21   -1    0    0  506  502 -0.00000000000E+00 -0.00000000000E+00 -0.95815528101E+03  0.95815528101E+03  0.00000000000E+00 0. -1.
         21    1    1    2  503  504  0.50403439089E+02 -0.28228492710E+03  0.41660378429E+02  0.28976002808E+03  0.00000000000E+00 0. -1.
         21    1    1    2  504  502  0.10457709855E+03  0.22128119408E+03 -0.58601636732E+03  0.63507237317E+03  0.00000000000E+00 0. -1.
         21    1    1    2  505  501 -0.50111415240E+02  0.41716199464E+02 -0.81153518521E+02  0.10410229970E+03  0.00000000000E+00 0. -1.
         21    1    1    2  506  505 -0.10486912240E+03  0.19287533565E+02 -0.10922450440E+03  0.15264184926E+03  0.00000000000E+00 0. -1.
<scales pt_clust_3="273.06065" pt_clust_4="14000.00000" pt_clust_5="34.38363" pt_clust_6="172.26075"></scales>
<clustering>
<clus scale="   34.384">  5  6 -1 -1</clus>
<clus scale="  172.261">  2  5  1 -1</clus>
<clus scale="  273.061">  1  3  2 -1</clus>
<clus scale="  273.061">  1  3  2 -1</clus>
</clustering>
</event>
<event>
 6    0  0.4390142E+002  0.8716248E+02  0.7546771E-02  0.1309872E+00
         21   -1    0    0  502  501  0.00000000000E+00  0.00000000000E+00  0.27862671424E+03  0.27862671424E+03  0.00000000000E+00 0. -1.
         21   -1    0    0  505  502 -0.00000000000E+00 -0.00000000000E+00 -0.80347991645E+02  0.80347991645E+02  0.00000000000E+00 0. -1.
         21    1    1    2  503  504 -0.10396950515E+03 -0.45615070797E+02  0.32700240908E+02  0.11815116774E+03  0.00000000000E+00 0. -1.
         21    1    1    2  504  506  0.51688730943E+02  0.52451187950E+02  0.13914359464E+03  0.15742868847E+03  0.00000000000E+00 0. -1.
         21    1    1    2  505  503  0.24161049676E+02  0.21457132795E+02 -0.48819514408E+01  0.32680243559E+02  0.00000000000E+00 0.  1.
         21    1    1    2  506  501  0.28119724526E+02 -0.28293249948E+02  0.31316838481E+02  0.50714606106E+02  0.00000000000E+00 0.  1.
<scales pt_clust_3="87.16248" pt_clust_4="14000.00000" pt_clust_5="32.31354" pt_clust_6="40.49596"></scales>
<clustering>
<clus scale="   32.314">  2  5  1 -1</clus>
<clus scale="   40.496">  1  6  2 -1</clus>
<clus scale="   87.162">  2  3  1 -1</clus>
<clus scale="   40.496">  1  3  2 -1</clus>
</clustering>
</event>
<event>
 6    0  0.4390142E+002  0.7913384E+02  0.7546771E-02  0.1331528E+00
         21   -1    0    0  504  501  0.00000000000E+00  0.00000000000E+00  0.54030112610E+03  0.54030112610E+03  0.00000000000E+00 0.  1.
         21   -1    0    0  505  502 -0.00000000000E+00 -0.00000000000E+00 -0.15559765782E+03  0.15559765782E+03  0.00000000000E+00 0.  1.
         21    1    1    2  503  502  0.23347288149E+01 -0.38731940681E+02 -0.37057860800E+02  0.53655374705E+02  0.00000000000E+00 0.  1.
         21    1    1    2  504  503 -0.23249421583E+02 -0.90656532177E+02  0.38268935820E+03  0.39396736833E+03  0.00000000000E+00 0.  1.
         21    1    1    2  505  506 -0.10790941363E+02  0.76364943099E+02 -0.81865621422E+02  0.11247234736E+03  0.00000000000E+00 0.  1.
         21    1    1    2  506  501  0.31705634131E+02  0.53023529760E+02  0.12093759231E+03  0.13580369353E+03  0.00000000000E+00 0.  1.
<scales pt_clust_3="38.80224" pt_clust_4="14000.00000" pt_clust_5="43.11934" pt_clust_6="79.13384"></scales>
<clustering>
<clus scale="   38.802">  2  3  1 -1</clus>
<clus scale="   43.119">  2  5  1 -1</clus>
<clus scale="   79.134">  2  6  1 -1</clus>
<clus scale="   79.134">  1  3  2 -1</clus>
</clustering>
</event>
<event>
 6    0  0.4390142E+002  0.1356328E+03  0.7546771E-02  0.1219329E+00
         21   -1    0    0  506  501  0.00000000000E+00  0.00000000000E+00  0.12207750990E+04  0.12207750990E+04  0.00000000000E+00 0.  1.
         21   -1    0    0  503  502 -0.00000000000E+00 -0.00000000000E+00 -0.28412549194E+03  0.28412549194E+03  0.00000000000E+00 0. -1.
         21    1    1    2  503  504  0.12882982148E+03  0.90506145108E+02 -0.79330864209E+02  0.17630051395E+03  0.00000000000E+00 0. -1.
         21    1    1    2  504  505 -0.50683606295E+02 -0.86213534249E+02  0.47172660207E+03  0.48221114518E+03  0.00000000000E+00 0.  1.
         21    1    1    2  505  501 -0.13547591438E+02 -0.37852818144E+02  0.68592878038E+03  0.68710600698E+03  0.00000000000E+00 0.  1.
         21    1    1    2  506  502 -0.64598623744E+02  0.33560207285E+02 -0.14167491115E+03  0.15928292486E+03  0.00000000000E+00 0. -1.
<scales pt_clust_3="135.63278" pt_clust_4="14000.00000" pt_clust_5="40.20414" pt_clust_6="72.70959"></scales>
<clustering>
<clus scale="   40.204">  1  5  2 -1</clus>
<clus scale="   72.710">  2  6  1 -1</clus>
<clus scale="  135.633">  2  3  1 -1</clus>
<clus scale="   40.204">  1  3  2 -1</clus>
</clustering>
</event>
<event>
 6    0  0.4390142E+002  0.1386947E+03  0.7546771E-02  0.1215096E+00
         21   -1    0    0  505  501  0.00000000000E+00  0.00000000000E+00  0.47791248164E+03  0.47791248164E+03  0.00000000000E+00 0. -1.
         21   -1    0    0  506  502 -0.00000000000E+00 -0.00000000000E+00 -0.34022184468E+03  0.34022184468E+03  0.00000000000E+00 0. -1.
         21    1    1    2  503  501  0.16598335371E+01  0.31327649440E+02  0.46354731289E+02  0.55972652069E+02  0.00000000000E+00 0.  1.
         21    1    1    2  504  502  0.84524251734E+02  0.77948627523E+02 -0.13418081019E+03  0.17670548233E+03  0.00000000000E+00 0. -1.
         21    1    1    2  505  504 -0.87690291582E+02 -0.14168178623E+03  0.38668443288E+03  0.42105601340E+03  0.00000000000E+00 0. -1.
         21    1    1    2  506  503  0.15062063112E+01  0.32405509265E+02 -0.16116771702E+03  0.16440017852E+03  0.00000000000E+00 0. -1.
<scales pt_clust_3="31.37159" pt_clust_4="138.69475" pt_clust_5="14000.00000" pt_clust_6="32.55931"></scales>
<clustering>
<clus scale="   31.372">  1  3  2 -1</clus>
<clus scale="   32.559">  2  6  1 -1</clus>
<clus scale="  138.695">  2  4  1 -1</clus>
<clus scale="   31.372">  1  3  2 -1</clus>
</clustering>
</event>
<event>
 6    0  0.4390142E+002  0.1482306E+03  0.7546771E-02  0.1202664E+00
         21   -1    0    0  506  501  0.00000000000E+00  0.00000000000E+00  0.86974555163E+02  0.86974555163E+02  0.00000000000E+00 0.  1.
         21   -1    0    0  505  502 -0.00000000000E+00 -0.00000000000E+00 -0.17153801138E+04  0.17153801138E+04  0.00000000000E+00 0. -1.
         21    1    1    2  503  502  0.33736007233E+02  0.35125533558E+02 -0.14338344670E+03  0.15142897371E+03  0.00000000000E+00 0.  1.
         21    1    1    2  504  503  0.90564097677E+02 -0.11399957437E+03 -0.21968297394E+02  0.14724253745E+03  0.00000000000E+00 0.  1.
         21    1    1    2  505  501 -0.15794417190E+03  0.46692608954E+02 -0.14440250912E+04  0.14533874312E+04  0.00000000000E+00 0. -1.
         21    1    1    2  506  504  0.33644066993E+02  0.32181431862E+02 -0.19028723329E+02  0.50295726578E+02  0.00000000000E+00 0.  1.
<scales pt_clust_3="51.32539" pt_clust_4="14000.00000" pt_clust_5="148.23064" pt_clust_6="46.55715"></scales>
<clustering>
<clus scale="   46.557">  1  6  2 -1</clus>
<clus scale="   51.325">  2  3  1 -1</clus>
<clus scale="  148.231">  2  5  1 -1</clus>
<clus scale="   46.557">  1  3  2 -1</clus>
</clustering>
</event>
<event>
 6    0  0.4390142E+002  0.1815494E+03  0.7546771E-02  0.1166312E+00
         21   -1    0    0  505  501  0.00000000000E+00  0.00000000000E+00  0.92471009688E+02  0.92471009688E+02  0.00000000000E+00 0.  1.
         21   -1    0    0  504  502 -0.00000000000E+00 -0.00000000000E+00 -0.25624193052E+04  0.25624193052E+04  0.00000000000E+00 0.  1.
         21    1    1    2  503  502  0.52925540001E+02  0.86977168304E+01 -0.34704275948E+03  0.35116298206E+03  0.00000000000E+00 0. -1.
         21    1    1    2  504  506 -0.14394777541E+03  0.14328967881E+03 -0.20181971979E+04  0.20283916840E+04  0.00000000000E+00 0.  1.
         21    1    1    2  505  503 -0.11684647289E+02  0.35587440038E+02 -0.32590094235E+02  0.49649885327E+02  0.00000000000E+00 0. -1.
         21    1    1    2  506  501  0.10270688270E+03 -0.18757483568E+03 -0.72118243853E+02  0.22568576346E+03  0.00000000000E+00 0.  1.
<scales pt_clust_3="53.50184" pt_clust_4="14000.00000" pt_clust_5="37.45660" pt_clust_6="181.54937"></scales>
<clustering>
<clus scale="   37.457">  1  5  2 -1</clus>
<clus scale="   53.502">  2  3  1 -1</clus>
<clus scale="  181.549">  1  6  2 -1</clus>
<clus scale="   37.457">  1  3  2 -1</clus>
</clustering>
</event>
<event>
 6    0  0.4390142E+002  0.1286870E+03  0.7546771E-02  0.1229417E+00
         21   -1    0    0  506  501  0.00000000000E+00  0.00000000000E+00  0.11476226740E+04  0.11476226740E+04  0.00000000000E+00 0.  1.
         21   -1    0    0  505  502 -0.00000000000E+00 -0.00000000000E+00 -0.26000191437E+03  0.26000191437E+03  0.00000000000E+00 0. -1.
         21    1    1    2  503  502  0.61447058432E+02  0.24028754570E+02 -0.18364171782E+03  0.19513431927E+03  0.00000000000E+00 0. -1.
         21    1    1    2  504  501  0.10537016320E+03  0.54114012722E+01  0.11669977954E+03  0.15732448348E+03  0.00000000000E+00 0.  1.
         21    1    1    2  505  504 -0.33734466283E+02 -0.15216532082E+02 -0.38337621105E+02  0.53285366246E+02  0.00000000000E+00 0. -1.
         21    1    1    2  506  503 -0.13308275535E+03 -0.14223623760E+02  0.99290031900E+03  0.10018804194E+04  0.00000000000E+00 0.  1.
<scales pt_clust_3="33.34021" pt_clust_4="14000.00000" pt_clust_5="37.00753" pt_clust_6="128.68699"></scales>
<clustering>
<clus scale="   37.008">  2  5  1 -1</clus>
<clus scale="   33.340">  2  3  1 -1</clus>
<clus scale="  128.687">  1  6  2 -1</clus>
<clus scale="  128.687">  1  3  2 -1</clus>
</clustering>
</event>
<event>
 6    0  0.4390142E+002  0.8039947E+02  0.7546771E-02  0.1327922E+00
         21   -1    0    0  503  501  0.00000000000E+00  0.00000000000E+00  0.27983878161E+02  0.27983878161E+02  0.00000000000E+00 0. -1.
         21   -1    0    0  506  502 -0.00000000000E+00 -0.00000000000E+00 -0.19290743533E+04  0.19290743533E+04  0.00000000000E+00 0. -1.
         21    1    1    2  503  505 -0.75427760280E+02 -0.31233327402E+02 -0.25558294811E+03  0.26830488465E+03  0.00000000000E+00 0. -1.
         21    1    1    2  504  501 -0.64874272388E+01 -0.46460497694E+02 -0.10667942485E+03  0.11653825228E+03  0.00000000000E+00 0. -1.
         21    1    1    2  505  502  0.36815410307E+02 -0.23896927982E+02 -0.13661564488E+04  0.13668613245E+04  0.00000000000E+00 0. -1.
         21    1    1    2  506  504  0.45099777212E+02  0.10159075308E+03 -0.17267165334E+03  0.20535377007E+03  0.00000000000E+00 0. -1.
<scales pt_clust_3="80.39947" pt_clust_4="51.20798" pt_clust_5="43.89120" pt_clust_6="14000.00000"></scales>
<clustering>
<clus scale="   43.891">  2  5  1 -1</clus>
<clus scale="   51.208">  1  4  2 -1</clus>
<clus scale="   80.399">  2  3  1 -1</clus>
<clus scale="   51.208">  1  3  2 -1</clus>
</clustering>
</event>
<event>
 6    0  0.4390142E+002  0.1481982E+03  0.7546771E-02  0.1202705E+00
         21   -1    0    0  506  501  0.00000000000E+00  0.00000000000E+00  0.61655743998E+03  0.61655743998E+03  0.00000000000E+00 0.  1.
         21   -1    0    0  505  502 -0.00000000000E+00 -0.00000000000E+00 -0.76856734975E+03  0.76856734975E+03  0.00000000000E+00 0. -1.
         21    1    1    2  503  504 -0.22057718291E+03 -0.84818702672E+02  0.31185404823E+03  0.39128180809E+03  0.00000000000E+00 0.  1.
         21    1    1    2  504  501  0.13335035261E+03 -0.22753965591E+02  0.21979411088E+03  0.25808818390E+03  0.00000000000E+00 0.  1.
         21    1    1    2  505  503  0.13182185788E+03  0.12948969637E+03 -0.32654718162E+03  0.37520347214E+03  0.00000000000E+00 0. -1.
         21    1    1    2  506  502 -0.44595027583E+02 -0.21917028104E+02 -0.35711088724E+03  0.36055132560E+03  0.00000000000E+00 0. -1.
<scales pt_clust_3="14000.00000" pt_clust_4="133.40267" pt_clust_5="148.19821" pt_clust_6="49.68976"></scales>
<clustering>
<clus scale="   49.690">  2  6  1 -1</clus>
<clus scale="  133.403">  1  4  2 -1</clus>
<clus scale="  148.198">  2  5  1 -1</clus>
<clus scale="  133.403">  1  3  2 -1</clus>
</clustering>
</event>
<event>
 6    0  0.4390142E+002  0.9080573E+02  0.7546771E-02  0.1300912E+00
         21   -1    0    0  506  501  0.00000000000E+00  0.00000000000E+00  0.20337515590E+03  0.20337515590E+03  0.00000000000E+00 0. -1.
         21   -1    0    0  503  502 -0.00000000000E+00 -0.00000000000E+00 -0.73264878759E+03  0.73264878759E+03  0.00000000000E+00 0. -1.
         21    1    1    2  503  505  0.80397467644E+02  0.84238200363E+02 -0.64552562594E+03  0.65594448008E+03  0.00000000000E+00 0. -1.
         21    1    1    2  504  501 -0.41373622171E+02  0.22807276278E+02  0.32829666663E+01  0.47357431655E+02  0.00000000000E+00 0.  1.
         21    1    1    2  505  504 -0.34685257677E+02 -0.72577434613E+02  0.15713671291E+03  0.17652902781E+03  0.00000000000E+00 0. -1.
         21    1    1    2  506  502 -0.43385877964E+01 -0.34468042028E+02 -0.44167685333E+02  0.56193003951E+02  0.00000000000E+00 0. -1.
<scales pt_clust_3="90.80573" pt_clust_4="46.84048" pt_clust_5="14000.00000" pt_clust_6="34.74002"></scales>
<clustering>
<clus scale="   34.740">  2  6  1 -1</clus>
<clus scale="   46.840">  1  4  2 -1</clus>
<clus scale="   90.806">  2  3  1 -1</clus>
<clus scale="   46.840">  1  3  2 -1</clus>
</clustering>
</event>
<event>
 6    0  0.4390142E+002  0.7329401E+02  0.7546771E-02  0.1349237E+00
         21   -1    0    0  506  501  0.00000000000E+00  0.00000000000E+00  0.15879448642E+04  0.15879448642E+04  0.00000000000E+00 0.  1.
         21   -1    0    0  503  502 -0.00000000000E+00 -0.00000000000E+00 -0.15434942924E+03  0.15434942924E+03  0.00000000000E+00 0.  1.
         21    1    1    2  503  501  0.50269681618E+02  0.30384705595E+02 -0.26687784482E+02  0.64517509753E+02  0.00000000000E+00 0.  1.
         21    1    1    2  504  502 -0.11695816944E+03  0.57897694811E+01 -0.72522772295E+02  0.13773992642E+03  0.00000000000E+00 0.  1.
         21    1    1    2  505  504  0.31685847518E+02 -0.46950281864E+02  0.23557136692E+03  0.24228534997E+03  0.00000000000E+00 0.  1.
         21    1    1    2  506  505  0.35002640304E+02  0.10775806788E+02  0.12972346249E+04  0.12977515073E+04  0.00000000000E+00 0.  1.
<scales pt_clust_3="61.05554" pt_clust_4="14000.00000" pt_clust_5="73.29401" pt_clust_6="36.62380"></scales>
<clustering>
<clus scale="   36.624">  1  6  2 -1</clus>
<clus scale="   61.056">  2  3  1 -1</clus>
<clus scale="   73.294">  1  5  2 -1</clus>
<clus scale="   36.624">  1  3  2 -1</clus>
</clustering>
</event>
<event>
 6    0  0.4390142E+002  0.1129060E+03  0.7546771E-02  0.1255281E+00
         21   -1    0    0  503  501  0.00000000000E+00  0.00000000000E+00  0.68736523384E+03  0.68736523384E+03  0.00000000000E+00 0. -1.
         21   -1    0    0  505  502 -0.00000000000E+00 -0.00000000000E+00 -0.15952717287E+04  0.15952717287E+04  0.00000000000E+00 0.  1.
         21    1    1    2  503  504  0.65354703897E+02 -0.44064542489E+02  0.15777797430E+03  0.17637122895E+03  0.00000000000E+00 0. -1.
         21    1    1    2  504  502  0.54260824372E+02  0.67695396876E+02  0.40743916563E+03  0.41657361595E+03  0.00000000000E+00 0. -1.
         21    1    1    2  505  506 -0.66547097011E+01  0.35269485022E+02 -0.15436575180E+04  0.15440747245E+04  0.00000000000E+00 0.  1.
         21    1    1    2  506  501 -0.11296081857E+03 -0.58900339409E+02  0.70533883237E+02  0.14561739319E+03  0.00000000000E+00 0. -1.
<scales pt_clust_3="74.40175" pt_clust_4="14000.00000" pt_clust_5="35.89181" pt_clust_6="112.90603"></scales>
<clustering>
<clus scale="   35.892">  2  5  1 -1</clus>
<clus scale="   74.402">  1  3  2 -1</clus>
<clus scale="  112.906">  2  6  1 -1</clus>
<clus scale="   74.402">  1  3  2 -1</clus>
</clustering>
</event>
<event>
 6    0  0.4390142E+002  0.8784093E+02  0.7546771E-02  0.1308166E+00
         21   -1    0    0  504  501  0.00000000000E+00  0.00000000000E+00  0.24824698079E+03  0.24824698079E+03  0.00000000000E+00 0. -1.
         21   -1    0    0  503  502 -0.00000000000E+00 -0.00000000000E+00 -0.10999990418E+03  0.10999990418E+03  0.00000000000E+00 0. -1.
         21    1    1    2  503  501 -0.31879073129E+02  0.33840707658E+02  0.30864340359E+02  0.55803909399E+02  0.00000000000E+00 0. -1.
         21    1    1    2  504  506  0.56162856679E+02  0.69818686439E+02  0.14414427139E+03  0.16972473721E+03  0.00000000000E+00 0. -1.
         21    1    1    2  505  502  0.23537701843E+02 -0.51773509234E+02 -0.18890376141E+02  0.59928006618E+02  0.00000000000E+00 0. -1.
         21    1    1    2  506  505 -0.47821485393E+02 -0.51885884863E+02 -0.17871158994E+02  0.72790231741E+02  0.00000000000E+00 0. -1.
<scales pt_clust_3="46.49160" pt_clust_4="87.84093" pt_clust_5="52.48845" pt_clust_6="14000.00000"></scales>
<clustering>
<clus scale="   46.492">  1  3  2 -1</clus>
<clus scale="   52.488">  2  5  1 -1</clus>
<clus scale="   87.841">  1  4  2 -1</clus>
<clus scale="   46.492">  1  3  2 -1</clus>
</clustering>
</event>
<event>
 6    0  0.4390142E+002  0.1679051E+03  0.7546771E-02  0.1180050E+00
         21   -1    0    0  505  501  0.00000000000E+00  0.00000000000E+00  0.43510669557E+03  0.43510669557E+03  0.00000000000E+00 0. -1.
         21   -1    0    0  506  502 -0.00000000000E+00 -0.00000000000E+00 -0.31822952898E+03  0.31822952898E+03  0.00000000000E+00 0.  1.
         21    1    1    2  503  501 -0.33114315297E+02  0.68959085214E+02  0.18960850086E+03  0.20445854570E+03  0.00000000000E+00 0. -1.
         21    1    1    2  504  503  0.37301340758E+02  0.83628251381E+02  0.20093161464E+03  0.22081346928E+03  0.00000000000E+00 0. -1.
         21    1    1    2  505  502  0.31089820458E+02 -0.83438863339E+01 -0.42483307840E+02  0.53301302238E+02  0.00000000000E+00 0.  1.
         21    1    1    2  506  504 -0.35276845919E+02 -0.14424345026E+03 -0.23117964108E+03  0.27476290734E+03  0.00000000000E+00 0.  1.
<scales pt_clust_3="64.53955" pt_clust_4="64.53955" pt_clust_5="32.19002" pt_clust_6="152.17705"></scales>
<clustering>
<clus scale="   32.190">  2  5  1 -1</clus>
<clus scale="   64.540">  3  4 -1 -1</clus>
<clus scale="  152.177">  2  6  1 -1</clus>
<clus scale="  167.905">  1  3  2 -1</clus>
</clustering>
</event>
<event>
 6    0  0.4390142E+002  0.9845397E+02  0.7546771E-02  0.1283581E+00
         21   -1    0    0  504  501  0.00000000000E+00  0.00000000000E+00  0.24061401662E+04  0.24061401662E+04  0.00000000000E+00 0.  1.
         21   -1    0    0  506  502 -0.00000000000E+00 -0.00000000000E+00 -0.16571587385E+03  0.16571587385E+03  0.00000000000E+00 0. -1.
         21    1    1    2  503  501  0.45392978123E+02 -0.69816741798E+02  0.20011199915E+04  0.20028519966E+04  0.00000000000E+00 0.  1.
         21    1    1    2  504  505  0.29145476892E+02  0.97359220812E+01  0.22044912055E+03  0.22258046130E+03  0.00000000000E+00 0.  1.
         21    1    1    2  505  502  0.23761507840E+02  0.50085977230E+02  0.16271545495E+03  0.17189977792E+03  0.00000000000E+00 0.  1.
         21    1    1    2  506  503 -0.98299962855E+02  0.99948424862E+01 -0.14386027472E+03  0.17452380416E+03  0.00000000000E+00 0. -1.
<scales pt_clust_3="98.45397" pt_clust_4="30.72860" pt_clust_5="57.09219" pt_clust_6="14000.00000"></scales>
<clustering>
<clus scale="   30.729">  1  4  2 -1</clus>
<clus scale="   57.092">  1  5  2 -1</clus>
<clus scale="   98.454">  1  3  2 -1</clus>
<clus scale="   30.729">  1  3  2 -1</clus>
</clustering>
</event>
<event>
 6    0  0.4390142E+002  0.1354698E+03  0.7546771E-02  0.1219558E+00
         21   -1    0    0  505  501  0.00000000000E+00  0.00000000000E+00  0.45565143006E+03  0.45565143006E+03  0.00000000000E+00 0.  1.
         21   -1    0    0  501  502 -0.00000000000E+00 -0.00000000000E+00 -0.84430822383E+02  0.84430822383E+02  0.00000000000E+00 0.  1.
         21    1    1    2  503  504 -0.43353289063E+02  0.38206806239E+02 -0.51342358903E+01  0.58014033593E+02  0.00000000000E+00 0.  1.
         21    1    1    2  504  502 -0.14482675954E+01  0.82489718818E+02  0.31277112237E+01  0.82561696732E+02  0.00000000000E+00 0.  1.
         21    1    1    2  505  506  0.26175627347E+02 -0.17281952397E+02  0.14350211666E+03  0.14689005015E+03  0.00000000000E+00 0.  1.
         21    1    1    2  506  503  0.18625929312E+02 -0.10341457266E+03  0.22972501568E+03  0.25261647197E+03  0.00000000000E+00 0.  1.
<scales pt_clust_3="46.79826" pt_clust_4="46.79826" pt_clust_5="31.36605" pt_clust_6="123.16408"></scales>
<clustering>
<clus scale="   31.366">  1  5  2 -1</clus>
<clus scale="   46.798">  3  4 -1 -1</clus>
<clus scale="  123.164">  1  6  2 -1</clus>
<clus scale="   31.366">  1  3  2 -1</clus>
</clustering>
</event>
<event>
 6    0  0.4390142E+002  0.7252411E+02  0.7546771E-02  0.1351714E+00
         21   -1    0    0  503  501  0.00000000000E+00  0.00000000000E+00  0.16587278206E+04  0.16587278206E+04  0.00000000000E+00 0.  1.
         21   -1    0    0  505  502 -0.00000000000E+00 -0.00000000000E+00 -0.83333845007E+03  0.83333845007E+03  0.00000000000E+00 0. -1.
         21    1    1    2  503  506 -0.43925950034E+01  0.72265055756E+02  0.15250392081E+04  0.15267567322E+04  0.00000000000E+00 0.  1.
         21    1    1    2  504  501  0.28609175235E+02 -0.89239977900E+02 -0.10758442319E+03  0.14267679095E+03  0.00000000000E+00 0. -1.
         21    1    1    2  505  504  0.24727271921E+02  0.58211801153E+02 -0.69692301237E+03  0.69978692253E+03  0.00000000000E+00 0. -1.
         21    1    1    2  506  502 -0.48943852153E+02 -0.41236879009E+02  0.10485759802E+03  0.12284582498E+03  0.00000000000E+00 0.  1.
<scales pt_clust_3="72.52411" pt_clust_4="14000.00000" pt_clust_5="63.24596" pt_clust_6="60.27078"></scales>
<clustering>
<clus scale="   63.246">  2  5  1 -1</clus>
<clus scale="   60.271">  2  6  1 -1</clus>
<clus scale="   72.524">  1  3  2 -1</clus>
<clus scale="   72.524">  1  3  2 -1</clus>
</clustering>
</event>
<event>
 6    0  0.4390142E+002  0.1169575E+03  0.7546771E-02  0.1248202E+00
         21   -1    0    0  506  501  0.00000000000E+00  0.00000000000E+00  0.65034951913E+02  0.65034951913E+02  0.00000000000E+00 0. -1.
         21   -1    0    0  504  502 -0.00000000000E+00 -0.00000000000E+00 -0.16888880564E+04  0.16888880564E+04  0.00000000000E+00 0. -1.
         21    1    1    2  503  501  0.16917979106E+03 -0.13764043194E+02 -0.15879501616E+03  0.23243732004E+03  0.00000000000E+00 0. -1.
         21    1    1    2  504  503 -0.13664314386E+03 -0.32372418146E+02 -0.10010732588E+04  0.10108743699E+04  0.00000000000E+00 0. -1.
         21    1    1    2  505  502  0.33408531502E+02  0.40857311579E+02 -0.43532735931E+03  0.43851494803E+03  0.00000000000E+00 0. -1.
         21    1    1    2  506  505 -0.65945178697E+02  0.52791497611E+01 -0.28657470184E+02  0.72096370317E+02  0.00000000000E+00 0.  1.
<scales pt_clust_3="116.95745" pt_clust_4="14000.00000" pt_clust_5="52.77736" pt_clust_6="64.97079"></scales>
<clustering>
<clus scale="   52.777">  2  5  1 -1</clus>
<clus scale="   64.971">  1  6  2 -1</clus>
<clus scale="  116.957">  1  3  2 -1</clus>
<clus scale="   64.971">  1  3  2 -1</clus>
</clustering>
</event>
<event>
 6    0  0.4390142E+002  0.2185164E+03  0.7546771E-02  0.1134994E+00
         21   -1    0    0  506  501  0.00000000000E+00  0.00000000000E+00  0.51046764895E+02  0.51046764895E+02  0.00000000000E+00 0.  1.
         21   -1    0    0  504  502 -0.00000000000E+00 -0.00000000000E+00 -0.12992374994E+04  0.12992374994E+04  0.00000000000E+00 0.  1.
         21    1    1    2  503  501 -0.18795134832E+03  0.57347171856E+01 -0.26088272506E+03  0.32158730160E+03  0.00000000000E+00 0.  1.
         21    1    1    2  504  505  0.19715112020E+03  0.42607798063E+02 -0.84529007857E+03  0.86902203976E+03  0.00000000000E+00 0.  1.
         21    1    1    2  505  503 -0.31740199273E+02 -0.27386058393E+02 -0.88800343014E+02  0.98198459069E+02  0.00000000000E+00 0.  1.
         21    1    1    2  506  502  0.22540427393E+02 -0.20956456856E+02 -0.53217587815E+02  0.61476463820E+02  0.00000000000E+00 0.  1.
<scales pt_clust_3="35.37580" pt_clust_4="206.25408" pt_clust_5="35.37580" pt_clust_6="30.77733"></scales>
<clustering>
<clus scale="   30.777">  1  6  2 -1</clus>
<clus scale="   35.376">  3  5 -1 -1</clus>
<clus scale="  206.254">  2  4  1 -1</clus>
<clus scale="   30.777">  1  3  2 -1</clus>
</clustering>
</event>
<event>
 6    0  0.8131487E+002  0.1981144E+03  0.7546771E-02  0.1151340E+00
         21   -1    0    0  506  501  0.00000000000E+00  0.00000000000E+00  0.36457464624E+03  0.36457464624E+03  0.00000000000E+00 0.  1.
         21   -1    0    0  505  502 -0.00000000000E+00 -0.00000000000E+00 -0.10704604758E+04  0.10704604758E+04  0.00000000000E+00 0. -1.
         21    1    1    2  503  502 -0.36614244156E+02  0.40344624651E+02  0.33628173919E+01  0.54585713828E+02  0.00000000000E+00 0.  1.
         21    1    1    2  504  503 -0.60912674666E+02  0.21212619206E+02  0.57237362962E+02  0.86234823984E+02  0.00000000000E+00 0. -1.
         21    1    1    2  505  501  0.19877345912E+03 -0.14725821799E+02 -0.10083521851E+04  0.10278627666E+04  0.00000000000E+00 0. -1.
         21    1    1    2  506  504 -0.10124654029E+03 -0.46831422058E+02  0.24186617520E+03  0.26635181756E+03  0.00000000000E+00 0.  1.
<scales pt_clust_3="49.12682" pt_clust_4="49.12682" pt_clust_5="190.76704" pt_clust_6="111.55288"></scales>
<clustering>
<clus scale="   49.127">  3  4 -1 -1</clus>
<clus scale="  111.553">  1  6  2 -1</clus>
<clus scale="  190.767">  2  5  1 -1</clus>
<clus scale="  111.553">  1  3  2 -1</clus>
</clustering>
</event>
<event>
 6    0  0.4390142E+002  0.1442026E+03  0.7546771E-02  0.1207783E+00
         21   -1    0    0  503  501  0.00000000000E+00  0.00000000000E+00  0.15595110895E+03  0.15595110895E+03  0.00000000000E+00 0.  1.
         21   -1    0    0  506  502 -0.00000000000E+00 -0.00000000000E+00 -0.68739622775E+03  0.68739622775E+03  0.00000000000E+00 0. -1.
         21    1    1    2  503  504 -0.27256769837E+01  0.50508664811E+02 -0.38449924399E+02  0.63537006715E+02  0.00000000000E+00 0.  1.
         21    1    1    2  504  502 -0.12436460295E+03 -0.78402663688E+02 -0.58642315796E+03  0.60457063469E+03  0.00000000000E+00 0. -1.
         21    1    1    2  505  501  0.28330300855E+02 -0.19237122004E+02  0.51249334667E+01  0.34625680535E+02  0.00000000000E+00 0.  1.
         21    1    1    2  506  505  0.98759979080E+02  0.47131120880E+02  0.88303030087E+02  0.14061401476E+03  0.00000000000E+00 0.  1.
<scales pt_clust_3="48.73551" pt_clust_4="144.20256" pt_clust_5="34.24431" pt_clust_6="14000.00000"></scales>
<clustering>
<clus scale="   34.244">  1  5  2 -1</clus>
<clus scale="   48.736">  1  3  2 -1</clus>
<clus scale="  144.203">  2  4  1 -1</clus>
<clus scale="   34.244">  1  3  2 -1</clus>
</clustering>
</event>
<event>
 6    0  0.4390142E+002  0.8407874E+02  0.7546771E-02  0.1317859E+00
         21   -1    0    0  504  501  0.00000000000E+00  0.00000000000E+00  0.32028120350E+02  0.32028120350E+02  0.00000000000E+00 0.  1.
         21   -1    0    0  506  502 -0.00000000000E+00 -0.00000000000E+00 -0.72602302881E+03  0.72602302881E+03  0.00000000000E+00 0. -1.
         21    1    1    2  503  502 -0.53472885549E+02  0.20482362370E+02 -0.15778112620E+03  0.16785041091E+03  0.00000000000E+00 0.  1.
         21    1    1    2  504  503  0.12888196364E+03 -0.72447602508E+00 -0.39176749728E+03  0.41242315326E+03  0.00000000000E+00 0. -1.
         21    1    1    2  505  501 -0.54595500715E+02  0.20796126488E+01 -0.36526081498E+02  0.65720226085E+02  0.00000000000E+00 0.  1.
         21    1    1    2  506  505 -0.20813577380E+02 -0.21837498994E+02 -0.10792020349E+03  0.11205735891E+03  0.00000000000E+00 0.  1.
<scales pt_clust_3="14000.00000" pt_clust_4="84.07874" pt_clust_5="56.32340" pt_clust_6="30.16755"></scales>
<clustering>
<clus scale="   30.168">  2  6  1 -1</clus>
<clus scale="   56.323">  1  5  2 -1</clus>
<clus scale="   84.079">  1  4  2 -1</clus>
<clus scale="   56.323">  1  3  2 -1</clus>
</clustering>
</event>
<event>
 6    0  0.4390142E+002  0.1134697E+03  0.7546771E-02  0.1254276E+00
         21   -1    0    0  505  501  0.00000000000E+00  0.00000000000E+00  0.37007630416E+03  0.37007630416E+03  0.00000000000E+00 0. -1.
         21   -1    0    0  503  502 -0.00000000000E+00 -0.00000000000E+00 -0.25269729533E+04  0.25269729533E+04  0.00000000000E+00 0. -1.
         21    1    1    2  503  504 -0.35263109771E+02  0.50630079886E+02 -0.11232742847E+04  0.11249675598E+04  0.00000000000E+00 0. -1.
         21    1    1    2  504  501 -0.51081022325E+02 -0.91692014477E+02  0.15159049193E+03  0.18438105544E+03  0.00000000000E+00 0. -1.
         21    1    1    2  505  506  0.37807702885E+01  0.13283809424E+03  0.17620353588E+03  0.22069875297E+03  0.00000000000E+00 0. -1.
         21    1    1    2  506  502  0.82563361807E+02 -0.91776159648E+02 -0.13614163922E+04  0.13670018893E+04  0.00000000000E+00 0. -1.
<scales pt_clust_3="61.70002" pt_clust_4="14000.00000" pt_clust_5="113.46965" pt_clust_6="64.34176"></scales>
<clustering>
<clus scale="   61.700">  2  3  1 -1</clus>
<clus scale="   64.342">  2  6  1 -1</clus>
<clus scale="  113.470">  2  5  1 -1</clus>
<clus scale="  113.470">  1  3  2 -1</clus>
</clustering>
</event>
<event>
 6    0  0.4390142E+002  0.1320438E+03  0.7546771E-02  0.1224454E+00
         21   -1    0    0  506  501  0.00000000000E+00  0.00000000000E+00  0.28976731434E+03  0.28976731434E+03  0.00000000000E+00 0.  1.
         21   -1    0    0  505  502 -0.00000000000E+00 -0.00000000000E+00 -0.46057804731E+03  0.46057804731E+03  0.00000000000E+00 0.  1.
         21    1    1    2  503  501 -0.88915092995E+02 -0.88047437834E+02  0.22948601930E+03  0.26138492330E+03  0.00000000000E+00 0.  1.
         21    1    1    2  504  502  0.86346153445E+02 -0.72916410401E+01 -0.16161252895E+03  0.18337784969E+03  0.00000000000E+00 0.  1.
         21    1    1    2  505  503 -0.14762245657E+02  0.12542888357E+03 -0.23959851405E+03  0.27084640789E+03  0.00000000000E+00 0.  1.
         21    1    1    2  506  504  0.17331185207E+02 -0.30089804699E+02  0.91429072180E+00  0.34736180778E+02  0.00000000000E+00 0.  1.
<scales pt_clust_3="132.04379" pt_clust_4="87.45336" pt_clust_5="14000.00000" pt_clust_6="34.72415"></scales>
<clustering>
<clus scale="   34.724">  1  6  2 -1</clus>
<clus scale="   87.453">  2  4  1 -1</clus>
<clus scale="  132.044">  1  3  2 -1</clus>
<clus scale="   34.724">  1  3  2 -1</clus>
</clustering>
</event>
<event>
 6    0  0.4390142E+002  0.7874971E+02  0.7546771E-02  0.1332637E+00
         21   -1    0    0  506  501  0.00000000000E+00  0.00000000000E+00  0.69393544983E+03  0.69393544983E+03  0.00000000000E+00 0. -1.
         21   -1    0    0  504  502 -0.00000000000E+00 -0.00000000000E+00 -0.92495142622E+02  0.92495142622E+02  0.00000000000E+00 0. -1.
         21    1    1    2  503  502  0.17477861733E+01  0.32554172608E+02 -0.22725416647E+02  0.39740073886E+02  0.00000000000E+00 0. -1.
         21    1    1    2  504  505 -0.72343035309E+02  0.77660001193E+01 -0.26627505773E+02  0.77478058696E+02  0.00000000000E+00 0. -1.
         21    1    1    2  505  501  0.33289083386E+02  0.48060557028E+02  0.20254788333E+03  0.21081656779E+03  0.00000000000E+00 0. -1.
         21    1    1    2  506  503  0.37306165750E+02 -0.88380729755E+02  0.44824534629E+03  0.45839589207E+03  0.00000000000E+00 0. -1.
<scales pt_clust_3="32.60106" pt_clust_4="14000.00000" pt_clust_5="60.34771" pt_clust_6="78.74971"></scales>
<clustering>
<clus scale="   32.601">  2  3  1 -1</clus>
<clus scale="   60.348">  1  5  2 -1</clus>
<clus scale="   78.750">  1  6  2 -1</clus>
<clus scale="   60.348">  1  3  2 -1</clus>
</clustering>
</event>
<event>
 6    0  0.4390142E+002  0.4481405E+03  0.7546771E-02  0.1028278E+00
         21   -1    0    0  505  501  0.00000000000E+00  0.00000000000E+00  0.52026010016E+03  0.52026010016E+03  0.00000000000E+00 0. -1.
         21   -1    0    0  504  502 -0.00000000000E+00 -0.00000000000E+00 -0.60506938368E+03  0.60506938368E+03  0.00000000000E+00 0.  1.
         21    1    1    2  503  506 -0.46850293110E+01  0.32813534764E+03  0.22187907032E+03  0.39613770045E+03  0.00000000000E+00 0. -1.
         21    1    1    2  504  501 -0.82081156483E+02 -0.40538997359E+03 -0.36234892332E+03  0.54988643298E+03  0.00000000000E+00 0.  1.
         21    1    1    2  505  503  0.62371689175E+02  0.10787745635E+03  0.62748117722E+02  0.13951738055E+03  0.00000000000E+00 0. -1.
         21    1    1    2  506  502  0.24394496619E+02 -0.30622830396E+02 -0.70875482343E+01  0.39787969874E+02  0.00000000000E+00 0.  1.
<scales pt_clust_3="69.06908" pt_clust_4="433.99430" pt_clust_5="69.06908" pt_clust_6="39.15162"></scales>
<clustering>
<clus scale="   39.152">  2  6  1 -1</clus>
<clus scale="   69.069">  3  5 -1 -1</clus>
<clus scale="  433.994">  2  4  1 -1</clus>
<clus scale="  448.140">  1  3  2 -1</clus>
</clustering>
</event>
<event>
 6    0  0.4390142E+002  0.2878779E+03  0.7546771E-02  0.1091462E+00
         21   -1    0    0  504  501  0.00000000000E+00  0.00000000000E+00  0.42453080884E+03  0.42453080884E+03  0.00000000000E+00 0. -1.
         21   -1    0    0  506  502 -0.00000000000E+00 -0.00000000000E+00 -0.49482653557E+03  0.49482653557E+03  0.00000000000E+00 0. -1.
         21    1    1    2  503  505 -0.44523802502E+01 -0.52496599777E+02  0.28887157433E+02  0.60084811247E+02  0.00000000000E+00 0.  1.
         21    1    1    2  504  503  0.15746827794E+03 -0.17152574226E+03  0.28139395667E+03  0.36523950726E+03  0.00000000000E+00 0. -1.
         21    1    1    2  505  502 -0.16505750321E+03  0.19155741576E+03 -0.23778275101E+03  0.34710064762E+03  0.00000000000E+00 0. -1.
         21    1    1    2  506  501  0.12041605527E+02  0.32464926276E+02 -0.14279408982E+03  0.14693237828E+03  0.00000000000E+00 0. -1.
<scales pt_clust_3="49.43780" pt_clust_4="49.43780" pt_clust_5="268.04321" pt_clust_6="34.62617"></scales>
<clustering>
<clus scale="   34.626">  2  6  1 -1</clus>
<clus scale="   49.438">  3  4 -1 -1</clus>
<clus scale="  268.043">  2  5  1 -1</clus>
<clus scale="  287.878">  1  3  2 -1</clus>
</clustering>
</event>
<event>
 6    0  0.4390142E+002  0.1226263E+03  0.7546771E-02  0.1238826E+00
         21   -1    0    0  503  501  0.00000000000E+00  0.00000000000E+00  0.87150227104E+02  0.87150227104E+02  0.00000000000E+00 0.  1.
         21   -1    0    0  505  502 -0.00000000000E+00 -0.00000000000E+00 -0.25448517527E+03  0.25448517527E+03  0.00000000000E+00 0.  1.
         21    1    1    2  503  502 -0.12147427974E+02  0.37931676714E+02 -0.66181918729E+02  0.77242594929E+02  0.00000000000E+00 0.  1.
         21    1    1    2  504  501 -0.58950628684E+02 -0.10959942783E+02 -0.21184106558E+02  0.63592950385E+02  0.00000000000E+00 0.  1.
         21    1    1    2  505  506  0.12147731977E+03 -0.45463457270E+02 -0.47814568059E+02  0.13823855498E+03  0.00000000000E+00 0.  1.
         21    1    1    2  506  504 -0.50379263111E+02  0.18491723339E+02 -0.32154354819E+02  0.62561302077E+02  0.00000000000E+00 0.  1.
<scales pt_clust_3="39.82929" pt_clust_4="30.80341" pt_clust_5="118.22456" pt_clust_6="30.80341"></scales>
<clustering>
<clus scale="   30.803">  4  6 -1 -1</clus>
<clus scale="   39.829">  2  3  1 -1</clus>
<clus scale="  118.225">  2  5  1 -1</clus>
<clus scale="  122.626">  1  3  2 -1</clus>
</clustering>
</event>
<event>
 6    0  0.4390142E+002  0.8619598E+02  0.7546771E-02  0.1312334E+00
         21   -1    0    0  506  501  0.00000000000E+00  0.00000000000E+00  0.81474562188E+02  0.81474562188E+02  0.00000000000E+00 0. -1.
         21   -1    0    0  505  502 -0.00000000000E+00 -0.00000000000E+00 -0.11583946613E+04  0.11583946613E+04  0.00000000000E+00 0. -1.
         21    1    1    2  503  501 -0.22885817117E+02  0.22506563485E+02 -0.29937862164E+02  0.43892842423E+02  0.00000000000E+00 0.  1.
         21    1    1    2  504  502 -0.75568450136E+02 -0.96085335519E+00 -0.83678506003E+03  0.84019090127E+03  0.00000000000E+00 0. -1.
         21    1    1    2  505  503  0.10234245696E+02 -0.58160264368E+02 -0.24659620362E+03  0.25356861749E+03  0.00000000000E+00 0. -1.
         21    1    1    2  506  504  0.88220021557E+02  0.36614554238E+02  0.36399026730E+02  0.10221686227E+03  0.00000000000E+00 0. -1.
<scales pt_clust_3="32.09838" pt_clust_4="86.19598" pt_clust_5="57.83752" pt_clust_6="14000.00000"></scales>
<clustering>
<clus scale="   32.098">  1  3  2 -1</clus>
<clus scale="   57.838">  2  5  1 -1</clus>
<clus scale="   86.196">  2  4  1 -1</clus>
<clus scale="   32.098">  1  3  2 -1</clus>
</clustering>
</event>
<event>
 6    0  0.4390142E+002  0.8296439E+02  0.7546771E-02  0.1320843E+00
         21   -1    0    0  503  501  0.00000000000E+00  0.00000000000E+00  0.26148516466E+02  0.26148516466E+02  0.00000000000E+00 0. -1.
         21   -1    0    0  506  502 -0.00000000000E+00 -0.00000000000E+00 -0.11584241635E+04  0.11584241635E+04  0.00000000000E+00 0. -1.
         21    1    1    2  503  505  0.43894761035E+02  0.23405492705E+02 -0.11849957905E+03  0.12851738158E+03  0.00000000000E+00 0. -1.
         21    1    1    2  504  501 -0.48840675246E+01  0.32461682948E+02 -0.71843178711E+01  0.33604008669E+02  0.00000000000E+00 0. -1.
         21    1    1    2  505  502 -0.84551145801E+02  0.23605214983E+02 -0.48816769690E+03  0.49599778500E+03  0.00000000000E+00 0. -1.
         21    1    1    2  506  504  0.45540452291E+02 -0.79472390635E+02 -0.51842405319E+03  0.52645350468E+03  0.00000000000E+00 0. -1.
<scales pt_clust_3="55.30227" pt_clust_4="32.82705" pt_clust_5="14000.00000" pt_clust_6="82.96439"></scales>
<clustering>
<clus scale="   32.827">  1  4  2 -1</clus>
<clus scale="   55.302">  1  3  2 -1</clus>
<clus scale="   82.964">  1  6  2 -1</clus>
<clus scale="   32.827">  1  3  2 -1</clus>
</clustering>
</event>
<event>
 6    0  0.4390142E+002  0.1333810E+03  0.7546771E-02  0.1222523E+00
         21   -1    0    0  503  501  0.00000000000E+00  0.00000000000E+00  0.20113662291E+04  0.20113662291E+04  0.00000000000E+00 0. -1.
         21   -1    0    0  504  502 -0.00000000000E+00 -0.00000000000E+00 -0.10932423495E+04  0.10932423495E+04  0.00000000000E+00 0.  1.
         21    1    1    2  503  506  0.60710424999E+02  0.49256916504E+02 -0.18443397879E+03  0.20031947499E+03  0.00000000000E+00 0.  1.
         21    1    1    2  504  505 -0.61464448023E+02 -0.48295659007E+02  0.12046020224E+04  0.12071356102E+04  0.00000000000E+00 0. -1.
         21    1    1    2  505  501 -0.77328937295E+00 -0.55612966170E+02  0.79575241646E+03  0.79769374341E+03  0.00000000000E+00 0. -1.
         21    1    1    2  506  502  0.15273123969E+01  0.54651708674E+02 -0.89779658048E+03  0.89945975000E+03  0.00000000000E+00 0.  1.
<scales pt_clust_3="120.57434" pt_clust_4="48.10486" pt_clust_5="48.10486" pt_clust_6="54.67305"></scales>
<clustering>
<clus scale="   48.105">  4  5 -1 -1</clus>
<clus scale="   54.673">  2  6  1 -1</clus>
<clus scale="  120.574">  2  3  1 -1</clus>
<clus scale="  133.381">  1  3  2 -1</clus>
</clustering>
</event>
<event>
 6    0  0.4390142E+002  0.1187286E+03  0.7546771E-02  0.1245209E+00
         21   -1    0    0  506  501  0.00000000000E+00  0.00000000000E+00  0.19401981355E+03  0.19401981355E+03  0.00000000000E+00 0. -1.
         21   -1    0    0  504  502 -0.00000000000E+00 -0.00000000000E+00 -0.11003688040E+04  0.11003688040E+04  0.00000000000E+00 0. -1.
         21    1    1    2  503  501  0.33770258285E+02  0.72664281546E+02 -0.24237545562E+01  0.80164847305E+02  0.00000000000E+00 0. -1.
         21    1    1    2  504  503  0.31820376483E+02 -0.53652044321E+01 -0.58345818464E+03  0.58434987379E+03  0.00000000000E+00 0. -1.
         21    1    1    2  505  502  0.11095644061E+02 -0.11052686266E+03 -0.45540674192E+03  0.46875857462E+03  0.00000000000E+00 0. -1.
         21    1    1    2  506  505 -0.76686278829E+02  0.43227785545E+02  0.13493969068E+03  0.16111532182E+03  0.00000000000E+00 0. -1.
<scales pt_clust_3="80.84974" pt_clust_4="32.26952" pt_clust_5="14000.00000" pt_clust_6="118.72859"></scales>
<clustering>
<clus scale="   32.270">  2  4  1 -1</clus>
<clus scale="   80.850">  1  3  2 -1</clus>
<clus scale="  118.729">  1  6  2 -1</clus>
<clus scale="   80.850">  1  3  2 -1</clus>
</clustering>
</event>
<event>
 6    0  0.4390142E+002  0.1452383E+03  0.7546771E-02  0.1206449E+00
         21   -1    0    0  503  501  0.00000000000E+00  0.00000000000E+00  0.13043881244E+04  0.13043881244E+04  0.00000000000E+00 0. -1.
         21   -1    0    0  506  502 -0.00000000000E+00 -0.00000000000E+00 -0.23038545094E+04  0.23038545094E+04  0.00000000000E+00 0. -1.
         21    1    1    2  503  502  0.69175941935E+02 -0.15733195870E+02 -0.18146304272E+04  0.18160166386E+04  0.00000000000E+00 0. -1.
         21    1    1    2  504  501 -0.76992043120E+02 -0.17744032439E+02  0.63902022954E+03  0.64388623153E+03  0.00000000000E+00 0. -1.
         21    1    1    2  505  504 -0.61608080751E+02  0.22380625879E+02  0.65806293363E+03  0.66131934241E+03  0.00000000000E+00 0. -1.
         21    1    1    2  506  505  0.69424181936E+02  0.11096602430E+02 -0.48191912095E+03  0.48702042130E+03  0.00000000000E+00 0.  1.
<scales pt_clust_3="138.52361" pt_clust_4="39.75802" pt_clust_5="39.75802" pt_clust_6="70.30542"></scales>
<clustering>
<clus scale="   39.758">  4  5 -1 -1</clus>
<clus scale="   70.305">  2  6  1 -1</clus>
<clus scale="  138.524">  2  3  1 -1</clus>
<clus scale="  145.238">  1  3  2 -1</clus>
</clustering>
</event>
<event>
 6    0  0.4390142E+002  0.1129273E+03  0.7546771E-02  0.1255243E+00
         21   -1    0    0  504  501  0.00000000000E+00  0.00000000000E+00  0.98379358468E+02  0.98379358468E+02  0.00000000000E+00 0. -1.
         21   -1    0    0  506  502 -0.00000000000E+00 -0.00000000000E+00 -0.10913178052E+04  0.10913178052E+04  0.00000000000E+00 0. -1.
         21    1    1    2  503  501 -0.12627822398E+03 -0.46985307136E+01 -0.43314588164E+01  0.12643981801E+03  0.00000000000E+00 0. -1.
         21    1    1    2  504  505  0.96878805402E+02 -0.10218940271E+02 -0.48124488728E+02  0.10865494048E+03  0.00000000000E+00 0. -1.
         21    1    1    2  505  502  0.17963597829E+02 -0.39354413851E+02 -0.82858352442E+03  0.82971206914E+03  0.00000000000E+00 0. -1.
         21    1    1    2  506  503  0.11435820752E+02  0.54271884835E+02 -0.11189897475E+03  0.12489033601E+03  0.00000000000E+00 0.  1.
<scales pt_clust_3="14000.00000" pt_clust_4="112.92732" pt_clust_5="43.26038" pt_clust_6="41.40472"></scales>
<clustering>
<clus scale="   43.260">  2  5  1 -1</clus>
<clus scale="   41.405">  2  6  1 -1</clus>
<clus scale="  112.927">  2  4  1 -1</clus>
<clus scale="  112.927">  1  3  2 -1</clus>
</clustering>
</event>
<event>
 6    0  0.4390142E+002  0.2146995E+03  0.7546771E-02  0.1137898E+00
         21   -1    0    0  504  501  0.00000000000E+00  0.00000000000E+00  0.84832925916E+03  0.84832925916E+03  0.00000000000E+00 0. -1.
         21   -1    0    0  505  502 -0.00000000000E+00 -0.00000000000E+00 -0.13067561266E+03  0.13067561266E+03  0.00000000000E+00 0. -1.
         21    1    1    2  503  502 -0.75457737251E+02 -0.11545333137E+03  0.43593022948E+02  0.14465024537E+03  0.00000000000E+00 0.  1.
         21    1    1    2  504  506 -0.92595480396E+02 -0.35508478395E+02  0.15102042816E+03  0.18067081875E+03  0.00000000000E+00 0. -1.
         21    1    1    2  505  501  0.24642197647E+03  0.16983379984E+03  0.33568791248E+03  0.44972623299E+03  0.00000000000E+00 0. -1.
         21    1    1    2  506  503 -0.78368758820E+02 -0.18871990077E+02  0.18735228291E+03  0.20395757471E+03  0.00000000000E+00 0.  1.
<scales pt_clust_3="137.92513" pt_clust_4="31.96330" pt_clust_5="211.75216" pt_clust_6="31.96330"></scales>
<clustering>
<clus scale="   31.963">  4  6 -1 -1</clus>
<clus scale="  137.925">  2  3  1 -1</clus>
<clus scale="  211.752">  2  5  1 -1</clus>
<clus scale="  214.700">  1  3  2 -1</clus>
</clustering>
</event>
<event>
 6    0  0.4390142E+002  0.5825634E+03  0.7546771E-02  0.9942257E-01
         21   -1    0    0  503  501  0.00000000000E+00  0.00000000000E+00  0.27754548987E+04  0.27754548987E+04  0.00000000000E+00 0.  1.
         21   -1    0    0  504  502 -0.00000000000E+00 -0.00000000000E+00 -0.56924782864E+03  0.56924782864E+03  0.00000000000E+00 0. -1.
         21    1    1    2  503  505  0.48054793642E+03  0.16919340420E+03  0.23635622290E+04  0.24178459706E+04  0.00000000000E+00 0.  1.
         21    1    1    2  504  506  0.20186822192E+02 -0.39349738863E+02  0.38127450937E+01  0.44389714619E+02  0.00000000000E+00 0. -1.
         21    1    1    2  505  502 -0.54719826000E+03 -0.22294879916E+03 -0.33547241090E+03  0.67946584997E+03  0.00000000000E+00 0. -1.
         21    1    1    2  506  501  0.46463501396E+02  0.93105133825E+02  0.17430450693E+03  0.20300119222E+03  0.00000000000E+00 0. -1.
<scales pt_clust_3="582.56341" pt_clust_4="44.22567" pt_clust_5="14000.00000" pt_clust_6="103.37443"></scales>
<clustering>
<clus scale="   44.226">  2  4  1 -1</clus>
<clus scale="  103.374">  1  6  2 -1</clus>
<clus scale="  582.563">  1  3  2 -1</clus>
<clus scale="  103.374">  1  3  2 -1</clus>
</clustering>
</event>
<event>
 6    0  0.4390142E+002  0.1735224E+03  0.7546771E-02  0.1174224E+00
         21   -1    0    0  502  501  0.00000000000E+00  0.00000000000E+00  0.56726213865E+03  0.56726213865E+03  0.00000000000E+00 0.  1.
         21   -1    0    0  505  502 -0.00000000000E+00 -0.00000000000E+00 -0.22658436905E+03  0.22658436905E+03  0.00000000000E+00 0.  1.
         21    1    1    2  503  506  0.17527704055E+03 -0.94457450223E+02 -0.69490598487E+02  0.21088668551E+03  0.00000000000E+00 0.  1.
         21    1    1    2  504  501 -0.33578286485E+02  0.91032463675E+02  0.27123340428E+03  0.28806591323E+03  0.00000000000E+00 0.  1.
         21    1    1    2  505  503 -0.25571345766E+02 -0.27197062916E+02 -0.55185806545E+02  0.66626175033E+02  0.00000000000E+00 0.  1.
         21    1    1    2  506  504 -0.11612740830E+03  0.30622049464E+02  0.19412077035E+03  0.22826773393E+03  0.00000000000E+00 0.  1.
<scales pt_clust_3="14000.00000" pt_clust_4="96.19619" pt_clust_5="37.33060" pt_clust_6="173.52243"></scales>
<clustering>
<clus scale="   37.331">  2  5  1 -1</clus>
<clus scale="   96.196">  1  4  2 -1</clus>
<clus scale="  173.522">  1  6  2 -1</clus>
<clus scale="   96.196">  1  3  2 -1</clus>
</clustering>
</event>
<event>
 6    0  0.4390142E+002  0.7316849E+02  0.7546771E-02  0.1349638E+00
         21   -1    0    0  505  501  0.00000000000E+00  0.00000000000E+00  0.10079267301E+04  0.10079267301E+04  0.00000000000E+00 0. -1.
         21   -1    0    0  506  502 -0.00000000000E+00 -0.00000000000E+00 -0.10385999508E+03  0.10385999508E+03  0.00000000000E+00 0.  1.
         21    1    1    2  503  502 -0.23520911354E+02 -0.68277678877E+02 -0.71244452031E+02  0.10144381030E+03  0.00000000000E+00 0.  1.
         21    1    1    2  504  503  0.10420581827E+03  0.19602973519E+02  0.23431142421E+03  0.25718664943E+03  0.00000000000E+00 0.  1.
         21    1    1    2  505  504 -0.58823145961E+02 -0.18439037888E+02  0.41903373450E+03  0.42354389533E+03  0.00000000000E+00 0. -1.
         21    1    1    2  506  501 -0.21861760956E+02  0.67113743246E+02  0.32196602836E+03  0.32961237013E+03  0.00000000000E+00 0. -1.
<scales pt_clust_3="73.16849" pt_clust_4="14000.00000" pt_clust_5="61.64544" pt_clust_6="70.71223"></scales>
<clustering>
<clus scale="   61.645">  1  5  2 -1</clus>
<clus scale="   73.168">  2  3  1 -1</clus>
<clus scale="   70.712">  1  6  2 -1</clus>
<clus scale="   61.645">  1  3  2 -1</clus>
</clustering>
</event>
<event>
 6    0  0.4390142E+002  0.1521783E+03  0.7546771E-02  0.1197822E+00
         21   -1    0    0  505  501  0.00000000000E+00  0.00000000000E+00  0.49429512106E+03  0.49429512106E+03  0.00000000000E+00 0. -1.
         21   -1    0    0  503  502 -0.00000000000E+00 -0.00000000000E+00 -0.51740786563E+03  0.51740786563E+03  0.00000000000E+00 0. -1.
         21    1    1    2  503  501  0.30961855218E+02 -0.63144041012E+02 -0.30291263027E+03  0.31096923959E+03  0.00000000000E+00 0. -1.
         21    1    1    2  504  506 -0.11103615754E+03  0.60270867449E+02  0.42609991835E+03  0.44443531156E+03  0.00000000000E+00 0. -1.
         21    1    1    2  505  504 -0.31756018763E+02  0.10023443761E+02  0.31691200111E+02  0.45970058919E+02  0.00000000000E+00 0. -1.
         21    1    1    2  506  502  0.11183032109E+03 -0.71502701982E+01 -0.17799123276E+03  0.21032837663E+03  0.00000000000E+00 0. -1.
<scales pt_clust_3="70.12350" pt_clust_4="14000.00000" pt_clust_5="33.30036" pt_clust_6="152.17834"></scales>
<clustering>
<clus scale="   33.300">  1  5  2 -1</clus>
<clus scale="   70.124">  2  3  1 -1</clus>
<clus scale="  152.178">  2  6  1 -1</clus>
<clus scale="   33.300">  1  3  2 -1</clus>
</clustering>
</event>
<event>
 6    0  0.4390142E+002  0.1148395E+03  0.7546771E-02  0.1251862E+00
         21   -1    0    0  505  501  0.00000000000E+00  0.00000000000E+00  0.13051861346E+04  0.13051861346E+04  0.00000000000E+00 0. -1.
         21   -1    0    0  506  502 -0.00000000000E+00 -0.00000000000E+00 -0.41180523326E+02  0.41180523326E+02  0.00000000000E+00 0. -1.
         21    1    1    2  503  502  0.10132211000E+03 -0.36565364884E+02  0.12087193325E+03  0.16190497254E+03  0.00000000000E+00 0. -1.
         21    1    1    2  504  503 -0.44132597873E+02 -0.16946682812E+02  0.35848827425E+03  0.36159192335E+03  0.00000000000E+00 0. -1.
         21    1    1    2  505  504 -0.27627989438E+02 -0.67013217950E+02  0.57267970233E+03  0.57724874937E+03  0.00000000000E+00 0. -1.
         21    1    1    2  506  501 -0.29561522690E+02  0.12052526565E+03  0.21196570144E+03  0.24562101268E+03  0.00000000000E+00 0. -1.
<scales pt_clust_3="107.71813" pt_clust_4="37.43896" pt_clust_5="37.43896" pt_clust_6="105.06640"></scales>
<clustering>
<clus scale="   37.439">  4  5 -1 -1</clus>
<clus scale="  107.718">  2  3  1 -1</clus>
<clus scale="  105.066">  2  6  1 -1</clus>
<clus scale="  114.839">  1  3  2 -1</clus>
</clustering>
</event>
<event>
 6    0  0.4390142E+002  0.8364196E+02  0.7546771E-02  0.1319023E+00
         21   -1    0    0  503  501  0.00000000000E+00  0.00000000000E+00  0.57271120111E+03  0.57271120111E+03  0.00000000000E+00 0.  1.
         21   -1    0    0  506  502 -0.00000000000E+00 -0.00000000000E+00 -0.51596439899E+02  0.51596439899E+02  0.00000000000E+00 0.  1.
         21    1    1    2  503  504  0.64041091571E+02  0.51184884787E+01  0.24947627266E+03  0.25761574283E+03  0.00000000000E+00 0.  1.
         21    1    1    2  504  502 -0.20816521815E+02 -0.23998387663E+02 -0.84976609407E+01  0.32885565715E+02  0.00000000000E+00 0.  1.
         21    1    1    2  505  501  0.11846166941E+02 -0.66188806843E+02  0.17642674493E+03  0.18880594840E+03  0.00000000000E+00 0.  1.
         21    1    1    2  506  505 -0.55070736697E+02  0.85068706028E+02  0.10370940456E+03  0.14500038407E+03  0.00000000000E+00 0.  1.
<scales pt_clust_3="61.33112" pt_clust_4="31.76870" pt_clust_5="14000.00000" pt_clust_6="83.64196"></scales>
<clustering>
<clus scale="   31.769">  2  4  1 -1</clus>
<clus scale="   61.331">  1  3  2 -1</clus>
<clus scale="   83.642">  2  6  1 -1</clus>
<clus scale="   61.331">  1  3  2 -1</clus>
</clustering>
</event>
<event>
 6    0  0.4390142E+002  0.1543338E+03  0.7546771E-02  0.1195247E+00
         21   -1    0    0  503  501  0.00000000000E+00  0.00000000000E+00  0.95828563462E+02  0.95828563462E+02  0.00000000000E+00 0.  1.
         21   -1    0    0  504  502 -0.00000000000E+00 -0.00000000000E+00 -0.30084747360E+03  0.30084747360E+03  0.00000000000E+00 0.  1.
         21    1    1    2  503  505 -0.64029697205E+02  0.58766739732E+02 -0.32870156145E+02  0.92918130566E+02  0.00000000000E+00 0.  1.
         21    1    1    2  504  506  0.16093929179E+02  0.35076539140E+02 -0.28572778832E+02  0.48018557294E+02  0.00000000000E+00 0.  1.
         21    1    1    2  505  502 -0.27737743671E+02  0.39272690067E+02 -0.72333167905E+02  0.86855131041E+02  0.00000000000E+00 0.  1.
         21    1    1    2  506  501  0.75673511697E+02 -0.13311596894E+03 -0.71242807260E+02  0.16888421816E+03  0.00000000000E+00 0.  1.
<scales pt_clust_3="44.25576" pt_clust_4="38.59246" pt_clust_5="44.25576" pt_clust_6="143.53125"></scales>
<clustering>
<clus scale="   38.592">  2  4  1 -1</clus>
<clus scale="   44.256">  3  5 -1 -1</clus>
<clus scale="  143.531">  1  6  2 -1</clus>
<clus scale="  143.531">  1  3  2 -1</clus>
</clustering>
</event>
<event>
 6    0  0.4390142E+002  0.1401432E+03  0.7546771E-02  0.1213136E+00
         21   -1    0    0  504  501  0.00000000000E+00  0.00000000000E+00  0.33915706344E+03  0.33915706344E+03  0.00000000000E+00 0.  1.
         21   -1    0    0  503  502 -0.00000000000E+00 -0.00000000000E+00 -0.10389661549E+03  0.10389661549E+03  0.00000000000E+00 0.  1.
         21    1    1    2  503  506 -0.30135087280E+02 -0.12380245761E+03  0.22510981060E+02  0.12939055709E+03  0.00000000000E+00 0.  1.
         21    1    1    2  504  505  0.27202695260E+02  0.14790938266E+03  0.13555451171E+03  0.20246530012E+03  0.00000000000E+00 0.  1.
         21    1    1    2  505  502  0.33230294312E+02 -0.24027734489E+02  0.18173001977E+02  0.44853567144E+02  0.00000000000E+00 0. -1.
         21    1    1    2  506  501 -0.30297902292E+02 -0.79190562548E-01  0.59021953206E+02  0.66344254572E+02  0.00000000000E+00 0. -1.
<scales pt_clust_3="140.14320" pt_clust_4="14000.00000" pt_clust_5="38.26783" pt_clust_6="30.29801"></scales>
<clustering>
<clus scale="   30.298">  1  6  2 -1</clus>
<clus scale="   38.268">  2  5  1 -1</clus>
<clus scale="  140.143">  2  3  1 -1</clus>
<clus scale="   30.298">  1  3  2 -1</clus>
</clustering>
</event>
<event>
 6    0  0.4390142E+002  0.1553723E+03  0.7546771E-02  0.1194023E+00
         21   -1    0    0  506  501  0.00000000000E+00  0.00000000000E+00  0.18675223551E+03  0.18675223551E+03  0.00000000000E+00 0. -1.
         21   -1    0    0  504  502 -0.00000000000E+00 -0.00000000000E+00 -0.27460879197E+04  0.27460879197E+04  0.00000000000E+00 0.  1.
         21    1    1    2  503  501  0.57874450960E+02  0.11242312602E+03  0.67734296048E+02  0.14344457536E+03  0.00000000000E+00 0. -1.
         21    1    1    2  504  503  0.31945795745E+02 -0.10347855077E+01 -0.29726834760E+03  0.29898173043E+03  0.00000000000E+00 0.  1.
         21    1    1    2  505  502 -0.83765096278E+02 -0.14630516415E+03 -0.24030957522E+04  0.24090020727E+04  0.00000000000E+00 0.  1.
         21    1    1    2  506  505 -0.60551504273E+01  0.34916823637E+02  0.73294119546E+02  0.81411776664E+02  0.00000000000E+00 0. -1.
<scales pt_clust_3="14000.00000" pt_clust_4="31.96255" pt_clust_5="155.37232" pt_clust_6="35.42726"></scales>
<clustering>
<clus scale="   31.963">  2  4  1 -1</clus>
<clus scale="   35.427">  1  6  2 -1</clus>
<clus scale="  155.372">  2  5  1 -1</clus>
<clus scale="   35.427">  1  3  2 -1</clus>
</clustering>
</event>
<event>
 6    0  0.4390142E+002  0.2035564E+03  0.7546771E-02  0.1146773E+00
         21   -1    0    0  503  501  0.00000000000E+00  0.00000000000E+00  0.53126265254E+03  0.53126265254E+03  0.00000000000E+00 0.  1.
         21   -1    0    0  504  502 -0.00000000000E+00 -0.00000000000E+00 -0.33559879117E+03  0.33559879117E+03  0.00000000000E+00 0.  1.
         21    1    1    2  503  506 -0.37118318495E+02 -0.36689296494E+02  0.18923581070E+03  0.19630095796E+03  0.00000000000E+00 0.  1.
         21    1    1    2  504  501 -0.21628028167E+02  0.20800575914E+02 -0.62479718523E+01  0.30650819125E+02  0.00000000000E+00 0. -1.
         21    1    1    2  505  502  0.20028541706E+03  0.39729605809E+02 -0.26069933778E+03  0.33114473358E+03  0.00000000000E+00 0.  1.
         21    1    1    2  506  505 -0.14153907040E+03 -0.23840885229E+02  0.27337536030E+03  0.30876493304E+03  0.00000000000E+00 0.  1.
<scales pt_clust_3="44.56900" pt_clust_4="30.00726" pt_clust_5="189.56557" pt_clust_6="44.56900"></scales>
<clustering>
<clus scale="   30.007">  2  4  1 -1</clus>
<clus scale="   44.569">  3  6 -1 -1</clus>
<clus scale="  189.566">  2  5  1 -1</clus>
<clus scale="  203.556">  1  3  2 -1</clus>
</clustering>
</event>
<event>
 6    0  0.4390142E+002  0.1172664E+03  0.7546771E-02  0.1247676E+00
         21   -1    0    0  504  501  0.00000000000E+00  0.00000000000E+00  0.10280171540E+03  0.10280171540E+03  0.00000000000E+00 0.  1.
         21   -1    0    0  505  502 -0.00000000000E+00 -0.00000000000E+00 -0.10933626029E+04  0.10933626029E+04  0.00000000000E+00 0.  1.
         21    1    1    2  503  502 -0.37900882330E+02  0.73475766992E+02 -0.20700054484E+03  0.22289995689E+03  0.00000000000E+00 0.  1.
         21    1    1    2  504  503  0.11106269838E+03  0.20139616033E+02  0.32224014243E+01  0.11291993171E+03  0.00000000000E+00 0.  1.
         21    1    1    2  505  506 -0.67409611253E+02 -0.12987073012E+03 -0.80581700451E+03  0.81899420449E+03  0.00000000000E+00 0.  1.
         21    1    1    2  506  501 -0.57522047996E+01  0.36255347094E+02  0.19034260445E+02  0.41350225194E+02  0.00000000000E+00 0.  1.
<scales pt_clust_3="86.50071" pt_clust_4="117.26643" pt_clust_5="14000.00000" pt_clust_6="36.70883"></scales>
<clustering>
<clus scale="   36.709">  1  6  2 -1</clus>
<clus scale="   86.501">  2  3  1 -1</clus>
<clus scale="  117.266">  1  4  2 -1</clus>
<clus scale="   36.709">  1  3  2 -1</clus>
</clustering>
</event>
<event>
 6    0  0.4390142E+002  0.6748248E+02  0.7546771E-02  0.1368869E+00
         21   -1    0    0  506  501  0.00000000000E+00  0.00000000000E+00  0.18034357404E+03  0.18034357404E+03  0.00000000000E+00 0.  1.
         21   -1    0    0  503  502 -0.00000000000E+00 -0.00000000000E+00 -0.59943680078E+03  0.59943680078E+03  0.00000000000E+00 0.  1.
         21    1    1    2  503  501 -0.43166866767E+02  0.30753487987E+02 -0.25017197217E+02  0.58609005847E+02  0.00000000000E+00 0.  1.
         21    1    1    2  504  502 -0.35833200141E+02  0.55718381130E+02 -0.50232258798E+03  0.50667202273E+03  0.00000000000E+00 0.  1.
         21    1    1    2  505  504  0.73869583272E+02 -0.12459563358E+03  0.97338469890E+02  0.17451522845E+03  0.00000000000E+00 0.  1.
         21    1    1    2  506  505  0.51304836351E+01  0.38123764466E+02  0.10908088561E+02  0.39984117790E+02  0.00000000000E+00 0. -1.
<scales pt_clust_3="55.07074" pt_clust_4="14000.00000" pt_clust_5="67.48248" pt_clust_6="38.46743"></scales>
<clustering>
<clus scale="   38.467">  1  6  2 -1</clus>
<clus scale="   55.071">  1  3  2 -1</clus>
<clus scale="   67.482">  1  5  2 -1</clus>
<clus scale="   38.467">  1  3  2 -1</clus>
</clustering>
</event>
<event>
 6    0  0.4390142E+002  0.8424074E+02  0.7546771E-02  0.1317430E+00
         21   -1    0    0  504  501  0.00000000000E+00  0.00000000000E+00  0.12036678089E+04  0.12036678089E+04  0.00000000000E+00 0. -1.
         21   -1    0    0  506  502 -0.00000000000E+00 -0.00000000000E+00 -0.83287058842E+03  0.83287058842E+03  0.00000000000E+00 0.  1.
         21    1    1    2  503  501  0.48182908619E+02 -0.52286227241E+02  0.42988603667E+03  0.43572634389E+03  0.00000000000E+00 0. -1.
         21    1    1    2  504  505  0.31435139279E+02  0.34329771395E+02  0.72727088594E+03  0.72875897437E+03  0.00000000000E+00 0. -1.
         21    1    1    2  505  502 -0.10505262696E+03  0.95735034829E+02 -0.84321119513E+02  0.16526131587E+03  0.00000000000E+00 0.  1.
         21    1    1    2  506  503  0.25434579067E+02 -0.77778578983E+02 -0.70203858257E+03  0.70679176324E+03  0.00000000000E+00 0.  1.
<scales pt_clust_3="79.61911" pt_clust_4="46.54784" pt_clust_5="84.24074" pt_clust_6="14000.00000"></scales>
<clustering>
<clus scale="   46.548">  1  4  2 -1</clus>
<clus scale="   79.619">  1  3  2 -1</clus>
<clus scale="   84.241">  1  5  2 -1</clus>
<clus scale="   46.548">  1  3  2 -1</clus>
</clustering>
</event>
<event>
 6    0  0.4390142E+002  0.1188395E+03  0.7546771E-02  0.1245024E+00
         21   -1    0    0  505  501  0.00000000000E+00  0.00000000000E+00  0.16894940910E+03  0.16894940910E+03  0.00000000000E+00 0. -1.
         21   -1    0    0  506  502 -0.00000000000E+00 -0.00000000000E+00 -0.39667265222E+03  0.39667265222E+03  0.00000000000E+00 0. -1.
         21    1    1    2  503  504  0.38520422630E+02  0.10443075811E+03 -0.21531981636E+03  0.24238859197E+03  0.00000000000E+00 0. -1.
         21    1    1    2  504  501  0.31542891516E+01 -0.74938597000E+02  0.10902115423E+03  0.13233047620E+03  0.00000000000E+00 0. -1.
         21    1    1    2  505  502  0.11381129400E+02 -0.58519898998E+02 -0.51470287387E+01  0.59838119873E+02  0.00000000000E+00 0.  1.
         21    1    1    2  506  503 -0.53055841182E+02  0.29027737886E+02 -0.11627755225E+03  0.13106487328E+03  0.00000000000E+00 0. -1.
<scales pt_clust_3="14000.00000" pt_clust_4="118.83948" pt_clust_5="59.61635" pt_clust_6="58.53865"></scales>
<clustering>
<clus scale="   59.616">  1  5  2 -1</clus>
<clus scale="   58.539">  2  6  1 -1</clus>
<clus scale="  118.839">  1  4  2 -1</clus>
<clus scale="   59.616">  1  3  2 -1</clus>
</clustering>
</event>
<event>
 6    0  0.4390142E+002  0.8587460E+02  0.7546771E-02  0.1313161E+00
         21   -1    0    0  502  501  0.00000000000E+00  0.00000000000E+00  0.37886137641E+02  0.37886137641E+02  0.00000000000E+00 0.  1.
         21   -1    0    0  504  502 -0.00000000000E+00 -0.00000000000E+00 -0.25268950534E+04  0.25268950534E+04  0.00000000000E+00 0.  1.
         21    1    1    2  503  505 -0.58302001119E+02 -0.46896444041E+02 -0.18015192383E+02  0.76960684474E+02  0.00000000000E+00 0.  1.
         21    1    1    2  504  506 -0.32337630975E+02  0.60671343543E+02 -0.15535411424E+04  0.15550616758E+04  0.00000000000E+00 0.  1.
         21    1    1    2  505  501  0.17597206362E+02 -0.36467173812E+02 -0.63001759414E+02  0.74891509044E+02  0.00000000000E+00 0. -1.
         21    1    1    2  506  503  0.73042425732E+02  0.22692274311E+02 -0.85445082153E+03  0.85786732172E+03  0.00000000000E+00 0. -1.
<scales pt_clust_3="14000.00000" pt_clust_4="67.78827" pt_clust_5="40.49094" pt_clust_6="85.87460"></scales>
<clustering>
<clus scale="   40.491">  1  5  2 -1</clus>
<clus scale="   67.788">  2  4  1 -1</clus>
<clus scale="   85.875">  2  6  1 -1</clus>
<clus scale="   40.491">  1  3  2 -1</clus>
</clustering>
</event>
<event>
 6    0  0.4390142E+002  0.1504926E+03  0.7546771E-02  0.1199869E+00
         21   -1    0    0  506  501  0.00000000000E+00  0.00000000000E+00  0.46212155866E+03  0.46212155866E+03  0.00000000000E+00 0. -1.
         21   -1    0    0  503  502 -0.00000000000E+00 -0.00000000000E+00 -0.72614675190E+02  0.72614675190E+02  0.00000000000E+00 0. -1.
         21    1    1    2  503  504 -0.55454284337E+02  0.30267204127E+01  0.12966827491E+03  0.14106098045E+03  0.00000000000E+00 0. -1.
         21    1    1    2  504  505 -0.38029104735E+02  0.28472843815E+02  0.73847278451E+02  0.87808519954E+02  0.00000000000E+00 0. -1.
         21    1    1    2  505  501 -0.26280362978E+02  0.25680120822E+02  0.16796200693E+03  0.17193417885E+03  0.00000000000E+00 0.  1.
         21    1    1    2  506  502  0.11976375205E+03 -0.57179685049E+02  0.18029323182E+02  0.13393255460E+03  0.00000000000E+00 0. -1.
<scales pt_clust_3="33.58869" pt_clust_4="32.45417" pt_clust_5="33.58869" pt_clust_6="132.71350"></scales>
<clustering>
<clus scale="   32.454">  3  4 -1 -1</clus>
<clus scale="   33.589">  3  5 -1 -1</clus>
<clus scale="  132.713">  2  6  1 -1</clus>
<clus scale="  150.493">  1  3  2 -1</clus>
</clustering>
</event>
<event>
 6    0  0.4390142E+002  0.1048317E+03  0.7546771E-02  0.1270452E+00
         21   -1    0    0  506  501  0.00000000000E+00  0.00000000000E+00  0.57679369834E+03  0.57679369834E+03  0.00000000000E+00 0.  1.
         21   -1    0    0  504  502 -0.00000000000E+00 -0.00000000000E+00 -0.59060094424E+02  0.59060094424E+02  0.00000000000E+00 0.  1.
         21    1    1    2  503  502 -0.13163528598E+03  0.25761815655E+02  0.14108620688E+03  0.19467110066E+03  0.00000000000E+00 0.  1.
         21    1    1    2  504  505  0.24240071212E+02 -0.20638714756E+02 -0.13889276260E+01  0.31866388548E+02  0.00000000000E+00 0. -1.
         21    1    1    2  505  501  0.41175689731E+02  0.53524708302E+02  0.18621855602E+03  0.19808503838E+03  0.00000000000E+00 0.  1.
         21    1    1    2  506  503  0.66219525038E+02 -0.58647809201E+02  0.19181776865E+03  0.21123126518E+03  0.00000000000E+00 0.  1.
<scales pt_clust_3="14000.00000" pt_clust_4="31.83611" pt_clust_5="67.45623" pt_clust_6="104.83173"></scales>
<clustering>
<clus scale="   31.836">  2  4  1 -1</clus>
<clus scale="   67.456">  1  5  2 -1</clus>
<clus scale="  104.832">  1  6  2 -1</clus>
<clus scale="   67.456">  1  3  2 -1</clus>
</clustering>
</event>
<event>
 6    0  0.4390142E+002  0.7819094E+02  0.7546771E-02  0.1334265E+00
         21   -1    0    0  505  501  0.00000000000E+00  0.00000000000E+00  0.23913364426E+03  0.23913364426E+03  0.00000000000E+00 0. -1.
         21   -1    0    0  503  502 -0.00000000000E+00 -0.00000000000E+00 -0.29564864185E+03  0.29564864185E+03  0.00000000000E+00 0. -1.
         21    1    1    2  503  506 -0.83619419197E+02 -0.19662672188E+02 -0.10103305972E+03  0.13261412859E+03  0.00000000000E+00 0. -1.
         21    1    1    2  504  502  0.71203503122E+02 -0.42260721618E+02 -0.99665781846E+02  0.12957305090E+03  0.00000000000E+00 0. -1.
         21    1    1    2  505  504  0.63358163233E+02 -0.29252389585E+00  0.17528079960E+03  0.18638052775E+03  0.00000000000E+00 0. -1.
         21    1    1    2  506  501 -0.50942247158E+02  0.62215917702E+02 -0.31096955617E+02  0.86214578869E+02  0.00000000000E+00 0. -1.
<scales pt_clust_3="78.19094" pt_clust_4="14000.00000" pt_clust_5="63.35884" pt_clust_6="65.53152"></scales>
<clustering>
<clus scale="   63.359">  1  5  2 -1</clus>
<clus scale="   65.532">  1  6  2 -1</clus>
<clus scale="   78.191">  1  3  2 -1</clus>
<clus scale="   63.359">  1  3  2 -1</clus>
</clustering>
</event>
<event>
 6    0  0.4390142E+002  0.7506660E+02  0.7546771E-02  0.1343665E+00
         21   -1    0    0  504  501  0.00000000000E+00  0.00000000000E+00  0.62917878764E+03  0.62917878764E+03  0.00000000000E+00 0.  1.
         21   -1    0    0  503  502 -0.00000000000E+00 -0.00000000000E+00 -0.11918980615E+04  0.11918980615E+04  0.00000000000E+00 0.  1.
         21    1    1    2  503  506 -0.42120458589E+02  0.16680376302E+02 -0.10487760423E+04  0.10497540450E+04  0.00000000000E+00 0.  1.
         21    1    1    2  504  505 -0.63153903469E+02 -0.15370184866E+02  0.15558694873E+03  0.16861778293E+03  0.00000000000E+00 0. -1.
         21    1    1    2  505  502  0.88724912787E+02  0.43598796125E+02 -0.11672116882E+03  0.15296011383E+03  0.00000000000E+00 0. -1.
         21    1    1    2  506  501  0.16549449271E+02 -0.44908987562E+02  0.44719098859E+03  0.44974490738E+03  0.00000000000E+00 0.  1.
<scales pt_clust_3="45.30307" pt_clust_4="75.06660" pt_clust_5="14000.00000" pt_clust_6="47.59172"></scales>
<clustering>
<clus scale="   45.303">  2  3  1 -1</clus>
<clus scale="   47.592">  1  6  2 -1</clus>
<clus scale="   75.067">  1  4  2 -1</clus>
<clus scale="   47.592">  1  3  2 -1</clus>
</clustering>
</event>
<event>
 6    0  0.4390142E+002  0.9654997E+02  0.7546771E-02  0.1287723E+00
         21   -1    0    0  504  501  0.00000000000E+00  0.00000000000E+00  0.18894276073E+04  0.18894276073E+04  0.00000000000E+00 0.  1.
         21   -1    0    0  506  502 -0.00000000000E+00 -0.00000000000E+00 -0.39307244041E+03  0.39307244041E+03  0.00000000000E+00 0.  1.
         21    1    1    2  503  505 -0.14516795709E+02 -0.56983715899E+02  0.14496028403E+03  0.15643326111E+03  0.00000000000E+00 0.  1.
         21    1    1    2  504  503  0.21102562472E+02  0.26093383878E+02  0.16906301363E+04  0.16909631695E+04  0.00000000000E+00 0.  1.
         21    1    1    2  505  502  0.64896643784E+02  0.92236976121E+02 -0.37256337531E+02  0.11877402420E+03  0.00000000000E+00 0.  1.
         21    1    1    2  506  501 -0.71482410547E+02 -0.61346644100E+02 -0.30197891585E+03  0.31632959296E+03  0.00000000000E+00 0.  1.
<scales pt_clust_3="37.21723" pt_clust_4="33.55865" pt_clust_5="14000.00000" pt_clust_6="96.54997"></scales>
<clustering>
<clus scale="   33.559">  1  4  2 -1</clus>
<clus scale="   37.217">  1  3  2 -1</clus>
<clus scale="   96.550">  2  6  1 -1</clus>
<clus scale="   33.559">  1  3  2 -1</clus>
</clustering>
</event>
<event>
 6    0  0.4390142E+002  0.1661217E+03  0.7546771E-02  0.1181954E+00
         21   -1    0    0  506  501  0.00000000000E+00  0.00000000000E+00  0.60309076689E+03  0.60309076689E+03  0.00000000000E+00 0. -1.
         21   -1    0    0  503  502 -0.00000000000E+00 -0.00000000000E+00 -0.23521837370E+03  0.23521837370E+03  0.00000000000E+00 0. -1.
         21    1    1    2  503  504 -0.66020714493E+01 -0.65712518779E+02 -0.15887906217E+02  0.67927520459E+02  0.00000000000E+00 0. -1.
         21    1    1    2  504  505  0.10335291314E+03 -0.54651167653E+02  0.29007960669E+03  0.31275350197E+03  0.00000000000E+00 0. -1.
         21    1    1    2  505  501  0.35515095181E+02 -0.92756712373E+01  0.22666945483E+03  0.22962230253E+03  0.00000000000E+00 0. -1.
         21    1    1    2  506  502 -0.13226593687E+03  0.12963935767E+03 -0.13298876212E+03  0.22800581563E+03  0.00000000000E+00 0. -1.
<scales pt_clust_3="66.04334" pt_clust_4="34.40851" pt_clust_5="34.40851" pt_clust_6="154.35504"></scales>
<clustering>
<clus scale="   34.409">  4  5 -1 -1</clus>
<clus scale="   66.043">  2  3  1 -1</clus>
<clus scale="  154.355">  2  6  1 -1</clus>
<clus scale="  166.122">  1  3  2 -1</clus>
</clustering>
</event>
<event>
 6    0  0.4390142E+002  0.1701126E+03  0.7546771E-02  0.1177731E+00
         21   -1    0    0  505  501  0.00000000000E+00  0.00000000000E+00  0.37392242909E+03  0.37392242909E+03  0.00000000000E+00 0. -1.
         21   -1    0    0  504  502 -0.00000000000E+00 -0.00000000000E+00 -0.22509069464E+03  0.22509069464E+03  0.00000000000E+00 0. -1.
         21    1    1    2  503  502  0.31860423686E+02 -0.26616331250E+02 -0.89269922169E+02  0.98451179224E+02  0.00000000000E+00 0. -1.
         21    1    1    2  504  501 -0.26737245191E+01 -0.64376552536E+02  0.10121677778E+03  0.11998468829E+03  0.00000000000E+00 0. -1.
         21    1    1    2  505  506  0.79216912240E+02  0.19137389585E+03  0.72919374831E+02  0.21958260956E+03  0.00000000000E+00 0. -1.
         21    1    1    2  506  503 -0.10840361141E+03 -0.10038101206E+03  0.63965504010E+02  0.16099464665E+03  0.00000000000E+00 0. -1.
<scales pt_clust_3="41.51525" pt_clust_4="66.28100" pt_clust_5="170.11257" pt_clust_6="14000.00000"></scales>
<clustering>
<clus scale="   41.515">  2  3  1 -1</clus>
<clus scale="   66.281">  1  4  2 -1</clus>
<clus scale="  170.113">  1  5  2 -1</clus>
<clus scale="   66.281">  1  3  2 -1</clus>
</clustering>
</event>
<event>
 6    0  0.4390142E+002  0.9694404E+02  0.7546771E-02  0.1286857E+00
         21   -1    0    0  504  501  0.00000000000E+00  0.00000000000E+00  0.19062007562E+04  0.19062007562E+04  0.00000000000E+00 0. -1.
         21   -1    0    0  506  502 -0.00000000000E+00 -0.00000000000E+00 -0.39818966164E+02  0.39818966164E+02  0.00000000000E+00 0.  1.
         21    1    1    2  503  501  0.32469624402E+02 -0.12122175876E+02  0.22572037042E+03  0.22836573578E+03  0.00000000000E+00 0. -1.
         21    1    1    2  504  505  0.56443182673E+02 -0.29753080506E+02  0.14871830162E+04  0.14885511084E+04  0.00000000000E+00 0. -1.
         21    1    1    2  505  502 -0.12329387116E+03  0.39792503899E+02  0.92916316310E+02  0.15943106306E+03  0.00000000000E+00 0.  1.
         21    1    1    2  506  503  0.34381064088E+02  0.20827524827E+01  0.60562087081E+02  0.69671815086E+02  0.00000000000E+00 0.  1.
<scales pt_clust_3="35.84330" pt_clust_4="14000.00000" pt_clust_5="96.94404" pt_clust_6="34.44409"></scales>
<clustering>
<clus scale="   34.444">  2  6  1 -1</clus>
<clus scale="   35.843">  1  3  2 -1</clus>
<clus scale="   96.944">  2  5  1 -1</clus>
<clus scale="   35.843">  1  3  2 -1</clus>
</clustering>
</event>
<event>
 6    0  0.4390142E+002  0.1357198E+03  0.7546771E-02  0.1219207E+00
         21   -1    0    0  504  501  0.00000000000E+00  0.00000000000E+00  0.99378057566E+02  0.99378057566E+02  0.00000000000E+00 0.  1.
         21   -1    0    0  503  502 -0.00000000000E+00 -0.00000000000E+00 -0.17918322552E+04  0.17918322552E+04  0.00000000000E+00 0. -1.
         21    1    1    2  503  501 -0.17581893848E+02  0.51132664567E+02 -0.36313163449E+03  0.36713520172E+03  0.00000000000E+00 0. -1.
         21    1    1    2  504  505 -0.11539521400E+03 -0.76287549221E+02  0.39409056844E+02  0.14383643259E+03  0.00000000000E+00 0.  1.
         21    1    1    2  505  506  0.89350747944E+02 -0.36151584863E+00 -0.12177263225E+04  0.12210000341E+04  0.00000000000E+00 0. -1.
         21    1    1    2  506  502  0.43626359903E+02  0.25516400503E+02 -0.15100529750E+03  0.15923864432E+03  0.00000000000E+00 0.  1.
<scales pt_clust_3="57.36467" pt_clust_4="14000.00000" pt_clust_5="135.71981" pt_clust_6="50.54054"></scales>
<clustering>
<clus scale="   50.541">  2  6  1 -1</clus>
<clus scale="   57.365">  2  3  1 -1</clus>
<clus scale="  135.720">  2  5  1 -1</clus>
<clus scale="  135.720">  1  3  2 -1</clus>
</clustering>
</event>
<event>
 6    0  0.4390142E+002  0.2984930E+03  0.7546771E-02  0.1085996E+00
         21   -1    0    0  503  501  0.00000000000E+00  0.00000000000E+00  0.79470116122E+02  0.79470116122E+02  0.00000000000E+00 0. -1.
         21   -1    0    0  505  502 -0.00000000000E+00 -0.00000000000E+00 -0.15414579616E+04  0.15414579616E+04  0.00000000000E+00 0. -1.
         21    1    1    2  503  504  0.61251880748E+02 -0.10710139512E+00 -0.14953624275E+03  0.16159483984E+03  0.00000000000E+00 0.  1.
         21    1    1    2  504  506  0.18347719493E+03 -0.17823129415E+03 -0.51620000398E+03  0.57610131000E+03  0.00000000000E+00 0. -1.
         21    1    1    2  505  501 -0.17354640324E+03  0.21008353154E+03 -0.43220167587E+03  0.51093221950E+03  0.00000000000E+00 0. -1.
         21    1    1    2  506  502 -0.71182672437E+02 -0.31745136001E+02 -0.36404992285E+03  0.37229970835E+03  0.00000000000E+00 0. -1.
<scales pt_clust_3="47.17541" pt_clust_4="47.17541" pt_clust_5="282.49617" pt_clust_6="77.94053"></scales>
<clustering>
<clus scale="   47.175">  3  4 -1 -1</clus>
<clus scale="   77.941">  2  6  1 -1</clus>
<clus scale="  282.496">  1  5  2 -1</clus>
<clus scale="  282.496">  1  3  2 -1</clus>
</clustering>
</event>
<event>
 6    0  0.4390142E+002  0.7269162E+02  0.7546771E-02  0.1351172E+00
         21   -1    0    0  506  501  0.00000000000E+00  0.00000000000E+00  0.96874164693E+03  0.96874164693E+03  0.00000000000E+00 0. -1.
         21   -1    0    0  504  502 -0.00000000000E+00 -0.00000000000E+00 -0.32050812669E+03  0.32050812669E+03  0.00000000000E+00 0. -1.
         21    1    1    2  503  502 -0.32514031167E+02 -0.64563388197E+02 -0.29975655879E+03  0.30834978167E+03  0.00000000000E+00 0. -1.
         21    1    1    2  504  505  0.32795800452E+02  0.14009165658E+03  0.70888664681E+03  0.72334052478E+03  0.00000000000E+00 0. -1.
         21    1    1    2  505  501 -0.27343890544E+02 -0.34984025840E+02  0.84537608391E+02  0.95489149365E+02  0.00000000000E+00 0.  1.
         21    1    1    2  506  503  0.27062121259E+02 -0.40544242545E+02  0.15456582384E+03  0.16207031779E+03  0.00000000000E+00 0. -1.
<scales pt_clust_3="72.69162" pt_clust_4="14000.00000" pt_clust_5="44.40237" pt_clust_6="51.81360"></scales>
<clustering>
<clus scale="   44.402">  1  5  2 -1</clus>
<clus scale="   51.814">  1  6  2 -1</clus>
<clus scale="   72.692">  2  3  1 -1</clus>
<clus scale="   44.402">  1  3  2 -1</clus>
</clustering>
</event>
<event>
 6    0  0.4390142E+002  0.1539796E+03  0.7546771E-02  0.1195666E+00
         21   -1    0    0  506  501  0.00000000000E+00  0.00000000000E+00  0.15875279137E+04  0.15875279137E+04  0.00000000000E+00 0. -1.
         21   -1    0    0  505  502 -0.00000000000E+00 -0.00000000000E+00 -0.63275537692E+02  0.63275537692E+02  0.00000000000E+00 0.  1.
         21    1    1    2  503  501 -0.24439014417E+02  0.11630774915E+03  0.13240735105E+04  0.13293966372E+04  0.00000000000E+00 0. -1.
         21    1    1    2  504  503  0.80617270942E+01 -0.74723085416E+02  0.27055455978E+02  0.79878211272E+02  0.00000000000E+00 0.  1.
         21    1    1    2  505  504  0.44370800945E+02 -0.67777456509E+02  0.19676132774E+02  0.83364871428E+02  0.00000000000E+00 0.  1.
         21    1    1    2  506  502 -0.27993513623E+02  0.26192792770E+02  0.15344727681E+03  0.15816373149E+03  0.00000000000E+00 0.  1.
<scales pt_clust_3="149.33457" pt_clust_4="36.15380" pt_clust_5="36.15380" pt_clust_6="38.33666"></scales>
<clustering>
<clus scale="   36.154">  4  5 -1 -1</clus>
<clus scale="   38.337">  1  6  2 -1</clus>
<clus scale="  149.335">  1  3  2 -1</clus>
<clus scale="   38.337">  1  3  2 -1</clus>
</clustering>
</event>
<event>
 6    0  0.4390142E+002  0.8360578E+02  0.7546771E-02  0.1319119E+00
         21   -1    0    0  506  501  0.00000000000E+00  0.00000000000E+00  0.93537731708E+02  0.93537731708E+02  0.00000000000E+00 0. -1.
         21   -1    0    0  503  502 -0.00000000000E+00 -0.00000000000E+00 -0.11815254751E+04  0.11815254751E+04  0.00000000000E+00 0. -1.
         21    1    1    2  503  504  0.51987728884E+02  0.56505364958E+02 -0.65668390241E+03  0.66115756663E+03  0.00000000000E+00 0. -1.
         21    1    1    2  504  501  0.81968911322E+02 -0.50962021532E+02  0.29301176229E+02  0.10086916769E+03  0.00000000000E+00 0. -1.
         21    1    1    2  505  502 -0.10703866670E+03 -0.38601869431E+02 -0.45620189107E+03  0.47017820654E+03  0.00000000000E+00 0. -1.
         21    1    1    2  506  505 -0.26917973511E+02  0.33058526006E+02 -0.44031261307E+01  0.42858265939E+02  0.00000000000E+00 0. -1.
<scales pt_clust_3="14000.00000" pt_clust_4="62.40209" pt_clust_5="83.60578" pt_clust_6="42.63148"></scales>
<clustering>
<clus scale="   42.631">  1  6  2 -1</clus>
<clus scale="   62.402">  1  4  2 -1</clus>
<clus scale="   83.606">  1  5  2 -1</clus>
<clus scale="   42.631">  1  3  2 -1</clus>
</clustering>
</event>
<event>
 6    0  0.4390142E+002  0.1159629E+03  0.7546771E-02  0.1249910E+00
         21   -1    0    0  504  501  0.00000000000E+00  0.00000000000E+00  0.45083792449E+03  0.45083792449E+03  0.00000000000E+00 0. -1.
         21   -1    0    0  503  502 -0.00000000000E+00 -0.00000000000E+00 -0.39736100161E+03  0.39736100161E+03  0.00000000000E+00 0. -1.
         21    1    1    2  503  505 -0.51516641351E+01  0.57422079562E+02 -0.10098492107E+03  0.11628322814E+03  0.00000000000E+00 0. -1.
         21    1    1    2  504  502  0.53668746321E+02  0.55121468895E+02  0.33668441437E+03  0.34536228159E+03  0.00000000000E+00 0. -1.
         21    1    1    2  505  506 -0.91242818267E+02 -0.12460488479E+03 -0.25685769893E+03  0.29971237328E+03  0.00000000000E+00 0. -1.
         21    1    1    2  506  501  0.42725736081E+02  0.12061336331E+02  0.74635128506E+02  0.86841043089E+02  0.00000000000E+00 0. -1.
<scales pt_clust_3="57.82912" pt_clust_4="14000.00000" pt_clust_5="115.96288" pt_clust_6="44.39554"></scales>
<clustering>
<clus scale="   44.396">  1  6  2 -1</clus>
<clus scale="   57.829">  2  3  1 -1</clus>
<clus scale="  115.963">  2  5  1 -1</clus>
<clus scale="   44.396">  1  3  2 -1</clus>
</clustering>
</event>
<event>
 6    0  0.4390142E+002  0.1085115E+03  0.7546771E-02  0.1263351E+00
         21   -1    0    0  506  501  0.00000000000E+00  0.00000000000E+00  0.89689340114E+02  0.89689340114E+02  0.00000000000E+00 0.  1.
         21   -1    0    0  504  502 -0.00000000000E+00 -0.00000000000E+00 -0.11943749178E+04  0.11943749178E+04  0.00000000000E+00 0.  1.
         21    1    1    2  503  502 -0.81686047764E+02 -0.97068559669E+02 -0.10152578824E+04  0.10231536949E+04  0.00000000000E+00 0.  1.
         21    1    1    2  504  501  0.11114238816E+02  0.73787446079E+02 -0.14204724063E+03  0.16045414321E+03  0.00000000000E+00 0.  1.
         21    1    1    2  505  503  0.38549211184E+02  0.31135779223E+02  0.44260497624E+02  0.66441478615E+02  0.00000000000E+00 0.  1.
         21    1    1    2  506  505  0.32022597764E+02 -0.78546656325E+01  0.83590477583E+01  0.34014941117E+02  0.00000000000E+00 0.  1.
<scales pt_clust_3="14000.00000" pt_clust_4="108.51153" pt_clust_5="69.02860" pt_clust_6="32.97184"></scales>
<clustering>
<clus scale="   32.972">  1  6  2 -1</clus>
<clus scale="   69.029">  1  5  2 -1</clus>
<clus scale="  108.512">  1  4  2 -1</clus>
<clus scale="   32.972">  1  3  2 -1</clus>
</clustering>
</event>
<event>
 6    0  0.4390142E+002  0.1094503E+03  0.7546771E-02  0.1261591E+00
         21   -1    0    0  503  501  0.00000000000E+00  0.00000000000E+00  0.56676253381E+03  0.56676253381E+03  0.00000000000E+00 0. -1.
         21   -1    0    0  506  502 -0.00000000000E+00 -0.00000000000E+00 -0.12682204926E+03  0.12682204926E+03  0.00000000000E+00 0. -1.
         21    1    1    2  503  505 -0.26823827287E+02  0.21530499181E+02  0.22134834006E+03  0.22400483868E+03  0.00000000000E+00 0. -1.
         21    1    1    2  504  502 -0.44609670070E+02 -0.29105231600E+02  0.27538664373E+02  0.59962615068E+02  0.00000000000E+00 0. -1.
         21    1    1    2  505  504 -0.13766202506E+02  0.70770851871E+02  0.26866962834E+03  0.27817510851E+03  0.00000000000E+00 0. -1.
         21    1    1    2  506  501  0.85199699863E+02 -0.63196119452E+02 -0.77616148223E+02  0.13144202081E+03  0.00000000000E+00 0. -1.
<scales pt_clust_3="30.10723" pt_clust_4="53.26478" pt_clust_5="30.10723" pt_clust_6="100.39608"></scales>
<clustering>
<clus scale="   30.107">  3  5 -1 -1</clus>
<clus scale="   53.265">  2  4  1 -1</clus>
<clus scale="  100.396">  2  6  1 -1</clus>
<clus scale="  109.450">  1  3  2 -1</clus>
</clustering>
</event>
<event>
 6    0  0.4390142E+002  0.1205147E+03  0.7546771E-02  0.1242250E+00
         21   -1    0    0  505  501  0.00000000000E+00  0.00000000000E+00  0.31068916194E+03  0.31068916194E+03  0.00000000000E+00 0. -1.
         21   -1    0    0  506  502 -0.00000000000E+00 -0.00000000000E+00 -0.10127350170E+03  0.10127350170E+03  0.00000000000E+00 0. -1.
         21    1    1    2  503  502 -0.27401560665E+01  0.12516439676E+03 -0.19774253411E-01  0.12519438910E+03  0.00000000000E+00 0. -1.
         21    1    1    2  504  503 -0.11742025235E+02 -0.11154585847E+03  0.93693208843E+02  0.14614640291E+03  0.00000000000E+00 0. -1.
         21    1    1    2  505  504 -0.29343858243E+02 -0.10419359123E+02  0.72804356267E+02  0.79183958935E+02  0.00000000000E+00 0. -1.
         21    1    1    2  506  501  0.43826039544E+02 -0.31991791615E+01  0.42937869389E+02  0.61437912701E+02  0.00000000000E+00 0.  1.
<scales pt_clust_3="14000.00000" pt_clust_4="120.51474" pt_clust_5="31.13880" pt_clust_6="37.70665"></scales>
<clustering>
<clus scale="   31.139">  1  5  2 -1</clus>
<clus scale="   37.707">  1  6  2 -1</clus>
<clus scale="  120.515">  1  4  2 -1</clus>
<clus scale="   31.139">  1  3  2 -1</clus>
</clustering>
</event>
<event>
 6    0  0.4390142E+002  0.9143486E+02  0.7546771E-02  0.1299414E+00
         21   -1    0    0  504  501  0.00000000000E+00  0.00000000000E+00  0.90044531803E+03  0.90044531803E+03  0.00000000000E+00 0.  1.
         21   -1    0    0  505  502 -0.00000000000E+00 -0.00000000000E+00 -0.13578103477E+03  0.13578103477E+03  0.00000000000E+00 0.  1.
         21    1    1    2  503  501  0.68793951483E+02 -0.42972571322E+01  0.77728641695E+03  0.78033662490E+03  0.00000000000E+00 0.  1.
         21    1    1    2  504  506  0.14525810508E+02 -0.43644607995E+02  0.77650149417E+02  0.90251851408E+02  0.00000000000E+00 0. -1.
         21    1    1    2  505  503 -0.36695715688E+02  0.75200461618E+02 -0.44112696190E+02  0.94591833382E+02  0.00000000000E+00 0.  1.
         21    1    1    2  506  502 -0.46624046303E+02 -0.27258596491E+02 -0.46159586918E+02  0.71046043104E+02  0.00000000000E+00 0.  1.
<scales pt_clust_3="91.43486" pt_clust_4="45.99838" pt_clust_5="14000.00000" pt_clust_6="54.15665"></scales>
<clustering>
<clus scale="   45.998">  1  4  2 -1</clus>
<clus scale="   54.157">  2  6  1 -1</clus>
<clus scale="   91.435">  1  3  2 -1</clus>
<clus scale="   45.998">  1  3  2 -1</clus>
</clustering>
</event>
<event>
 6    0  0.4390142E+002  0.1641144E+03  0.7546771E-02  0.1184128E+00
         21   -1    0    0  503  501  0.00000000000E+00  0.00000000000E+00  0.50325123040E+02  0.50325123040E+02  0.00000000000E+00 0. -1.
         21   -1    0    0  505  502 -0.00000000000E+00 -0.00000000000E+00 -0.80849617541E+03  0.80849617541E+03  0.00000000000E+00 0. -1.
         21    1    1    2  503  502 -0.21708144856E+02 -0.44431844790E+02 -0.17533477285E+03  0.18217495699E+03  0.00000000000E+00 0. -1.
         21    1    1    2  504  501 -0.51977171030E+02  0.14971364106E+02 -0.28496346980E+02  0.61137630333E+02  0.00000000000E+00 0. -1.
         21    1    1    2  505  506  0.16600670015E+03  0.41361236237E+02 -0.40332762627E+03  0.43811202959E+03  0.00000000000E+00 0. -1.
         21    1    1    2  506  504 -0.92321384266E+02 -0.11900755554E+02 -0.15101230628E+03  0.17739668154E+03  0.00000000000E+00 0. -1.
<scales pt_clust_3="49.45131" pt_clust_4="47.26042" pt_clust_5="151.95318" pt_clust_6="47.26042"></scales>
<clustering>
<clus scale="   47.260">  4  6 -1 -1</clus>
<clus scale="   49.451">  2  3  1 -1</clus>
<clus scale="  151.953">  2  5  1 -1</clus>
<clus scale="  164.114">  1  3  2 -1</clus>
</clustering>
</event>
<event>
 6    0  0.4390142E+002  0.2420684E+03  0.7546771E-02  0.1118423E+00
         21   -1    0    0  504  501  0.00000000000E+00  0.00000000000E+00  0.28460215966E+03  0.28460215966E+03  0.00000000000E+00 0. -1.
         21   -1    0    0  503  502 -0.00000000000E+00 -0.00000000000E+00 -0.47728562144E+03  0.47728562144E+03  0.00000000000E+00 0. -1.
         21    1    1    2  503  501 -0.18509171794E+03 -0.21306956504E+03 -0.58659946853E+02  0.28826823093E+03  0.00000000000E+00 0. -1.
         21    1    1    2  504  505 -0.49673979369E+02  0.70312773502E+02  0.50697383639E+02  0.99908032969E+02  0.00000000000E+00 0. -1.
         21    1    1    2  505  506  0.70122868412E+01  0.79236130782E+02 -0.10987848892E+02  0.80301117124E+02  0.00000000000E+00 0. -1.
         21    1    1    2  506  502  0.22775341047E+03  0.63520660759E+02 -0.17373304967E+03  0.29341040008E+03  0.00000000000E+00 0. -1.
<scales pt_clust_3="14000.00000" pt_clust_4="175.77966" pt_clust_5="78.76102" pt_clust_6="242.06843"></scales>
<clustering>
<clus scale="   78.761">  4  5 -1 -1</clus>
<clus scale="  175.780">  1  4  2 -1</clus>
<clus scale="  242.068">  2  6  1 -1</clus>
<clus scale="  175.780">  1  3  2 -1</clus>
</clustering>
</event>
<event>
 6    0  0.4390142E+002  0.2851510E+03  0.7546771E-02  0.1092908E+00
         21   -1    0    0  503  501  0.00000000000E+00  0.00000000000E+00  0.71168845576E+03  0.71168845576E+03  0.00000000000E+00 0. -1.
         21   -1    0    0  506  502 -0.00000000000E+00 -0.00000000000E+00 -0.25247512321E+03  0.25247512321E+03  0.00000000000E+00 0. -1.
         21    1    1    2  503  504 -0.82719372030E+02  0.16510318610E+03 -0.74325445126E+02  0.19906237304E+03  0.00000000000E+00 0. -1.
         21    1    1    2  504  502 -0.39280581110E+02  0.58103983093E+02 -0.69067042216E+02  0.98434207591E+02  0.00000000000E+00 0. -1.
         21    1    1    2  505  501  0.38310818462E+02 -0.14285988045E+03  0.20708031468E+03  0.25447774162E+03  0.00000000000E+00 0. -1.
         21    1    1    2  506  505  0.83689134679E+02 -0.80347288739E+02  0.39552550522E+03  0.41218925671E+03  0.00000000000E+00 0. -1.
<scales pt_clust_3="260.65842" pt_clust_4="35.06496" pt_clust_5="114.12763" pt_clust_6="114.12763"></scales>
<clustering>
<clus scale="   35.065">  3  4 -1 -1</clus>
<clus scale="  114.128">  5  6 -1 -1</clus>
<clus scale="  260.658">  2  3  1 -1</clus>
<clus scale="  285.151">  1  3  2 -1</clus>
</clustering>
</event>
<event>
 6    0  0.4390142E+002  0.9484294E+02  0.7546771E-02  0.1291530E+00
         21   -1    0    0  506  501  0.00000000000E+00  0.00000000000E+00  0.16106633540E+04  0.16106633540E+04  0.00000000000E+00 0.  1.
         21   -1    0    0  503  502 -0.00000000000E+00 -0.00000000000E+00 -0.35259703025E+02  0.35259703025E+02  0.00000000000E+00 0.  1.
         21    1    1    2  503  504 -0.12460418820E+03  0.47547023511E+02  0.12167307606E+03  0.18053049770E+03  0.00000000000E+00 0.  1.
         21    1    1    2  504  501  0.30350092901E+02  0.21927252579E+02  0.36313286267E+03  0.36505808921E+03  0.00000000000E+00 0.  1.
         21    1    1    2  505  502  0.35283189765E+02 -0.14945064484E+02  0.11057508394E+03  0.11702609803E+03  0.00000000000E+00 0.  1.
         21    1    1    2  506  505  0.58970905538E+02 -0.54529211607E+02  0.98002262831E+03  0.98330837209E+03  0.00000000000E+00 0.  1.
<scales pt_clust_3="94.84294" pt_clust_4="37.44239" pt_clust_5="40.19486" pt_clust_6="14000.00000"></scales>
<clustering>
<clus scale="   37.442">  1  4  2 -1</clus>
<clus scale="   40.195">  2  5  1 -1</clus>
<clus scale="   94.843">  2  3  1 -1</clus>
<clus scale="   37.442">  1  3  2 -1</clus>
</clustering>
</event>
<event>
 6    0  0.4390142E+002  0.2179780E+03  0.7546771E-02  0.1135400E+00
         21   -1    0    0  505  501  0.00000000000E+00  0.00000000000E+00  0.14340016377E+03  0.14340016377E+03  0.00000000000E+00 0.  1.
         21   -1    0    0  503  502 -0.00000000000E+00 -0.00000000000E+00 -0.43252742133E+03  0.43252742133E+03  0.00000000000E+00 0.  1.
         21    1    1    2  503  506  0.36378028853E+02 -0.14619922610E+02  0.26575243375E+01  0.39295871997E+02  0.00000000000E+00 0.  1.
         21    1    1    2  504  501 -0.27360589096E+02 -0.27564599479E+02 -0.20582013877E+02  0.43954843593E+02  0.00000000000E+00 0.  1.
         21    1    1    2  505  502 -0.75014309299E+02  0.19866421618E+03 -0.23919773287E+03  0.31985961421E+03  0.00000000000E+00 0.  1.
         21    1    1    2  506  504  0.65996869541E+02 -0.15647969410E+03 -0.32005035155E+02  0.17281725530E+03  0.00000000000E+00 0.  1.
<scales pt_clust_3="31.78049" pt_clust_4="38.83824" pt_clust_5="207.70022" pt_clust_6="31.78049"></scales>
<clustering>
<clus scale="   31.780">  3  6 -1 -1</clus>
<clus scale="   38.838">  1  4  2 -1</clus>
<clus scale="  207.700">  2  5  1 -1</clus>
<clus scale="   38.838">  1  3  2 -1</clus>
</clustering>
</event>
<event>
 6    0  0.4390142E+002  0.9252772E+02  0.7546771E-02  0.1296843E+00
         21   -1    0    0  504  501  0.00000000000E+00  0.00000000000E+00  0.70814109893E+03  0.70814109893E+03  0.00000000000E+00 0. -1.
         21   -1    0    0  503  502 -0.00000000000E+00 -0.00000000000E+00 -0.74128588554E+02  0.74128588554E+02  0.00000000000E+00 0. -1.
         21    1    1    2  503  505  0.24603950283E+02  0.25825341106E+02  0.16512372579E+01  0.35707550984E+02  0.00000000000E+00 0.  1.
         21    1    1    2  504  506 -0.32073889285E+02 -0.74214081344E+02  0.27079776808E+03  0.28260908591E+03  0.00000000000E+00 0. -1.
         21    1    1    2  505  501 -0.48042143086E+01  0.11543630645E+03  0.37679470244E+03  0.39411022456E+03  0.00000000000E+00 0. -1.
         21    1    1    2  506  502  0.12274153310E+02 -0.67047566209E+02 -0.15231197390E+02  0.69842826031E+02  0.00000000000E+00 0. -1.
<scales pt_clust_3="35.66935" pt_clust_4="14000.00000" pt_clust_5="92.52772" pt_clust_6="56.76472"></scales>
<clustering>
<clus scale="   35.669">  2  3  1 -1</clus>
<clus scale="   56.765">  2  6  1 -1</clus>
<clus scale="   92.528">  2  5  1 -1</clus>
<clus scale="   92.528">  1  3  2 -1</clus>
</clustering>
</event>
<event>
 6    0  0.4390142E+002  0.2680502E+03  0.7546771E-02  0.1102401E+00
         21   -1    0    0  506  501  0.00000000000E+00  0.00000000000E+00  0.15898468179E+04  0.15898468179E+04  0.00000000000E+00 0.  1.
         21   -1    0    0  504  502 -0.00000000000E+00 -0.00000000000E+00 -0.72297005556E+02  0.72297005556E+02  0.00000000000E+00 0.  1.
         21    1    1    2  503  505 -0.17234791474E+02  0.76396048247E+02  0.37719502928E+03  0.38523951554E+03  0.00000000000E+00 0.  1.
         21    1    1    2  504  501  0.97802095881E+02 -0.20497146715E+03  0.15859085096E+03  0.27700110164E+03  0.00000000000E+00 0.  1.
         21    1    1    2  505  502 -0.70710051455E+02  0.87054627476E+02  0.90626373010E+03  0.91317707376E+03  0.00000000000E+00 0.  1.
         21    1    1    2  506  503 -0.98572529519E+01  0.41520791425E+02  0.75500201969E+02  0.86726132473E+02  0.00000000000E+00 0.  1.
<scales pt_clust_3="106.55462" pt_clust_4="227.10912" pt_clust_5="106.55462" pt_clust_6="41.62849"></scales>
<clustering>
<clus scale="   41.628">  3  6 -1 -1</clus>
<clus scale="  106.555">  3  5 -1 -1</clus>
<clus scale="  227.109">  2  4  1 -1</clus>
<clus scale="  268.050">  1  3  2 -1</clus>
</clustering>
</event>
<event>
 6    0  0.4390142E+002  0.9468376E+02  0.7546771E-02  0.1291890E+00
         21   -1    0    0  504  501  0.00000000000E+00  0.00000000000E+00  0.27359923153E+02  0.27359923153E+02  0.00000000000E+00 0.  1.
         21   -1    0    0  506  502 -0.00000000000E+00 -0.00000000000E+00 -0.17087705638E+04  0.17087705638E+04  0.00000000000E+00 0.  1.
         21    1    1    2  503  502  0.61621910362E+02  0.41053841017E+02 -0.33040728541E+03  0.33860249844E+03  0.00000000000E+00 0.  1.
         21    1    1    2  504  503  0.60488094639E+02  0.18180195973E+02 -0.63170214931E+02  0.89329755250E+02  0.00000000000E+00 0.  1.
         21    1    1    2  505  501 -0.14239593351E+02 -0.40245338585E+02 -0.50931180858E+02  0.66456289997E+02  0.00000000000E+00 0. -1.
         21    1    1    2  506  505 -0.10787041165E+03 -0.18988698405E+02 -0.12369019595E+04  0.12417419433E+04  0.00000000000E+00 0.  1.
<scales pt_clust_3="14000.00000" pt_clust_4="51.71793" pt_clust_5="42.69020" pt_clust_6="94.68376"></scales>
<clustering>
<clus scale="   42.690">  1  5  2 -1</clus>
<clus scale="   51.718">  1  4  2 -1</clus>
<clus scale="   94.684">  2  6  1 -1</clus>
<clus scale="   42.690">  1  3  2 -1</clus>
</clustering>
</event>
<event>
 6    0  0.4390142E+002  0.9000483E+02  0.7546771E-02  0.1302840E+00
         21   -1    0    0  505  501  0.00000000000E+00  0.00000000000E+00  0.18448412052E+03  0.18448412052E+03  0.00000000000E+00 0.  1.
         21   -1    0    0  506  502 -0.00000000000E+00 -0.00000000000E+00 -0.38343532206E+03  0.38343532206E+03  0.00000000000E+00 0.  1.
         21    1    1    2  503  502  0.59976645426E+02 -0.11210178882E+03 -0.21355034810E+03  0.24853120574E+03  0.00000000000E+00 0.  1.
         21    1    1    2  504  501 -0.18253175298E+02  0.60145588928E+02 -0.13377294273E+01  0.62868591491E+02  0.00000000000E+00 0.  1.
         21    1    1    2  505  503 -0.12781205682E+02  0.29845446437E+02  0.13145021389E+03  0.13540040112E+03  0.00000000000E+00 0.  1.
         21    1    1    2  506  504 -0.28942264446E+02  0.22110753453E+02 -0.11551333791E+03  0.12111924423E+03  0.00000000000E+00 0.  1.
<scales pt_clust_3="14000.00000" pt_clust_4="90.00483" pt_clust_5="32.46706" pt_clust_6="37.98400"></scales>
<clustering>
<clus scale="   32.467">  1  5  2 -1</clus>
<clus scale="   37.984">  2  6  1 -1</clus>
<clus scale="   90.005">  1  4  2 -1</clus>
<clus scale="   32.467">  1  3  2 -1</clus>
</clustering>
</event>
<event>
 6    0  0.4390142E+002  0.1479028E+03  0.7546771E-02  0.1203074E+00
         21   -1    0    0  503  501  0.00000000000E+00  0.00000000000E+00  0.20300853903E+04  0.20300853903E+04  0.00000000000E+00 0. -1.
         21   -1    0    0  505  502 -0.00000000000E+00 -0.00000000000E+00 -0.35853700406E+03  0.35853700406E+03  0.00000000000E+00 0.  1.
         21    1    1    2  503  506 -0.19872932132E+02  0.30682344688E+02  0.31417095494E+03  0.31629057626E+03  0.00000000000E+00 0. -1.
         21    1    1    2  504  501  0.62782914875E+02  0.60212700202E+02  0.15851867197E+04  0.15875717936E+04  0.00000000000E+00 0. -1.
         21    1    1    2  505  504  0.10967423692E+02  0.13338435465E+03 -0.21561930895E+03  0.25377816463E+03  0.00000000000E+00 0.  1.
         21    1    1    2  506  502 -0.53877406436E+02 -0.22427939955E+03 -0.12189979399E+02  0.23098185986E+03  0.00000000000E+00 0.  1.
<scales pt_clust_3="36.55598" pt_clust_4="99.09879" pt_clust_5="14000.00000" pt_clust_6="147.90282"></scales>
<clustering>
<clus scale="   36.556">  1  3  2 -1</clus>
<clus scale="   99.099">  1  4  2 -1</clus>
<clus scale="  147.903">  1  6  2 -1</clus>
<clus scale="   36.556">  1  3  2 -1</clus>
</clustering>
</event>
<event>
 6    0  0.4390142E+002  0.7824682E+02  0.7546771E-02  0.1334102E+00
         21   -1    0    0  503  501  0.00000000000E+00  0.00000000000E+00  0.70812022936E+02  0.70812022936E+02  0.00000000000E+00 0.  1.
         21   -1    0    0  505  502 -0.00000000000E+00 -0.00000000000E+00 -0.27505990404E+03  0.27505990404E+03  0.00000000000E+00 0. -1.
         21    1    1    2  503  504 -0.48759993498E+02 -0.29171203416E+02 -0.41198768334E+02  0.70184290172E+02  0.00000000000E+00 0. -1.
         21    1    1    2  504  502  0.58112871810E+01 -0.56062410546E+02 -0.44618094596E+02  0.71885598699E+02  0.00000000000E+00 0. -1.
         21    1    1    2  505  506 -0.29670966956E+02  0.48559265392E+01 -0.85423937161E+02  0.90560451317E+02  0.00000000000E+00 0. -1.
         21    1    1    2  506  501  0.72619673273E+02  0.80377687422E+02 -0.33007081014E+02  0.11324158679E+03  0.00000000000E+00 0.  1.
<scales pt_clust_3="78.24682" pt_clust_4="54.65791" pt_clust_5="30.06570" pt_clust_6="14000.00000"></scales>
<clustering>
<clus scale="   30.066">  2  5  1 -1</clus>
<clus scale="   54.658">  2  4  1 -1</clus>
<clus scale="   78.247">  1  3  2 -1</clus>
<clus scale="   78.247">  1  3  2 -1</clus>
</clustering>
</event>
<event>
 6    0  0.4390142E+002  0.9461764E+02  0.7546771E-02  0.1292040E+00
         21   -1    0    0  505  501  0.00000000000E+00  0.00000000000E+00  0.22616422206E+02  0.22616422206E+02  0.00000000000E+00 0. -1.
         21   -1    0    0  506  502 -0.00000000000E+00 -0.00000000000E+00 -0.12242017731E+04  0.12242017731E+04  0.00000000000E+00 0. -1.
         21    1    1    2  503  501 -0.66413736166E+02  0.24322007532E+02 -0.25245985494E+03  0.26217994347E+03  0.00000000000E+00 0. -1.
         21    1    1    2  504  502 -0.45512713971E+02 -0.40179300633E+02 -0.13467266464E+03  0.14772443919E+03  0.00000000000E+00 0. -1.
         21    1    1    2  505  504  0.32012535923E+01 -0.34545349683E+02 -0.38762494852E+02  0.52020767165E+02  0.00000000000E+00 0.  1.
         21    1    1    2  506  503  0.10872519654E+03  0.50402642783E+02 -0.77569033642E+03  0.78489304544E+03  0.00000000000E+00 0. -1.
<scales pt_clust_3="66.88402" pt_clust_4="14000.00000" pt_clust_5="34.69336" pt_clust_6="94.61764"></scales>
<clustering>
<clus scale="   34.693">  1  5  2 -1</clus>
<clus scale="   66.884">  1  3  2 -1</clus>
<clus scale="   94.618">  2  6  1 -1</clus>
<clus scale="   34.693">  1  3  2 -1</clus>
</clustering>
</event>
<event>
 6    0  0.4390142E+002  0.1076298E+03  0.7546771E-02  0.1265023E+00
         21   -1    0    0  504  501  0.00000000000E+00  0.00000000000E+00  0.42903619607E+03  0.42903619607E+03  0.00000000000E+00 0.  1.
         21   -1    0    0  506  502 -0.00000000000E+00 -0.00000000000E+00 -0.27905136224E+03  0.27905136224E+03  0.00000000000E+00 0.  1.
         21    1    1    2  503  505  0.17642872038E+02 -0.59890196416E+02  0.25962890406E+03  0.26703047464E+03  0.00000000000E+00 0.  1.
         21    1    1    2  504  502  0.27883244085E+02  0.14948489311E+03 -0.38301997594E+02  0.15681279153E+03  0.00000000000E+00 0.  1.
         21    1    1    2  505  501  0.34541574329E+02 -0.44536351473E+02  0.85540289974E+02  0.10243899730E+03  0.00000000000E+00 0.  1.
         21    1    1    2  506  503 -0.80067690452E+02 -0.45058345222E+02 -0.15688236262E+03  0.18180529483E+03  0.00000000000E+00 0.  1.
<scales pt_clust_3="14000.00000" pt_clust_4="107.62976" pt_clust_5="56.36140" pt_clust_6="91.59165"></scales>
<clustering>
<clus scale="   56.361">  1  5  2 -1</clus>
<clus scale="   91.592">  2  6  1 -1</clus>
<clus scale="  107.630">  2  4  1 -1</clus>
<clus scale="   56.361">  1  3  2 -1</clus>
</clustering>
</event>
<event>
 6    0  0.4390142E+002  0.1009980E+03  0.7546771E-02  0.1278211E+00
         21   -1    0    0  505  501  0.00000000000E+00  0.00000000000E+00  0.14306264738E+03  0.14306264738E+03  0.00000000000E+00 0. -1.
         21   -1    0    0  504  502 -0.00000000000E+00 -0.00000000000E+00 -0.27818637818E+03  0.27818637818E+03  0.00000000000E+00 0. -1.
         21    1    1    2  503  501 -0.55473083487E+02  0.38916277942E+02 -0.14923847018E+02  0.69386316304E+02  0.00000000000E+00 0. -1.
         21    1    1    2  504  503  0.33838247993E+00 -0.12029396930E+03 -0.18549542866E+03  0.22108665181E+03  0.00000000000E+00 0. -1.
         21    1    1    2  505  506  0.38695811079E+02  0.22445537277E+02  0.51202989672E+02  0.67992014899E+02  0.00000000000E+00 0. -1.
         21    1    1    2  506  502  0.16438889928E+02  0.58932154085E+02  0.14092555202E+02  0.62784042553E+02  0.00000000000E+00 0. -1.
<scales pt_clust_3="63.04004" pt_clust_4="100.99800" pt_clust_5="44.73442" pt_clust_6="14000.00000"></scales>
<clustering>
<clus scale="   44.734">  1  5  2 -1</clus>
<clus scale="   63.040">  1  3  2 -1</clus>
<clus scale="  100.998">  2  4  1 -1</clus>
<clus scale="   44.734">  1  3  2 -1</clus>
</clustering>
</event>
<event>
 6    0  0.4390142E+002  0.1711146E+03  0.7546771E-02  0.1176690E+00
         21   -1    0    0  503  501  0.00000000000E+00  0.00000000000E+00  0.99878427634E+02  0.99878427634E+02  0.00000000000E+00 0.  1.
         21   -1    0    0  504  502 -0.00000000000E+00 -0.00000000000E+00 -0.14792773590E+04  0.14792773590E+04  0.00000000000E+00 0. -1.
         21    1    1    2  503  506 -0.30165011088E+02 -0.11453341455E+03  0.14278067743E+02  0.11929666450E+03  0.00000000000E+00 0.  1.
         21    1    1    2  504  501  0.62464919255E+02  0.21865024349E+03 -0.11609993300E+04  0.11830592713E+04  0.00000000000E+00 0. -1.
         21    1    1    2  505  502 -0.48010838124E+02 -0.62767171883E+02 -0.21517869715E+03  0.22923051749E+03  0.00000000000E+00 0. -1.
         21    1    1    2  506  505  0.15710929956E+02 -0.41349657056E+02 -0.17498972012E+02  0.47569333400E+02  0.00000000000E+00 0. -1.
<scales pt_clust_3="35.24144" pt_clust_4="161.10490" pt_clust_5="79.02378" pt_clust_6="35.24144"></scales>
<clustering>
<clus scale="   35.241">  3  6 -1 -1</clus>
<clus scale="   79.024">  2  5  1 -1</clus>
<clus scale="  161.105">  2  4  1 -1</clus>
<clus scale="  171.115">  1  3  2 -1</clus>
</clustering>
</event>
<event>
 6    0  0.4390142E+002  0.3668440E+03  0.7546771E-02  0.1055906E+00
         21   -1    0    0  503  501  0.00000000000E+00  0.00000000000E+00  0.34742027209E+03  0.34742027209E+03  0.00000000000E+00 0.  1.
         21   -1    0    0  504  502 -0.00000000000E+00 -0.00000000000E+00 -0.11614858214E+04  0.11614858214E+04  0.00000000000E+00 0.  1.
         21    1    1    2  503  502  0.24835621138E+02  0.17510455968E+02 -0.22298012803E+03  0.22504124431E+03  0.00000000000E+00 0. -1.
         21    1    1    2  504  505  0.74284222272E+02 -0.12226572418E+03 -0.21051435459E+03  0.25452572852E+03  0.00000000000E+00 0.  1.
         21    1    1    2  505  506 -0.21264956155E+03 -0.25692423896E+03 -0.52641567818E+03  0.62317202025E+03  0.00000000000E+00 0.  1.
         21    1    1    2  506  501  0.11352971814E+03  0.36167950717E+03  0.14584461144E+03  0.40616710045E+03  0.00000000000E+00 0.  1.
<scales pt_clust_3="30.38789" pt_clust_4="142.74807" pt_clust_5="366.84402" pt_clust_6="14000.00000"></scales>
<clustering>
<clus scale="   30.388">  2  3  1 -1</clus>
<clus scale="  142.748">  2  4  1 -1</clus>
<clus scale="  366.844">  2  5  1 -1</clus>
<clus scale="  366.844">  1  3  2 -1</clus>
</clustering>
</event>
<event>
 6    0  0.4390142E+002  0.8992636E+02  0.7546771E-02  0.1303030E+00
         21   -1    0    0  504  501  0.00000000000E+00  0.00000000000E+00  0.11001579338E+04  0.11001579338E+04  0.00000000000E+00 0. -1.
         21   -1    0    0  503  502 -0.00000000000E+00 -0.00000000000E+00 -0.62727705876E+02  0.62727705876E+02  0.00000000000E+00 0. -1.
         21    1    1    2  503  505 -0.24874785760E+02  0.24957891344E+02 -0.23021294038E+02  0.42090750601E+02  0.00000000000E+00 0. -1.
         21    1    1    2  504  506  0.85120230044E+01 -0.12792554936E+03  0.55507379850E+03  0.56968791675E+03  0.00000000000E+00 0. -1.
         21    1    1    2  505  501  0.49322538848E+02  0.48851528754E+02  0.47640102095E+03  0.48143236022E+03  0.00000000000E+00 0. -1.
         21    1    1    2  506  502 -0.32959776092E+02  0.54116129261E+02  0.28976702545E+02  0.69674612139E+02  0.00000000000E+00 0. -1.
<scales pt_clust_3="35.23707" pt_clust_4="14000.00000" pt_clust_5="69.47330" pt_clust_6="89.92636"></scales>
<clustering>
<clus scale="   35.237">  2  3  1 -1</clus>
<clus scale="   69.473">  1  5  2 -1</clus>
<clus scale="   89.926">  2  6  1 -1</clus>
<clus scale="   69.473">  1  3  2 -1</clus>
</clustering>
</event>
<event>
 6    0  0.4390142E+002  0.9928276E+02  0.7546771E-02  0.1281811E+00
         21   -1    0    0  505  501  0.00000000000E+00  0.00000000000E+00  0.14317237528E+04  0.14317237528E+04  0.00000000000E+00 0. -1.
         21   -1    0    0  506  502 -0.00000000000E+00 -0.00000000000E+00 -0.20156636493E+03  0.20156636493E+03  0.00000000000E+00 0. -1.
         21    1    1    2  503  501 -0.73207462193E+02  0.58139098042E+02  0.61786525146E+03  0.62489755657E+03  0.00000000000E+00 0. -1.
         21    1    1    2  504  502 -0.57368844647E+01 -0.52117477788E+02 -0.16611330320E+03  0.17419177028E+03  0.00000000000E+00 0. -1.
         21    1    1    2  505  504  0.11012406013E+03 -0.20986744296E+02  0.78985397916E+03  0.79777005487E+03  0.00000000000E+00 0. -1.
         21    1    1    2  506  503 -0.31179713471E+02  0.14965124042E+02 -0.11448539535E+02  0.36430736023E+02  0.00000000000E+00 0.  1.
<scales pt_clust_3="99.28276" pt_clust_4="51.91505" pt_clust_5="14000.00000" pt_clust_6="34.58510"></scales>
<clustering>
<clus scale="   34.585">  2  6  1 -1</clus>
<clus scale="   51.915">  2  4  1 -1</clus>
<clus scale="   99.283">  1  3  2 -1</clus>
<clus scale="   99.283">  1  3  2 -1</clus>
</clustering>
</event>
<event>
 6    0  0.4390142E+002  0.2226647E+03  0.7546771E-02  0.1131912E+00
         21   -1    0    0  505  501  0.00000000000E+00  0.00000000000E+00  0.88122975264E+03  0.88122975264E+03  0.00000000000E+00 0. -1.
         21   -1    0    0  503  502 -0.00000000000E+00 -0.00000000000E+00 -0.11002426199E+04  0.11002426199E+04  0.00000000000E+00 0. -1.
         21    1    1    2  503  504 -0.19920775536E+03  0.14158868584E+03 -0.76591763428E+02  0.25611986253E+03  0.00000000000E+00 0. -1.
         21    1    1    2  504  501 -0.44694218168E+02  0.26097364450E+02  0.10652727062E+03  0.11843439093E+03  0.00000000000E+00 0. -1.
         21    1    1    2  505  506  0.45757592125E+02 -0.72235113280E+02  0.66316902344E+03  0.66865897323E+03  0.00000000000E+00 0. -1.
         21    1    1    2  506  502  0.19814438141E+03 -0.95450937013E+02 -0.91211739792E+03  0.93825914589E+03  0.00000000000E+00 0. -1.
<scales pt_clust_3="14000.00000" pt_clust_4="51.75563" pt_clust_5="50.12590" pt_clust_6="222.66469"></scales>
<clustering>
<clus scale="   51.756">  1  4  2 -1</clus>
<clus scale="   50.126">  1  5  2 -1</clus>
<clus scale="  222.665">  2  6  1 -1</clus>
<clus scale="   51.756">  1  3  2 -1</clus>
</clustering>
</event>
<event>
 6    0  0.4390142E+002  0.1277319E+03  0.7546771E-02  0.1230860E+00
         21   -1    0    0  505  501  0.00000000000E+00  0.00000000000E+00  0.16557283929E+04  0.16557283929E+04  0.00000000000E+00 0.  1.
         21   -1    0    0  504  502 -0.00000000000E+00 -0.00000000000E+00 -0.15723693433E+02  0.15723693433E+02  0.00000000000E+00 0.  1.
         21    1    1    2  503  501 -0.46722949540E+02  0.17493535853E+01  0.23550051981E+03  0.24009704097E+03  0.00000000000E+00 0.  1.
         21    1    1    2  504  503 -0.42553703228E+02  0.52195095078E+02  0.61480261606E+03  0.61847991263E+03  0.00000000000E+00 0.  1.
         21    1    1    2  505  506  0.88959179513E+02 -0.97106156768E+02  0.71119595452E+03  0.72328626907E+03  0.00000000000E+00 0.  1.
         21    1    1    2  506  502  0.31747325438E+00  0.43161708105E+02  0.78505609065E+02  0.89588863652E+02  0.00000000000E+00 0.  1.
<scales pt_clust_3="46.14815" pt_clust_4="46.14815" pt_clust_5="114.26639" pt_clust_6="43.16288"></scales>
<clustering>
<clus scale="   43.163">  2  6  1 -1</clus>
<clus scale="   46.148">  3  4 -1 -1</clus>
<clus scale="  114.266">  2  5  1 -1</clus>
<clus scale="  127.732">  1  3  2 -1</clus>
</clustering>
</event>
<event>
 6    0  0.4390142E+002  0.7321620E+02  0.7546771E-02  0.1349486E+00
         21   -1    0    0  506  501  0.00000000000E+00  0.00000000000E+00  0.11262331987E+03  0.11262331987E+03  0.00000000000E+00 0. -1.
         21   -1    0    0  503  502 -0.00000000000E+00 -0.00000000000E+00 -0.31051864347E+03  0.31051864347E+03  0.00000000000E+00 0. -1.
         21    1    1    2  503  505 -0.82064523085E+02  0.89973240304E+02 -0.13416139855E+03  0.18118788806E+03  0.00000000000E+00 0. -1.
         21    1    1    2  504  502  0.84815383213E+01 -0.54890414710E+02 -0.12029371061E+03  0.13249706009E+03  0.00000000000E+00 0. -1.
         21    1    1    2  505  501  0.36733567213E+02 -0.72137660914E+01  0.50496832168E+02  0.62859553294E+02  0.00000000000E+00 0. -1.
         21    1    1    2  506  504  0.36849417551E+02 -0.27869059502E+02  0.60629533969E+01  0.46597461897E+02  0.00000000000E+00 0. -1.
<scales pt_clust_3="73.21620" pt_clust_4="57.06047" pt_clust_5="37.43519" pt_clust_6="14000.00000"></scales>
<clustering>
<clus scale="   37.435">  1  5  2 -1</clus>
<clus scale="   57.060">  2  4  1 -1</clus>
<clus scale="   73.216">  2  3  1 -1</clus>
<clus scale="   37.435">  1  3  2 -1</clus>
</clustering>
</event>
<event>
 6    0  0.4390142E+002  0.1288051E+03  0.7546771E-02  0.1229240E+00
         21   -1    0    0  506  501  0.00000000000E+00  0.00000000000E+00  0.24969651727E+04  0.24969651727E+04  0.00000000000E+00 0. -1.
         21   -1    0    0  504  502 -0.00000000000E+00 -0.00000000000E+00 -0.78932774577E+02  0.78932774577E+02  0.00000000000E+00 0. -1.
         21    1    1    2  503  501 -0.11087661224E+03 -0.17243882462E+02  0.22976446867E+04  0.23003830292E+04  0.00000000000E+00 0. -1.
         21    1    1    2  504  503  0.97480750688E+02  0.35809276508E+01 -0.23980828393E+02  0.10045098271E+03  0.00000000000E+00 0. -1.
         21    1    1    2  505  502  0.26615423359E+02  0.40661114949E+02  0.30687393488E+02  0.57475413426E+02  0.00000000000E+00 0.  1.
         21    1    1    2  506  505 -0.13219561802E+02 -0.26998160138E+02  0.11368114629E+03  0.11758852191E+03  0.00000000000E+00 0. -1.
<scales pt_clust_3="14000.00000" pt_clust_4="128.80506" pt_clust_5="48.04527" pt_clust_6="30.06090"></scales>
<clustering>
<clus scale="   30.061">  1  6  2 -1</clus>
<clus scale="   48.045">  2  5  1 -1</clus>
<clus scale="  128.805">  2  4  1 -1</clus>
<clus scale="   30.061">  1  3  2 -1</clus>
</clustering>
</event>
<event>
 6    0  0.4390142E+002  0.1465487E+03  0.7546771E-02  0.1204779E+00
         21   -1    0    0  504  501  0.00000000000E+00  0.00000000000E+00  0.56706090801E+03  0.56706090801E+03  0.00000000000E+00 0. -1.
         21   -1    0    0  501  502 -0.00000000000E+00 -0.00000000000E+00 -0.11024191305E+03  0.11024191305E+03  0.00000000000E+00 0. -1.
         21    1    1    2  503  505 -0.10706280521E+02  0.99380234805E+02 -0.22294589364E+02  0.10241144578E+03  0.00000000000E+00 0. -1.
         21    1    1    2  504  506 -0.55557411165E+02 -0.88948464832E+02  0.37201329284E+03  0.38651305978E+03  0.00000000000E+00 0. -1.
         21    1    1    2  505  502  0.66873385015E+02  0.36745489317E+02  0.56732157988E+01  0.76514482198E+02  0.00000000000E+00 0. -1.
         21    1    1    2  506  503 -0.60969332865E+00 -0.47177259290E+02  0.10142707568E+03  0.11186383330E+03  0.00000000000E+00 0. -1.
<scales pt_clust_3="137.57808" pt_clust_4="33.86246" pt_clust_5="76.30387" pt_clust_6="33.86246"></scales>
<clustering>
<clus scale="   33.862">  4  6 -1 -1</clus>
<clus scale="   76.304">  2  5  1 -1</clus>
<clus scale="  137.578">  2  3  1 -1</clus>
<clus scale="  146.549">  1  3  2 -1</clus>
</clustering>
</event>
<event>
 6    0  0.4390142E+002  0.1540351E+03  0.7546771E-02  0.1195601E+00
         21   -1    0    0  504  501  0.00000000000E+00  0.00000000000E+00  0.21971461232E+03  0.21971461232E+03  0.00000000000E+00 0.  1.
         21   -1    0    0  501  502 -0.00000000000E+00 -0.00000000000E+00 -0.24002326344E+03  0.24002326344E+03  0.00000000000E+00 0.  1.
         21    1    1    2  503  506  0.11491081965E+02 -0.50149337811E+02  0.47874639401E+02  0.70277892294E+02  0.00000000000E+00 0.  1.
         21    1    1    2  504  503  0.88989252006E+02 -0.61190004294E+02  0.95918172665E+02  0.14444237413E+03  0.00000000000E+00 0.  1.
         21    1    1    2  505  502  0.90610351979E+01  0.52851169342E+02 -0.26989587998E+02  0.60031544375E+02  0.00000000000E+00 0.  1.
         21    1    1    2  506  505 -0.10954136917E+03  0.58488172763E+02 -0.13711187519E+03  0.18498606496E+03  0.00000000000E+00 0.  1.
<scales pt_clust_3="37.39702" pt_clust_4="37.39702" pt_clust_5="53.62228" pt_clust_6="144.19132"></scales>
<clustering>
<clus scale="   37.397">  3  4 -1 -1</clus>
<clus scale="   53.622">  2  5  1 -1</clus>
<clus scale="  144.191">  2  6  1 -1</clus>
<clus scale="  154.035">  1  3  2 -1</clus>
</clustering>
</event>
<event>
 6    0  0.4390142E+002  0.1367809E+03  0.7546771E-02  0.1217727E+00
         21   -1    0    0  506  501  0.00000000000E+00  0.00000000000E+00  0.25639697528E+03  0.25639697528E+03  0.00000000000E+00 0. -1.
         21   -1    0    0  503  502 -0.00000000000E+00 -0.00000000000E+00 -0.26147841081E+03  0.26147841081E+03  0.00000000000E+00 0.  1.
         21    1    1    2  503  505 -0.46897872796E+02  0.12342174150E+03 -0.17727552441E+02  0.13321637611E+03  0.00000000000E+00 0. -1.
         21    1    1    2  504  501 -0.11064394844E+02 -0.53729755721E+02  0.10945764049E+03  0.12243480937E+03  0.00000000000E+00 0. -1.
         21    1    1    2  505  504  0.39316403422E+01 -0.75028942981E+02  0.60082592412E+02  0.96201444852E+02  0.00000000000E+00 0. -1.
         21    1    1    2  506  502  0.54030627297E+02  0.53369572013E+01 -0.15689411600E+03  0.16602275577E+03  0.00000000000E+00 0.  1.
<scales pt_clust_3="127.59608" pt_clust_4="42.10663" pt_clust_5="42.10663" pt_clust_6="54.29357"></scales>
<clustering>
<clus scale="   42.107">  4  5 -1 -1</clus>
<clus scale="   54.294">  2  6  1 -1</clus>
<clus scale="  127.596">  2  3  1 -1</clus>
<clus scale="  136.781">  1  3  2 -1</clus>
</clustering>
</event>
<event>
 6    0  0.4390142E+002  0.1690692E+03  0.7546771E-02  0.1178822E+00
         21   -1    0    0  504  501  0.00000000000E+00  0.00000000000E+00  0.20604883414E+03  0.20604883414E+03  0.00000000000E+00 0. -1.
         21   -1    0    0  505  502 -0.00000000000E+00 -0.00000000000E+00 -0.28678703808E+03  0.28678703808E+03  0.00000000000E+00 0.  1.
         21    1    1    2  503  502 -0.20928709081E+02 -0.33766870167E+02 -0.14041518873E+03  0.14592682279E+03  0.00000000000E+00 0.  1.
         21    1    1    2  504  506 -0.77978832805E+02  0.90119324367E+00 -0.77953288923E+01  0.78372684447E+02  0.00000000000E+00 0. -1.
         21    1    1    2  505  501  0.16168256608E+03  0.70749489998E+02  0.80653476459E+02  0.19404052611E+03  0.00000000000E+00 0. -1.
         21    1    1    2  506  503 -0.62775024197E+02 -0.37883813074E+02 -0.13181162781E+02  0.74495838865E+02  0.00000000000E+00 0. -1.
<scales pt_clust_3="39.72672" pt_clust_4="41.71122" pt_clust_5="163.81383" pt_clust_6="41.71122"></scales>
<clustering>
<clus scale="   39.727">  2  3  1 -1</clus>
<clus scale="   41.711">  4  6 -1 -1</clus>
<clus scale="  163.814">  1  5  2 -1</clus>
<clus scale="  163.814">  1  3  2 -1</clus>
</clustering>
</event>
<event>
 6    0  0.4390142E+002  0.9840458E+02  0.7546771E-02  0.1283687E+00
         21   -1    0    0  506  501  0.00000000000E+00  0.00000000000E+00  0.94202399015E+03  0.94202399015E+03  0.00000000000E+00 0.  1.
         21   -1    0    0  505  502 -0.00000000000E+00 -0.00000000000E+00 -0.11253539077E+03  0.11253539077E+03  0.00000000000E+00 0.  1.
         21    1    1    2  503  501  0.10778073590E+03 -0.28873228086E+02  0.54268919600E+03  0.55404143688E+03  0.00000000000E+00 0.  1.
         21    1    1    2  504  502 -0.26994574013E+02  0.99736974713E+02 -0.63715525510E+02  0.12139126551E+03  0.00000000000E+00 0.  1.
         21    1    1    2  505  503 -0.22833624150E+02 -0.77848079196E+02  0.15315004245E+03  0.17331079980E+03  0.00000000000E+00 0.  1.
         21    1    1    2  506  504 -0.57952537738E+02  0.69843325683E+01  0.19736488645E+03  0.20581587872E+03  0.00000000000E+00 0.  1.
<scales pt_clust_3="69.05562" pt_clust_4="14000.00000" pt_clust_5="98.40458" pt_clust_6="58.37189"></scales>
<clustering>
<clus scale="   58.372">  1  6  2 -1</clus>
<clus scale="   69.056">  1  3  2 -1</clus>
<clus scale="   98.405">  1  5  2 -1</clus>
<clus scale="   58.372">  1  3  2 -1</clus>
</clustering>
</event>
<event>
 6    0  0.4390142E+002  0.8217133E+02  0.7546771E-02  0.1323000E+00
         21   -1    0    0  505  501  0.00000000000E+00  0.00000000000E+00  0.41946243445E+03  0.41946243445E+03  0.00000000000E+00 0. -1.
         21   -1    0    0  503  502 -0.00000000000E+00 -0.00000000000E+00 -0.18347718813E+03  0.18347718813E+03  0.00000000000E+00 0.  1.
         21    1    1    2  503  506 -0.42427889532E+02 -0.21879867426E+01 -0.13862213507E+03  0.14498623875E+03  0.00000000000E+00 0.  1.
         21    1    1    2  504  501  0.30612803838E+02 -0.35364487171E+02  0.11148668399E+03  0.12090108113E+03  0.00000000000E+00 0. -1.
         21    1    1    2  505  502  0.81147754866E+01  0.10916403510E+03  0.23642565599E+03  0.26053738110E+03  0.00000000000E+00 0. -1.
         21    1    1    2  506  504  0.37003102079E+01 -0.71611561184E+02  0.26695041414E+02  0.76514921596E+02  0.00000000000E+00 0.  1.
<scales pt_clust_3="42.48427" pt_clust_4="43.98725" pt_clust_5="82.17133" pt_clust_6="14000.00000"></scales>
<clustering>
<clus scale="   42.484">  2  3  1 -1</clus>
<clus scale="   43.987">  1  4  2 -1</clus>
<clus scale="   82.171">  1  5  2 -1</clus>
<clus scale="   43.987">  1  3  2 -1</clus>
</clustering>
</event>
<event>
 6    0  0.4390142E+002  0.8462132E+02  0.7546771E-02  0.1316426E+00
         21   -1    0    0  506  501  0.00000000000E+00  0.00000000000E+00  0.20721152151E+03  0.20721152151E+03  0.00000000000E+00 0. -1.
         21   -1    0    0  505  502 -0.00000000000E+00 -0.00000000000E+00 -0.28725994428E+03  0.28725994428E+03  0.00000000000E+00 0. -1.
         21    1    1    2  503  504  0.34457415330E+02  0.13738536356E+02  0.14602336955E+02  0.39865888890E+02  0.00000000000E+00 0. -1.
         21    1    1    2  504  501  0.26709186036E+02  0.16136834099E+02  0.13782228044E+03  0.14131085953E+03  0.00000000000E+00 0. -1.
         21    1    1    2  505  503  0.63232630459E+02  0.26184857726E+02 -0.11209453397E+03  0.13133619788E+03  0.00000000000E+00 0. -1.
         21    1    1    2  506  502 -0.12439923182E+03 -0.56060228181E+02 -0.12037850620E+03  0.18195851950E+03  0.00000000000E+00 0. -1.
<scales pt_clust_3="49.53250" pt_clust_4="31.20542" pt_clust_5="84.62132" pt_clust_6="14000.00000"></scales>
<clustering>
<clus scale="   31.205">  1  4  2 -1</clus>
<clus scale="   49.532">  1  3  2 -1</clus>
<clus scale="   84.621">  2  5  1 -1</clus>
<clus scale="   31.205">  1  3  2 -1</clus>
</clustering>
</event>
<event>
 6    0  0.4390142E+002  0.1718967E+03  0.7546771E-02  0.1175884E+00
         21   -1    0    0  504  501  0.00000000000E+00  0.00000000000E+00  0.26071140839E+04  0.26071140839E+04  0.00000000000E+00 0.  1.
         21   -1    0    0  503  502 -0.00000000000E+00 -0.00000000000E+00 -0.55639451101E+02  0.55639451101E+02  0.00000000000E+00 0. -1.
         21    1    1    2  503  501  0.17680097315E+02 -0.33881170350E+02  0.33759151360E+03  0.33974777350E+03  0.00000000000E+00 0. -1.
         21    1    1    2  504  506 -0.14628250509E+03 -0.70660630907E+02  0.16971439016E+04  0.17049014396E+04  0.00000000000E+00 0.  1.
         21    1    1    2  505  502 -0.47611283029E+02  0.22714718912E+01 -0.13936899154E+02  0.49661162031E+02  0.00000000000E+00 0. -1.
         21    1    1    2  506  505  0.17621369080E+03  0.10227032937E+03  0.53067611678E+03  0.56844315988E+03  0.00000000000E+00 0.  1.
<scales pt_clust_3="38.21674" pt_clust_4="171.89673" pt_clust_5="47.51438" pt_clust_6="14000.00000"></scales>
<clustering>
<clus scale="   38.217">  1  3  2 -1</clus>
<clus scale="   47.514">  2  5  1 -1</clus>
<clus scale="  171.897">  1  4  2 -1</clus>
<clus scale="   38.217">  1  3  2 -1</clus>
</clustering>
</event>
<event>
 6    0  0.4390142E+002  0.7916128E+02  0.7546771E-02  0.1331449E+00
         21   -1    0    0  506  501  0.00000000000E+00  0.00000000000E+00  0.51309718913E+03  0.51309718913E+03  0.00000000000E+00 0.  1.
         21   -1    0    0  504  502 -0.00000000000E+00 -0.00000000000E+00 -0.63263408605E+03  0.63263408605E+03  0.00000000000E+00 0. -1.
         21    1    1    2  503  502  0.67793106776E+02 -0.83193952429E+01 -0.12840694982E+03  0.14544229930E+03  0.00000000000E+00 0.  1.
         21    1    1    2  504  505 -0.12384487877E+03 -0.47058114318E+02 -0.47665347920E+03  0.49472270957E+03  0.00000000000E+00 0. -1.
         21    1    1    2  505  501  0.29844580083E+02 -0.70479918843E+01  0.23568118080E+02  0.38675952991E+02  0.00000000000E+00 0.  1.
         21    1    1    2  506  503  0.26207191916E+02  0.62425501445E+02  0.46195541402E+03  0.46689031333E+03  0.00000000000E+00 0.  1.
<scales pt_clust_3="68.84036" pt_clust_4="79.16128" pt_clust_5="30.66550" pt_clust_6="14000.00000"></scales>
<clustering>
<clus scale="   30.666">  1  5  2 -1</clus>
<clus scale="   68.840">  2  3  1 -1</clus>
<clus scale="   79.161">  2  4  1 -1</clus>
<clus scale="   30.666">  1  3  2 -1</clus>
</clustering>
</event>
<event>
 6    0  0.4390142E+002  0.1282756E+03  0.7546771E-02  0.1230037E+00
         21   -1    0    0  503  501  0.00000000000E+00  0.00000000000E+00  0.29745292321E+03  0.29745292321E+03  0.00000000000E+00 0.  1.
         21   -1    0    0  505  502 -0.00000000000E+00 -0.00000000000E+00 -0.15551693900E+03  0.15551693900E+03  0.00000000000E+00 0. -1.
         21    1    1    2  503  504  0.53149449077E+02  0.58488030850E+02  0.10609272513E+03  0.13229278142E+03  0.00000000000E+00 0.  1.
         21    1    1    2  504  506 -0.26356631902E+01  0.45533520110E+02  0.76291052500E+02  0.88885166736E+02  0.00000000000E+00 0.  1.
         21    1    1    2  505  501  0.32143687013E+00 -0.13950077281E+03  0.24913241273E+02  0.14170828672E+03  0.00000000000E+00 0. -1.
         21    1    1    2  506  502 -0.50835222757E+02  0.35479221848E+02 -0.65361034694E+02  0.90083627324E+02  0.00000000000E+00 0. -1.
<scales pt_clust_3="36.30399" pt_clust_4="36.30399" pt_clust_5="119.04165" pt_clust_6="61.99190"></scales>
<clustering>
<clus scale="   36.304">  3  4 -1 -1</clus>
<clus scale="   61.992">  2  6  1 -1</clus>
<clus scale="  119.042">  2  5  1 -1</clus>
<clus scale="  128.276">  1  3  2 -1</clus>
</clustering>
</event>
<event>
 6    0  0.4390142E+002  0.9562818E+02  0.7546771E-02  0.1289767E+00
         21   -1    0    0  505  501  0.00000000000E+00  0.00000000000E+00  0.17109549013E+03  0.17109549013E+03  0.00000000000E+00 0.  1.
         21   -1    0    0  503  502 -0.00000000000E+00 -0.00000000000E+00 -0.42057932201E+03  0.42057932201E+03  0.00000000000E+00 0.  1.
         21    1    1    2  503  504 -0.29932200373E+02  0.76807716859E+02 -0.32124002813E+03  0.33164818356E+03  0.00000000000E+00 0.  1.
         21    1    1    2  504  506  0.12024543652E+03 -0.38161598678E+02  0.16984472363E+02  0.12729393119E+03  0.00000000000E+00 0.  1.
         21    1    1    2  505  502 -0.76727821738E+02 -0.12662265633E+01  0.18573176646E+02  0.78953941314E+02  0.00000000000E+00 0.  1.
         21    1    1    2  506  501 -0.13585414405E+02 -0.37379891618E+02  0.36198547247E+02  0.53778756073E+02  0.00000000000E+00 0.  1.
<scales pt_clust_3="81.20749" pt_clust_4="14000.00000" pt_clust_5="95.62818" pt_clust_6="39.77210"></scales>
<clustering>
<clus scale="   39.772">  1  6  2 -1</clus>
<clus scale="   81.207">  2  3  1 -1</clus>
<clus scale="   95.628">  1  5  2 -1</clus>
<clus scale="   39.772">  1  3  2 -1</clus>
</clustering>
</event>
<event>
 6    0  0.4390142E+002  0.6839434E+02  0.7546771E-02  0.1365640E+00
         21   -1    0    0  504  501  0.00000000000E+00  0.00000000000E+00  0.55280078606E+03  0.55280078606E+03  0.00000000000E+00 0.  1.
         21   -1    0    0  506  502 -0.00000000000E+00 -0.00000000000E+00 -0.59423140975E+02  0.59423140975E+02  0.00000000000E+00 0. -1.
         21    1    1    2  503  502 -0.99132348453E+01 -0.30433412538E+02 -0.20841601606E+02  0.38194727140E+02  0.00000000000E+00 0. -1.
         21    1    1    2  504  505  0.54775381159E+02 -0.28240867475E+02  0.29500003983E+03  0.30136839993E+03  0.00000000000E+00 0.  1.
         21    1    1    2  505  503  0.52495100734E+02  0.26272948869E+02  0.66878896073E+02  0.88987584433E+02  0.00000000000E+00 0. -1.
         21    1    1    2  506  501 -0.97357247048E+02  0.32401331144E+02  0.15234031079E+03  0.18367321554E+03  0.00000000000E+00 0. -1.
<scales pt_clust_3="32.00726" pt_clust_4="68.39434" pt_clust_5="51.08947" pt_clust_6="14000.00000"></scales>
<clustering>
<clus scale="   32.007">  2  3  1 -1</clus>
<clus scale="   51.089">  2  5  1 -1</clus>
<clus scale="   68.394">  1  4  2 -1</clus>
<clus scale="   68.394">  1  3  2 -1</clus>
</clustering>
</event>
<event>
 6    0  0.4390142E+002  0.1646019E+03  0.7546771E-02  0.1183597E+00
         21   -1    0    0  503  501  0.00000000000E+00  0.00000000000E+00  0.88506152573E+03  0.88506152573E+03  0.00000000000E+00 0.  1.
         21   -1    0    0  505  502 -0.00000000000E+00 -0.00000000000E+00 -0.22456015357E+03  0.22456015357E+03  0.00000000000E+00 0.  1.
         21    1    1    2  503  502  0.11896142218E+03 -0.70038169006E+02 -0.45868982090E+02  0.14546865162E+03  0.00000000000E+00 0.  1.
         21    1    1    2  504  506  0.69941132814E+02  0.79464283344E+01  0.45528535924E+03  0.46069476459E+03  0.00000000000E+00 0.  1.
         21    1    1    2  505  504 -0.26396191951E+03  0.65885309151E+02  0.34542300049E+02  0.27424430606E+03  0.00000000000E+00 0.  1.
         21    1    1    2  506  501  0.75059364513E+02 -0.37935684785E+01  0.21654269496E+03  0.22921395704E+03  0.00000000000E+00 0.  1.
<scales pt_clust_3="138.04769" pt_clust_4="57.89530" pt_clust_5="153.34624" pt_clust_6="57.89530"></scales>
<clustering>
<clus scale="   57.895">  4  6 -1 -1</clus>
<clus scale="  138.048">  2  3  1 -1</clus>
<clus scale="  153.346">  2  5  1 -1</clus>
<clus scale="  164.602">  1  3  2 -1</clus>
</clustering>
</event>
<event>
 6    0  0.4390142E+002  0.1682897E+03  0.7546771E-02  0.1179643E+00
         21   -1    0    0  506  501  0.00000000000E+00  0.00000000000E+00  0.26779026110E+03  0.26779026110E+03  0.00000000000E+00 0. -1.
         21   -1    0    0  505  502 -0.00000000000E+00 -0.00000000000E+00 -0.10896357766E+03  0.10896357766E+03  0.00000000000E+00 0. -1.
         21    1    1    2  503  501  0.25907177661E+02 -0.97011312372E+02  0.77585883114E+02  0.12689344286E+03  0.00000000000E+00 0. -1.
         21    1    1    2  504  502 -0.16240762518E+02  0.65238442046E+02 -0.78292410280E+01  0.67683924996E+02  0.00000000000E+00 0. -1.
         21    1    1    2  505  503 -0.40348199548E+02 -0.54162687573E+02  0.41533384182E+02  0.79288056688E+02  0.00000000000E+00 0. -1.
         21    1    1    2  506  504  0.30681784405E+02  0.85935557898E+02  0.47536657165E+02  0.10288841422E+03  0.00000000000E+00 0. -1.
<scales pt_clust_3="59.47733" pt_clust_4="57.29884" pt_clust_5="59.47733" pt_clust_6="165.88624"></scales>
<clustering>
<clus scale="   57.299">  4  6 -1 -1</clus>
<clus scale="   59.477">  3  5 -1 -1</clus>
<clus scale="  165.886">  2  4  1 -1</clus>
<clus scale="  168.290">  1  3  2 -1</clus>
</clustering>
</event>
<event>
 6    0  0.4390142E+002  0.2249626E+03  0.7546771E-02  0.1130236E+00
         21   -1    0    0  505  501  0.00000000000E+00  0.00000000000E+00  0.10398900379E+04  0.10398900379E+04  0.00000000000E+00 0.  1.
         21   -1    0    0  504  502 -0.00000000000E+00 -0.00000000000E+00 -0.45684790574E+03  0.45684790574E+03  0.00000000000E+00 0. -1.
         21    1    1    2  503  501  0.70135456167E+02  0.24262363189E+02  0.43081101916E+03  0.43715646936E+03  0.00000000000E+00 0.  1.
         21    1    1    2  504  506 -0.21786345805E+03 -0.30602372811E+02 -0.39090301343E+03  0.44856009350E+03  0.00000000000E+00 0. -1.
         21    1    1    2  505  502  0.65940856233E+02 -0.77368409132E+02  0.69501711052E+02  0.12314444807E+03  0.00000000000E+00 0. -1.
         21    1    1    2  506  503  0.81787145646E+02  0.83708418753E+02  0.47363241537E+03  0.48787693269E+03  0.00000000000E+00 0.  1.
<scales pt_clust_3="43.10990" pt_clust_4="218.35171" pt_clust_5="101.65661" pt_clust_6="43.10990"></scales>
<clustering>
<clus scale="   43.110">  3  6 -1 -1</clus>
<clus scale="  101.657">  1  5  2 -1</clus>
<clus scale="  218.352">  2  4  1 -1</clus>
<clus scale="  101.657">  1  3  2 -1</clus>
</clustering>
</event>
<event>
 6    0  0.4390142E+002  0.1495247E+03  0.7546771E-02  0.1201058E+00
         21   -1    0    0  503  501  0.00000000000E+00  0.00000000000E+00  0.61532230629E+02  0.61532230629E+02  0.00000000000E+00 0. -1.
         21   -1    0    0  504  502 -0.00000000000E+00 -0.00000000000E+00 -0.88487788932E+03  0.88487788932E+03  0.00000000000E+00 0.  1.
         21    1    1    2  503  506 -0.77779643473E+02 -0.26247190297E+01 -0.74716315075E+02  0.10788461349E+03  0.00000000000E+00 0. -1.
         21    1    1    2  504  505  0.25372022255E+02 -0.30043139372E+02 -0.52080712438E+03  0.52228956579E+03  0.00000000000E+00 0.  1.
         21    1    1    2  505  501  0.12155979219E+03  0.70472178509E+02 -0.14638401333E+03  0.20290734432E+03  0.00000000000E+00 0. -1.
         21    1    1    2  506  502 -0.69152170968E+02 -0.37804320108E+02 -0.81438205911E+02  0.11332859635E+03  0.00000000000E+00 0. -1.
<scales pt_clust_3="36.20712" pt_clust_4="39.32340" pt_clust_5="145.01740" pt_clust_6="36.20712"></scales>
<clustering>
<clus scale="   36.207">  3  6 -1 -1</clus>
<clus scale="   39.323">  2  4  1 -1</clus>
<clus scale="  145.017">  1  5  2 -1</clus>
<clus scale="  145.017">  1  3  2 -1</clus>
</clustering>
</event>
<event>
 6    0  0.4390142E+002  0.1891041E+03  0.7546771E-02  0.1159272E+00
         21   -1    0    0  504  501  0.00000000000E+00  0.00000000000E+00  0.96785779522E+02  0.96785779522E+02  0.00000000000E+00 0. -1.
         21   -1    0    0  503  502 -0.00000000000E+00 -0.00000000000E+00 -0.76311923538E+03  0.76311923538E+03  0.00000000000E+00 0. -1.
         21    1    1    2  503  505 -0.35140542254E+02  0.11790027086E+03 -0.46379996276E+03  0.47983928251E+03  0.00000000000E+00 0. -1.
         21    1    1    2  504  502  0.42926802060E+02  0.66238357968E+02 -0.15269094206E+03  0.17188587547E+03  0.00000000000E+00 0. -1.
         21    1    1    2  505  506 -0.65887080872E+01 -0.11013332951E+03 -0.70998835650E+02  0.13120059454E+03  0.00000000000E+00 0. -1.
         21    1    1    2  506  501 -0.11975517194E+01 -0.74005299320E+02  0.21156284613E+02  0.76979262378E+02  0.00000000000E+00 0.  1.
<scales pt_clust_3="169.92187" pt_clust_4="78.93181" pt_clust_5="67.97118" pt_clust_6="67.97118"></scales>
<clustering>
<clus scale="   67.971">  5  6 -1 -1</clus>
<clus scale="   78.932">  2  4  1 -1</clus>
<clus scale="  169.922">  2  3  1 -1</clus>
<clus scale="  189.104">  1  3  2 -1</clus>
</clustering>
</event>
<event>
 6    0  0.4390142E+002  0.1126302E+03  0.7546771E-02  0.1255775E+00
         21   -1    0    0  505  501  0.00000000000E+00  0.00000000000E+00  0.14910889567E+03  0.14910889567E+03  0.00000000000E+00 0. -1.
         21   -1    0    0  506  502 -0.00000000000E+00 -0.00000000000E+00 -0.99990980880E+03  0.99990980880E+03  0.00000000000E+00 0. -1.
         21    1    1    2  503  502  0.10031619477E+03  0.83350187432E+02 -0.25647596658E+03  0.28773340806E+03  0.00000000000E+00 0. -1.
         21    1    1    2  504  501  0.79774929764E+02  0.14949218192E+02 -0.35819809853E+02  0.88716274275E+02  0.00000000000E+00 0.  1.
         21    1    1    2  505  503 -0.16205312814E+03 -0.62082441246E+02  0.35546446781E+02  0.17714117458E+03  0.00000000000E+00 0. -1.
         21    1    1    2  506  504 -0.18037996390E+02 -0.36216964377E+02 -0.59405158347E+03  0.59542784756E+03  0.00000000000E+00 0. -1.
<scales pt_clust_3="14000.00000" pt_clust_4="77.57238" pt_clust_5="112.63018" pt_clust_6="40.46032"></scales>
<clustering>
<clus scale="   40.460">  2  6  1 -1</clus>
<clus scale="   77.572">  1  4  2 -1</clus>
<clus scale="  112.630">  1  5  2 -1</clus>
<clus scale="   77.572">  1  3  2 -1</clus>
</clustering>
</event>
<event>
 6    0  0.4390142E+002  0.1155010E+03  0.7546771E-02  0.1250709E+00
         21   -1    0    0  503  501  0.00000000000E+00  0.00000000000E+00  0.28373060551E+03  0.28373060551E+03  0.00000000000E+00 0.  1.
         21   -1    0    0  506  502 -0.00000000000E+00 -0.00000000000E+00 -0.19267224285E+04  0.19267224285E+04  0.00000000000E+00 0.  1.
         21    1    1    2  503  502  0.84189494306E+02 -0.47433522937E+01 -0.60053237114E+03  0.60642353115E+03  0.00000000000E+00 0.  1.
         21    1    1    2  504  505  0.30928532458E+02  0.38848538812E+02  0.11467731969E+03  0.12496667851E+03  0.00000000000E+00 0.  1.
         21    1    1    2  505  501 -0.23313274182E+02  0.61561464564E+02  0.15073772148E+03  0.16448459913E+03  0.00000000000E+00 0.  1.
         21    1    1    2  506  504 -0.91804752582E+02 -0.95666651083E+02 -0.13078744931E+04  0.13145782253E+04  0.00000000000E+00 0.  1.
<scales pt_clust_3="84.32301" pt_clust_4="49.10627" pt_clust_5="49.10627" pt_clust_6="100.71614"></scales>
<clustering>
<clus scale="   49.106">  4  5 -1 -1</clus>
<clus scale="   84.323">  2  3  1 -1</clus>
<clus scale="  100.716">  2  6  1 -1</clus>
<clus scale="  115.501">  1  3  2 -1</clus>
</clustering>
</event>
<event>
 6    0  0.4390142E+002  0.8609581E+02  0.7546771E-02  0.1312591E+00
         21   -1    0    0  504  501  0.00000000000E+00  0.00000000000E+00  0.74033444336E+03  0.74033444336E+03  0.00000000000E+00 0. -1.
         21   -1    0    0  503  502 -0.00000000000E+00 -0.00000000000E+00 -0.81406255140E+03  0.81406255140E+03  0.00000000000E+00 0. -1.
         21    1    1    2  503  505  0.34594407375E+01 -0.13138284683E+03 -0.71762863668E+03  0.72956444565E+03  0.00000000000E+00 0. -1.
         21    1    1    2  504  506 -0.32757180771E+02 -0.55554188291E+01  0.28009999412E+02  0.43456364753E+02  0.00000000000E+00 0.  1.
         21    1    1    2  505  501  0.20766236234E+02  0.90131417064E+02  0.68843556302E+03  0.69462107176E+03  0.00000000000E+00 0. -1.
         21    1    1    2  506  502  0.85315037994E+01  0.46806848601E+02 -0.72545033789E+02  0.86755112589E+02  0.00000000000E+00 0.  1.
<scales pt_clust_3="14000.00000" pt_clust_4="33.22492" pt_clust_5="86.09581" pt_clust_6="47.46472"></scales>
<clustering>
<clus scale="   33.225">  1  4  2 -1</clus>
<clus scale="   47.465">  2  6  1 -1</clus>
<clus scale="   86.096">  1  5  2 -1</clus>
<clus scale="   33.225">  1  3  2 -1</clus>
</clustering>
</event>
<event>
 6    0  0.6725930E+002  0.1076734E+03  0.7546771E-02  0.1264940E+00
         21   -1    0    0  504  501  0.00000000000E+00  0.00000000000E+00  0.65242391689E+03  0.65242391689E+03  0.00000000000E+00 0. -1.
         21   -1    0    0  506  502 -0.00000000000E+00 -0.00000000000E+00 -0.73229987719E+03  0.73229987719E+03  0.00000000000E+00 0. -1.
         21    1    1    2  503  501  0.72703475257E+02 -0.84186254023E+02  0.60980154164E+03  0.61986372766E+03  0.00000000000E+00 0. -1.
         21    1    1    2  504  505 -0.72419996574E+02  0.74959544742E+01 -0.58831164843E+02  0.93605294690E+02  0.00000000000E+00 0. -1.
         21    1    1    2  505  502 -0.20915339771E+02  0.41288355546E+02 -0.78888814819E+01  0.46951189468E+02  0.00000000000E+00 0. -1.
         21    1    1    2  506  503  0.20631861088E+02  0.35401944003E+02 -0.62295745561E+03  0.62430358227E+03  0.00000000000E+00 0. -1.
<scales pt_clust_3="107.67337" pt_clust_4="14000.00000" pt_clust_5="52.62082" pt_clust_6="40.97525"></scales>
<clustering>
<clus scale="   40.975">  2  6  1 -1</clus>
<clus scale="   52.621">  2  5  1 -1</clus>
<clus scale="  107.673">  1  3  2 -1</clus>
<clus scale="  107.673">  1  3  2 -1</clus>
</clustering>
</event>
<event>
 6    0  0.4390142E+002  0.8798575E+02  0.7546771E-02  0.1307804E+00
         21   -1    0    0  503  501  0.00000000000E+00  0.00000000000E+00  0.23411288077E+03  0.23411288077E+03  0.00000000000E+00 0. -1.
         21   -1    0    0  504  502 -0.00000000000E+00 -0.00000000000E+00 -0.22370137222E+03  0.22370137222E+03  0.00000000000E+00 0. -1.
         21    1    1    2  503  505  0.92024785185E+02 -0.50268602077E+01  0.12727595173E+03  0.15714005950E+03  0.00000000000E+00 0. -1.
         21    1    1    2  504  501 -0.79088384445E+02 -0.41002503710E+02  0.57823332594E+02  0.10620600575E+03  0.00000000000E+00 0. -1.
         21    1    1    2  505  506  0.16971082518E+02  0.52025835786E+02 -0.11880521457E+03  0.13080284492E+03  0.00000000000E+00 0. -1.
         21    1    1    2  506  502 -0.29907483258E+02 -0.59964718685E+01 -0.55882561206E+02  0.63665342822E+02  0.00000000000E+00 0. -1.
<scales pt_clust_3="14000.00000" pt_clust_4="87.98575" pt_clust_5="47.81342" pt_clust_6="30.50271"></scales>
<clustering>
<clus scale="   30.503">  2  6  1 -1</clus>
<clus scale="   47.813">  2  5  1 -1</clus>
<clus scale="   87.986">  2  4  1 -1</clus>
<clus scale="   87.986">  1  3  2 -1</clus>
</clustering>
</event>
<event>
 6    0  0.4390142E+002  0.1436764E+03  0.7546771E-02  0.1208466E+00
         21   -1    0    0  504  501  0.00000000000E+00  0.00000000000E+00  0.10175595391E+04  0.10175595391E+04  0.00000000000E+00 0. -1.
         21   -1    0    0  501  502 -0.00000000000E+00 -0.00000000000E+00 -0.38895138150E+02  0.38895138150E+02  0.00000000000E+00 0. -1.
         21    1    1    2  503  506 -0.83567065306E+01  0.98405361661E+02  0.40803455123E+03  0.41981620353E+03  0.00000000000E+00 0. -1.
         21    1    1    2  504  503 -0.18094602322E+02  0.33734794007E+02  0.37648414160E+03  0.37842536891E+03  0.00000000000E+00 0. -1.
         21    1    1    2  505  502 -0.26679740441E+02 -0.21549732265E+02  0.79111694631E+01  0.35196393465E+02  0.00000000000E+00 0. -1.
         21    1    1    2  506  505  0.53131049293E+02 -0.11059042340E+03  0.18623453863E+03  0.22301671132E+03  0.00000000000E+00 0. -1.
<scales pt_clust_3="37.85902" pt_clust_4="37.85902" pt_clust_5="34.29577" pt_clust_6="130.70417"></scales>
<clustering>
<clus scale="   34.296">  2  5  1 -1</clus>
<clus scale="   37.859">  3  4 -1 -1</clus>
<clus scale="  130.704">  2  6  1 -1</clus>
<clus scale="  143.676">  1  3  2 -1</clus>
</clustering>
</event>
<event>
 6    0  0.4390142E+002  0.6549088E+02  0.7546771E-02  0.1376134E+00
         21   -1    0    0  504  501  0.00000000000E+00  0.00000000000E+00  0.27605966012E+02  0.27605966012E+02  0.00000000000E+00 0. -1.
         21   -1    0    0  506  502 -0.00000000000E+00 -0.00000000000E+00 -0.20061394628E+04  0.20061394628E+04  0.00000000000E+00 0. -1.
         21    1    1    2  503  505 -0.22945041549E+02 -0.66930889645E+02 -0.79494948083E+03  0.79809203479E+03  0.00000000000E+00 0. -1.
         21    1    1    2  504  503 -0.43006856208E+02  0.13364639574E+02 -0.91113633552E+02  0.10163610328E+03  0.00000000000E+00 0. -1.
         21    1    1    2  505  502 -0.15519255257E+02  0.64509180880E+02 -0.10264304186E+04  0.10285726449E+04  0.00000000000E+00 0. -1.
         21    1    1    2  506  501  0.81471153014E+02 -0.10942930809E+02 -0.66039963817E+02  0.10544464581E+03  0.00000000000E+00 0. -1.
<scales pt_clust_3="14000.00000" pt_clust_4="45.03558" pt_clust_5="65.49088" pt_clust_6="43.55822"></scales>
<clustering>
<clus scale="   45.036">  1  4  2 -1</clus>
<clus scale="   43.558">  1  6  2 -1</clus>
<clus scale="   65.491">  2  5  1 -1</clus>
<clus scale="   45.036">  1  3  2 -1</clus>
</clustering>
</event>
<event>
 6    0  0.4390142E+002  0.1278777E+03  0.7546771E-02  0.1230639E+00
         21   -1    0    0  504  501  0.00000000000E+00  0.00000000000E+00  0.54703014168E+03  0.54703014168E+03  0.00000000000E+00 0.  1.
         21   -1    0    0  503  502 -0.00000000000E+00 -0.00000000000E+00 -0.28368979700E+03  0.28368979700E+03  0.00000000000E+00 0. -1.
         21    1    1    2  503  506 -0.13174275553E+03 -0.28688671840E+02  0.34004537820E+02  0.13905215611E+03  0.00000000000E+00 0.  1.
         21    1    1    2  504  505 -0.50279665594E+02  0.58419185124E+02  0.35719360639E+03  0.36541499478E+03  0.00000000000E+00 0.  1.
         21    1    1    2  505  502  0.11773045185E+03 -0.60141693469E+02 -0.19022923885E+03  0.23165630986E+03  0.00000000000E+00 0. -1.
         21    1    1    2  506  501  0.64291969277E+02  0.30411180185E+02  0.62371439317E+02  0.94596477927E+02  0.00000000000E+00 0.  1.
<scales pt_clust_3="127.87766" pt_clust_4="81.87281" pt_clust_5="14000.00000" pt_clust_6="71.12171"></scales>
<clustering>
<clus scale="   71.122">  1  6  2 -1</clus>
<clus scale="   81.873">  1  4  2 -1</clus>
<clus scale="  127.878">  1  3  2 -1</clus>
<clus scale="   71.122">  1  3  2 -1</clus>
</clustering>
</event>
<event>
 6    0  0.4390142E+002  0.1036256E+03  0.7546771E-02  0.1272851E+00
         21   -1    0    0  505  501  0.00000000000E+00  0.00000000000E+00  0.75880061981E+02  0.75880061981E+02  0.00000000000E+00 0.  1.
         21   -1    0    0  504  502 -0.00000000000E+00 -0.00000000000E+00 -0.94151010448E+03  0.94151010448E+03  0.00000000000E+00 0.  1.
         21    1    1    2  503  501  0.12291460004E+02 -0.13138238212E+03 -0.21391616757E+02  0.13367876266E+03  0.00000000000E+00 0.  1.
         21    1    1    2  504  503  0.38113292956E+02 -0.40130976964E+02 -0.25999640132E+03  0.26582183340E+03  0.00000000000E+00 0. -1.
         21    1    1    2  505  506 -0.93009943518E+01  0.40300288175E+02 -0.43847513125E+02  0.60276248475E+02  0.00000000000E+00 0.  1.
         21    1    1    2  506  502 -0.41103758608E+02  0.13121307091E+03 -0.54039451129E+03  0.55761332192E+03  0.00000000000E+00 0.  1.
<scales pt_clust_3="14000.00000" pt_clust_4="53.81946" pt_clust_5="41.35966" pt_clust_6="103.62561"></scales>
<clustering>
<clus scale="   41.360">  1  5  2 -1</clus>
<clus scale="   53.819">  2  4  1 -1</clus>
<clus scale="  103.626">  2  6  1 -1</clus>
<clus scale="   41.360">  1  3  2 -1</clus>
</clustering>
</event>
<event>
 6    0  0.4390142E+002  0.1430327E+03  0.7546771E-02  0.1209306E+00
         21   -1    0    0  506  501  0.00000000000E+00  0.00000000000E+00  0.85513452803E+03  0.85513452803E+03  0.00000000000E+00 0.  1.
         21   -1    0    0  503  502 -0.00000000000E+00 -0.00000000000E+00 -0.30714732543E+03  0.30714732543E+03  0.00000000000E+00 0. -1.
         21    1    1    2  503  505 -0.92589237917E+02 -0.10563598606E+03 -0.27083387613E+03  0.30509460334E+03  0.00000000000E+00 0. -1.
         21    1    1    2  504  501  0.48704184639E+02  0.21260766430E+02  0.40799653451E+03  0.41144293646E+03  0.00000000000E+00 0.  1.
         21    1    1    2  505  504  0.57233006953E+02 -0.23738932807E+01  0.29451574479E+03  0.30003462531E+03  0.00000000000E+00 0.  1.
         21    1    1    2  506  502 -0.13347953675E+02  0.86749112907E+02  0.11630879942E+03  0.14570968836E+03  0.00000000000E+00 0. -1.
<scales pt_clust_3="139.14360" pt_clust_4="31.90777" pt_clust_5="31.90777" pt_clust_6="87.77002"></scales>
<clustering>
<clus scale="   31.908">  4  5 -1 -1</clus>
<clus scale="   87.770">  1  6  2 -1</clus>
<clus scale="  139.144">  2  3  1 -1</clus>
<clus scale="   87.770">  1  3  2 -1</clus>
</clustering>
</event>
<event>
 6    0  0.4390142E+002  0.8795296E+02  0.7546771E-02  0.1307886E+00
         21   -1    0    0  506  501  0.00000000000E+00  0.00000000000E+00  0.14320759208E+03  0.14320759208E+03  0.00000000000E+00 0.  1.
         21   -1    0    0  505  502 -0.00000000000E+00 -0.00000000000E+00 -0.26110640820E+03  0.26110640820E+03  0.00000000000E+00 0.  1.
         21    1    1    2  503  502  0.78499942035E+01  0.44264679974E+02 -0.10374756511E+03  0.11306874709E+03  0.00000000000E+00 0.  1.
         21    1    1    2  504  501 -0.20902970892E+00 -0.10897313162E+03  0.28527874579E+02  0.11264558019E+03  0.00000000000E+00 0.  1.
         21    1    1    2  505  504 -0.43256424595E+02 -0.60542880044E+01 -0.79909251589E+02  0.91067344101E+02  0.00000000000E+00 0.  1.
         21    1    1    2  506  503  0.35615460100E+02  0.70762739650E+02  0.37230125998E+02  0.87532328900E+02  0.00000000000E+00 0.  1.
<scales pt_clust_3="44.69751" pt_clust_4="14000.00000" pt_clust_5="43.67806" pt_clust_6="87.95296"></scales>
<clustering>
<clus scale="   43.678">  2  5  1 -1</clus>
<clus scale="   44.698">  2  3  1 -1</clus>
<clus scale="   87.953">  1  6  2 -1</clus>
<clus scale="   87.953">  1  3  2 -1</clus>
</clustering>
</event>
<event>
 6    0  0.4390142E+002  0.1696424E+03  0.7546771E-02  0.1178221E+00
         21   -1    0    0  503  501  0.00000000000E+00  0.00000000000E+00  0.26722020915E+03  0.26722020915E+03  0.00000000000E+00 0.  1.
         21   -1    0    0  505  502 -0.00000000000E+00 -0.00000000000E+00 -0.11586844994E+04  0.11586844994E+04  0.00000000000E+00 0.  1.
         21    1    1    2  503  506  0.13166693111E+03  0.14917334562E+03  0.14401345253E+03  0.24561910003E+03  0.00000000000E+00 0.  1.
         21    1    1    2  504  501 -0.71684347612E+02 -0.10444777478E+03 -0.22460999183E+02  0.12865644109E+03  0.00000000000E+00 0.  1.
         21    1    1    2  505  504 -0.33014055436E+01  0.46880108642E+02 -0.87636054105E+03  0.87761975922E+03  0.00000000000E+00 0.  1.
         21    1    1    2  506  502 -0.56681177953E+02 -0.91605679486E+02 -0.13665620251E+03  0.17400940817E+03  0.00000000000E+00 0.  1.
<scales pt_clust_3="14000.00000" pt_clust_4="169.64244" pt_clust_5="46.99621" pt_clust_6="88.01221"></scales>
<clustering>
<clus scale="   46.996">  2  5  1 -1</clus>
<clus scale="   88.012">  2  6  1 -1</clus>
<clus scale="  169.642">  2  4  1 -1</clus>
<clus scale="  169.642">  1  3  2 -1</clus>
</clustering>
</event>
<event>
 6    0  0.4390142E+002  0.1185174E+03  0.7546771E-02  0.1245563E+00
         21   -1    0    0  504  501  0.00000000000E+00  0.00000000000E+00  0.13842365447E+04  0.13842365447E+04  0.00000000000E+00 0. -1.
         21   -1    0    0  506  502 -0.00000000000E+00 -0.00000000000E+00 -0.58145804942E+03  0.58145804942E+03  0.00000000000E+00 0. -1.
         21    1    1    2  503  505  0.22271370709E+02  0.71831057722E+02  0.65663195958E+03  0.66092453817E+03  0.00000000000E+00 0. -1.
         21    1    1    2  504  502 -0.33908404775E+02  0.33268840083E+01 -0.16162963886E+03  0.16518168249E+03  0.00000000000E+00 0. -1.
         21    1    1    2  505  501  0.11632500990E+02  0.32179860690E+02  0.71634159159E+03  0.71715837467E+03  0.00000000000E+00 0. -1.
         21    1    1    2  506  503  0.45330759852E-02 -0.10733780242E+03 -0.40856541706E+03  0.42242999877E+03  0.00000000000E+00 0. -1.
<scales pt_clust_3="30.82556" pt_clust_4="34.07122" pt_clust_5="30.82556" pt_clust_6="109.35248"></scales>
<clustering>
<clus scale="   30.826">  3  5 -1 -1</clus>
<clus scale="   34.071">  2  4  1 -1</clus>
<clus scale="  109.352">  2  6  1 -1</clus>
<clus scale="  118.517">  1  3  2 -1</clus>
</clustering>
</event>
<event>
 6    0  0.4390142E+002  0.8389606E+02  0.7546771E-02  0.1318345E+00
         21   -1    0    0  504  501  0.00000000000E+00  0.00000000000E+00  0.75134824981E+03  0.75134824981E+03  0.00000000000E+00 0.  1.
         21   -1    0    0  505  502 -0.00000000000E+00 -0.00000000000E+00 -0.12987209208E+03  0.12987209208E+03  0.00000000000E+00 0. -1.
         21    1    1    2  503  502 -0.82048920191E+01  0.45043858204E+02  0.40300124596E+02  0.60994831399E+02  0.00000000000E+00 0.  1.
         21    1    1    2  504  503  0.86968395621E+02  0.43612081299E+02  0.47212324741E+03  0.48204343810E+03  0.00000000000E+00 0.  1.
         21    1    1    2  505  506 -0.44319142876E+01 -0.11790152185E+03 -0.73439387198E+02  0.13897393392E+03  0.00000000000E+00 0. -1.
         21    1    1    2  506  501 -0.74331589315E+02  0.29245582343E+02  0.18249217291E+03  0.19920813847E+03  0.00000000000E+00 0.  1.
<scales pt_clust_3="45.78503" pt_clust_4="14000.00000" pt_clust_5="78.75403" pt_clust_6="83.89606"></scales>
<clustering>
<clus scale="   45.785">  2  3  1 -1</clus>
<clus scale="   78.754">  2  5  1 -1</clus>
<clus scale="   83.896">  2  6  1 -1</clus>
<clus scale="   83.896">  1  3  2 -1</clus>
</clustering>
</event>
<event>
 6    0  0.4390142E+002  0.1834548E+03  0.7546771E-02  0.1164501E+00
         21   -1    0    0  506  501  0.00000000000E+00  0.00000000000E+00  0.28809040474E+03  0.28809040474E+03  0.00000000000E+00 0.  1.
         21   -1    0    0  505  502 -0.00000000000E+00 -0.00000000000E+00 -0.50604594238E+03  0.50604594238E+03  0.00000000000E+00 0.  1.
         21    1    1    2  503  502 -0.17997376030E+03  0.35335185887E+02 -0.20983856828E+03  0.27869580997E+03  0.00000000000E+00 0.  1.
         21    1    1    2  504  501  0.33941218502E+02 -0.12818952235E+02  0.32409308141E+02  0.48648690671E+02  0.00000000000E+00 0.  1.
         21    1    1    2  505  504  0.18596860756E+03  0.85889216713E+01 -0.21542152290E+03  0.28471832590E+03  0.00000000000E+00 0.  1.
         21    1    1    2  506  503 -0.39936065762E+02 -0.31105155323E+02  0.17489524539E+03  0.18207352058E+03  0.00000000000E+00 0.  1.
<scales pt_clust_3="183.45484" pt_clust_4="36.28129" pt_clust_5="14000.00000" pt_clust_6="43.20972"></scales>
<clustering>
<clus scale="   36.281">  1  4  2 -1</clus>
<clus scale="   43.210">  1  6  2 -1</clus>
<clus scale="  183.455">  2  3  1 -1</clus>
<clus scale="   36.281">  1  3  2 -1</clus>
</clustering>
</event>
<event>
 6    0  0.4390142E+002  0.1326508E+03  0.7546771E-02  0.1223575E+00
         21   -1    0    0  503  501  0.00000000000E+00  0.00000000000E+00  0.26877391888E+03  0.26877391888E+03  0.00000000000E+00 0.  1.
         21   -1    0    0  505  502 -0.00000000000E+00 -0.00000000000E+00 -0.24474423958E+03  0.24474423958E+03  0.00000000000E+00 0. -1.
         21    1    1    2  503  506  0.40343699793E+02  0.22353701565E+02  0.84320818561E+02  0.96110886633E+02  0.00000000000E+00 0.  1.
         21    1    1    2  504  502  0.29892363534E+02 -0.58198983274E+02 -0.15841037379E+03  0.17138996930E+03  0.00000000000E+00 0. -1.
         21    1    1    2  505  501 -0.10110584895E+03 -0.50103621525E+02  0.11941532360E+01  0.11284587535E+03  0.00000000000E+00 0. -1.
         21    1    1    2  506  504  0.30869785626E+02  0.85948903234E+02  0.96925081289E+02  0.13317142717E+03  0.00000000000E+00 0.  1.
<scales pt_clust_3="38.39875" pt_clust_4="65.42687" pt_clust_5="121.14766" pt_clust_6="38.39875"></scales>
<clustering>
<clus scale="   38.399">  3  6 -1 -1</clus>
<clus scale="   65.427">  2  4  1 -1</clus>
<clus scale="  121.148">  2  5  1 -1</clus>
<clus scale="  132.651">  1  3  2 -1</clus>
</clustering>
</event>
<event>
 6    0  0.4390142E+002  0.1331555E+03  0.7546771E-02  0.1222847E+00
         21   -1    0    0  504  501  0.00000000000E+00  0.00000000000E+00  0.17344582769E+03  0.17344582769E+03  0.00000000000E+00 0.  1.
         21   -1    0    0  501  502 -0.00000000000E+00 -0.00000000000E+00 -0.16042011492E+03  0.16042011492E+03  0.00000000000E+00 0.  1.
         21    1    1    2  503  506 -0.13726366220E+01  0.45428052130E+02  0.43172691251E+02  0.62685511256E+02  0.00000000000E+00 0.  1.
         21    1    1    2  504  503  0.77457479863E+01 -0.10729299141E+03  0.12922747779E+02  0.10834565071E+03  0.00000000000E+00 0.  1.
         21    1    1    2  505  502 -0.16638967620E+02 -0.33759455859E+02 -0.54234876260E+02  0.66014982438E+02  0.00000000000E+00 0.  1.
         21    1    1    2  506  505  0.10265856256E+02  0.95624395135E+02  0.11165150003E+02  0.96819798203E+02  0.00000000000E+00 0.  1.
<scales pt_clust_3="34.47109" pt_clust_4="123.35283" pt_clust_5="37.63716" pt_clust_6="34.47109"></scales>
<clustering>
<clus scale="   34.471">  3  6 -1 -1</clus>
<clus scale="   37.637">  2  5  1 -1</clus>
<clus scale="  123.353">  1  4  2 -1</clus>
<clus scale="  123.353">  1  3  2 -1</clus>
</clustering>
</event>
<event>
 6    0  0.4390142E+002  0.9081475E+02  0.7546771E-02  0.1300891E+00
         21   -1    0    0  502  501  0.00000000000E+00  0.00000000000E+00  0.21803420828E+04  0.21803420828E+04  0.00000000000E+00 0. -1.
         21   -1    0    0  503  502 -0.00000000000E+00 -0.00000000000E+00 -0.19897771986E+02  0.19897771986E+02  0.00000000000E+00 0. -1.
         21    1    1    2  503  504  0.84157756817E+02  0.70581083740E+02  0.25798082356E+03  0.28038959099E+03  0.00000000000E+00 0. -1.
         21    1    1    2  504  506  0.88406685082E+01 -0.92818822165E+02  0.31064712915E+03  0.32433798732E+03  0.00000000000E+00 0. -1.
         21    1    1    2  505  501 -0.41436766491E+02  0.10788706554E+02  0.11069155001E+04  0.11077433485E+04  0.00000000000E+00 0. -1.
         21    1    1    2  506  505 -0.51561658834E+02  0.11449031871E+02  0.48490085807E+03  0.48776892803E+03  0.00000000000E+00 0. -1.
<scales pt_clust_3="90.81475" pt_clust_4="14000.00000" pt_clust_5="42.81824" pt_clust_6="72.21521"></scales>
<clustering>
<clus scale="   42.818">  1  5  2 -1</clus>
<clus scale="   72.215">  1  6  2 -1</clus>
<clus scale="   90.815">  2  3  1 -1</clus>
<clus scale="   42.818">  1  3  2 -1</clus>
</clustering>
</event>
<event>
 6    0  0.4390142E+002  0.1678911E+03  0.7546771E-02  0.1180065E+00
         21   -1    0    0  506  501  0.00000000000E+00  0.00000000000E+00  0.62159398876E+02  0.62159398876E+02  0.00000000000E+00 0. -1.
         21   -1    0    0  505  502 -0.00000000000E+00 -0.00000000000E+00 -0.22985005146E+04  0.22985005146E+04  0.00000000000E+00 0. -1.
         21    1    1    2  503  504 -0.53077319545E+02 -0.18615269069E+03 -0.11691640437E+04  0.11850799919E+04  0.00000000000E+00 0. -1.
         21    1    1    2  504  502  0.38438995625E+02  0.30335592731E+02 -0.80901333878E+03  0.81049391540E+03  0.00000000000E+00 0. -1.
         21    1    1    2  505  501 -0.29993830071E+02  0.18776900481E+03 -0.24219330384E+03  0.30791951129E+03  0.00000000000E+00 0. -1.
         21    1    1    2  506  503  0.44632153991E+02 -0.31951906847E+02 -0.15970429374E+02  0.57166494867E+02  0.00000000000E+00 0. -1.
<scales pt_clust_3="167.89108" pt_clust_4="48.96738" pt_clust_5="14000.00000" pt_clust_6="55.23645"></scales>
<clustering>
<clus scale="   48.967">  2  4  1 -1</clus>
<clus scale="   55.236">  1  6  2 -1</clus>
<clus scale="  167.891">  2  3  1 -1</clus>
<clus scale="   55.236">  1  3  2 -1</clus>
</clustering>
</event>
<event>
 6    0  0.4390142E+002  0.1117839E+03  0.7546771E-02  0.1257302E+00
         21   -1    0    0  504  501  0.00000000000E+00  0.00000000000E+00  0.22083192684E+04  0.22083192684E+04  0.00000000000E+00 0. -1.
         21   -1    0    0  506  502 -0.00000000000E+00 -0.00000000000E+00 -0.64058791870E+02  0.64058791870E+02  0.00000000000E+00 0.  1.
         21    1    1    2  503  502 -0.12927867990E+02  0.32157138020E+02 -0.31088450613E+02  0.46558598109E+02  0.00000000000E+00 0.  1.
         21    1    1    2  504  505  0.71211910530E+02 -0.91814691226E+02  0.20791518611E+04  0.20823961043E+04  0.00000000000E+00 0. -1.
         21    1    1    2  505  503 -0.64392219431E+02  0.27161816667E+02  0.47271141217E+02  0.84372288103E+02  0.00000000000E+00 0. -1.
         21    1    1    2  506  501  0.61081768907E+01  0.32495736540E+02  0.48925924817E+02  0.59051069740E+02  0.00000000000E+00 0. -1.
<scales pt_clust_3="54.27757" pt_clust_4="111.78389" pt_clust_5="14000.00000" pt_clust_6="33.06483"></scales>
<clustering>
<clus scale="   33.065">  2  6  1 -1</clus>
<clus scale="   54.278">  2  3  1 -1</clus>
<clus scale="  111.784">  1  4  2 -1</clus>
<clus scale="  111.784">  1  3  2 -1</clus>
</clustering>
</event>
<event>
 6    0  0.4390142E+002  0.9862496E+02  0.7546771E-02  0.1283214E+00
         21   -1    0    0  504  501  0.00000000000E+00  0.00000000000E+00  0.33379673121E+03  0.33379673121E+03  0.00000000000E+00 0. -1.
         21   -1    0    0  503  502 -0.00000000000E+00 -0.00000000000E+00 -0.30020546304E+03  0.30020546304E+03  0.00000000000E+00 0. -1.
         21    1    1    2  503  501  0.44122742149E+02 -0.44050617767E+02  0.70647583892E+02  0.94225020085E+02  0.00000000000E+00 0. -1.
         21    1    1    2  504  505  0.20783931803E+02  0.25839659105E+02  0.20213789566E+03  0.20483990984E+03  0.00000000000E+00 0. -1.
         21    1    1    2  505  506 -0.14639309965E+03  0.72567417315E+01 -0.11645260400E+03  0.18720258787E+03  0.00000000000E+00 0. -1.
         21    1    1    2  506  502  0.81486425699E+02  0.10954216931E+02 -0.12274160738E+03  0.14773467645E+03  0.00000000000E+00 0. -1.
<scales pt_clust_3="63.61989" pt_clust_4="33.16112" pt_clust_5="14000.00000" pt_clust_6="98.62496"></scales>
<clustering>
<clus scale="   33.161">  1  4  2 -1</clus>
<clus scale="   63.620">  1  3  2 -1</clus>
<clus scale="   98.625">  2  6  1 -1</clus>
<clus scale="   33.161">  1  3  2 -1</clus>
</clustering>
</event>
<event>
 6    0  0.4390142E+002  0.9516666E+02  0.7546771E-02  0.1290801E+00
         21   -1    0    0  504  501  0.00000000000E+00  0.00000000000E+00  0.68891869803E+03  0.68891869803E+03  0.00000000000E+00 0.  1.
         21   -1    0    0  506  502 -0.00000000000E+00 -0.00000000000E+00 -0.35859241368E+03  0.35859241368E+03  0.00000000000E+00 0.  1.
         21    1    1    2  503  502  0.47293706899E+02 -0.55982578573E+02 -0.16644145477E+03  0.18186121544E+03  0.00000000000E+00 0.  1.
         21    1    1    2  504  503  0.49982664823E+02 -0.35569112251E+01  0.16989271059E+03  0.17712834757E+03  0.00000000000E+00 0.  1.
         21    1    1    2  505  501 -0.87913071573E+02  0.91776206712E+02  0.49808943496E+03  0.51404733779E+03  0.00000000000E+00 0.  1.
         21    1    1    2  506  505 -0.93633001501E+01 -0.32236716914E+02 -0.17121440642E+03  0.17447421091E+03  0.00000000000E+00 0.  1.
<scales pt_clust_3="95.16666" pt_clust_4="49.97581" pt_clust_5="14000.00000" pt_clust_6="33.56899"></scales>
<clustering>
<clus scale="   33.569">  2  6  1 -1</clus>
<clus scale="   49.976">  1  4  2 -1</clus>
<clus scale="   95.167">  2  3  1 -1</clus>
<clus scale="   49.976">  1  3  2 -1</clus>
</clustering>
</event>
<event>
 6    0  0.4390142E+002  0.1210521E+03  0.7546771E-02  0.1241371E+00
         21   -1    0    0  505  501  0.00000000000E+00  0.00000000000E+00  0.13017911489E+04  0.13017911489E+04  0.00000000000E+00 0. -1.
         21   -1    0    0  506  502 -0.00000000000E+00 -0.00000000000E+00 -0.41017192559E+03  0.41017192559E+03  0.00000000000E+00 0. -1.
         21    1    1    2  503  504 -0.98008725818E+02  0.55039517853E+02  0.10726821892E+03  0.15537544739E+03  0.00000000000E+00 0. -1.
         21    1    1    2  504  501  0.12426661378E+03  0.72022444688E+01  0.11507380433E+04  0.11574506936E+04  0.00000000000E+00 0. -1.
         21    1    1    2  505  502 -0.66482610307E+02 -0.44567617279E+02 -0.33676950043E+03  0.34615012120E+03  0.00000000000E+00 0. -1.
         21    1    1    2  506  503  0.40224722342E+02 -0.17674145043E+02 -0.29617538538E+02  0.52986812317E+02  0.00000000000E+00 0.  1.
<scales pt_clust_3="121.05208" pt_clust_4="14000.00000" pt_clust_5="67.58443" pt_clust_6="43.93636"></scales>
<clustering>
<clus scale="   43.936">  2  6  1 -1</clus>
<clus scale="   67.584">  2  5  1 -1</clus>
<clus scale="  121.052">  2  3  1 -1</clus>
<clus scale="  121.052">  1  3  2 -1</clus>
</clustering>
</event>
<event>
 6    0  0.4390143E+002  0.8689679E+02  0.7546771E-02  0.1310545E+00
         21   -1    0    0  506  501  0.00000000000E+00  0.00000000000E+00  0.69077197702E+03  0.69077197702E+03  0.00000000000E+00 0.  1.
         21   -1    0    0  504  502 -0.00000000000E+00 -0.00000000000E+00 -0.81461901740E+03  0.81461901740E+03  0.00000000000E+00 0. -1.
         21    1    1    2  503  502 -0.97220517272E+00  0.47139263937E+02 -0.73367328938E+03  0.73518674562E+03  0.00000000000E+00 0. -1.
         21    1    1    2  504  501  0.27658884010E+02  0.53030939212E+02 -0.11542702517E+02  0.60914106410E+02  0.00000000000E+00 0. -1.
         21    1    1    2  505  503 -0.11042082952E+03 -0.78626143359E+02  0.72637794310E+02  0.15378907365E+03  0.00000000000E+00 0. -1.
         21    1    1    2  506  505  0.83734150682E+02 -0.21544059790E+02  0.54873115720E+03  0.55550106875E+03  0.00000000000E+00 0.  1.
<scales pt_clust_3="47.14929" pt_clust_4="79.15518" pt_clust_5="14000.00000" pt_clust_6="86.89679"></scales>
<clustering>
<clus scale="   47.149">  2  3  1 -1</clus>
<clus scale="   79.155">  2  4  1 -1</clus>
<clus scale="   86.897">  1  6  2 -1</clus>
<clus scale="   86.897">  1  3  2 -1</clus>
</clustering>
</event>
<event>
 6    0  0.4390142E+002  0.5718911E+02  0.7546771E-02  0.1410021E+00
         21   -1    0    0  506  501  0.00000000000E+00  0.00000000000E+00  0.77984035516E+02  0.77984035516E+02  0.00000000000E+00 0. -1.
         21   -1    0    0  505  502 -0.00000000000E+00 -0.00000000000E+00 -0.53261654079E+03  0.53261654079E+03  0.00000000000E+00 0. -1.
         21    1    1    2  503  504 -0.47712038366E+02 -0.51293843614E+02 -0.20911252915E+03  0.22053468399E+03  0.00000000000E+00 0. -1.
         21    1    1    2  504  501  0.70629031061E+00 -0.55836669668E+02  0.95172713184E+01  0.56646367748E+02  0.00000000000E+00 0. -1.
         21    1    1    2  505  503 -0.10074890531E+02  0.60746274810E+02 -0.25242035795E+03  0.25982234397E+03  0.00000000000E+00 0. -1.
         21    1    1    2  506  502  0.57080638586E+02  0.46384238472E+02 -0.26168894972E+01  0.73597180589E+02  0.00000000000E+00 0. -1.
<scales pt_clust_3="14000.00000" pt_clust_4="55.84114" pt_clust_5="57.03057" pt_clust_6="57.18911"></scales>
<clustering>
<clus scale="   55.841">  1  4  2 -1</clus>
<clus scale="   57.031">  2  5  1 -1</clus>
<clus scale="   57.189">  1  6  2 -1</clus>
<clus scale="   55.841">  1  3  2 -1</clus>
</clustering>
</event>
<event>
 6    0  0.4390142E+002  0.9535441E+02  0.7546771E-02  0.1290380E+00
         21   -1    0    0  503  501  0.00000000000E+00  0.00000000000E+00  0.39379637850E+03  0.39379637850E+03  0.00000000000E+00 0.  1.
         21   -1    0    0  506  502 -0.00000000000E+00 -0.00000000000E+00 -0.75739028786E+02  0.75739028786E+02  0.00000000000E+00 0.  1.
         21    1    1    2  503  502 -0.12572906505E+01  0.86529742446E+02  0.21283764681E+03  0.22975822293E+03  0.00000000000E+00 0.  1.
         21    1    1    2  504  501 -0.40923244922E+02 -0.13466881848E+03  0.88825164364E+02  0.16643410849E+03  0.00000000000E+00 0.  1.
         21    1    1    2  505  504  0.22512000377E+02  0.23142192799E+02  0.24488696740E+02  0.40522185486E+02  0.00000000000E+00 0.  1.
         21    1    1    2  506  505  0.19668535196E+02  0.24996883232E+02 -0.80941581971E+01  0.32820890375E+02  0.00000000000E+00 0.  1.
<scales pt_clust_3="14000.00000" pt_clust_4="95.35441" pt_clust_5="71.48724" pt_clust_6="31.60439"></scales>
<clustering>
<clus scale="   31.604">  5  6 -1 -1</clus>
<clus scale="   71.487">  2  5  1 -1</clus>
<clus scale="   95.354">  2  4  1 -1</clus>
<clus scale="   95.354">  1  3  2 -1</clus>
</clustering>
</event>
<event>
 6    0  0.4390142E+002  0.9645667E+02  0.7546771E-02  0.1287929E+00
         21   -1    0    0  506  501  0.00000000000E+00  0.00000000000E+00  0.35310481943E+03  0.35310481943E+03  0.00000000000E+00 0. -1.
         21   -1    0    0  503  502 -0.00000000000E+00 -0.00000000000E+00 -0.12478342143E+03  0.12478342143E+03  0.00000000000E+00 0. -1.
         21    1    1    2  503  501 -0.13130191492E+03  0.17728041205E+01 -0.52191531668E+02  0.14130566752E+03  0.00000000000E+00 0. -1.
         21    1    1    2  504  502  0.35412726153E+02  0.20339037219E+02  0.73904134125E+01  0.41501274908E+02  0.00000000000E+00 0. -1.
         21    1    1    2  505  504  0.69335803457E+02 -0.68437435093E+01  0.24025692603E+03  0.25015531370E+03  0.00000000000E+00 0. -1.
         21    1    1    2  506  505  0.26553385313E+02 -0.15268097830E+02  0.32865590221E+02  0.44925984725E+02  0.00000000000E+00 0.  1.
<scales pt_clust_3="96.45667" pt_clust_4="42.08816" pt_clust_5="14000.00000" pt_clust_6="30.63000"></scales>
<clustering>
<clus scale="   30.630">  1  6  2 -1</clus>
<clus scale="   42.088">  2  4  1 -1</clus>
<clus scale="   96.457">  2  3  1 -1</clus>
<clus scale="   30.630">  1  3  2 -1</clus>
</clustering>
</event>
<event>
 6    0  0.4390142E+002  0.2061298E+03  0.7546771E-02  0.1144668E+00
         21   -1    0    0  503  501  0.00000000000E+00  0.00000000000E+00  0.10245950351E+03  0.10245950351E+03  0.00000000000E+00 0.  1.
         21   -1    0    0  506  502 -0.00000000000E+00 -0.00000000000E+00 -0.62171071672E+03  0.62171071672E+03  0.00000000000E+00 0.  1.
         21    1    1    2  503  504  0.12716893511E+03 -0.56043102311E+01 -0.55280948802E+02  0.13877798691E+03  0.00000000000E+00 0.  1.
         21    1    1    2  504  505  0.56206641350E+02  0.44184562487E+02 -0.15385806036E+02  0.73131286884E+02  0.00000000000E+00 0.  1.
         21    1    1    2  505  502  0.22495100729E+02  0.23147928772E+02 -0.52779781618E+02  0.61867289506E+02  0.00000000000E+00 0. -1.
         21    1    1    2  506  501 -0.20587067719E+03 -0.61728181028E+02 -0.39580467675E+03  0.45039365693E+03  0.00000000000E+00 0.  1.
<scales pt_clust_3="52.04592" pt_clust_4="52.04592" pt_clust_5="32.27780" pt_clust_6="194.14629"></scales>
<clustering>
<clus scale="   32.278">  2  5  1 -1</clus>
<clus scale="   52.046">  3  4 -1 -1</clus>
<clus scale="  194.146">  2  6  1 -1</clus>
<clus scale="  206.130">  1  3  2 -1</clus>
</clustering>
</event>
<event>
 6    0  0.4390142E+002  0.3905386E+03  0.7546771E-02  0.1047106E+00
         21   -1    0    0  505  501  0.00000000000E+00  0.00000000000E+00  0.43664027975E+03  0.43664027975E+03  0.00000000000E+00 0. -1.
         21   -1    0    0  506  502 -0.00000000000E+00 -0.00000000000E+00 -0.14916582599E+04  0.14916582599E+04  0.00000000000E+00 0.  1.
         21    1    1    2  503  501  0.43139769187E+02 -0.98834435024E+01  0.28819925155E+02  0.52813920768E+02  0.00000000000E+00 0. -1.
         21    1    1    2  504  503  0.26388953109E+02 -0.26611821895E+03 -0.47841354872E+02  0.27166906070E+03  0.00000000000E+00 0. -1.
         21    1    1    2  505  502  0.35401938542E+02 -0.14159650571E+03  0.22675714100E+03  0.26966955460E+03  0.00000000000E+00 0. -1.
         21    1    1    2  506  504 -0.10493066084E+03  0.41759816816E+03 -0.12627536915E+04  0.13341460036E+04  0.00000000000E+00 0.  1.
<scales pt_clust_3="44.25745" pt_clust_4="14000.00000" pt_clust_5="160.44826" pt_clust_6="390.53860"></scales>
<clustering>
<clus scale="   44.257">  1  3  2 -1</clus>
<clus scale="  160.448">  1  5  2 -1</clus>
<clus scale="  390.539">  2  6  1 -1</clus>
<clus scale="   44.257">  1  3  2 -1</clus>
</clustering>
</event>
<event>
 6    0  0.4390142E+002  0.8826925E+02  0.7546771E-02  0.1307098E+00
         21   -1    0    0  506  501  0.00000000000E+00  0.00000000000E+00  0.18437716942E+03  0.18437716942E+03  0.00000000000E+00 0. -1.
         21   -1    0    0  503  502 -0.00000000000E+00 -0.00000000000E+00 -0.81027923463E+03  0.81027923463E+03  0.00000000000E+00 0. -1.
         21    1    1    2  503  504  0.29428278172E+02 -0.24833785223E+02 -0.13249773794E+03  0.13797967605E+03  0.00000000000E+00 0. -1.
         21    1    1    2  504  501  0.35749265229E+02 -0.15200079620E+02 -0.17253428021E+01  0.38884819566E+02  0.00000000000E+00 0.  1.
         21    1    1    2  505  502 -0.98334345193E+02 -0.30924727912E+02 -0.64096822913E+03  0.64920432299E+03  0.00000000000E+00 0. -1.
         21    1    1    2  506  505  0.33156801792E+02  0.70958592755E+02  0.14928924466E+03  0.16858758543E+03  0.00000000000E+00 0. -1.
<scales pt_clust_3="38.50637" pt_clust_4="39.95489" pt_clust_5="88.26925" pt_clust_6="14000.00000"></scales>
<clustering>
<clus scale="   38.506">  2  3  1 -1</clus>
<clus scale="   39.955">  1  4  2 -1</clus>
<clus scale="   88.269">  2  5  1 -1</clus>
<clus scale="   39.955">  1  3  2 -1</clus>
</clustering>
</event>
<event>
 6    0  0.4390142E+002  0.1478424E+03  0.7546771E-02  0.1203150E+00
         21   -1    0    0  502  501  0.00000000000E+00  0.00000000000E+00  0.23078974680E+03  0.23078974680E+03  0.00000000000E+00 0.  1.
         21   -1    0    0  506  502 -0.00000000000E+00 -0.00000000000E+00 -0.19693789529E+03  0.19693789529E+03  0.00000000000E+00 0.  1.
         21    1    1    2  503  505  0.40934411880E+02  0.12272697284E+02  0.36359298203E+02  0.56109212616E+02  0.00000000000E+00 0.  1.
         21    1    1    2  504  503 -0.11119405509E+03 -0.14406154547E+03 -0.31861658253E+02  0.18475121660E+03  0.00000000000E+00 0.  1.
         21    1    1    2  505  501  0.49427526001E+02  0.79211336724E+02  0.70444825640E+02  0.11696148790E+03  0.00000000000E+00 0.  1.
         21    1    1    2  506  504  0.20832117205E+02  0.52577511464E+02 -0.41090614080E+02  0.69905724976E+02  0.00000000000E+00 0. -1.
<scales pt_clust_3="30.34431" pt_clust_4="140.87451" pt_clust_5="30.34431" pt_clust_6="56.55415"></scales>
<clustering>
<clus scale="   30.344">  3  5 -1 -1</clus>
<clus scale="   56.554">  2  6  1 -1</clus>
<clus scale="  140.875">  2  4  1 -1</clus>
<clus scale="  147.842">  1  3  2 -1</clus>
</clustering>
</event>
<event>
 6    0  0.4390142E+002  0.1105193E+03  0.7546771E-02  0.1259611E+00
         21   -1    0    0  503  501  0.00000000000E+00  0.00000000000E+00  0.13993672113E+04  0.13993672113E+04  0.00000000000E+00 0.  1.
         21   -1    0    0  506  502 -0.00000000000E+00 -0.00000000000E+00 -0.36127142982E+03  0.36127142982E+03  0.00000000000E+00 0. -1.
         21    1    1    2  503  504  0.41955450253E+02 -0.47626323325E+01  0.95584367888E+02  0.10449552075E+03  0.00000000000E+00 0.  1.
         21    1    1    2  504  502 -0.57254443067E+02  0.13260177758E+03 -0.25404331710E+03  0.29223160272E+03  0.00000000000E+00 0. -1.
         21    1    1    2  505  501  0.49211462512E+02 -0.58974932946E+02  0.12612113366E+04  0.12635481179E+04  0.00000000000E+00 0.  1.
         21    1    1    2  506  505 -0.33912469697E+02 -0.68864212297E+02 -0.64656605844E+02  0.10036339978E+03  0.00000000000E+00 0. -1.
<scales pt_clust_3="42.22490" pt_clust_4="110.51929" pt_clust_5="14000.00000" pt_clust_6="76.56752"></scales>
<clustering>
<clus scale="   42.225">  1  3  2 -1</clus>
<clus scale="   76.568">  2  6  1 -1</clus>
<clus scale="  110.519">  2  4  1 -1</clus>
<clus scale="   42.225">  1  3  2 -1</clus>
</clustering>
</event>
<event>
 6    0  0.4390142E+002  0.1443615E+03  0.7546771E-02  0.1207578E+00
         21   -1    0    0  506  501  0.00000000000E+00  0.00000000000E+00  0.61583363983E+03  0.61583363983E+03  0.00000000000E+00 0.  1.
         21   -1    0    0  503  502 -0.00000000000E+00 -0.00000000000E+00 -0.57645092864E+03  0.57645092864E+03  0.00000000000E+00 0.  1.
         21    1    1    2  503  504 -0.75880108564E+01  0.41032281937E+02 -0.21430787254E+03  0.21833252232E+03  0.00000000000E+00 0.  1.
         21    1    1    2  504  505 -0.75681055247E+02  0.64883072622E+02 -0.32881523714E+03  0.34359408524E+03  0.00000000000E+00 0.  1.
         21    1    1    2  505  501  0.28971456209E+02 -0.15969849337E+03  0.35460959216E+03  0.38998835484E+03  0.00000000000E+00 0.  1.
         21    1    1    2  506  502  0.54297609895E+02  0.53783138810E+02  0.22789622871E+03  0.24036960606E+03  0.00000000000E+00 0.  1.
<scales pt_clust_3="33.16082" pt_clust_4="33.16082" pt_clust_5="134.95642" pt_clust_6="76.42550"></scales>
<clustering>
<clus scale="   33.161">  3  4 -1 -1</clus>
<clus scale="   76.425">  1  6  2 -1</clus>
<clus scale="  134.956">  1  5  2 -1</clus>
<clus scale="   76.425">  1  3  2 -1</clus>
</clustering>
</event>
<event>
 6    0  0.4390142E+002  0.9009512E+02  0.7546771E-02  0.1302622E+00
         21   -1    0    0  505  501  0.00000000000E+00  0.00000000000E+00  0.21160036806E+04  0.21160036806E+04  0.00000000000E+00 0. -1.
         21   -1    0    0  504  502 -0.00000000000E+00 -0.00000000000E+00 -0.70862944057E+02  0.70862944057E+02  0.00000000000E+00 0.  1.
         21    1    1    2  503  501 -0.45645644920E+02 -0.33660282732E+02  0.11836725782E+04  0.11850305110E+04  0.00000000000E+00 0. -1.
         21    1    1    2  504  506  0.16379549281E+02 -0.65907232834E+02 -0.37783592424E+02  0.77715203345E+02  0.00000000000E+00 0.  1.
         21    1    1    2  505  502  0.64281683017E+00 -0.45819337908E+02  0.41980160225E+03  0.42229516951E+03  0.00000000000E+00 0. -1.
         21    1    1    2  506  503  0.28623278809E+02  0.14538685347E+03  0.47945014847E+03  0.50182574080E+03  0.00000000000E+00 0. -1.
<scales pt_clust_3="14000.00000" pt_clust_4="68.43783" pt_clust_5="45.82385" pt_clust_6="90.09512"></scales>
<clustering>
<clus scale="   45.824">  1  5  2 -1</clus>
<clus scale="   68.438">  2  4  1 -1</clus>
<clus scale="   90.095">  2  6  1 -1</clus>
<clus scale="   45.824">  1  3  2 -1</clus>
</clustering>
</event>
<event>
 6    0  0.4390142E+002  0.2374791E+03  0.7546771E-02  0.1121484E+00
         21   -1    0    0  504  501  0.00000000000E+00  0.00000000000E+00  0.74409380271E+03  0.74409380271E+03  0.00000000000E+00 0. -1.
         21   -1    0    0  503  502 -0.00000000000E+00 -0.00000000000E+00 -0.24028252410E+03  0.24028252410E+03  0.00000000000E+00 0. -1.
         21    1    1    2  503  506  0.15515352140E+03 -0.52643222121E+02 -0.79201597587E+02  0.18198026568E+03  0.00000000000E+00 0. -1.
         21    1    1    2  504  505  0.10477292051E+03  0.38291489806E+02  0.38055397797E+03  0.39656642976E+03  0.00000000000E+00 0. -1.
         21    1    1    2  505  502 -0.30426688325E+03  0.18920732924E+02  0.19120720711E+03  0.35985625801E+03  0.00000000000E+00 0. -1.
         21    1    1    2  506  501  0.44340441342E+02 -0.45690006090E+01  0.11251691112E+02  0.45973373357E+02  0.00000000000E+00 0.  1.
<scales pt_clust_3="34.10222" pt_clust_4="111.55090" pt_clust_5="228.30184" pt_clust_6="34.10222"></scales>
<clustering>
<clus scale="   34.102">  3  6 -1 -1</clus>
<clus scale="  111.551">  1  4  2 -1</clus>
<clus scale="  228.302">  1  5  2 -1</clus>
<clus scale="  111.551">  1  3  2 -1</clus>
</clustering>
</event>
<event>
 6    0  0.4390142E+002  0.3120945E+03  0.7546771E-02  0.1079346E+00
         21   -1    0    0  506  501  0.00000000000E+00  0.00000000000E+00  0.84053839215E+03  0.84053839215E+03  0.00000000000E+00 0. -1.
         21   -1    0    0  501  502 -0.00000000000E+00 -0.00000000000E+00 -0.46658368078E+03  0.46658368078E+03  0.00000000000E+00 0. -1.
         21    1    1    2  503  505 -0.57596557582E+02  0.15914331423E+03  0.42052001690E+03  0.45330016824E+03  0.00000000000E+00 0. -1.
         21    1    1    2  504  502  0.56258780388E+02 -0.68812491819E+01 -0.67763808722E+02  0.88342151510E+02  0.00000000000E+00 0.  1.
         21    1    1    2  505  504  0.77027887736E+02 -0.27576009761E+03 -0.29903964804E+03  0.41400680915E+03  0.00000000000E+00 0. -1.
         21    1    1    2  506  503 -0.75690110542E+02  0.12349803256E+03  0.32023815123E+03  0.35147294403E+03  0.00000000000E+00 0. -1.
<scales pt_clust_3="33.17075" pt_clust_4="56.67806" pt_clust_5="310.02798" pt_clust_6="33.17075"></scales>
<clustering>
<clus scale="   33.171">  3  6 -1 -1</clus>
<clus scale="   56.678">  2  4  1 -1</clus>
<clus scale="  310.028">  2  5  1 -1</clus>
<clus scale="  312.095">  1  3  2 -1</clus>
</clustering>
</event>
<event>
 6    0  0.4390142E+002  0.1246368E+03  0.7546771E-02  0.1235638E+00
         21   -1    0    0  503  501  0.00000000000E+00  0.00000000000E+00  0.14057668357E+03  0.14057668357E+03  0.00000000000E+00 0.  1.
         21   -1    0    0  504  502 -0.00000000000E+00 -0.00000000000E+00 -0.42315874941E+03  0.42315874941E+03  0.00000000000E+00 0.  1.
         21    1    1    2  503  502  0.15540116634E+03  0.42782881743E+01 -0.21241689903E+01  0.15547455851E+03  0.00000000000E+00 0.  1.
         21    1    1    2  504  506 -0.66650689860E+02  0.46028031175E+02 -0.28848677211E+03  0.29964230642E+03  0.00000000000E+00 0.  1.
         21    1    1    2  505  501 -0.44586370995E+02 -0.17470087937E+02  0.20661087051E+02  0.52153896970E+02  0.00000000000E+00 0.  1.
         21    1    1    2  506  505 -0.44164105482E+02 -0.32836231412E+02 -0.12632211788E+02  0.56464671088E+02  0.00000000000E+00 0.  1.
<scales pt_clust_3="119.19800" pt_clust_4="80.99935" pt_clust_5="33.96973" pt_clust_6="33.96973"></scales>
<clustering>
<clus scale="   33.970">  5  6 -1 -1</clus>
<clus scale="   80.999">  2  4  1 -1</clus>
<clus scale="  119.198">  2  3  1 -1</clus>
<clus scale="  124.637">  1  3  2 -1</clus>
</clustering>
</event>
<event>
 6    0  0.4390142E+002  0.1552156E+03  0.7546771E-02  0.1194207E+00
         21   -1    0    0  503  501  0.00000000000E+00  0.00000000000E+00  0.16679652036E+04  0.16679652036E+04  0.00000000000E+00 0.  1.
         21   -1    0    0  505  502 -0.00000000000E+00 -0.00000000000E+00 -0.13148879026E+03  0.13148879026E+03  0.00000000000E+00 0. -1.
         21    1    1    2  503  506 -0.16527480802E+02  0.48569053398E+02  0.10908035259E+03  0.12054307898E+03  0.00000000000E+00 0.  1.
         21    1    1    2  504  501 -0.84511576577E+02 -0.12130210653E+02  0.13318783011E+04  0.13346119876E+04  0.00000000000E+00 0.  1.
         21    1    1    2  505  504 -0.84474583487E+02  0.70794913768E+02  0.64736513864E+02  0.12782289035E+03  0.00000000000E+00 0.  1.
         21    1    1    2  506  502  0.18551364087E+03 -0.10723375651E+03  0.30781245851E+02  0.21647603696E+03  0.00000000000E+00 0. -1.
<scales pt_clust_3="51.30410" pt_clust_4="103.03106" pt_clust_5="14000.00000" pt_clust_6="155.21560"></scales>
<clustering>
<clus scale="   51.304">  1  3  2 -1</clus>
<clus scale="  103.031">  1  4  2 -1</clus>
<clus scale="  155.216">  1  6  2 -1</clus>
<clus scale="   51.304">  1  3  2 -1</clus>
</clustering>
</event>
<event>
 6    0  0.4390142E+002  0.7984406E+02  0.7546771E-02  0.1329495E+00
         21   -1    0    0  505  501  0.00000000000E+00  0.00000000000E+00  0.14557554393E+04  0.14557554393E+04  0.00000000000E+00 0. -1.
         21   -1    0    0  503  502 -0.00000000000E+00 -0.00000000000E+00 -0.12672631585E+03  0.12672631585E+03  0.00000000000E+00 0.  1.
         21    1    1    2  503  506  0.21668341911E+02  0.27984986706E+02 -0.11452003148E+03  0.11986456579E+03  0.00000000000E+00 0.  1.
         21    1    1    2  504  502 -0.10096744941E+03 -0.55121370170E+02  0.82327069798E+03  0.83126856878E+03  0.00000000000E+00 0. -1.
         21    1    1    2  505  504  0.17053325152E+02  0.39978587800E+02  0.39152132780E+03  0.39392645698E+03  0.00000000000E+00 0. -1.
         21    1    1    2  506  501  0.62245782347E+02 -0.12842204336E+02  0.22875712915E+03  0.23742216360E+03  0.00000000000E+00 0. -1.
<scales pt_clust_3="35.39317" pt_clust_4="14000.00000" pt_clust_5="47.79632" pt_clust_6="79.84406"></scales>
<clustering>
<clus scale="   35.393">  2  3  1 -1</clus>
<clus scale="   47.796">  1  5  2 -1</clus>
<clus scale="   79.844">  2  6  1 -1</clus>
<clus scale="   47.796">  1  3  2 -1</clus>
</clustering>
</event>
<event>
 6    0  0.4390142E+002  0.6984241E+02  0.7546771E-02  0.1360630E+00
         21   -1    0    0  506  501  0.00000000000E+00  0.00000000000E+00  0.16122308832E+03  0.16122308832E+03  0.00000000000E+00 0.  1.
         21   -1    0    0  505  502 -0.00000000000E+00 -0.00000000000E+00 -0.12077060803E+04  0.12077060803E+04  0.00000000000E+00 0. -1.
         21    1    1    2  503  504  0.70170073932E+02 -0.24875011592E+02 -0.51490253346E+03  0.52025688313E+03  0.00000000000E+00 0. -1.
         21    1    1    2  504  501  0.29720378841E+02 -0.38066603941E+02  0.23633077457E+02  0.53766993631E+02  0.00000000000E+00 0.  1.
         21    1    1    2  505  503 -0.41005803547E+02  0.59900271854E+02 -0.66571262578E+03  0.66965873295E+03  0.00000000000E+00 0. -1.
         21    1    1    2  506  502 -0.58884649226E+02  0.30413436783E+01  0.11049908977E+03  0.12524655894E+03  0.00000000000E+00 0.  1.
<scales pt_clust_3="14000.00000" pt_clust_4="48.29459" pt_clust_5="69.84241" pt_clust_6="45.22467"></scales>
<clustering>
<clus scale="   48.295">  1  4  2 -1</clus>
<clus scale="   45.225">  1  6  2 -1</clus>
<clus scale="   69.842">  2  5  1 -1</clus>
<clus scale="   48.295">  1  3  2 -1</clus>
</clustering>
</event>
<event>
 6    0  0.4390142E+002  0.1316874E+03  0.7546771E-02  0.1224973E+00
         21   -1    0    0  504  501  0.00000000000E+00  0.00000000000E+00  0.95526172478E+02  0.95526172478E+02  0.00000000000E+00 0.  1.
         21   -1    0    0  503  502 -0.00000000000E+00 -0.00000000000E+00 -0.47456354723E+03  0.47456354723E+03  0.00000000000E+00 0.  1.
         21    1    1    2  503  501  0.17440637235E+03  0.22239169740E+02 -0.23919478292E+03  0.29686075450E+03  0.00000000000E+00 0.  1.
         21    1    1    2  504  506 -0.55688334984E+02  0.76736859603E+01  0.15181431554E+02  0.58228446429E+02  0.00000000000E+00 0.  1.
         21    1    1    2  505  502 -0.63402141437E+02 -0.60400858307E+01 -0.13863348938E+03  0.15256329359E+03  0.00000000000E+00 0.  1.
         21    1    1    2  506  505 -0.55315895930E+02 -0.23872769870E+02 -0.16390534014E+02  0.62437225187E+02  0.00000000000E+00 0.  1.
<scales pt_clust_3="123.96445" pt_clust_4="42.92119" pt_clust_5="63.68920" pt_clust_6="42.92119"></scales>
<clustering>
<clus scale="   42.921">  4  6 -1 -1</clus>
<clus scale="   63.689">  2  5  1 -1</clus>
<clus scale="  123.964">  2  3  1 -1</clus>
<clus scale="  131.687">  1  3  2 -1</clus>
</clustering>
</event>
<event>
 6    0  0.4390142E+002  0.1620163E+03  0.7546771E-02  0.1186439E+00
         21   -1    0    0  503  501  0.00000000000E+00  0.00000000000E+00  0.40639206876E+03  0.40639206876E+03  0.00000000000E+00 0.  1.
         21   -1    0    0  505  502 -0.00000000000E+00 -0.00000000000E+00 -0.45336501039E+03  0.45336501039E+03  0.00000000000E+00 0.  1.
         21    1    1    2  503  504 -0.20359069793E+02 -0.11386425933E+03  0.17372469449E+03  0.20870992010E+03  0.00000000000E+00 0.  1.
         21    1    1    2  504  506 -0.16921957607E+02 -0.37551626779E+02  0.13460184672E+03  0.14076268846E+03  0.00000000000E+00 0.  1.
         21    1    1    2  505  501 -0.10255640291E+03  0.15618067934E+03 -0.83639519137E+02  0.20470903629E+03  0.00000000000E+00 0.  1.
         21    1    1    2  506  502  0.13983743031E+03 -0.47647932337E+01 -0.27165996369E+03  0.30557543429E+03  0.00000000000E+00 0.  1.
<scales pt_clust_3="31.28815" pt_clust_4="31.28815" pt_clust_5="153.29739" pt_clust_6="139.91858"></scales>
<clustering>
<clus scale="   31.288">  3  4 -1 -1</clus>
<clus scale="  139.919">  2  6  1 -1</clus>
<clus scale="  153.297">  2  5  1 -1</clus>
<clus scale="  162.016">  1  3  2 -1</clus>
</clustering>
</event>
<event>
 6    0  0.4390142E+002  0.1256275E+03  0.7546771E-02  0.1234092E+00
         21   -1    0    0  506  501  0.00000000000E+00  0.00000000000E+00  0.13987861002E+04  0.13987861002E+04  0.00000000000E+00 0. -1.
         21   -1    0    0  505  502 -0.00000000000E+00 -0.00000000000E+00 -0.95189785063E+02  0.95189785063E+02  0.00000000000E+00 0.  1.
         21    1    1    2  503  501 -0.11312193720E+03 -0.53360711532E+02  0.12237597297E+04  0.12301348765E+04  0.00000000000E+00 0. -1.
         21    1    1    2  504  503  0.18555614932E+02 -0.63241790412E+02  0.33582017402E+02  0.73970175022E+02  0.00000000000E+00 0.  1.
         21    1    1    2  505  504 -0.16227107465E+02  0.31252438837E+02  0.34860791797E+02  0.49551072185E+02  0.00000000000E+00 0.  1.
         21    1    1    2  506  502  0.11079342973E+03  0.85350063107E+02  0.11393776172E+02  0.14031976155E+03  0.00000000000E+00 0.  1.
<scales pt_clust_3="14000.00000" pt_clust_4="57.98461" pt_clust_5="35.21412" pt_clust_6="125.62746"></scales>
<clustering>
<clus scale="   35.214">  2  5  1 -1</clus>
<clus scale="   57.985">  2  4  1 -1</clus>
<clus scale="  125.627">  2  6  1 -1</clus>
<clus scale="  125.627">  1  3  2 -1</clus>
</clustering>
</event>
<event>
 6    0  0.4390142E+002  0.1645652E+03  0.7546771E-02  0.1183637E+00
         21   -1    0    0  505  501  0.00000000000E+00  0.00000000000E+00  0.65352850173E+03  0.65352850173E+03  0.00000000000E+00 0. -1.
         21   -1    0    0  506  502 -0.00000000000E+00 -0.00000000000E+00 -0.11960370738E+04  0.11960370738E+04  0.00000000000E+00 0. -1.
         21    1    1    2  503  504 -0.95309808223E+02 -0.68520364570E+02  0.27275344471E+03  0.29694013118E+03  0.00000000000E+00 0. -1.
         21    1    1    2  504  501 -0.50485919136E+02 -0.10665151783E+02  0.35623019013E+03  0.35994794325E+03  0.00000000000E+00 0. -1.
         21    1    1    2  505  502  0.17593276382E+03  0.56373259187E+02 -0.10157925966E+04  0.10324557526E+04  0.00000000000E+00 0. -1.
         21    1    1    2  506  503 -0.30137036462E+02  0.22812257167E+02 -0.15569961025E+03  0.16022174844E+03  0.00000000000E+00 0.  1.
<scales pt_clust_3="164.56521" pt_clust_4="51.64451" pt_clust_5="14000.00000" pt_clust_6="37.79735"></scales>
<clustering>
<clus scale="   37.797">  2  6  1 -1</clus>
<clus scale="   51.645">  1  4  2 -1</clus>
<clus scale="  164.565">  1  3  2 -1</clus>
<clus scale="   51.645">  1  3  2 -1</clus>
</clustering>
</event>
<event>
 6    0  0.4390142E+002  0.1023092E+03  0.7546771E-02  0.1275514E+00
         21   -1    0    0  506  501  0.00000000000E+00  0.00000000000E+00  0.62866329550E+03  0.62866329550E+03  0.00000000000E+00 0. -1.
         21   -1    0    0  504  502 -0.00000000000E+00 -0.00000000000E+00 -0.75712611531E+02  0.75712611531E+02  0.00000000000E+00 0. -1.
         21    1    1    2  503  505  0.37850374106E+02 -0.95731019367E+02  0.25513387506E+02  0.10605664444E+03  0.00000000000E+00 0. -1.
         21    1    1    2  504  501 -0.62073421948E+02  0.10208761022E+03  0.44945160524E+03  0.46506100173E+03  0.00000000000E+00 0. -1.
         21    1    1    2  505  502  0.33052746671E+02  0.24702410666E+02 -0.74441695358E+01  0.41929808195E+02  0.00000000000E+00 0. -1.
         21    1    1    2  506  503 -0.88296988282E+01 -0.31059001524E+02  0.85429860762E+02  0.91328452669E+02  0.00000000000E+00 0. -1.
<scales pt_clust_3="102.30921" pt_clust_4="14000.00000" pt_clust_5="40.44942" pt_clust_6="32.28971"></scales>
<clustering>
<clus scale="   32.290">  1  6  2 -1</clus>
<clus scale="   40.449">  2  5  1 -1</clus>
<clus scale="  102.309">  2  3  1 -1</clus>
<clus scale="   32.290">  1  3  2 -1</clus>
</clustering>
</event>
<event>
 6    0  0.4390142E+002  0.1170336E+03  0.7546771E-02  0.1248073E+00
         21   -1    0    0  504  501  0.00000000000E+00  0.00000000000E+00  0.28145659022E+03  0.28145659022E+03  0.00000000000E+00 0. -1.
         21   -1    0    0  505  502 -0.00000000000E+00 -0.00000000000E+00 -0.67647626860E+03  0.67647626860E+03  0.00000000000E+00 0. -1.
         21    1    1    2  503  501 -0.71006900318E+02  0.43297193125E+02  0.20942568836E+02  0.85762567678E+02  0.00000000000E+00 0. -1.
         21    1    1    2  504  506  0.99070747634E+02 -0.10252881715E+03  0.19647675755E+03  0.24275561299E+03  0.00000000000E+00 0. -1.
         21    1    1    2  505  503  0.66445327873E+01  0.57729877266E+02 -0.98950545347E+02  0.11475233753E+03  0.00000000000E+00 0. -1.
         21    1    1    2  506  502 -0.34708380102E+02  0.15017467542E+01 -0.51348845942E+03  0.51466234061E+03  0.00000000000E+00 0. -1.
<scales pt_clust_3="117.03356" pt_clust_4="14000.00000" pt_clust_5="60.90954" pt_clust_6="34.74085"></scales>
<clustering>
<clus scale="   34.741">  2  6  1 -1</clus>
<clus scale="   60.910">  2  5  1 -1</clus>
<clus scale="  117.034">  2  3  1 -1</clus>
<clus scale="  117.034">  1  3  2 -1</clus>
</clustering>
</event>
<event>
 6    0  0.4390142E+002  0.1253113E+03  0.7546771E-02  0.1234584E+00
         21   -1    0    0  506  501  0.00000000000E+00  0.00000000000E+00  0.29848945502E+03  0.29848945502E+03  0.00000000000E+00 0. -1.
         21   -1    0    0  503  502 -0.00000000000E+00 -0.00000000000E+00 -0.13177935078E+03  0.13177935078E+03  0.00000000000E+00 0. -1.
         21    1    1    2  503  501 -0.30080362919E+01 -0.37886914104E+02 -0.12064905366E+02  0.39875161243E+02  0.00000000000E+00 0. -1.
         21    1    1    2  504  502 -0.26857678829E+02  0.14741691706E+03 -0.26886782809E+02  0.15223659691E+03  0.00000000000E+00 0. -1.
         21    1    1    2  505  504  0.32442493862E+02 -0.57712684381E+02  0.93383478416E+02  0.11447158332E+03  0.00000000000E+00 0. -1.
         21    1    1    2  506  505 -0.25767787414E+01 -0.51817318575E+02  0.11227831399E+03  0.12368546433E+03  0.00000000000E+00 0. -1.
<scales pt_clust_3="38.00614" pt_clust_4="119.03650" pt_clust_5="34.66242" pt_clust_6="34.66242"></scales>
<clustering>
<clus scale="   34.662">  5  6 -1 -1</clus>
<clus scale="   38.006">  2  3  1 -1</clus>
<clus scale="  119.037">  2  4  1 -1</clus>
<clus scale="  125.311">  1  3  2 -1</clus>
</clustering>
</event>
<event>
 6    0  0.4390142E+002  0.5807303E+02  0.7546771E-02  0.1406101E+00
         21   -1    0    0  505  501  0.00000000000E+00  0.00000000000E+00  0.28413831952E+03  0.28413831952E+03  0.00000000000E+00 0.  1.
         21   -1    0    0  506  502 -0.00000000000E+00 -0.00000000000E+00 -0.65336634314E+03  0.65336634314E+03  0.00000000000E+00 0. -1.
         21    1    1    2  503  501 -0.49610552014E+02  0.19376992963E+00  0.12102441510E+01  0.49625690008E+02  0.00000000000E+00 0.  1.
         21    1    1    2  504  502  0.54848009541E+02  0.92601353557E+02 -0.68235206686E+02  0.12743374068E+03  0.00000000000E+00 0.  1.
         21    1    1    2  505  504 -0.23568518622E+02 -0.51163367738E+02  0.22466385518E+03  0.23161824861E+03  0.00000000000E+00 0.  1.
         21    1    1    2  506  503  0.18331061094E+02 -0.41631755749E+02 -0.52686691626E+03  0.52882698337E+03  0.00000000000E+00 0. -1.
<scales pt_clust_3="46.73669" pt_clust_4="58.07303" pt_clust_5="14000.00000" pt_clust_6="45.48880"></scales>
<clustering>
<clus scale="   45.489">  2  6  1 -1</clus>
<clus scale="   46.737">  2  3  1 -1</clus>
<clus scale="   58.073">  2  4  1 -1</clus>
<clus scale="   58.073">  1  3  2 -1</clus>
</clustering>
</event>
<event>
 6    0  0.4390142E+002  0.1782383E+03  0.7546771E-02  0.1169519E+00
         21   -1    0    0  506  501  0.00000000000E+00  0.00000000000E+00  0.57866622892E+03  0.57866622892E+03  0.00000000000E+00 0. -1.
         21   -1    0    0  504  502 -0.00000000000E+00 -0.00000000000E+00 -0.27095037450E+03  0.27095037450E+03  0.00000000000E+00 0.  1.
         21    1    1    2  503  502  0.14310468347E+03 -0.11424702404E+03 -0.20344476626E+03  0.27371720050E+03  0.00000000000E+00 0.  1.
         21    1    1    2  504  501 -0.56361659738E+02 -0.28124048625E+02  0.10155271353E+03  0.11950126536E+03  0.00000000000E+00 0. -1.
         21    1    1    2  505  503 -0.75532922674E+02  0.10174745931E+03  0.38971029437E+03  0.40979492606E+03  0.00000000000E+00 0. -1.
         21    1    1    2  506  505 -0.11210101061E+02  0.40623613348E+02  0.19897612781E+02  0.46603211495E+02  0.00000000000E+00 0.  1.
<scales pt_clust_3="178.23828" pt_clust_4="61.91570" pt_clust_5="14000.00000" pt_clust_6="42.14195"></scales>
<clustering>
<clus scale="   42.142">  1  6  2 -1</clus>
<clus scale="   61.916">  1  4  2 -1</clus>
<clus scale="  178.238">  2  3  1 -1</clus>
<clus scale="   42.142">  1  3  2 -1</clus>
</clustering>
</event>
<event>
 6    0  0.4390142E+002  0.9238342E+02  0.7546771E-02  0.1297180E+00
         21   -1    0    0  503  501  0.00000000000E+00  0.00000000000E+00  0.83127548442E+03  0.83127548442E+03  0.00000000000E+00 0.  1.
         21   -1    0    0  501  502 -0.00000000000E+00 -0.00000000000E+00 -0.59354136796E+02  0.59354136796E+02  0.00000000000E+00 0.  1.
         21    1    1    2  503  504 -0.36621023288E+02 -0.36689386290E+02  0.33956116991E+03  0.34349526710E+03  0.00000000000E+00 0.  1.
         21    1    1    2  504  505  0.21344439469E+02 -0.67243859512E+02  0.34754619246E+03  0.35463456914E+03  0.00000000000E+00 0.  1.
         21    1    1    2  505  506 -0.40090143053E+02  0.95851129837E+02  0.88422285773E+02  0.13643005271E+03  0.00000000000E+00 0.  1.
         21    1    1    2  506  502  0.55366726871E+02  0.80821159651E+01 -0.36083005181E+01  0.56069732259E+02  0.00000000000E+00 0.  1.
<scales pt_clust_3="51.83831" pt_clust_4="14000.00000" pt_clust_5="92.38342" pt_clust_6="53.75450"></scales>
<clustering>
<clus scale="   51.838">  1  3  2 -1</clus>
<clus scale="   53.754">  2  6  1 -1</clus>
<clus scale="   92.383">  2  5  1 -1</clus>
<clus scale="   51.838">  1  3  2 -1</clus>
</clustering>
</event>
<event>
 6    0  0.4390142E+002  0.1041839E+03  0.7546771E-02  0.1271736E+00
         21   -1    0    0  506  501  0.00000000000E+00  0.00000000000E+00  0.43644733878E+03  0.43644733878E+03  0.00000000000E+00 0.  1.
         21   -1    0    0  503  502 -0.00000000000E+00 -0.00000000000E+00 -0.20020426656E+03  0.20020426656E+03  0.00000000000E+00 0. -1.
         21    1    1    2  503  505  0.10899631982E+03 -0.18184863941E+02 -0.86696351639E+02  0.14045335310E+03  0.00000000000E+00 0. -1.
         21    1    1    2  504  501 -0.39791599033E+02 -0.18418520125E+02  0.13056113101E+03  0.13772734720E+03  0.00000000000E+00 0.  1.
         21    1    1    2  505  504 -0.56701280903E+02  0.64711324333E+02  0.26552587892E+03  0.27911750774E+03  0.00000000000E+00 0.  1.
         21    1    1    2  506  502 -0.12503439882E+02 -0.28107940267E+02 -0.73147586060E+02  0.79353397290E+02  0.00000000000E+00 0. -1.
<scales pt_clust_3="104.18387" pt_clust_4="44.52077" pt_clust_5="14000.00000" pt_clust_6="30.76349"></scales>
<clustering>
<clus scale="   30.763">  2  6  1 -1</clus>
<clus scale="   44.521">  1  4  2 -1</clus>
<clus scale="  104.184">  2  3  1 -1</clus>
<clus scale="   44.521">  1  3  2 -1</clus>
</clustering>
</event>
<event>
 6    0  0.4390142E+002  0.1096826E+03  0.7546771E-02  0.1261159E+00
         21   -1    0    0  504  501  0.00000000000E+00  0.00000000000E+00  0.45161807049E+03  0.45161807049E+03  0.00000000000E+00 0. -1.
         21   -1    0    0  503  502 -0.00000000000E+00 -0.00000000000E+00 -0.22526569054E+03  0.22526569054E+03  0.00000000000E+00 0. -1.
         21    1    1    2  503  505 -0.14457941802E+03 -0.96380060284E+02 -0.12768080338E+03  0.21562632420E+03  0.00000000000E+00 0. -1.
         21    1    1    2  504  502  0.81544084743E+02  0.25217852802E+02 -0.61343802345E+01  0.85574578453E+02  0.00000000000E+00 0. -1.
         21    1    1    2  505  506  0.20272639245E+02  0.44656058218E+02  0.10898134302E+03  0.11950764228E+03  0.00000000000E+00 0. -1.
         21    1    1    2  506  501  0.42762694031E+02  0.26506149264E+02  0.25118622055E+03  0.25617521609E+03  0.00000000000E+00 0. -1.
<scales pt_clust_3="98.23870" pt_clust_4="85.35442" pt_clust_5="48.16022" pt_clust_6="48.16022"></scales>
<clustering>
<clus scale="   48.160">  5  6 -1 -1</clus>
<clus scale="   85.354">  2  4  1 -1</clus>
<clus scale="   98.239">  2  3  1 -1</clus>
<clus scale="  109.683">  1  3  2 -1</clus>
</clustering>
</event>
<event>
 6    0  0.4390142E+002  0.1945346E+03  0.7546771E-02  0.1154434E+00
         21   -1    0    0  506  501  0.00000000000E+00  0.00000000000E+00  0.29141225192E+03  0.29141225192E+03  0.00000000000E+00 0.  1.
         21   -1    0    0  501  502 -0.00000000000E+00 -0.00000000000E+00 -0.65573216139E+03  0.65573216139E+03  0.00000000000E+00 0.  1.
         21    1    1    2  503  502 -0.17385889972E+02  0.36647776682E+02 -0.37508886087E+03  0.37727573769E+03  0.00000000000E+00 0.  1.
         21    1    1    2  504  503 -0.86549052044E+02  0.59635339031E+02 -0.17995020131E+03  0.20839670588E+03  0.00000000000E+00 0.  1.
         21    1    1    2  505  504 -0.46973613517E+02  0.23019357929E+02 -0.36477216550E+02  0.63773023557E+02  0.00000000000E+00 0.  1.
         21    1    1    2  506  505  0.15090855553E+03 -0.11930247364E+03  0.22719636926E+03  0.29769894618E+03  0.00000000000E+00 0.  1.
<scales pt_clust_3="40.56265" pt_clust_4="35.80208" pt_clust_5="35.80208" pt_clust_6="187.79851"></scales>
<clustering>
<clus scale="   35.802">  4  5 -1 -1</clus>
<clus scale="   40.563">  2  3  1 -1</clus>
<clus scale="  187.799">  1  6  2 -1</clus>
<clus scale="  187.799">  1  3  2 -1</clus>
</clustering>
</event>
<event>
 6    0  0.4390142E+002  0.5578014E+03  0.7546771E-02  0.9997042E-01
         21   -1    0    0  505  501  0.00000000000E+00  0.00000000000E+00  0.11075395751E+04  0.11075395751E+04  0.00000000000E+00 0.  1.
         21   -1    0    0  504  502 -0.00000000000E+00 -0.00000000000E+00 -0.53529198514E+03  0.53529198514E+03  0.00000000000E+00 0. -1.
         21    1    1    2  503  502  0.61545021951E+02 -0.10539658541E+03 -0.73894151544E+02  0.14267647170E+03  0.00000000000E+00 0. -1.
         21    1    1    2  504  506  0.58760018360E+02  0.47550438713E+02  0.34509143073E+02  0.83094313494E+02  0.00000000000E+00 0.  1.
         21    1    1    2  505  503 -0.50379130082E+03 -0.20051608425E+03 -0.11641386069E+03  0.55458503567E+03  0.00000000000E+00 0. -1.
         21    1    1    2  506  501  0.38348626051E+03  0.25836223094E+03  0.72804645917E+03  0.86247573942E+03  0.00000000000E+00 0.  1.
<scales pt_clust_3="122.05011" pt_clust_4="61.91122" pt_clust_5="536.37218" pt_clust_6="61.91122"></scales>
<clustering>
<clus scale="   61.911">  4  6 -1 -1</clus>
<clus scale="  122.050">  2  3  1 -1</clus>
<clus scale="  536.372">  2  5  1 -1</clus>
<clus scale="  557.801">  1  3  2 -1</clus>
</clustering>
</event>
<event>
 6    0  0.4390142E+002  0.1581349E+03  0.7546771E-02  0.1190819E+00
         21   -1    0    0  505  501  0.00000000000E+00  0.00000000000E+00  0.22768488491E+03  0.22768488491E+03  0.00000000000E+00 0.  1.
         21   -1    0    0  503  502 -0.00000000000E+00 -0.00000000000E+00 -0.99117401752E+03  0.99117401752E+03  0.00000000000E+00 0.  1.
         21    1    1    2  503  506 -0.13828058720E+03  0.21218151544E+02 -0.68195870037E+03  0.69616046984E+03  0.00000000000E+00 0.  1.
         21    1    1    2  504  502 -0.15272065774E+02  0.26230780477E+02 -0.26549312505E+03  0.26722254637E+03  0.00000000000E+00 0.  1.
         21    1    1    2  505  504  0.33786864393E+02  0.82534004206E+01  0.84109251636E+01  0.35782879791E+02  0.00000000000E+00 0. -1.
         21    1    1    2  506  501  0.11976578858E+03 -0.55702332442E+02  0.17555176764E+03  0.21969300643E+03  0.00000000000E+00 0.  1.
<scales pt_clust_3="158.13490" pt_clust_4="30.35276" pt_clust_5="34.62209" pt_clust_6="14000.00000"></scales>
<clustering>
<clus scale="   30.353">  2  4  1 -1</clus>
<clus scale="   34.622">  1  5  2 -1</clus>
<clus scale="  158.135">  2  3  1 -1</clus>
<clus scale="   34.622">  1  3  2 -1</clus>
</clustering>
</event>
<event>
 6    0  0.4390142E+002  0.1432898E+03  0.7546771E-02  0.1208970E+00
         21   -1    0    0  503  501  0.00000000000E+00  0.00000000000E+00  0.27508829996E+03  0.27508829996E+03  0.00000000000E+00 0. -1.
         21   -1    0    0  506  502 -0.00000000000E+00 -0.00000000000E+00 -0.33662193475E+03  0.33662193475E+03  0.00000000000E+00 0. -1.
         21    1    1    2  503  502 -0.26439681894E+02 -0.54371074660E+02 -0.16372111572E+03  0.17452757453E+03  0.00000000000E+00 0. -1.
         21    1    1    2  504  505 -0.45045502264E+02  0.43723101228E+02  0.82525670975E+02  0.10368844306E+03  0.00000000000E+00 0. -1.
         21    1    1    2  505  501 -0.25307577793E+02  0.80111278766E+02  0.14056252568E+03  0.16375626432E+03  0.00000000000E+00 0. -1.
         21    1    1    2  506  504  0.96792761951E+02 -0.69463305334E+02 -0.12090071573E+03  0.16973795279E+03  0.00000000000E+00 0. -1.
<scales pt_clust_3="60.45883" pt_clust_4="33.18512" pt_clust_5="33.18512" pt_clust_6="138.05130"></scales>
<clustering>
<clus scale="   33.185">  4  5 -1 -1</clus>
<clus scale="   60.459">  2  3  1 -1</clus>
<clus scale="  138.051">  2  6  1 -1</clus>
<clus scale="  143.290">  1  3  2 -1</clus>
</clustering>
</event>
