<event>
 5    0  0.5663008E-005  0.2484301E+03  0.7546771E-02  0.1114301E+00
         21   -1    0    0  502  501  0.00000000000E+00  0.00000000000E+00  0.28677370774E+03  0.28677370774E+03  0.00000000000E+00 0. -1.
         21   -1    0    0  501  502 -0.00000000000E+00 -0.00000000000E+00 -0.21521323664E+03  0.21521323664E+03  0.00000000000E+00 0. -1.
         25    1    1    2    0    0 -0.23800226407E+02  0.31297387391E+01 -0.49327986514E+02  0.13650822794E+03  0.12500000000E+03 0.  0.
         25    1    1    2    0    0 -0.71920082242E+02  0.32603382434E+02 -0.22495802848E+02  0.14955447142E+03  0.12500000000E+03 0.  0.
         25    1    1    2    0    0  0.95720308649E+02 -0.35733121173E+02  0.14338426047E+03  0.21592424502E+03  0.12500000000E+03 0.  0.
</event>
<event>
 5    0  0.5663008E-005  0.5177853E+03  0.7546771E-02  0.1009238E+00
         21   -1    0    0  502  501  0.00000000000E+00  0.00000000000E+00  0.13572588068E+04  0.13572588068E+04  0.00000000000E+00 0.  1.
         21   -1    0    0  501  502 -0.00000000000E+00 -0.00000000000E+00 -0.19753167887E+03  0.19753167887E+03  0.00000000000E+00 0.  1.
         25    1    1    2    0    0  0.59415969235E+02  0.19901382118E+03 -0.79902210093E+02  0.25523738284E+03  0.12500000000E+03 0.  0.
         25    1    1    2    0    0 -0.89813497738E+02 -0.36028665769E+02  0.77016177768E+03  0.78621796783E+03  0.12500000000E+03 0.  0.
         25    1    1    2    0    0  0.30397528503E+02 -0.16298515541E+03  0.46946756034E+03  0.51333513501E+03  0.12500000000E+03 0.  0.
</event>
<event>
 5    0  0.5663008E-005  0.6670799E+03  0.7546771E-02  0.9775247E-01
         21   -1    0    0  502  501  0.00000000000E+00  0.00000000000E+00  0.56657459507E+03  0.56657459507E+03  0.00000000000E+00 0. -1.
         21   -1    0    0  501  502 -0.00000000000E+00 -0.00000000000E+00 -0.78541406989E+03  0.78541406989E+03  0.00000000000E+00 0. -1.
         25    1    1    2    0    0 -0.18014345111E+03 -0.17494315792E+03 -0.37984233864E+02  0.28306284373E+03  0.12500000000E+03 0.  0.
         25    1    1    2    0    0  0.82536674252E+02  0.21742414872E+03 -0.58003483410E+03  0.63729975036E+03  0.12500000000E+03 0.  0.
         25    1    1    2    0    0  0.97606776854E+02 -0.42480990805E+02  0.39917959314E+03  0.43162607087E+03  0.12500000000E+03 0.  0.
</event>
<event>
 5    0  0.5663008E-005  0.2267821E+03  0.7546771E-02  0.1128925E+00
         21   -1    0    0  502  501  0.00000000000E+00  0.00000000000E+00  0.38239510005E+03  0.38239510005E+03  0.00000000000E+00 0. -1.
         21   -1    0    0  501  502 -0.00000000000E+00 -0.00000000000E+00 -0.13449476791E+03  0.13449476791E+03  0.00000000000E+00 0. -1.
         25    1    1    2    0    0  0.65630203081E+02 -0.88428957281E+01  0.13926191149E+03  0.19850541643E+03  0.12500000000E+03 0.  0.
         25    1    1    2    0    0 -0.48175338927E+02  0.67202149296E+02  0.14737032485E+02  0.15059605665E+03  0.12500000000E+03 0.  0.
         25    1    1    2    0    0 -0.17454864154E+02 -0.58359253568E+02  0.93901388161E+02  0.16778839489E+03  0.12500000000E+03 0.  0.
</event>
<event>
 5    0  0.5663008E-005  0.4012397E+03  0.7546771E-02  0.1043351E+00
         21   -1    0    0  502  501  0.00000000000E+00  0.00000000000E+00  0.82156059687E+02  0.82156059687E+02  0.00000000000E+00 0. -1.
         21   -1    0    0  501  502 -0.00000000000E+00 -0.00000000000E+00 -0.19596033738E+04  0.19596033738E+04  0.00000000000E+00 0. -1.
         25    1    1    2    0    0  0.20745671276E+03 -0.68783756161E+02 -0.33820747210E+03  0.42163821810E+03  0.12500000000E+03 0.  0.
         25    1    1    2    0    0 -0.49793985158E+02 -0.12424819837E+03 -0.31357051846E+03  0.36313706200E+03  0.12500000000E+03 0.  0.
         25    1    1    2    0    0 -0.15766272760E+03  0.19303195453E+03 -0.12256693235E+04  0.12569841533E+04  0.12500000000E+03 0.  0.
</event>
<event>
 5    0  0.5663008E-005  0.3761657E+03  0.7546771E-02  0.1052360E+00
         21   -1    0    0  502  501  0.00000000000E+00  0.00000000000E+00  0.83661858426E+03  0.83661858426E+03  0.00000000000E+00 0.  1.
         21   -1    0    0  501  502 -0.00000000000E+00 -0.00000000000E+00 -0.16913398398E+03  0.16913398398E+03  0.00000000000E+00 0.  1.
         25    1    1    2    0    0 -0.10227483728E+03  0.10532949013E+03  0.35508724455E+03  0.40406236533E+03  0.12500000000E+03 0.  0.
         25    1    1    2    0    0 -0.16162035861E+02 -0.23513255442E+03  0.27442641919E+03  0.38273148433E+03  0.12500000000E+03 0.  0.
         25    1    1    2    0    0  0.11843687314E+03  0.12980306429E+03  0.37970936531E+02  0.21895871858E+03  0.12500000000E+03 0.  0.
</event>
<event>
 5    0  0.5663008E-005  0.4427900E+03  0.7546771E-02  0.1029894E+00
         21   -1    0    0  502  501  0.00000000000E+00  0.00000000000E+00  0.19304555823E+04  0.19304555823E+04  0.00000000000E+00 0. -1.
         21   -1    0    0  501  502 -0.00000000000E+00 -0.00000000000E+00 -0.10156305052E+03  0.10156305052E+03  0.00000000000E+00 0. -1.
         25    1    1    2    0    0  0.17585068712E+03  0.20815145937E+02  0.14712852504E+03  0.26197048945E+03  0.12500000000E+03 0.  0.
         25    1    1    2    0    0 -0.30509864006E+03  0.86883148421E+02  0.97771238627E+03  0.10354614295E+04  0.12500000000E+03 0.  0.
         25    1    1    2    0    0  0.12924795294E+03 -0.10769829436E+03  0.70405162051E+03  0.73458671394E+03  0.12500000000E+03 0.  0.
</event>
<event>
 5    0  0.5663008E-005  0.3040391E+03  0.7546771E-02  0.1083239E+00
         21   -1    0    0  502  501  0.00000000000E+00  0.00000000000E+00  0.96661747088E+02  0.96661747088E+02  0.00000000000E+00 0.  1.
         21   -1    0    0  501  502 -0.00000000000E+00 -0.00000000000E+00 -0.95632200244E+03  0.95632200244E+03  0.00000000000E+00 0.  1.
         25    1    1    2    0    0  0.81045933843E+02 -0.60675669557E+02 -0.21144461098E+03  0.26567612573E+03  0.12500000000E+03 0.  0.
         25    1    1    2    0    0  0.88627131462E+02  0.13234801110E+03 -0.18897057967E+03  0.27695783877E+03  0.12500000000E+03 0.  0.
         25    1    1    2    0    0 -0.16967306531E+03 -0.71672341542E+02 -0.45924506470E+03  0.51034978503E+03  0.12500000000E+03 0.  0.
</event>
<event>
 5    0  0.5663008E-005  0.3810475E+03  0.7546771E-02  0.1050547E+00
         21   -1    0    0  502  501  0.00000000000E+00  0.00000000000E+00  0.28741993658E+03  0.28741993658E+03  0.00000000000E+00 0.  1.
         21   -1    0    0  501  502 -0.00000000000E+00 -0.00000000000E+00 -0.50517429835E+03  0.50517429835E+03  0.00000000000E+00 0.  1.
         25    1    1    2    0    0 -0.56467602936E+02  0.14491114553E+03 -0.33647679078E+03  0.39118980178E+03  0.12500000000E+03 0.  0.
         25    1    1    2    0    0 -0.18314483277E+02  0.39219198730E+02  0.10010085061E+03  0.16588775163E+03  0.12500000000E+03 0.  0.
         25    1    1    2    0    0  0.74782086212E+02 -0.18413034426E+03  0.18621578406E+02  0.23551668153E+03  0.12500000000E+03 0.  0.
</event>
<event>
 5    0  0.5663008E-005  0.2717627E+03  0.7546771E-02  0.1100275E+00
         21   -1    0    0  502  501  0.00000000000E+00  0.00000000000E+00  0.44754185575E+02  0.44754185575E+02  0.00000000000E+00 0. -1.
         21   -1    0    0  501  502 -0.00000000000E+00 -0.00000000000E+00 -0.16502363276E+04  0.16502363276E+04  0.00000000000E+00 0. -1.
         25    1    1    2    0    0 -0.11333212056E+02 -0.10841384957E+03 -0.68731514974E+03  0.70704251607E+03  0.12500000000E+03 0.  0.
         25    1    1    2    0    0  0.50452832624E+02  0.53635717152E+02 -0.76686460249E+03  0.78046690962E+03  0.12500000000E+03 0.  0.
         25    1    1    2    0    0 -0.39119620567E+02  0.54778132421E+02 -0.15130238984E+03  0.20748108751E+03  0.12500000000E+03 0.  0.
</event>
<event>
 5    0  0.5663008E-005  0.2535960E+03  0.7546771E-02  0.1111053E+00
         21   -1    0    0  502  501  0.00000000000E+00  0.00000000000E+00  0.14321626322E+03  0.14321626322E+03  0.00000000000E+00 0. -1.
         21   -1    0    0  501  502 -0.00000000000E+00 -0.00000000000E+00 -0.44904781297E+03  0.44904781297E+03  0.00000000000E+00 0. -1.
         25    1    1    2    0    0 -0.23901839955E+02  0.35501472089E+02 -0.93407519614E+02  0.16180734592E+03  0.12500000000E+03 0.  0.
         25    1    1    2    0    0 -0.56673897388E+02  0.60528358473E+02  0.49905693466E+01  0.15008503792E+03  0.12500000000E+03 0.  0.
         25    1    1    2    0    0  0.80575737342E+02 -0.96029830562E+02 -0.21741459948E+03  0.28037169236E+03  0.12500000000E+03 0.  0.
</event>
<event>
 5    0  0.5663008E-005  0.3370184E+03  0.7546771E-02  0.1068073E+00
         21   -1    0    0  502  501  0.00000000000E+00  0.00000000000E+00  0.13260010653E+03  0.13260010653E+03  0.00000000000E+00 0. -1.
         21   -1    0    0  501  502 -0.00000000000E+00 -0.00000000000E+00 -0.85657095156E+03  0.85657095156E+03  0.00000000000E+00 0. -1.
         25    1    1    2    0    0 -0.92868964551E+01 -0.16018410218E+02 -0.17216863394E+03  0.21356468441E+03  0.12500000000E+03 0.  0.
         25    1    1    2    0    0  0.21906643588E+03 -0.10395720153E+03 -0.26665713429E+03  0.38148162517E+03  0.12500000000E+03 0.  0.
         25    1    1    2    0    0 -0.20977953942E+03  0.11997561175E+03 -0.28514507679E+03  0.39412474851E+03  0.12500000000E+03 0.  0.
</event>
<event>
 5    0  0.5717175E-005  0.2982096E+03  0.7546771E-02  0.1086139E+00
         21   -1    0    0  502  501  0.00000000000E+00  0.00000000000E+00  0.64012137134E+03  0.64012137134E+03  0.00000000000E+00 0. -1.
         21   -1    0    0  501  502 -0.00000000000E+00 -0.00000000000E+00 -0.13892518895E+03  0.13892518895E+03  0.00000000000E+00 0. -1.
         25    1    1    2    0    0 -0.69020352561E+02  0.10131793724E+03  0.25217032829E+03  0.30699186951E+03  0.12500000000E+03 0.  0.
         25    1    1    2    0    0  0.13979600860E+03  0.33226822473E+02  0.18389032351E+03  0.26474062180E+03  0.12500000000E+03 0.  0.
         25    1    1    2    0    0 -0.70775656044E+02 -0.13454475971E+03  0.65135530589E+02  0.20731406898E+03  0.12500000000E+03 0.  0.
</event>
<event>
 5    0  0.5663008E-005  0.5115597E+03  0.7546771E-02  0.1010805E+00
         21   -1    0    0  502  501  0.00000000000E+00  0.00000000000E+00  0.11550006212E+04  0.11550006212E+04  0.00000000000E+00 0. -1.
         21   -1    0    0  501  502 -0.00000000000E+00 -0.00000000000E+00 -0.22657419973E+03  0.22657419973E+03  0.00000000000E+00 0. -1.
         25    1    1    2    0    0 -0.12952170900E+03  0.15549511111E+03  0.70605163999E+03  0.74504263033E+03  0.12500000000E+03 0.  0.
         25    1    1    2    0    0  0.15010365745E+03 -0.32495883276E+03  0.10002086122E+03  0.39212054734E+03  0.12500000000E+03 0.  0.
         25    1    1    2    0    0 -0.20581948451E+02  0.16946372165E+03  0.12235392026E+03  0.24441164326E+03  0.12500000000E+03 0.  0.
</event>
<event>
 5    0  0.5720125E-005  0.2911720E+03  0.7546771E-02  0.1089739E+00
         21   -1    0    0  502  501  0.00000000000E+00  0.00000000000E+00  0.18010990096E+03  0.18010990096E+03  0.00000000000E+00 0.  1.
         21   -1    0    0  501  502 -0.00000000000E+00 -0.00000000000E+00 -0.47071897719E+03  0.47071897719E+03  0.00000000000E+00 0.  1.
         25    1    1    2    0    0 -0.79444827873E+02  0.75793342966E+02 -0.10962975861E+03  0.19924807524E+03  0.12500000000E+03 0.  0.
         25    1    1    2    0    0 -0.33761426348E+02  0.86777996248E+02 -0.14815794603E+03  0.21504890494E+03  0.12500000000E+03 0.  0.
         25    1    1    2    0    0  0.11320625422E+03 -0.16257133921E+03 -0.32821371582E+02  0.23653189798E+03  0.12500000000E+03 0.  0.
</event>
<event>
 5    0  0.6038115E-005  0.2591973E+03  0.7546771E-02  0.1107626E+00
         21   -1    0    0  502  501  0.00000000000E+00  0.00000000000E+00  0.42494481629E+03  0.42494481629E+03  0.00000000000E+00 0.  1.
         21   -1    0    0  501  502 -0.00000000000E+00 -0.00000000000E+00 -0.15809871958E+03  0.15809871958E+03  0.00000000000E+00 0.  1.
         25    1    1    2    0    0  0.69004975276E+02 -0.50676900778E+02  0.12358814110E+03  0.19552202818E+03  0.12500000000E+03 0.  0.
         25    1    1    2    0    0 -0.84870745034E+02  0.13514285815E+03  0.47730212331E+02  0.20825419237E+03  0.12500000000E+03 0.  0.
         25    1    1    2    0    0  0.15865769758E+02 -0.84465957370E+02  0.95527743278E+02  0.17926731531E+03  0.12500000000E+03 0.  0.
</event>
<event>
 5    0  0.7883423E-005  0.4575115E+03  0.7546771E-02  0.1025505E+00
         21   -1    0    0  502  501  0.00000000000E+00  0.00000000000E+00  0.37628961751E+03  0.37628961751E+03  0.00000000000E+00 0.  1.
         21   -1    0    0  501  502 -0.00000000000E+00 -0.00000000000E+00 -0.55626495793E+03  0.55626495793E+03  0.00000000000E+00 0.  1.
         25    1    1    2    0    0 -0.40796036938E+02  0.77857846489E+02 -0.30991379416E+03  0.34553975271E+03  0.12500000000E+03 0.  0.
         25    1    1    2    0    0  0.26689699194E+03  0.87567123809E+01  0.28353748027E+02  0.29620874286E+03  0.12500000000E+03 0.  0.
         25    1    1    2    0    0 -0.22610095500E+03 -0.86614558869E+02  0.10158470571E+03  0.29080607988E+03  0.12500000000E+03 0.  0.
</event>
<event>
 5    0  0.5663008E-005  0.5413013E+03  0.7546771E-02  0.1003528E+00
         21   -1    0    0  502  501  0.00000000000E+00  0.00000000000E+00  0.49722862797E+03  0.49722862797E+03  0.00000000000E+00 0.  1.
         21   -1    0    0  501  502 -0.00000000000E+00 -0.00000000000E+00 -0.58928047845E+03  0.58928047845E+03  0.00000000000E+00 0.  1.
         25    1    1    2    0    0  0.36581277479E+02  0.81814213693E+02 -0.34199289234E+03  0.37498785825E+03  0.12500000000E+03 0.  0.
         25    1    1    2    0    0 -0.95374027607E+02  0.21158104537E+03  0.28155622147E+03  0.38569631804E+03  0.12500000000E+03 0.  0.
         25    1    1    2    0    0  0.58792750128E+02 -0.29339525907E+03 -0.31615179603E+02  0.32582493013E+03  0.12500000000E+03 0.  0.
</event>
<event>
 5    0  0.5663008E-005  0.3075102E+03  0.7546771E-02  0.1081545E+00
         21   -1    0    0  502  501  0.00000000000E+00  0.00000000000E+00  0.32493081962E+03  0.32493081962E+03  0.00000000000E+00 0.  1.
         21   -1    0    0  501  502 -0.00000000000E+00 -0.00000000000E+00 -0.29102361284E+03  0.29102361284E+03  0.00000000000E+00 0.  1.
         25    1    1    2    0    0 -0.46265763436E+01  0.10241951217E+03  0.93028122295E+02  0.18652183041E+03  0.12500000000E+03 0.  0.
         25    1    1    2    0    0 -0.14908068797E+03 -0.32325111158E+02  0.33028097892E+02  0.19996454583E+03  0.12500000000E+03 0.  0.
         25    1    1    2    0    0  0.15370726431E+03 -0.70094401013E+02 -0.92149013409E+02  0.22946805623E+03  0.12500000000E+03 0.  0.
</event>
<event>
 5    0  0.5893940E-005  0.3354798E+03  0.7546771E-02  0.1068738E+00
         21   -1    0    0  502  501  0.00000000000E+00  0.00000000000E+00  0.18958886766E+03  0.18958886766E+03  0.00000000000E+00 0.  1.
         21   -1    0    0  501  502 -0.00000000000E+00 -0.00000000000E+00 -0.59363574444E+03  0.59363574444E+03  0.00000000000E+00 0.  1.
         25    1    1    2    0    0 -0.20216529975E+03 -0.10346599575E+03 -0.25700261549E+03  0.36503611475E+03  0.12500000000E+03 0.  0.
         25    1    1    2    0    0  0.77105911205E+02  0.43267658808E+02 -0.17139461638E+03  0.22982281515E+03  0.12500000000E+03 0.  0.
         25    1    1    2    0    0  0.12505938855E+03  0.60198336940E+02  0.24350355089E+02  0.18836568219E+03  0.12500000000E+03 0.  0.
</event>
<event>
 5    0  0.5663008E-005  0.2362199E+03  0.7546771E-02  0.1122337E+00
         21   -1    0    0  502  501  0.00000000000E+00  0.00000000000E+00  0.37683454057E+03  0.37683454057E+03  0.00000000000E+00 0. -1.
         21   -1    0    0  501  502 -0.00000000000E+00 -0.00000000000E+00 -0.14807521056E+03  0.14807521056E+03  0.00000000000E+00 0. -1.
         25    1    1    2    0    0  0.31262629226E+02  0.56335204591E+02 -0.32536840722E+02  0.14434213961E+03  0.12500000000E+03 0.  0.
         25    1    1    2    0    0  0.20281677322E+02 -0.18153734856E+02  0.17099149803E+03  0.21355092349E+03  0.12500000000E+03 0.  0.
         25    1    1    2    0    0 -0.51544306548E+02 -0.38181469735E+02  0.90304672706E+02  0.16701668803E+03  0.12500000000E+03 0.  0.
</event>
<event>
 5    0  0.5663008E-005  0.3172673E+03  0.7546771E-02  0.1076914E+00
         21   -1    0    0  502  501  0.00000000000E+00  0.00000000000E+00  0.51390663885E+02  0.51390663885E+02  0.00000000000E+00 0.  1.
         21   -1    0    0  501  502 -0.00000000000E+00 -0.00000000000E+00 -0.19586927142E+04  0.19586927142E+04  0.00000000000E+00 0.  1.
         25    1    1    2    0    0 -0.84909985483E+02  0.17713696302E+03 -0.63507950111E+03  0.67641568731E+03  0.12500000000E+03 0.  0.
         25    1    1    2    0    0 -0.25483743473E+01  0.42098199043E+02 -0.37462590487E+03  0.39717542871E+03  0.12500000000E+03 0.  0.
         25    1    1    2    0    0  0.87458359830E+02 -0.21923516206E+03 -0.89759664430E+03  0.93649226203E+03  0.12500000000E+03 0.  0.
</event>
<event>
 5    0  0.5663008E-005  0.2771986E+03  0.7546771E-02  0.1097229E+00
         21   -1    0    0  502  501  0.00000000000E+00  0.00000000000E+00  0.13955169796E+03  0.13955169796E+03  0.00000000000E+00 0.  1.
         21   -1    0    0  501  502 -0.00000000000E+00 -0.00000000000E+00 -0.55061369544E+03  0.55061369544E+03  0.00000000000E+00 0.  1.
         25    1    1    2    0    0  0.67182443004E+02  0.90998354180E+02 -0.24178083474E+03  0.29474930562E+03  0.12500000000E+03 0.  0.
         25    1    1    2    0    0 -0.10278867848E+03 -0.12087102845E+01  0.27428308263E+01  0.16186258532E+03  0.12500000000E+03 0.  0.
         25    1    1    2    0    0  0.35606235480E+02 -0.89789643896E+02 -0.17202399356E+03  0.23355350247E+03  0.12500000000E+03 0.  0.
</event>
<event>
 5    0  0.5663008E-005  0.2881579E+03  0.7546771E-02  0.1091315E+00
         21   -1    0    0  502  501  0.00000000000E+00  0.00000000000E+00  0.11523538479E+04  0.11523538479E+04  0.00000000000E+00 0.  1.
         21   -1    0    0  501  502 -0.00000000000E+00 -0.00000000000E+00 -0.72056826650E+02  0.72056826650E+02  0.00000000000E+00 0.  1.
         25    1    1    2    0    0  0.24504821899E+02  0.39353028955E+02  0.57419014649E+03  0.58946456340E+03  0.12500000000E+03 0.  0.
         25    1    1    2    0    0 -0.93870411627E+02 -0.23529851188E+02  0.64899006410E+02  0.17088648018E+03  0.12500000000E+03 0.  0.
         25    1    1    2    0    0  0.69365589728E+02 -0.15823177767E+02  0.44120786830E+03  0.46405963092E+03  0.12500000000E+03 0.  0.
</event>
<event>
 5    0  0.5663008E-005  0.2587900E+03  0.7546771E-02  0.1107872E+00
         21   -1    0    0  502  501  0.00000000000E+00  0.00000000000E+00  0.10443011373E+03  0.10443011373E+03  0.00000000000E+00 0. -1.
         21   -1    0    0  501  502 -0.00000000000E+00 -0.00000000000E+00 -0.64131192969E+03  0.64131192969E+03  0.00000000000E+00 0. -1.
         25    1    1    2    0    0  0.15654611131E+03  0.55264964378E+01 -0.17824768465E+03  0.26820601077E+03  0.12500000000E+03 0.  0.
         25    1    1    2    0    0 -0.47758922384E+02  0.57917177467E+01 -0.88873651631E+02  0.16074198150E+03  0.12500000000E+03 0.  0.
         25    1    1    2    0    0 -0.10878718893E+03 -0.11318214184E+02 -0.26976047968E+03  0.31679405115E+03  0.12500000000E+03 0.  0.
</event>
<event>
 5    0  0.5663008E-005  0.4569727E+03  0.7546771E-02  0.1025663E+00
         21   -1    0    0  502  501  0.00000000000E+00  0.00000000000E+00  0.77611242710E+03  0.77611242710E+03  0.00000000000E+00 0. -1.
         21   -1    0    0  501  502 -0.00000000000E+00 -0.00000000000E+00 -0.26906420557E+03  0.26906420557E+03  0.00000000000E+00 0. -1.
         25    1    1    2    0    0  0.68549318669E+02 -0.43658499633E+02  0.63457095309E+03  0.65185149244E+03  0.12500000000E+03 0.  0.
         25    1    1    2    0    0 -0.11077055077E+03 -0.38497143900E+01  0.43039095542E+02  0.17251753234E+03  0.12500000000E+03 0.  0.
         25    1    1    2    0    0  0.42221232106E+02  0.47508214023E+02 -0.17056182710E+03  0.22080760789E+03  0.12500000000E+03 0.  0.
</event>
<event>
 5    0  0.5663008E-005  0.4646606E+03  0.7546771E-02  0.1023438E+00
         21   -1    0    0  502  501  0.00000000000E+00  0.00000000000E+00  0.18407543720E+03  0.18407543720E+03  0.00000000000E+00 0.  1.
         21   -1    0    0  501  502 -0.00000000000E+00 -0.00000000000E+00 -0.11729399392E+04  0.11729399392E+04  0.00000000000E+00 0.  1.
         25    1    1    2    0    0  0.24429214572E+02 -0.67677278672E+02 -0.16237141702E+03  0.21717844653E+03  0.12500000000E+03 0.  0.
         25    1    1    2    0    0  0.29080507437E+03  0.20800903756E+03 -0.59691767307E+03  0.70694487721E+03  0.12500000000E+03 0.  0.
         25    1    1    2    0    0 -0.31523428895E+03 -0.14033175889E+03 -0.22957541187E+03  0.43289205262E+03  0.12500000000E+03 0.  0.
</event>
<event>
 5    0  0.5663008E-005  0.4713998E+03  0.7546771E-02  0.1021526E+00
         21   -1    0    0  502  501  0.00000000000E+00  0.00000000000E+00  0.43891854630E+03  0.43891854630E+03  0.00000000000E+00 0.  1.
         21   -1    0    0  501  502 -0.00000000000E+00 -0.00000000000E+00 -0.50628466202E+03  0.50628466202E+03  0.00000000000E+00 0.  1.
         25    1    1    2    0    0 -0.24309628810E+03 -0.11374520212E+03 -0.69968445903E+02  0.30422748021E+03  0.12500000000E+03 0.  0.
         25    1    1    2    0    0  0.25849752189E+03 -0.16749010465E+03 -0.10077359745E+02  0.33256647028E+03  0.12500000000E+03 0.  0.
         25    1    1    2    0    0 -0.15401233787E+02  0.28123530677E+03  0.12679689928E+02  0.30840925783E+03  0.12500000000E+03 0.  0.
</event>
<event>
 5    0  0.5663008E-005  0.4186097E+03  0.7546771E-02  0.1037520E+00
         21   -1    0    0  502  501  0.00000000000E+00  0.00000000000E+00  0.10410283896E+04  0.10410283896E+04  0.00000000000E+00 0.  1.
         21   -1    0    0  501  502 -0.00000000000E+00 -0.00000000000E+00 -0.16832789849E+03  0.16832789849E+03  0.00000000000E+00 0.  1.
         25    1    1    2    0    0  0.62476314402E+02  0.67972179268E+02  0.36415715198E+03  0.39592794591E+03  0.12500000000E+03 0.  0.
         25    1    1    2    0    0  0.19353690562E+02 -0.14778524185E+03  0.59304650520E+03  0.62413476139E+03  0.12500000000E+03 0.  0.
         25    1    1    2    0    0 -0.81830004964E+02  0.79813062583E+02 -0.84503166028E+02  0.18929358082E+03  0.12500000000E+03 0.  0.
</event>
<event>
 5    0  0.5818594E-005  0.2994653E+03  0.7546771E-02  0.1085508E+00
         21   -1    0    0  502  501  0.00000000000E+00  0.00000000000E+00  0.51508659386E+03  0.51508659386E+03  0.00000000000E+00 0. -1.
         21   -1    0    0  501  502 -0.00000000000E+00 -0.00000000000E+00 -0.17410556690E+03  0.17410556690E+03  0.00000000000E+00 0. -1.
         25    1    1    2    0    0 -0.18055877420E+02  0.96104579912E+02  0.17512794733E+03  0.23634065017E+03  0.12500000000E+03 0.  0.
         25    1    1    2    0    0 -0.13997808151E+03 -0.67340357445E+01  0.13271322099E+03  0.22995001536E+03  0.12500000000E+03 0.  0.
         25    1    1    2    0    0  0.15803395893E+03 -0.89370544167E+02  0.33139858651E+02  0.22290149522E+03  0.12500000000E+03 0.  0.
</event>
<event>
 5    0  0.5663008E-005  0.2702103E+03  0.7546771E-02  0.1101159E+00
         21   -1    0    0  502  501  0.00000000000E+00  0.00000000000E+00  0.41637380336E+02  0.41637380336E+02  0.00000000000E+00 0.  1.
         21   -1    0    0  501  502 -0.00000000000E+00 -0.00000000000E+00 -0.17535595311E+04  0.17535595311E+04  0.00000000000E+00 0.  1.
         25    1    1    2    0    0 -0.13920716665E+03 -0.68932202262E+02 -0.56994395310E+03  0.60381403878E+03  0.12500000000E+03 0.  0.
         25    1    1    2    0    0  0.16304964453E+02  0.90492561159E+02 -0.66188628717E+03  0.67983322413E+03  0.12500000000E+03 0.  0.
         25    1    1    2    0    0  0.12290220219E+03 -0.21560358897E+02 -0.48009191048E+03  0.51154964850E+03  0.12500000000E+03 0.  0.
</event>
<event>
 5    0  0.5663008E-005  0.2777391E+03  0.7546771E-02  0.1096930E+00
         21   -1    0    0  502  501  0.00000000000E+00  0.00000000000E+00  0.63329283680E+02  0.63329283680E+02  0.00000000000E+00 0.  1.
         21   -1    0    0  501  502 -0.00000000000E+00 -0.00000000000E+00 -0.12180624624E+04  0.12180624624E+04  0.00000000000E+00 0.  1.
         25    1    1    2    0    0  0.82715183518E+02 -0.37117104696E+02 -0.22804344412E+03  0.27540568885E+03  0.12500000000E+03 0.  0.
         25    1    1    2    0    0  0.88708514351E+02  0.66719757548E+02 -0.52176066210E+03  0.54788677213E+03  0.12500000000E+03 0.  0.
         25    1    1    2    0    0 -0.17142369787E+03 -0.29602652852E+02 -0.40492907250E+03  0.45809928509E+03  0.12500000000E+03 0.  0.
</event>
<event>
 5    0  0.5663008E-005  0.3609297E+03  0.7546771E-02  0.1058216E+00
         21   -1    0    0  502  501  0.00000000000E+00  0.00000000000E+00  0.36593488232E+03  0.36593488232E+03  0.00000000000E+00 0. -1.
         21   -1    0    0  501  502 -0.00000000000E+00 -0.00000000000E+00 -0.35599291957E+03  0.35599291957E+03  0.00000000000E+00 0. -1.
         25    1    1    2    0    0 -0.19345315302E+03  0.40102056178E+02  0.11561910997E+03  0.26081617265E+03  0.12500000000E+03 0.  0.
         25    1    1    2    0    0  0.22738859021E+03  0.64151593964E+02 -0.62193223313E+01  0.26736618697E+03  0.12500000000E+03 0.  0.
         25    1    1    2    0    0 -0.33935437193E+02 -0.10425365014E+03 -0.99457824891E+02  0.19374544226E+03  0.12500000000E+03 0.  0.
</event>
<event>
 5    0  0.6190965E-005  0.2974806E+03  0.7546771E-02  0.1086507E+00
         21   -1    0    0  502  501  0.00000000000E+00  0.00000000000E+00  0.56383815777E+03  0.56383815777E+03  0.00000000000E+00 0.  1.
         21   -1    0    0  501  502 -0.00000000000E+00 -0.00000000000E+00 -0.15695059170E+03  0.15695059170E+03  0.00000000000E+00 0.  1.
         25    1    1    2    0    0 -0.14848171833E+03 -0.11860422770E+03  0.17511461695E+03  0.28706081685E+03  0.12500000000E+03 0.  0.
         25    1    1    2    0    0  0.13671895025E+03 -0.11167842669E+02  0.10665277179E+03  0.21404813897E+03  0.12500000000E+03 0.  0.
         25    1    1    2    0    0  0.11762768080E+02  0.12977207037E+03  0.12512017733E+03  0.21967979365E+03  0.12500000000E+03 0.  0.
</event>
<event>
 5    0  0.5663008E-005  0.3356877E+03  0.7546771E-02  0.1068648E+00
         21   -1    0    0  502  501  0.00000000000E+00  0.00000000000E+00  0.76047102852E+03  0.76047102852E+03  0.00000000000E+00 0.  1.
         21   -1    0    0  501  502 -0.00000000000E+00 -0.00000000000E+00 -0.14817950775E+03  0.14817950775E+03  0.00000000000E+00 0.  1.
         25    1    1    2    0    0 -0.94115443946E+02 -0.12240171644E+03  0.46752804018E+03  0.50798362703E+03  0.12500000000E+03 0.  0.
         25    1    1    2    0    0 -0.58640101778E+02 -0.54899427390E+01  0.46842124289E+02  0.14590402879E+03  0.12500000000E+03 0.  0.
         25    1    1    2    0    0  0.15275554572E+03  0.12789165918E+03  0.97921356308E+02  0.25476288045E+03  0.12500000000E+03 0.  0.
</event>
<event>
 5    0  0.5663008E-005  0.3162242E+03  0.7546771E-02  0.1077400E+00
         21   -1    0    0  502  501  0.00000000000E+00  0.00000000000E+00  0.36917937472E+03  0.36917937472E+03  0.00000000000E+00 0.  1.
         21   -1    0    0  501  502 -0.00000000000E+00 -0.00000000000E+00 -0.27086485347E+03  0.27086485347E+03  0.00000000000E+00 0.  1.
         25    1    1    2    0    0  0.15855189303E+03 -0.26075616541E+02 -0.75191059782E+02  0.21701920660E+03  0.12500000000E+03 0.  0.
         25    1    1    2    0    0  0.23661861727E+02 -0.67120717991E+02  0.86877748810E+02  0.16804111914E+03  0.12500000000E+03 0.  0.
         25    1    1    2    0    0 -0.18221375475E+03  0.93196334532E+02  0.86627832222E+02  0.25498390245E+03  0.12500000000E+03 0.  0.
</event>
<event>
 5    0  0.5663008E-005  0.2812868E+03  0.7546771E-02  0.1094988E+00
         21   -1    0    0  502  501  0.00000000000E+00  0.00000000000E+00  0.59200230488E+03  0.59200230488E+03  0.00000000000E+00 0. -1.
         21   -1    0    0  501  502 -0.00000000000E+00 -0.00000000000E+00 -0.13365198778E+03  0.13365198778E+03  0.00000000000E+00 0. -1.
         25    1    1    2    0    0  0.56542812783E+01  0.10047960087E+03 -0.15849655641E+02  0.16125858945E+03  0.12500000000E+03 0.  0.
         25    1    1    2    0    0  0.31611588454E+02 -0.95640160227E+02  0.34606320100E+03  0.38148534947E+03  0.12500000000E+03 0.  0.
         25    1    1    2    0    0 -0.37265869732E+02 -0.48394406460E+01  0.12813677174E+03  0.18291035374E+03  0.12500000000E+03 0.  0.
</event>
<event>
 5    0  0.5663008E-005  0.2706870E+03  0.7546771E-02  0.1100887E+00
         21   -1    0    0  502  501  0.00000000000E+00  0.00000000000E+00  0.13817489513E+03  0.13817489513E+03  0.00000000000E+00 0. -1.
         21   -1    0    0  501  502 -0.00000000000E+00 -0.00000000000E+00 -0.53028050553E+03  0.53028050553E+03  0.00000000000E+00 0. -1.
         25    1    1    2    0    0  0.15561199845E+03 -0.25387893388E+02 -0.18580407442E+03  0.27387550687E+03  0.12500000000E+03 0.  0.
         25    1    1    2    0    0 -0.91088399528E+02  0.24523656708E+02 -0.19966339251E+03  0.25374983069E+03  0.12500000000E+03 0.  0.
         25    1    1    2    0    0 -0.64523598919E+02  0.86423667946E+00 -0.66381434674E+01  0.14083006309E+03  0.12500000000E+03 0.  0.
</event>
<event>
 5    0  0.5663008E-005  0.4993089E+03  0.7546771E-02  0.1013959E+00
         21   -1    0    0  502  501  0.00000000000E+00  0.00000000000E+00  0.18568617714E+03  0.18568617714E+03  0.00000000000E+00 0. -1.
         21   -1    0    0  501  502 -0.00000000000E+00 -0.00000000000E+00 -0.13426385408E+04  0.13426385408E+04  0.00000000000E+00 0. -1.
         25    1    1    2    0    0  0.30642301558E+03  0.70407863477E+01 -0.56479112064E+02  0.33579685414E+03  0.12500000000E+03 0.  0.
         25    1    1    2    0    0 -0.67315500399E+02 -0.37095089890E+02 -0.65181638763E+03  0.66812949753E+03  0.12500000000E+03 0.  0.
         25    1    1    2    0    0 -0.23910751518E+03  0.30054303542E+02 -0.44865686398E+03  0.52439836629E+03  0.12500000000E+03 0.  0.
</event>
<event>
 5    0  0.5663008E-005  0.3238995E+03  0.7546771E-02  0.1073869E+00
         21   -1    0    0  502  501  0.00000000000E+00  0.00000000000E+00  0.39359181676E+03  0.39359181676E+03  0.00000000000E+00 0.  1.
         21   -1    0    0  501  502 -0.00000000000E+00 -0.00000000000E+00 -0.26654738386E+03  0.26654738386E+03  0.00000000000E+00 0.  1.
         25    1    1    2    0    0 -0.24598069833E+01  0.10857690070E+03  0.16705460815E+03  0.23521742308E+03  0.12500000000E+03 0.  0.
         25    1    1    2    0    0  0.34281386144E+02  0.10648458366E+03  0.14217492431E+02  0.16834879591E+03  0.12500000000E+03 0.  0.
         25    1    1    2    0    0 -0.31821579161E+02 -0.21506148436E+03 -0.54227667681E+02  0.25657298162E+03  0.12500000000E+03 0.  0.
</event>
<event>
 5    0  0.5718443E-005  0.3285943E+03  0.7546771E-02  0.1071761E+00
         21   -1    0    0  502  501  0.00000000000E+00  0.00000000000E+00  0.66577377312E+02  0.66577377312E+02  0.00000000000E+00 0.  1.
         21   -1    0    0  501  502 -0.00000000000E+00 -0.00000000000E+00 -0.16217856242E+04  0.16217856242E+04  0.00000000000E+00 0.  1.
         25    1    1    2    0    0 -0.13193651968E+03  0.17840589657E+03 -0.47038716332E+03  0.53490652694E+03  0.12500000000E+03 0.  0.
         25    1    1    2    0    0  0.14086377584E+03 -0.80409980359E+02 -0.38817596905E+03  0.43887805964E+03  0.12500000000E+03 0.  0.
         25    1    1    2    0    0 -0.89272561659E+01 -0.97995916208E+02 -0.69664511457E+03  0.71457841497E+03  0.12500000000E+03 0.  0.
</event>
<event>
 5    0  0.5882461E-005  0.5567240E+03  0.7546771E-02  0.9999495E-01
         21   -1    0    0  502  501  0.00000000000E+00  0.00000000000E+00  0.34581408212E+03  0.34581408212E+03  0.00000000000E+00 0.  1.
         21   -1    0    0  501  502 -0.00000000000E+00 -0.00000000000E+00 -0.89626672290E+03  0.89626672290E+03  0.00000000000E+00 0.  1.
         25    1    1    2    0    0  0.26794379764E+03  0.53570247639E+02 -0.18620348391E+03  0.35349736569E+03  0.12500000000E+03 0.  0.
         25    1    1    2    0    0 -0.23976241080E+03  0.20751707074E+03  0.86961670812E+02  0.35176224993E+03  0.12500000000E+03 0.  0.
         25    1    1    2    0    0 -0.28181386842E+02 -0.26108731838E+03 -0.45121082768E+03  0.53682118941E+03  0.12500000000E+03 0.  0.
</event>
<event>
 5    0  0.5663008E-005  0.3413149E+03  0.7546771E-02  0.1066237E+00
         21   -1    0    0  502  501  0.00000000000E+00  0.00000000000E+00  0.16618117920E+03  0.16618117920E+03  0.00000000000E+00 0.  1.
         21   -1    0    0  501  502 -0.00000000000E+00 -0.00000000000E+00 -0.70101716313E+03  0.70101716313E+03  0.00000000000E+00 0.  1.
         25    1    1    2    0    0 -0.11781632579E+03  0.17530657243E+03 -0.26547245900E+03  0.36154350699E+03  0.12500000000E+03 0.  0.
         25    1    1    2    0    0 -0.17452576379E+02 -0.14139850873E+03 -0.15470134080E+02  0.19016428619E+03  0.12500000000E+03 0.  0.
         25    1    1    2    0    0  0.13526890217E+03 -0.33908063693E+02 -0.25389339086E+03  0.31549054914E+03  0.12500000000E+03 0.  0.
</event>
<event>
 5    0  0.5663008E-005  0.2558377E+03  0.7546771E-02  0.1109670E+00
         21   -1    0    0  502  501  0.00000000000E+00  0.00000000000E+00  0.10039406335E+04  0.10039406335E+04  0.00000000000E+00 0.  1.
         21   -1    0    0  501  502 -0.00000000000E+00 -0.00000000000E+00 -0.65196031612E+02  0.65196031612E+02  0.00000000000E+00 0.  1.
         25    1    1    2    0    0 -0.27258543477E+02 -0.36567894292E+02  0.24611878703E+03  0.27978508969E+03  0.12500000000E+03 0.  0.
         25    1    1    2    0    0  0.84498063123E+02  0.11247372626E+03  0.21081225160E+03  0.28258992762E+03  0.12500000000E+03 0.  0.
         25    1    1    2    0    0 -0.57239519645E+02 -0.75905831966E+02  0.48181356326E+03  0.50676164779E+03  0.12500000000E+03 0.  0.
</event>
<event>
 5    0  0.5663008E-005  0.2717268E+03  0.7546771E-02  0.1100295E+00
         21   -1    0    0  502  501  0.00000000000E+00  0.00000000000E+00  0.10370586111E+03  0.10370586111E+03  0.00000000000E+00 0.  1.
         21   -1    0    0  501  502 -0.00000000000E+00 -0.00000000000E+00 -0.71197015360E+03  0.71197015360E+03  0.00000000000E+00 0.  1.
         25    1    1    2    0    0  0.98963325040E+02 -0.68982818508E+02 -0.21243595499E+03  0.27442012303E+03  0.12500000000E+03 0.  0.
         25    1    1    2    0    0  0.22384975872E+02  0.10343663411E+03 -0.88135688352E+02  0.18599226861E+03  0.12500000000E+03 0.  0.
         25    1    1    2    0    0 -0.12134830091E+03 -0.34453815599E+02 -0.30769264914E+03  0.35526362307E+03  0.12500000000E+03 0.  0.
</event>
<event>
 5    0  0.5663008E-005  0.5673619E+03  0.7546771E-02  0.9975533E-01
         21   -1    0    0  502  501  0.00000000000E+00  0.00000000000E+00  0.15512515806E+03  0.15512515806E+03  0.00000000000E+00 0.  1.
         21   -1    0    0  501  502 -0.00000000000E+00 -0.00000000000E+00 -0.20750953041E+04  0.20750953041E+04  0.00000000000E+00 0.  1.
         25    1    1    2    0    0  0.22148320912E+03  0.11594083092E+03 -0.93282804139E+03  0.97380195266E+03  0.12500000000E+03 0.  0.
         25    1    1    2    0    0 -0.27967408130E+03  0.21688625990E+03 -0.70551359402E+03  0.79914433792E+03  0.12500000000E+03 0.  0.
         25    1    1    2    0    0  0.58190872185E+02 -0.33282709082E+03 -0.28162851064E+03  0.45727417159E+03  0.12500000000E+03 0.  0.
</event>
<event>
 5    0  0.5663008E-005  0.3462567E+03  0.7546771E-02  0.1064162E+00
         21   -1    0    0  502  501  0.00000000000E+00  0.00000000000E+00  0.78574654151E+02  0.78574654151E+02  0.00000000000E+00 0.  1.
         21   -1    0    0  501  502 -0.00000000000E+00 -0.00000000000E+00 -0.15258574912E+04  0.15258574912E+04  0.00000000000E+00 0.  1.
         25    1    1    2    0    0 -0.80224877670E+02  0.71549920461E+02 -0.96765584297E+03  0.98159984340E+03  0.12500000000E+03 0.  0.
         25    1    1    2    0    0  0.12495269250E+03  0.22430319031E+02 -0.40780274844E+03  0.44502177049E+03  0.12500000000E+03 0.  0.
         25    1    1    2    0    0 -0.44727814833E+02 -0.93980239492E+02 -0.71824245618E+02  0.17781053145E+03  0.12500000000E+03 0.  0.
</event>
<event>
 5    0  0.5663008E-005  0.3971131E+03  0.7546771E-02  0.1044784E+00
         21   -1    0    0  502  501  0.00000000000E+00  0.00000000000E+00  0.13934337852E+03  0.13934337852E+03  0.00000000000E+00 0. -1.
         21   -1    0    0  501  502 -0.00000000000E+00 -0.00000000000E+00 -0.11317283235E+04  0.11317283235E+04  0.00000000000E+00 0. -1.
         25    1    1    2    0    0  0.19460090494E+03  0.80502885940E+02 -0.65051411406E+03  0.69508549074E+03  0.12500000000E+03 0.  0.
         25    1    1    2    0    0 -0.78423628788E+01  0.25810085085E+02 -0.29700115139E+03  0.32336101662E+03  0.12500000000E+03 0.  0.
         25    1    1    2    0    0 -0.18675854206E+03 -0.10631297102E+03 -0.44869679553E+02  0.25262519467E+03  0.12500000000E+03 0.  0.
</event>
<event>
 5    0  0.5663008E-005  0.2227550E+03  0.7546771E-02  0.1131846E+00
         21   -1    0    0  502  501  0.00000000000E+00  0.00000000000E+00  0.34240135825E+02  0.34240135825E+02  0.00000000000E+00 0.  1.
         21   -1    0    0  501  502 -0.00000000000E+00 -0.00000000000E+00 -0.14491708259E+04  0.14491708259E+04  0.00000000000E+00 0.  1.
         25    1    1    2    0    0  0.81995418397E+02 -0.19288915570E+02 -0.60780525019E+03  0.62621684188E+03  0.12500000000E+03 0.  0.
         25    1    1    2    0    0 -0.97234535271E+02  0.33307730985E+02 -0.46572262712E+03  0.49303805655E+03  0.12500000000E+03 0.  0.
         25    1    1    2    0    0  0.15239116875E+02 -0.14018815415E+02 -0.34140281278E+03  0.36415606330E+03  0.12500000000E+03 0.  0.
</event>
<event>
 5    0  0.5663008E-005  0.5308163E+03  0.7546771E-02  0.1006034E+00
         21   -1    0    0  502  501  0.00000000000E+00  0.00000000000E+00  0.19893883418E+03  0.19893883418E+03  0.00000000000E+00 0. -1.
         21   -1    0    0  501  502 -0.00000000000E+00 -0.00000000000E+00 -0.14163447804E+04  0.14163447804E+04  0.00000000000E+00 0. -1.
         25    1    1    2    0    0 -0.12562969777E+03  0.35395992601E+02 -0.11208069830E+04  0.11352836607E+04  0.12500000000E+03 0.  0.
         25    1    1    2    0    0  0.64700699133E+02  0.17048604353E+03 -0.58124700514E+02  0.22859385887E+03  0.12500000000E+03 0.  0.
         25    1    1    2    0    0  0.60928998636E+02 -0.20588203613E+03 -0.38474262685E+02  0.25140609492E+03  0.12500000000E+03 0.  0.
</event>
<event>
 5    0  0.5663008E-005  0.2769753E+03  0.7546771E-02  0.1097353E+00
         21   -1    0    0  502  501  0.00000000000E+00  0.00000000000E+00  0.22369491636E+03  0.22369491636E+03  0.00000000000E+00 0. -1.
         21   -1    0    0  501  502 -0.00000000000E+00 -0.00000000000E+00 -0.34294625963E+03  0.34294625963E+03  0.00000000000E+00 0. -1.
         25    1    1    2    0    0 -0.54055391092E+02  0.14130810380E+03 -0.16143188131E+03  0.25411654375E+03  0.12500000000E+03 0.  0.
         25    1    1    2    0    0  0.44225600920E+02 -0.20021340087E+02  0.31522729715E+02  0.13775137141E+03  0.12500000000E+03 0.  0.
         25    1    1    2    0    0  0.98297901721E+01 -0.12128676371E+03  0.10657808318E+02  0.17477326084E+03  0.12500000000E+03 0.  0.
</event>
<event>
 5    0  0.6257250E-005  0.5827153E+03  0.7546771E-02  0.9941930E-01
         21   -1    0    0  502  501  0.00000000000E+00  0.00000000000E+00  0.28019973409E+03  0.28019973409E+03  0.00000000000E+00 0. -1.
         21   -1    0    0  501  502 -0.00000000000E+00 -0.00000000000E+00 -0.12118393601E+04  0.12118393601E+04  0.00000000000E+00 0.  1.
         25    1    1    2    0    0 -0.30980748988E+03  0.22469156937E+03 -0.64895482467E+03  0.76369781105E+03  0.12500000000E+03 0.  0.
         25    1    1    2    0    0 -0.83455385285E+02 -0.13906156421E+03  0.25351364980E+02  0.20632646868E+03  0.12500000000E+03 0.  0.
         25    1    1    2    0    0  0.39326287517E+03 -0.85630005156E+02 -0.30803616636E+03  0.52201481450E+03  0.12500000000E+03 0.  0.
</event>
<event>
 5    0  0.5663008E-005  0.3481301E+03  0.7546771E-02  0.1063385E+00
         21   -1    0    0  502  501  0.00000000000E+00  0.00000000000E+00  0.13255325034E+04  0.13255325034E+04  0.00000000000E+00 0. -1.
         21   -1    0    0  501  502 -0.00000000000E+00 -0.00000000000E+00 -0.91430871852E+02  0.91430871852E+02  0.00000000000E+00 0. -1.
         25    1    1    2    0    0  0.96055120477E+02 -0.20978369291E+03  0.50612567619E+03  0.57010874759E+03  0.12500000000E+03 0.  0.
         25    1    1    2    0    0 -0.38459859950E+02 -0.46688963621E+02  0.28136016351E+03  0.31376354434E+03  0.12500000000E+03 0.  0.
         25    1    1    2    0    0 -0.57595260527E+02  0.25647265653E+03  0.44661579186E+03  0.53309108333E+03  0.12500000000E+03 0.  0.
</event>
<event>
 5    0  0.5663008E-005  0.3416826E+03  0.7546771E-02  0.1066082E+00
         21   -1    0    0  502  501  0.00000000000E+00  0.00000000000E+00  0.10827148571E+03  0.10827148571E+03  0.00000000000E+00 0. -1.
         21   -1    0    0  501  502 -0.00000000000E+00 -0.00000000000E+00 -0.10782804439E+04  0.10782804439E+04  0.00000000000E+00 0. -1.
         25    1    1    2    0    0  0.20617959750E+03  0.11785375270E+03 -0.44239316864E+03  0.51743236187E+03  0.12500000000E+03 0.  0.
         25    1    1    2    0    0 -0.50859422906E+02 -0.10123370628E+03 -0.97740932978E+02  0.19496982886E+03  0.12500000000E+03 0.  0.
         25    1    1    2    0    0 -0.15532017459E+03 -0.16620046425E+02 -0.42987485655E+03  0.47414973888E+03  0.12500000000E+03 0.  0.
</event>
<event>
 5    0  0.5663008E-005  0.4515187E+03  0.7546771E-02  0.1027270E+00
         21   -1    0    0  502  501  0.00000000000E+00  0.00000000000E+00  0.84663727506E+02  0.84663727506E+02  0.00000000000E+00 0.  1.
         21   -1    0    0  501  502 -0.00000000000E+00 -0.00000000000E+00 -0.24079865824E+04  0.24079865824E+04  0.00000000000E+00 0.  1.
         25    1    1    2    0    0  0.38736821856E+02  0.27785008091E+03 -0.96168505937E+03  0.10095367067E+04  0.12500000000E+03 0.  0.
         25    1    1    2    0    0  0.35479800920E+02 -0.14836700960E+03 -0.13006376844E+03  0.23624811041E+03  0.12500000000E+03 0.  0.
         25    1    1    2    0    0 -0.74216622776E+02 -0.12948307131E+03 -0.12315740270E+04  0.12468654927E+04  0.12500000000E+03 0.  0.
</event>
<event>
 5    0  0.5663008E-005  0.3187930E+03  0.7546771E-02  0.1076206E+00
         21   -1    0    0  502  501  0.00000000000E+00  0.00000000000E+00  0.15298556765E+03  0.15298556765E+03  0.00000000000E+00 0. -1.
         21   -1    0    0  501  502 -0.00000000000E+00 -0.00000000000E+00 -0.66430417200E+03  0.66430417200E+03  0.00000000000E+00 0. -1.
         25    1    1    2    0    0 -0.81274446093E+02  0.22871444342E+03 -0.15684140289E+03  0.31486514237E+03  0.12500000000E+03 0.  0.
         25    1    1    2    0    0  0.10584258938E+02 -0.12646120659E+03 -0.20223281528E+03  0.26949503685E+03  0.12500000000E+03 0.  0.
         25    1    1    2    0    0  0.70690187155E+02 -0.10225323683E+03 -0.15224438618E+03  0.23292956044E+03  0.12500000000E+03 0.  0.
</event>
<event>
 5    0  0.5663008E-005  0.3289899E+03  0.7546771E-02  0.1071585E+00
         21   -1    0    0  502  501  0.00000000000E+00  0.00000000000E+00  0.12623822564E+03  0.12623822564E+03  0.00000000000E+00 0. -1.
         21   -1    0    0  501  502 -0.00000000000E+00 -0.00000000000E+00 -0.85738172174E+03  0.85738172174E+03  0.00000000000E+00 0. -1.
         25    1    1    2    0    0 -0.44668279833E+02 -0.94549232552E+02 -0.52874778865E+03  0.55329380676E+03  0.12500000000E+03 0.  0.
         25    1    1    2    0    0  0.36997526740E+02  0.10750495471E+03 -0.24481814564E+03  0.29746774061E+03  0.12500000000E+03 0.  0.
         25    1    1    2    0    0  0.76707530927E+01 -0.12955722155E+02  0.42422438187E+02  0.13285840000E+03  0.12500000000E+03 0.  0.
</event>
<event>
 5    0  0.5663008E-005  0.2478351E+03  0.7546771E-02  0.1114681E+00
         21   -1    0    0  502  501  0.00000000000E+00  0.00000000000E+00  0.81385658783E+03  0.81385658783E+03  0.00000000000E+00 0.  1.
         21   -1    0    0  501  502 -0.00000000000E+00 -0.00000000000E+00 -0.75470589719E+02  0.75470589719E+02  0.00000000000E+00 0.  1.
         25    1    1    2    0    0 -0.11080942763E+02  0.10363668845E+03  0.15091147962E+03  0.22195185326E+03  0.12500000000E+03 0.  0.
         25    1    1    2    0    0  0.79258709437E+02 -0.32497499596E+02  0.35111368283E+03  0.38241842107E+03  0.12500000000E+03 0.  0.
         25    1    1    2    0    0 -0.68177766674E+02 -0.71139188849E+02  0.23636083565E+03  0.28495690321E+03  0.12500000000E+03 0.  0.
</event>
<event>
 5    0  0.5663008E-005  0.3540551E+03  0.7546771E-02  0.1060963E+00
         21   -1    0    0  502  501  0.00000000000E+00  0.00000000000E+00  0.43890809297E+03  0.43890809297E+03  0.00000000000E+00 0. -1.
         21   -1    0    0  501  502 -0.00000000000E+00 -0.00000000000E+00 -0.28560645855E+03  0.28560645855E+03  0.00000000000E+00 0. -1.
         25    1    1    2    0    0  0.10141583537E+03  0.13904267834E+03  0.97531741246E+02  0.23399888593E+03  0.12500000000E+03 0.  0.
         25    1    1    2    0    0  0.93570632551E+02 -0.18998338045E+03 -0.40117173962E+01  0.24594764077E+03  0.12500000000E+03 0.  0.
         25    1    1    2    0    0 -0.19498646792E+03  0.50940702108E+02  0.59781610575E+02  0.24456802483E+03  0.12500000000E+03 0.  0.
</event>
<event>
 5    0  0.5663008E-005  0.3434455E+03  0.7546771E-02  0.1065338E+00
         21   -1    0    0  502  501  0.00000000000E+00  0.00000000000E+00  0.45010354559E+03  0.45010354559E+03  0.00000000000E+00 0. -1.
         21   -1    0    0  501  502 -0.00000000000E+00 -0.00000000000E+00 -0.26206154170E+03  0.26206154170E+03  0.00000000000E+00 0. -1.
         25    1    1    2    0    0  0.33228171719E+02  0.71410441905E+02 -0.10677587430E+02  0.14813025850E+03  0.12500000000E+03 0.  0.
         25    1    1    2    0    0 -0.16859470205E+03  0.22256211148E+02 -0.72385377793E+02  0.22312363257E+03  0.12500000000E+03 0.  0.
         25    1    1    2    0    0  0.13536653033E+03 -0.93666653054E+02  0.27110496911E+03  0.34091119622E+03  0.12500000000E+03 0.  0.
</event>
<event>
 5    0  0.5663008E-005  0.5339724E+03  0.7546771E-02  0.1005273E+00
         21   -1    0    0  502  501  0.00000000000E+00  0.00000000000E+00  0.66816706260E+03  0.66816706260E+03  0.00000000000E+00 0. -1.
         21   -1    0    0  501  502 -0.00000000000E+00 -0.00000000000E+00 -0.42672940832E+03  0.42672940832E+03  0.00000000000E+00 0. -1.
         25    1    1    2    0    0 -0.11273643820E+02  0.17629056821E+03  0.35879556172E+03  0.41900443267E+03  0.12500000000E+03 0.  0.
         25    1    1    2    0    0  0.18207559166E+03 -0.64008516727E+02  0.18143285701E+03  0.29290184857E+03  0.12500000000E+03 0.  0.
         25    1    1    2    0    0 -0.17080194784E+03 -0.11228205148E+03 -0.29879076446E+03  0.38299018968E+03  0.12500000000E+03 0.  0.
</event>
<event>
 5    0  0.5663008E-005  0.3605626E+03  0.7546771E-02  0.1058361E+00
         21   -1    0    0  502  501  0.00000000000E+00  0.00000000000E+00  0.31377698294E+03  0.31377698294E+03  0.00000000000E+00 0.  1.
         21   -1    0    0  501  502 -0.00000000000E+00 -0.00000000000E+00 -0.41432425448E+03  0.41432425448E+03  0.00000000000E+00 0.  1.
         25    1    1    2    0    0 -0.17395022206E+03 -0.67626491509E+02  0.11428805940E+03  0.25202932891E+03  0.12500000000E+03 0.  0.
         25    1    1    2    0    0  0.52792168619E+02  0.66076407874E+02  0.50131521925E+02  0.15903230563E+03  0.12500000000E+03 0.  0.
         25    1    1    2    0    0  0.12115805344E+03  0.15500836350E+01 -0.26496685287E+03  0.31703960288E+03  0.12500000000E+03 0.  0.
</event>
<event>
 5    0  0.5663008E-005  0.2837772E+03  0.7546771E-02  0.1093644E+00
         21   -1    0    0  502  501  0.00000000000E+00  0.00000000000E+00  0.69364826683E+03  0.69364826683E+03  0.00000000000E+00 0.  1.
         21   -1    0    0  501  502 -0.00000000000E+00 -0.00000000000E+00 -0.11609560095E+03  0.11609560095E+03  0.00000000000E+00 0.  1.
         25    1    1    2    0    0  0.10400373593E+03 -0.18874883172E+02  0.30277541631E+03  0.34419615196E+03  0.12500000000E+03 0.  0.
         25    1    1    2    0    0  0.25476780139E+02 -0.20187475285E+02  0.24777254662E+03  0.27941516663E+03  0.12500000000E+03 0.  0.
         25    1    1    2    0    0 -0.12948051606E+03  0.39062358457E+02  0.27004702945E+02  0.18613254919E+03  0.12500000000E+03 0.  0.
</event>
<event>
 5    0  0.5663008E-005  0.2490885E+03  0.7546771E-02  0.1113882E+00
         21   -1    0    0  502  501  0.00000000000E+00  0.00000000000E+00  0.33377981190E+03  0.33377981190E+03  0.00000000000E+00 0. -1.
         21   -1    0    0  501  502 -0.00000000000E+00 -0.00000000000E+00 -0.18588628329E+03  0.18588628329E+03  0.00000000000E+00 0. -1.
         25    1    1    2    0    0  0.45304862263E+02 -0.70031203988E+01  0.13586079106E+02  0.13383256624E+03  0.12500000000E+03 0.  0.
         25    1    1    2    0    0  0.86020463176E+02 -0.30821858887E+02  0.12737336645E+03  0.20049558985E+03  0.12500000000E+03 0.  0.
         25    1    1    2    0    0 -0.13132532544E+03  0.37824979286E+02  0.69340830531E+01  0.18533793909E+03  0.12500000000E+03 0.  0.
</event>
<event>
 5    0  0.5663008E-005  0.2044447E+03  0.7546771E-02  0.1146042E+00
         21   -1    0    0  502  501  0.00000000000E+00  0.00000000000E+00  0.21361850084E+04  0.21361850084E+04  0.00000000000E+00 0.  1.
         21   -1    0    0  501  502 -0.00000000000E+00 -0.00000000000E+00 -0.19566488495E+02  0.19566488495E+02  0.00000000000E+00 0.  1.
         25    1    1    2    0    0 -0.76083851141E+01 -0.10584684191E+02  0.36875968571E+03  0.38958776786E+03  0.12500000000E+03 0.  0.
         25    1    1    2    0    0 -0.86891359290E+01  0.12083309671E+02  0.77207776237E+03  0.78227270092E+03  0.12500000000E+03 0.  0.
         25    1    1    2    0    0  0.16297521043E+02 -0.14986254804E+01  0.97578107185E+03  0.98389102814E+03  0.12500000000E+03 0.  0.
</event>
<event>
 5    0  0.5663008E-005  0.2270847E+03  0.7546771E-02  0.1128709E+00
         21   -1    0    0  502  501  0.00000000000E+00  0.00000000000E+00  0.14825963116E+04  0.14825963116E+04  0.00000000000E+00 0.  1.
         21   -1    0    0  501  502 -0.00000000000E+00 -0.00000000000E+00 -0.34781873189E+02  0.34781873189E+02  0.00000000000E+00 0.  1.
         25    1    1    2    0    0 -0.21229441446E+02  0.70558923972E+02  0.63925721498E+03  0.65551814456E+03  0.12500000000E+03 0.  0.
         25    1    1    2    0    0  0.27078610911E+01 -0.10943600730E+03  0.45570237618E+03  0.48504971690E+03  0.12500000000E+03 0.  0.
         25    1    1    2    0    0  0.18521580355E+02  0.38877083328E+02  0.35285484729E+03  0.37681032337E+03  0.12500000000E+03 0.  0.
</event>
<event>
 5    0  0.5866922E-005  0.2467307E+03  0.7546771E-02  0.1115389E+00
         21   -1    0    0  502  501  0.00000000000E+00  0.00000000000E+00  0.12482816380E+03  0.12482816380E+03  0.00000000000E+00 0. -1.
         21   -1    0    0  501  502 -0.00000000000E+00 -0.00000000000E+00 -0.48767874815E+03  0.48767874815E+03  0.00000000000E+00 0. -1.
         25    1    1    2    0    0 -0.75990374167E+02 -0.99357460524E+02 -0.22023533074E+03  0.28244476068E+03  0.12500000000E+03 0.  0.
         25    1    1    2    0    0  0.88445197386E+02  0.44864919566E+02 -0.91274895708E+02  0.18382470056E+03  0.12500000000E+03 0.  0.
         25    1    1    2    0    0 -0.12454823220E+02  0.54492540958E+02 -0.51340357901E+02  0.14623745071E+03  0.12500000000E+03 0.  0.
</event>
<event>
 5    0  0.5663008E-005  0.2962804E+03  0.7546771E-02  0.1087115E+00
         21   -1    0    0  502  501  0.00000000000E+00  0.00000000000E+00  0.13273907784E+04  0.13273907784E+04  0.00000000000E+00 0. -1.
         21   -1    0    0  501  502 -0.00000000000E+00 -0.00000000000E+00 -0.66131287050E+02  0.66131287050E+02  0.00000000000E+00 0. -1.
         25    1    1    2    0    0 -0.86232289201E+02 -0.53803726077E+02  0.80160359739E+03  0.81763327720E+03  0.12500000000E+03 0.  0.
         25    1    1    2    0    0  0.74186320198E+02  0.12823470364E+03  0.20340285449E+03  0.28097236614E+03  0.12500000000E+03 0.  0.
         25    1    1    2    0    0  0.12045969003E+02 -0.74430977561E+02  0.25625303950E+03  0.29491642213E+03  0.12500000000E+03 0.  0.
</event>
<event>
 5    0  0.5663008E-005  0.2983811E+03  0.7546771E-02  0.1086053E+00
         21   -1    0    0  502  501  0.00000000000E+00  0.00000000000E+00  0.17376262992E+03  0.17376262992E+03  0.00000000000E+00 0. -1.
         21   -1    0    0  501  502 -0.00000000000E+00 -0.00000000000E+00 -0.51237284239E+03  0.51237284239E+03  0.00000000000E+00 0. -1.
         25    1    1    2    0    0 -0.80809641266E+02  0.29769756223E+02 -0.11304819789E+03  0.18926524127E+03  0.12500000000E+03 0.  0.
         25    1    1    2    0    0 -0.85339452724E+02  0.11437737328E+03 -0.98372560792E+02  0.21369877498E+03  0.12500000000E+03 0.  0.
         25    1    1    2    0    0  0.16614909399E+03 -0.14414712950E+03 -0.12718945378E+03  0.28317145607E+03  0.12500000000E+03 0.  0.
</event>
<event>
 5    0  0.5663008E-005  0.2334249E+03  0.7546771E-02  0.1124252E+00
         21   -1    0    0  502  501  0.00000000000E+00  0.00000000000E+00  0.10284239196E+03  0.10284239196E+03  0.00000000000E+00 0.  1.
         21   -1    0    0  501  502 -0.00000000000E+00 -0.00000000000E+00 -0.52981265928E+03  0.52981265928E+03  0.00000000000E+00 0.  1.
         25    1    1    2    0    0  0.49461590754E+02  0.91255243879E+02 -0.13360600040E+03  0.21035572690E+03  0.12500000000E+03 0.  0.
         25    1    1    2    0    0 -0.43194917719E+02  0.18149810992E+02 -0.16520546776E+03  0.21239835954E+03  0.12500000000E+03 0.  0.
         25    1    1    2    0    0 -0.62666730349E+01 -0.10940505487E+03 -0.12815879916E+03  0.20990096480E+03  0.12500000000E+03 0.  0.
</event>
<event>
 5    0  0.5663008E-005  0.4792266E+03  0.7546771E-02  0.1019348E+00
         21   -1    0    0  502  501  0.00000000000E+00  0.00000000000E+00  0.43074119167E+03  0.43074119167E+03  0.00000000000E+00 0. -1.
         21   -1    0    0  501  502 -0.00000000000E+00 -0.00000000000E+00 -0.53316975405E+03  0.53316975405E+03  0.00000000000E+00 0. -1.
         25    1    1    2    0    0 -0.20298085684E+03 -0.32576400841E+03 -0.22146658232E+03  0.46043008644E+03  0.12500000000E+03 0.  0.
         25    1    1    2    0    0  0.10110611915E+03  0.24788248028E+03  0.13269135436E+03  0.32388295244E+03  0.12500000000E+03 0.  0.
         25    1    1    2    0    0  0.10187473768E+03  0.77881528128E+02 -0.13653334420E+02  0.17959790684E+03  0.12500000000E+03 0.  0.
</event>
<event>
 5    0  0.5663008E-005  0.2530350E+03  0.7546771E-02  0.1111402E+00
         21   -1    0    0  502  501  0.00000000000E+00  0.00000000000E+00  0.36765468834E+03  0.36765468834E+03  0.00000000000E+00 0.  1.
         21   -1    0    0  501  502 -0.00000000000E+00 -0.00000000000E+00 -0.17414907551E+03  0.17414907551E+03  0.00000000000E+00 0.  1.
         25    1    1    2    0    0 -0.41770767985E+02  0.47956320232E+02 -0.23187449809E+02  0.14215225477E+03  0.12500000000E+03 0.  0.
         25    1    1    2    0    0  0.27474962756E+02 -0.81857612017E+02  0.22227063761E+03  0.26922997338E+03  0.12500000000E+03 0.  0.
         25    1    1    2    0    0  0.14295805229E+02  0.33901291785E+02 -0.55775749655E+01  0.13042153570E+03  0.12500000000E+03 0.  0.
</event>
<event>
 5    0  0.5663008E-005  0.3276400E+03  0.7546771E-02  0.1072186E+00
         21   -1    0    0  502  501  0.00000000000E+00  0.00000000000E+00  0.19132411478E+03  0.19132411478E+03  0.00000000000E+00 0.  1.
         21   -1    0    0  501  502 -0.00000000000E+00 -0.00000000000E+00 -0.56107897872E+03  0.56107897872E+03  0.00000000000E+00 0.  1.
         25    1    1    2    0    0 -0.14147623065E+02 -0.99123709515E+02 -0.10684896563E+03  0.19252887182E+03  0.12500000000E+03 0.  0.
         25    1    1    2    0    0  0.68773258526E+02 -0.97708360702E+02 -0.26960922460E+03  0.32029801565E+03  0.12500000000E+03 0.  0.
         25    1    1    2    0    0 -0.54625635461E+02  0.19683207022E+03  0.67033262844E+01  0.23957620604E+03  0.12500000000E+03 0.  0.
</event>
<event>
 5    0  0.5663008E-005  0.2922386E+03  0.7546771E-02  0.1089186E+00
         21   -1    0    0  502  501  0.00000000000E+00  0.00000000000E+00  0.72416913804E+03  0.72416913804E+03  0.00000000000E+00 0.  1.
         21   -1    0    0  501  502 -0.00000000000E+00 -0.00000000000E+00 -0.11793298052E+03  0.11793298052E+03  0.00000000000E+00 0.  1.
         25    1    1    2    0    0  0.35821394735E+02  0.83679260007E+02  0.51809407321E+03  0.54067722310E+03  0.12500000000E+03 0.  0.
         25    1    1    2    0    0 -0.38945377956E+02  0.99312296607E+01  0.51096277047E+02  0.14089429128E+03  0.12500000000E+03 0.  0.
         25    1    1    2    0    0  0.31239832205E+01 -0.93610489667E+02  0.37045807260E+02  0.16053060419E+03  0.12500000000E+03 0.  0.
</event>
<event>
 5    0  0.5663008E-005  0.4243234E+03  0.7546771E-02  0.1035668E+00
         21   -1    0    0  502  501  0.00000000000E+00  0.00000000000E+00  0.32479584641E+03  0.32479584641E+03  0.00000000000E+00 0.  1.
         21   -1    0    0  501  502 -0.00000000000E+00 -0.00000000000E+00 -0.55434917816E+03  0.55434917816E+03  0.00000000000E+00 0.  1.
         25    1    1    2    0    0  0.14702283515E+03 -0.15361495531E+03  0.28134363712E+02  0.24825352157E+03  0.12500000000E+03 0.  0.
         25    1    1    2    0    0 -0.12319525960E+03  0.32083191817E+03 -0.16714521173E+03  0.40208545548E+03  0.12500000000E+03 0.  0.
         25    1    1    2    0    0 -0.23827575547E+02 -0.16721696285E+03 -0.90542483733E+02  0.22880604752E+03  0.12500000000E+03 0.  0.
</event>
<event>
 5    0  0.5663008E-005  0.4461206E+03  0.7546771E-02  0.1028885E+00
         21   -1    0    0  502  501  0.00000000000E+00  0.00000000000E+00  0.31122846406E+03  0.31122846406E+03  0.00000000000E+00 0.  1.
         21   -1    0    0  501  502 -0.00000000000E+00 -0.00000000000E+00 -0.63947755314E+03  0.63947755314E+03  0.00000000000E+00 0.  1.
         25    1    1    2    0    0  0.26792959914E+03 -0.27165932365E+02 -0.23934363500E+03  0.38135893013E+03  0.12500000000E+03 0.  0.
         25    1    1    2    0    0 -0.22039848453E+03 -0.13915940657E+03  0.76850858505E+02  0.29911851643E+03  0.12500000000E+03 0.  0.
         25    1    1    2    0    0 -0.47531114604E+02  0.16632533893E+03 -0.16575631259E+03  0.27022857064E+03  0.12500000000E+03 0.  0.
</event>
<event>
 5    0  0.5663008E-005  0.3254184E+03  0.7546771E-02  0.1073182E+00
         21   -1    0    0  502  501  0.00000000000E+00  0.00000000000E+00  0.10293650429E+04  0.10293650429E+04  0.00000000000E+00 0. -1.
         21   -1    0    0  501  502 -0.00000000000E+00 -0.00000000000E+00 -0.10287619626E+03  0.10287619626E+03  0.00000000000E+00 0. -1.
         25    1    1    2    0    0  0.15808982006E+03 -0.66556639857E+02  0.52774063182E+03  0.56882101929E+03  0.12500000000E+03 0.  0.
         25    1    1    2    0    0 -0.49308245704E+02  0.30531349856E+02  0.86636882710E+01  0.13807072794E+03  0.12500000000E+03 0.  0.
         25    1    1    2    0    0 -0.10878157435E+03  0.36025290001E+02  0.39008452656E+03  0.42534949194E+03  0.12500000000E+03 0.  0.
</event>
<event>
 5    0  0.5663008E-005  0.8040582E+03  0.7546771E-02  0.9554162E-01
         21   -1    0    0  502  501  0.00000000000E+00  0.00000000000E+00  0.29614543331E+03  0.29614543331E+03  0.00000000000E+00 0. -1.
         21   -1    0    0  501  502 -0.00000000000E+00 -0.00000000000E+00 -0.21830814854E+04  0.21830814854E+04  0.00000000000E+00 0. -1.
         25    1    1    2    0    0  0.16363446201E+03  0.53275040884E+03 -0.68409693627E+03  0.89118620585E+03  0.12500000000E+03 0.  0.
         25    1    1    2    0    0 -0.31684796675E+03 -0.67670852537E+02 -0.97251920852E+03  0.10326618949E+04  0.12500000000E+03 0.  0.
         25    1    1    2    0    0  0.15321350474E+03 -0.46507955631E+03 -0.23031990735E+03  0.55537881797E+03  0.12500000000E+03 0.  0.
</event>
<event>
 5    0  0.5663008E-005  0.2667374E+03  0.7546771E-02  0.1103161E+00
         21   -1    0    0  502  501  0.00000000000E+00  0.00000000000E+00  0.19393624708E+03  0.19393624708E+03  0.00000000000E+00 0. -1.
         21   -1    0    0  501  502 -0.00000000000E+00 -0.00000000000E+00 -0.36686729011E+03  0.36686729011E+03  0.00000000000E+00 0. -1.
         25    1    1    2    0    0 -0.31823332883E+02 -0.42062137258E+02 -0.11528041341E+03  0.17803516962E+03  0.12500000000E+03 0.  0.
         25    1    1    2    0    0  0.23657802868E+02  0.14405153726E+03 -0.98771375272E+02  0.21608174749E+03  0.12500000000E+03 0.  0.
         25    1    1    2    0    0  0.81655300150E+01 -0.10198940000E+03  0.41120745647E+02  0.16668662009E+03  0.12500000000E+03 0.  0.
</event>
<event>
 5    0  0.5663008E-005  0.3413945E+03  0.7546771E-02  0.1066204E+00
         21   -1    0    0  502  501  0.00000000000E+00  0.00000000000E+00  0.60692106975E+03  0.60692106975E+03  0.00000000000E+00 0.  1.
         21   -1    0    0  501  502 -0.00000000000E+00 -0.00000000000E+00 -0.19203516886E+03  0.19203516886E+03  0.00000000000E+00 0.  1.
         25    1    1    2    0    0  0.84287501663E+02 -0.66532509429E+02  0.17692989036E+03  0.24178532596E+03  0.12500000000E+03 0.  0.
         25    1    1    2    0    0 -0.15493126145E+03  0.15799471387E+03 -0.12364091777E+02  0.25444821899E+03  0.12500000000E+03 0.  0.
         25    1    1    2    0    0  0.70643759784E+02 -0.91462204437E+02  0.25032010230E+03  0.30272269365E+03  0.12500000000E+03 0.  0.
</event>
<event>
 5    0  0.5663008E-005  0.3991745E+03  0.7546771E-02  0.1044066E+00
         21   -1    0    0  502  501  0.00000000000E+00  0.00000000000E+00  0.15820957093E+04  0.15820957093E+04  0.00000000000E+00 0. -1.
         21   -1    0    0  501  502 -0.00000000000E+00 -0.00000000000E+00 -0.10071468051E+03  0.10071468051E+03  0.00000000000E+00 0. -1.
         25    1    1    2    0    0  0.12345483519E+03  0.11883094557E+03  0.43106455974E+03  0.48042017507E+03  0.12500000000E+03 0.  0.
         25    1    1    2    0    0 -0.65707641043E+02 -0.21139828942E+03  0.99580969326E+03  0.10277493255E+04  0.12500000000E+03 0.  0.
         25    1    1    2    0    0 -0.57747194149E+02  0.92567343846E+02  0.54506775743E+02  0.17464088920E+03  0.12500000000E+03 0.  0.
</event>
<event>
 5    0  0.5663008E-005  0.3296906E+03  0.7546771E-02  0.1071274E+00
         21   -1    0    0  502  501  0.00000000000E+00  0.00000000000E+00  0.76192358497E+03  0.76192358497E+03  0.00000000000E+00 0. -1.
         21   -1    0    0  501  502 -0.00000000000E+00 -0.00000000000E+00 -0.14265986971E+03  0.14265986971E+03  0.00000000000E+00 0. -1.
         25    1    1    2    0    0 -0.83467335755E+02 -0.88341644487E+02  0.70710763913E+02  0.18813839167E+03  0.12500000000E+03 0.  0.
         25    1    1    2    0    0 -0.12385621612E+03  0.12798591615E+02  0.10445281297E+03  0.20503550023E+03  0.12500000000E+03 0.  0.
         25    1    1    2    0    0  0.20732355187E+03  0.75543052872E+02  0.44410013837E+03  0.51140956277E+03  0.12500000000E+03 0.  0.
</event>
<event>
 5    0  0.5663008E-005  0.2840848E+03  0.7546771E-02  0.1093479E+00
         21   -1    0    0  502  501  0.00000000000E+00  0.00000000000E+00  0.20548198545E+03  0.20548198545E+03  0.00000000000E+00 0. -1.
         21   -1    0    0  501  502 -0.00000000000E+00 -0.00000000000E+00 -0.39275560318E+03  0.39275560318E+03  0.00000000000E+00 0. -1.
         25    1    1    2    0    0  0.16914323016E+03  0.18059389066E+02 -0.23759265968E+02  0.21242663807E+03  0.12500000000E+03 0.  0.
         25    1    1    2    0    0 -0.14534324925E+03  0.23088187746E+02 -0.16203818399E+03  0.25206962845E+03  0.12500000000E+03 0.  0.
         25    1    1    2    0    0 -0.23799980908E+02 -0.41147576812E+02 -0.14761677675E+01  0.13374132211E+03  0.12500000000E+03 0.  0.
</event>
<event>
 5    0  0.5663008E-005  0.2800147E+03  0.7546771E-02  0.1095681E+00
         21   -1    0    0  502  501  0.00000000000E+00  0.00000000000E+00  0.90082744233E+02  0.90082744233E+02  0.00000000000E+00 0. -1.
         21   -1    0    0  501  502 -0.00000000000E+00 -0.00000000000E+00 -0.87040216597E+03  0.87040216597E+03  0.00000000000E+00 0. -1.
         25    1    1    2    0    0  0.33725174649E+02  0.26430871884E+02 -0.22836989400E+03  0.26384424739E+03  0.12500000000E+03 0.  0.
         25    1    1    2    0    0 -0.17935122376E+03  0.14114647432E+02 -0.36484155807E+03  0.42555898208E+03  0.12500000000E+03 0.  0.
         25    1    1    2    0    0  0.14562604911E+03 -0.40545519316E+02 -0.18710796967E+03  0.27108168074E+03  0.12500000000E+03 0.  0.
</event>
<event>
 5    0  0.5835407E-005  0.3355212E+03  0.7546771E-02  0.1068720E+00
         21   -1    0    0  502  501  0.00000000000E+00  0.00000000000E+00  0.43954830241E+03  0.43954830241E+03  0.00000000000E+00 0. -1.
         21   -1    0    0  501  502 -0.00000000000E+00 -0.00000000000E+00 -0.25611395238E+03  0.25611395238E+03  0.00000000000E+00 0. -1.
         25    1    1    2    0    0  0.11415870186E+02 -0.10156365575E+03  0.94317367976E+02  0.18699268479E+03  0.12500000000E+03 0.  0.
         25    1    1    2    0    0 -0.86259740494E+02 -0.14303516347E+02  0.22946221768E+03  0.27554172597E+03  0.12500000000E+03 0.  0.
         25    1    1    2    0    0  0.74843870308E+02  0.11586717210E+03 -0.14034523563E+03  0.23312784402E+03  0.12500000000E+03 0.  0.
</event>
<event>
 5    0  0.5663008E-005  0.3740310E+03  0.7546771E-02  0.1053162E+00
         21   -1    0    0  502  501  0.00000000000E+00  0.00000000000E+00  0.16165601481E+03  0.16165601481E+03  0.00000000000E+00 0. -1.
         21   -1    0    0  501  502 -0.00000000000E+00 -0.00000000000E+00 -0.86541296998E+03  0.86541296998E+03  0.00000000000E+00 0. -1.
         25    1    1    2    0    0  0.53621017197E+01 -0.21287123710E+03 -0.62943735811E+02  0.25481332303E+03  0.12500000000E+03 0.  0.
         25    1    1    2    0    0  0.10679551023E+03  0.52869545500E+02 -0.41063321146E+03  0.44547177711E+03  0.12500000000E+03 0.  0.
         25    1    1    2    0    0 -0.11215761195E+03  0.16000169160E+03 -0.23018000791E+03  0.32678388465E+03  0.12500000000E+03 0.  0.
</event>
<event>
 5    0  0.7020058E-005  0.4074536E+03  0.7546771E-02  0.1041229E+00
         21   -1    0    0  502  501  0.00000000000E+00  0.00000000000E+00  0.76799460700E+03  0.76799460700E+03  0.00000000000E+00 0. -1.
         21   -1    0    0  501  502 -0.00000000000E+00 -0.00000000000E+00 -0.21617139116E+03  0.21617139116E+03  0.00000000000E+00 0. -1.
         25    1    1    2    0    0  0.18071560284E+03  0.12742443904E+03  0.21702913829E+03  0.33409843406E+03  0.12500000000E+03 0.  0.
         25    1    1    2    0    0 -0.52642681020E+02 -0.22830316083E+03  0.35534162179E+03  0.44360596624E+03  0.12500000000E+03 0.  0.
         25    1    1    2    0    0 -0.12807292182E+03  0.10087872179E+03 -0.20547544237E+02  0.20646159785E+03  0.12500000000E+03 0.  0.
</event>
<event>
 5    0  0.5663008E-005  0.4272169E+03  0.7546771E-02  0.1034743E+00
         21   -1    0    0  502  501  0.00000000000E+00  0.00000000000E+00  0.70187512413E+03  0.70187512413E+03  0.00000000000E+00 0.  1.
         21   -1    0    0  501  502 -0.00000000000E+00 -0.00000000000E+00 -0.26003814144E+03  0.26003814144E+03  0.00000000000E+00 0.  1.
         25    1    1    2    0    0 -0.10483472891E+03 -0.19187675888E+01  0.43679705982E+03  0.46627317478E+03  0.12500000000E+03 0.  0.
         25    1    1    2    0    0 -0.14483146527E+03 -0.69093107920E+02  0.33463095528E+02  0.20614264396E+03  0.12500000000E+03 0.  0.
         25    1    1    2    0    0  0.24966619418E+03  0.71011875509E+02 -0.28423172658E+02  0.28949744683E+03  0.12500000000E+03 0.  0.
</event>
<event>
 5    0  0.5663008E-005  0.6722668E+03  0.7546771E-02  0.9765872E-01
         21   -1    0    0  502  501  0.00000000000E+00  0.00000000000E+00  0.10643607359E+04  0.10643607359E+04  0.00000000000E+00 0.  1.
         21   -1    0    0  501  502 -0.00000000000E+00 -0.00000000000E+00 -0.42461413141E+03  0.42461413141E+03  0.00000000000E+00 0.  1.
         25    1    1    2    0    0 -0.70118016648E+02  0.67766004565E+02 -0.73524817938E+02  0.17475601988E+03  0.12500000000E+03 0.  0.
         25    1    1    2    0    0  0.79898936719E+02  0.27648825772E+03 -0.17079116868E+03  0.35724532193E+03  0.12500000000E+03 0.  0.
         25    1    1    2    0    0 -0.97809200713E+01 -0.34425426228E+03  0.88406259113E+03  0.95697352551E+03  0.12500000000E+03 0.  0.
</event>
<event>
 5    0  0.5663008E-005  0.3387696E+03  0.7546771E-02  0.1067321E+00
         21   -1    0    0  502  501  0.00000000000E+00  0.00000000000E+00  0.13112546089E+03  0.13112546089E+03  0.00000000000E+00 0. -1.
         21   -1    0    0  501  502 -0.00000000000E+00 -0.00000000000E+00 -0.87522945390E+03  0.87522945390E+03  0.00000000000E+00 0. -1.
         25    1    1    2    0    0 -0.17233685006E+03  0.75755596970E+02 -0.82142754718E+02  0.24043987297E+03  0.12500000000E+03 0.  0.
         25    1    1    2    0    0  0.95215789468E+02  0.74852248293E+02 -0.27454979643E+03  0.32507152499E+03  0.12500000000E+03 0.  0.
         25    1    1    2    0    0  0.77121060589E+02 -0.15060784526E+03 -0.38741144186E+03  0.44084351683E+03  0.12500000000E+03 0.  0.
</event>
<event>
 5    0  0.5663008E-005  0.2258297E+03  0.7546771E-02  0.1129610E+00
         21   -1    0    0  502  501  0.00000000000E+00  0.00000000000E+00  0.49106482208E+03  0.49106482208E+03  0.00000000000E+00 0.  1.
         21   -1    0    0  501  502 -0.00000000000E+00 -0.00000000000E+00 -0.10385397280E+03  0.10385397280E+03  0.00000000000E+00 0.  1.
         25    1    1    2    0    0 -0.33252599455E+02  0.29357418144E+02  0.73016745292E+02  0.15140686399E+03  0.12500000000E+03 0.  0.
         25    1    1    2    0    0  0.12887728857E+02 -0.50954013919E+01  0.28468494066E+03  0.31122752466E+03  0.12500000000E+03 0.  0.
         25    1    1    2    0    0  0.20364870598E+02 -0.24262016752E+02  0.29509163328E+02  0.13228440623E+03  0.12500000000E+03 0.  0.
</event>
<event>
 5    0  0.6892266E-005  0.2781794E+03  0.7546771E-02  0.1096687E+00
         21   -1    0    0  502  501  0.00000000000E+00  0.00000000000E+00  0.45262499425E+03  0.45262499425E+03  0.00000000000E+00 0. -1.
         21   -1    0    0  501  502 -0.00000000000E+00 -0.00000000000E+00 -0.17096662030E+03  0.17096662030E+03  0.00000000000E+00 0. -1.
         25    1    1    2    0    0 -0.46986099374E+02 -0.90512079972E+02  0.17045554131E+03  0.23469175895E+03  0.12500000000E+03 0.  0.
         25    1    1    2    0    0  0.14798414654E+03  0.59349543957E+02  0.25716243099E+02  0.20422536854E+03  0.12500000000E+03 0.  0.
         25    1    1    2    0    0 -0.10099804717E+03  0.31162536015E+02  0.85486589549E+02  0.18467448707E+03  0.12500000000E+03 0.  0.
</event>
<event>
 5    0  0.5663008E-005  0.3299826E+03  0.7546771E-02  0.1071145E+00
         21   -1    0    0  502  501  0.00000000000E+00  0.00000000000E+00  0.97069757298E+03  0.97069757298E+03  0.00000000000E+00 0. -1.
         21   -1    0    0  501  502 -0.00000000000E+00 -0.00000000000E+00 -0.11217552916E+03  0.11217552916E+03  0.00000000000E+00 0. -1.
         25    1    1    2    0    0  0.29020907601E+02  0.15555475241E+03  0.45500938841E+03  0.49769271405E+03  0.12500000000E+03 0.  0.
         25    1    1    2    0    0 -0.10152360435E+03  0.42184199459E+02  0.96386527442E+02  0.19235880951E+03  0.12500000000E+03 0.  0.
         25    1    1    2    0    0  0.72502696753E+02 -0.19773895186E+03  0.30712612796E+03  0.39282157858E+03  0.12500000000E+03 0.  0.
</event>
<event>
 5    0  0.5663008E-005  0.5211731E+03  0.7546771E-02  0.1008396E+00
         21   -1    0    0  502  501  0.00000000000E+00  0.00000000000E+00  0.74877146185E+03  0.74877146185E+03  0.00000000000E+00 0.  1.
         21   -1    0    0  501  502 -0.00000000000E+00 -0.00000000000E+00 -0.36275601302E+03  0.36275601302E+03  0.00000000000E+00 0.  1.
         25    1    1    2    0    0  0.10491824276E+03 -0.40686030902E+03  0.19101379078E+03  0.47817822722E+03  0.12500000000E+03 0.  0.
         25    1    1    2    0    0 -0.94332758239E+02 -0.10611155489E+02  0.29021741712E+01  0.15698626855E+03  0.12500000000E+03 0.  0.
         25    1    1    2    0    0 -0.10585484520E+02  0.41747146450E+03  0.19209948388E+03  0.47636297911E+03  0.12500000000E+03 0.  0.
</event>
<event>
 5    0  0.5663008E-005  0.4191840E+03  0.7546771E-02  0.1037332E+00
         21   -1    0    0  502  501  0.00000000000E+00  0.00000000000E+00  0.19992909769E+03  0.19992909769E+03  0.00000000000E+00 0. -1.
         21   -1    0    0  501  502 -0.00000000000E+00 -0.00000000000E+00 -0.87888765667E+03  0.87888765667E+03  0.00000000000E+00 0. -1.
         25    1    1    2    0    0  0.95526958027E+02 -0.86211969608E+02 -0.77688115006E+02  0.19549513198E+03  0.12500000000E+03 0.  0.
         25    1    1    2    0    0 -0.19765425834E+03  0.22831300733E+03 -0.58189403613E+03  0.66739771084E+03  0.12500000000E+03 0.  0.
         25    1    1    2    0    0  0.10212730031E+03 -0.14210103773E+03 -0.19376407842E+02  0.21592391154E+03  0.12500000000E+03 0.  0.
</event>
<event>
 5    0  0.5663008E-005  0.3265600E+03  0.7546771E-02  0.1072669E+00
         21   -1    0    0  502  501  0.00000000000E+00  0.00000000000E+00  0.55363669505E+03  0.55363669505E+03  0.00000000000E+00 0.  1.
         21   -1    0    0  501  502 -0.00000000000E+00 -0.00000000000E+00 -0.19261992239E+03  0.19261992239E+03  0.00000000000E+00 0.  1.
         25    1    1    2    0    0  0.52169033379E+01 -0.15956800685E+03 -0.67907464206E+02  0.21383542407E+03  0.12500000000E+03 0.  0.
         25    1    1    2    0    0  0.13465033210E+02  0.13370700602E+03  0.21577103427E+03  0.28326844125E+03  0.12500000000E+03 0.  0.
         25    1    1    2    0    0 -0.18681936548E+02  0.25861000832E+02  0.21315320259E+03  0.24915275212E+03  0.12500000000E+03 0.  0.
</event>
<event>
 5    0  0.5663008E-005  0.2294163E+03  0.7546771E-02  0.1127051E+00
         21   -1    0    0  502  501  0.00000000000E+00  0.00000000000E+00  0.67103493809E+02  0.67103493809E+02  0.00000000000E+00 0.  1.
         21   -1    0    0  501  502 -0.00000000000E+00 -0.00000000000E+00 -0.78433810749E+03  0.78433810749E+03  0.00000000000E+00 0.  1.
         25    1    1    2    0    0  0.70188206598E+02  0.86432048387E+02 -0.32553641214E+03  0.36605442077E+03  0.12500000000E+03 0.  0.
         25    1    1    2    0    0 -0.35371255065E+02  0.46926401716E+00 -0.19330647605E+03  0.23290285437E+03  0.12500000000E+03 0.  0.
         25    1    1    2    0    0 -0.34816951534E+02 -0.86901312404E+02 -0.19839172549E+03  0.25248432616E+03  0.12500000000E+03 0.  0.
</event>
<event>
 5    0  0.5663008E-005  0.5022127E+03  0.7546771E-02  0.1013203E+00
         21   -1    0    0  502  501  0.00000000000E+00  0.00000000000E+00  0.45490207727E+03  0.45490207727E+03  0.00000000000E+00 0.  1.
         21   -1    0    0  501  502 -0.00000000000E+00 -0.00000000000E+00 -0.55444370691E+03  0.55444370691E+03  0.00000000000E+00 0.  1.
         25    1    1    2    0    0 -0.40345745621E+03 -0.35729699593E+00 -0.70459170213E+02  0.42821436373E+03  0.12500000000E+03 0.  0.
         25    1    1    2    0    0  0.43526728734E+02  0.60805112542E+02 -0.11537114913E+03  0.18581533811E+03  0.12500000000E+03 0.  0.
         25    1    1    2    0    0  0.35993072748E+03 -0.60447815546E+02  0.86288689707E+02  0.39531608234E+03  0.12500000000E+03 0.  0.
</event>
<event>
 5    0  0.5663008E-005  0.4049425E+03  0.7546771E-02  0.1042082E+00
         21   -1    0    0  502  501  0.00000000000E+00  0.00000000000E+00  0.98620685796E+02  0.98620685796E+02  0.00000000000E+00 0. -1.
         21   -1    0    0  501  502 -0.00000000000E+00 -0.00000000000E+00 -0.16627181951E+04  0.16627181951E+04  0.00000000000E+00 0. -1.
         25    1    1    2    0    0 -0.11436267777E+03  0.12122663124E+01 -0.24463834460E+02  0.17118344211E+03  0.12500000000E+03 0.  0.
         25    1    1    2    0    0  0.14068132042E+03 -0.72082608977E+02 -0.48129750318E+03  0.52178484359E+03  0.12500000000E+03 0.  0.
         25    1    1    2    0    0 -0.26318642647E+02  0.70870342665E+02 -0.10583361717E+04  0.10683705952E+04  0.12500000000E+03 0.  0.
</event>
<event>
 5    0  0.5663008E-005  0.2848040E+03  0.7546771E-02  0.1093094E+00
         21   -1    0    0  502  501  0.00000000000E+00  0.00000000000E+00  0.98490140166E+03  0.98490140166E+03  0.00000000000E+00 0.  1.
         21   -1    0    0  501  502 -0.00000000000E+00 -0.00000000000E+00 -0.82356808495E+02  0.82356808495E+02  0.00000000000E+00 0.  1.
         25    1    1    2    0    0 -0.10075948538E+03  0.82843305167E+02  0.26706216103E+03  0.32243245022E+03  0.12500000000E+03 0.  0.
         25    1    1    2    0    0 -0.66074636122E+02  0.39293473119E+02  0.24970304585E+03  0.28963156885E+03  0.12500000000E+03 0.  0.
         25    1    1    2    0    0  0.16683412150E+03 -0.12213677829E+03  0.38577938629E+03  0.45519419108E+03  0.12500000000E+03 0.  0.
</event>
<event>
 5    0  0.5663008E-005  0.3242905E+03  0.7546771E-02  0.1073691E+00
         21   -1    0    0  502  501  0.00000000000E+00  0.00000000000E+00  0.41165201610E+03  0.41165201610E+03  0.00000000000E+00 0.  1.
         21   -1    0    0  501  502 -0.00000000000E+00 -0.00000000000E+00 -0.25546903861E+03  0.25546903861E+03  0.00000000000E+00 0.  1.
         25    1    1    2    0    0 -0.27170336625E+02  0.17163821552E+03 -0.77983292451E+02  0.22782514813E+03  0.12500000000E+03 0.  0.
         25    1    1    2    0    0 -0.39652350971E+02 -0.18018947929E+03  0.10118895984E+03  0.24475449532E+03  0.12500000000E+03 0.  0.
         25    1    1    2    0    0  0.66822687595E+02  0.85512637718E+01  0.13297731011E+03  0.19454141125E+03  0.12500000000E+03 0.  0.
</event>
<event>
 5    0  0.5663008E-005  0.2471223E+03  0.7546771E-02  0.1115137E+00
         21   -1    0    0  502  501  0.00000000000E+00  0.00000000000E+00  0.15624382865E+03  0.15624382865E+03  0.00000000000E+00 0.  1.
         21   -1    0    0  501  502 -0.00000000000E+00 -0.00000000000E+00 -0.39085965569E+03  0.39085965569E+03  0.00000000000E+00 0.  1.
         25    1    1    2    0    0 -0.50950059379E+02 -0.28432667433E+02  0.39049978910E+02  0.14336745091E+03  0.12500000000E+03 0.  0.
         25    1    1    2    0    0  0.16127464702E+02  0.54603515040E+02 -0.54657142689E+02  0.14783112737E+03  0.12500000000E+03 0.  0.
         25    1    1    2    0    0  0.34822594677E+02 -0.26170847608E+02 -0.21900866326E+03  0.25590490606E+03  0.12500000000E+03 0.  0.
</event>
<event>
 5    0  0.5663008E-005  0.3053177E+03  0.7546771E-02  0.1082612E+00
         21   -1    0    0  502  501  0.00000000000E+00  0.00000000000E+00  0.19114840109E+03  0.19114840109E+03  0.00000000000E+00 0. -1.
         21   -1    0    0  501  502 -0.00000000000E+00 -0.00000000000E+00 -0.48767823457E+03  0.48767823457E+03  0.00000000000E+00 0. -1.
         25    1    1    2    0    0 -0.13872559721E+03  0.14181767138E+02  0.30993210532E+02  0.18981963265E+03  0.12500000000E+03 0.  0.
         25    1    1    2    0    0 -0.50161738264E+02  0.53857855032E+01 -0.10480059240E+03  0.17074358213E+03  0.12500000000E+03 0.  0.
         25    1    1    2    0    0  0.18888733547E+03 -0.19567552641E+02 -0.22272245161E+03  0.31826342088E+03  0.12500000000E+03 0.  0.
</event>
<event>
 5    0  0.6479903E-005  0.2793071E+03  0.7546771E-02  0.1096068E+00
         21   -1    0    0  502  501  0.00000000000E+00  0.00000000000E+00  0.16198463303E+03  0.16198463303E+03  0.00000000000E+00 0. -1.
         21   -1    0    0  501  502 -0.00000000000E+00 -0.00000000000E+00 -0.48160389541E+03  0.48160389541E+03  0.00000000000E+00 0. -1.
         25    1    1    2    0    0 -0.78951333738E+02  0.48396370745E+02 -0.28145315102E+03  0.32158420051E+03  0.12500000000E+03 0.  0.
         25    1    1    2    0    0  0.45969557541E+02  0.63735581768E+02 -0.53029532694E+01  0.14774486765E+03  0.12500000000E+03 0.  0.
         25    1    1    2    0    0  0.32981776197E+02 -0.11213195251E+03 -0.32863158092E+02  0.17425946028E+03  0.12500000000E+03 0.  0.
</event>
<event>
 5    0  0.5663008E-005  0.3485645E+03  0.7546771E-02  0.1063206E+00
         21   -1    0    0  502  501  0.00000000000E+00  0.00000000000E+00  0.19336915499E+04  0.19336915499E+04  0.00000000000E+00 0. -1.
         21   -1    0    0  501  502 -0.00000000000E+00 -0.00000000000E+00 -0.62831733790E+02  0.62831733790E+02  0.00000000000E+00 0. -1.
         25    1    1    2    0    0 -0.19304197450E+03 -0.72852073000E+02  0.29921038209E+03  0.38434942592E+03  0.12500000000E+03 0.  0.
         25    1    1    2    0    0  0.79678599330E+02  0.81950867751E+02  0.51615379034E+03  0.54323508649E+03  0.12500000000E+03 0.  0.
         25    1    1    2    0    0  0.11336337517E+03 -0.90987947509E+01  0.10554956437E+04  0.10689387713E+04  0.12500000000E+03 0.  0.
</event>
<event>
 5    0  0.5663008E-005  0.3541226E+03  0.7546771E-02  0.1060936E+00
         21   -1    0    0  502  501  0.00000000000E+00  0.00000000000E+00  0.80512775737E+02  0.80512775737E+02  0.00000000000E+00 0. -1.
         21   -1    0    0  501  502 -0.00000000000E+00 -0.00000000000E+00 -0.15575515692E+04  0.15575515692E+04  0.00000000000E+00 0. -1.
         25    1    1    2    0    0 -0.19550720466E+03 -0.10785578587E+03 -0.29863596850E+03  0.39327392400E+03  0.12500000000E+03 0.  0.
         25    1    1    2    0    0  0.43248717891E+02 -0.54745642553E+02 -0.49188252367E+03  0.51228991213E+03  0.12500000000E+03 0.  0.
         25    1    1    2    0    0  0.15225848677E+03  0.16260142842E+03 -0.68652030133E+03  0.73250050885E+03  0.12500000000E+03 0.  0.
</event>
<event>
 5    0  0.5663008E-005  0.2253517E+03  0.7546771E-02  0.1129955E+00
         21   -1    0    0  502  501  0.00000000000E+00  0.00000000000E+00  0.78439356585E+02  0.78439356585E+02  0.00000000000E+00 0. -1.
         21   -1    0    0  501  502 -0.00000000000E+00 -0.00000000000E+00 -0.64742240478E+03  0.64742240478E+03  0.00000000000E+00 0. -1.
         25    1    1    2    0    0 -0.70384756687E+02  0.60088796789E+02 -0.10813392880E+03  0.18942709423E+03  0.12500000000E+03 0.  0.
         25    1    1    2    0    0  0.43849558314E+02 -0.60907816334E+02 -0.22304613694E+03  0.26647162149E+03  0.12500000000E+03 0.  0.
         25    1    1    2    0    0  0.26535198373E+02  0.81901954472E+00 -0.23780298245E+03  0.26996304564E+03  0.12500000000E+03 0.  0.
</event>
<event>
 5    0  0.5663008E-005  0.4184811E+03  0.7546771E-02  0.1037562E+00
         21   -1    0    0  502  501  0.00000000000E+00  0.00000000000E+00  0.19647046545E+03  0.19647046545E+03  0.00000000000E+00 0. -1.
         21   -1    0    0  501  502 -0.00000000000E+00 -0.00000000000E+00 -0.89136242116E+03  0.89136242116E+03  0.00000000000E+00 0. -1.
         25    1    1    2    0    0  0.12845553971E+03  0.19939939429E+03 -0.48435154842E+03  0.55360849576E+03  0.12500000000E+03 0.  0.
         25    1    1    2    0    0  0.10021327074E+03 -0.14996102916E+03 -0.13800962381E+03  0.25923477036E+03  0.12500000000E+03 0.  0.
         25    1    1    2    0    0 -0.22866881045E+03 -0.49438365134E+02 -0.72530783484E+02  0.27498962049E+03  0.12500000000E+03 0.  0.
</event>
<event>
 5    0  0.5663008E-005  0.3017422E+03  0.7546771E-02  0.1084373E+00
         21   -1    0    0  502  501  0.00000000000E+00  0.00000000000E+00  0.29393875751E+03  0.29393875751E+03  0.00000000000E+00 0.  1.
         21   -1    0    0  501  502 -0.00000000000E+00 -0.00000000000E+00 -0.30975277516E+03  0.30975277516E+03  0.00000000000E+00 0.  1.
         25    1    1    2    0    0  0.15180732924E+03 -0.13552849733E+03 -0.62382354622E+02  0.24684002302E+03  0.12500000000E+03 0.  0.
         25    1    1    2    0    0 -0.11633421023E+03  0.11114056215E+03  0.82561487921E+02  0.21983464766E+03  0.12500000000E+03 0.  0.
         25    1    1    2    0    0 -0.35473119006E+02  0.24387935183E+02 -0.35993150943E+02  0.13701686199E+03  0.12500000000E+03 0.  0.
</event>
<event>
 5    0  0.5663008E-005  0.2630494E+03  0.7546771E-02  0.1105325E+00
         21   -1    0    0  502  501  0.00000000000E+00  0.00000000000E+00  0.22172312098E+03  0.22172312098E+03  0.00000000000E+00 0.  1.
         21   -1    0    0  501  502 -0.00000000000E+00 -0.00000000000E+00 -0.31207829009E+03  0.31207829009E+03  0.00000000000E+00 0.  1.
         25    1    1    2    0    0  0.33382535803E+02  0.72663711871E+02 -0.76415428158E+01  0.14858600841E+03  0.12500000000E+03 0.  0.
         25    1    1    2    0    0 -0.86072986557E+01 -0.12251371306E+03  0.62159258979E+02  0.18593673374E+03  0.12500000000E+03 0.  0.
         25    1    1    2    0    0 -0.24775237147E+02  0.49850001187E+02 -0.14487288528E+03  0.19927866891E+03  0.12500000000E+03 0.  0.
</event>
<event>
 5    0  0.5663008E-005  0.2953217E+03  0.7546771E-02  0.1087603E+00
         21   -1    0    0  502  501  0.00000000000E+00  0.00000000000E+00  0.90747969203E+03  0.90747969203E+03  0.00000000000E+00 0. -1.
         21   -1    0    0  501  502 -0.00000000000E+00 -0.00000000000E+00 -0.96106699434E+02  0.96106699434E+02  0.00000000000E+00 0. -1.
         25    1    1    2    0    0  0.10490293122E+03  0.30679028317E+02  0.30395379596E+03  0.34635059959E+03  0.12500000000E+03 0.  0.
         25    1    1    2    0    0 -0.16154435134E+03  0.26598351854E+01  0.10281182238E+03  0.22868957780E+03  0.12500000000E+03 0.  0.
         25    1    1    2    0    0  0.56641420128E+02 -0.33338863502E+02  0.40460737425E+03  0.42854621407E+03  0.12500000000E+03 0.  0.
</event>
<event>
 5    0  0.5759461E-005  0.2865950E+03  0.7546771E-02  0.1092140E+00
         21   -1    0    0  502  501  0.00000000000E+00  0.00000000000E+00  0.42405523248E+03  0.42405523248E+03  0.00000000000E+00 0. -1.
         21   -1    0    0  501  502 -0.00000000000E+00 -0.00000000000E+00 -0.19369342120E+03  0.19369342120E+03  0.00000000000E+00 0. -1.
         25    1    1    2    0    0 -0.15397786656E+03  0.76203184598E+02  0.32025173905E+02  0.21486442353E+03  0.12500000000E+03 0.  0.
         25    1    1    2    0    0  0.29202638066E+01 -0.40229448026E+02  0.14680939058E+03  0.19698967890E+03  0.12500000000E+03 0.  0.
         25    1    1    2    0    0  0.15105760276E+03 -0.35973736572E+02  0.51527246797E+02  0.20589455125E+03  0.12500000000E+03 0.  0.
</event>
<event>
 5    0  0.5663008E-005  0.4710901E+03  0.7546771E-02  0.1021613E+00
         21   -1    0    0  502  501  0.00000000000E+00  0.00000000000E+00  0.96297280580E+02  0.96297280580E+02  0.00000000000E+00 0.  1.
         21   -1    0    0  501  502 -0.00000000000E+00 -0.00000000000E+00 -0.23045915280E+04  0.23045915280E+04  0.00000000000E+00 0.  1.
         25    1    1    2    0    0 -0.21757290925E+02 -0.46697467523E+02 -0.23686808994E+03  0.27273709908E+03  0.12500000000E+03 0.  0.
         25    1    1    2    0    0 -0.28928421337E+03  0.23281143541E+03 -0.12662191956E+04  0.13254518368E+04  0.12500000000E+03 0.  0.
         25    1    1    2    0    0  0.31104150430E+03 -0.18611396789E+03 -0.70520696190E+03  0.80269987265E+03  0.12500000000E+03 0.  0.
</event>
<event>
 5    0  0.5663008E-005  0.4102468E+03  0.7546771E-02  0.1040288E+00
         21   -1    0    0  502  501  0.00000000000E+00  0.00000000000E+00  0.13230364104E+03  0.13230364104E+03  0.00000000000E+00 0.  1.
         21   -1    0    0  501  502 -0.00000000000E+00 -0.00000000000E+00 -0.12720924654E+04  0.12720924654E+04  0.00000000000E+00 0.  1.
         25    1    1    2    0    0 -0.85143359790E+01  0.13786773429E+02 -0.10338717573E+04  0.10415269462E+04  0.12500000000E+03 0.  0.
         25    1    1    2    0    0 -0.85213015957E+02  0.64636883757E+02 -0.13333108460E+02  0.16505137567E+03  0.12500000000E+03 0.  0.
         25    1    1    2    0    0  0.93727351936E+02 -0.78423657186E+02 -0.92583958563E+02  0.19781778457E+03  0.12500000000E+03 0.  0.
</event>
<event>
 5    0  0.5663008E-005  0.3359446E+03  0.7546771E-02  0.1068536E+00
         21   -1    0    0  502  501  0.00000000000E+00  0.00000000000E+00  0.19033765676E+03  0.19033765676E+03  0.00000000000E+00 0. -1.
         21   -1    0    0  501  502 -0.00000000000E+00 -0.00000000000E+00 -0.59293993554E+03  0.59293993554E+03  0.00000000000E+00 0. -1.
         25    1    1    2    0    0  0.38162983684E+02  0.23420351909E+03 -0.15431417559E+03  0.30942780494E+03  0.12500000000E+03 0.  0.
         25    1    1    2    0    0  0.18301832358E+02 -0.90164734008E+02 -0.22535767027E+03  0.27363427394E+03  0.12500000000E+03 0.  0.
         25    1    1    2    0    0 -0.56464816042E+02 -0.14403878509E+03 -0.22930432929E+02  0.20021551342E+03  0.12500000000E+03 0.  0.
</event>
<event>
 5    0  0.5663008E-005  0.2556450E+03  0.7546771E-02  0.1109788E+00
         21   -1    0    0  502  501  0.00000000000E+00  0.00000000000E+00  0.96055908083E+03  0.96055908083E+03  0.00000000000E+00 0. -1.
         21   -1    0    0  501  502 -0.00000000000E+00 -0.00000000000E+00 -0.68037843008E+02  0.68037843008E+02  0.00000000000E+00 0. -1.
         25    1    1    2    0    0  0.72546480370E+02  0.12925457674E+03  0.41221896305E+03  0.45554276520E+03  0.12500000000E+03 0.  0.
         25    1    1    2    0    0  0.90748323015E+01 -0.31362545745E+02  0.25252208263E+03  0.28365183601E+03  0.12500000000E+03 0.  0.
         25    1    1    2    0    0 -0.81621312671E+02 -0.97892030993E+02  0.22778019214E+03  0.28940232264E+03  0.12500000000E+03 0.  0.
</event>
<event>
 5    0  0.5663008E-005  0.2455531E+03  0.7546771E-02  0.1116148E+00
         21   -1    0    0  502  501  0.00000000000E+00  0.00000000000E+00  0.14809255426E+03  0.14809255426E+03  0.00000000000E+00 0.  1.
         21   -1    0    0  501  502 -0.00000000000E+00 -0.00000000000E+00 -0.40715294744E+03  0.40715294744E+03  0.00000000000E+00 0.  1.
         25    1    1    2    0    0 -0.98453084264E+01  0.84855216247E+02 -0.82138744294E+02  0.17224723840E+03  0.12500000000E+03 0.  0.
         25    1    1    2    0    0  0.55421641269E+02 -0.13003294028E+03 -0.53893676751E+02  0.19623876343E+03  0.12500000000E+03 0.  0.
         25    1    1    2    0    0 -0.45576332843E+02  0.45177724029E+02 -0.12302797214E+03  0.18675949987E+03  0.12500000000E+03 0.  0.
</event>
<event>
 5    0  0.5663008E-005  0.2517393E+03  0.7546771E-02  0.1112211E+00
         21   -1    0    0  502  501  0.00000000000E+00  0.00000000000E+00  0.11344533607E+03  0.11344533607E+03  0.00000000000E+00 0. -1.
         21   -1    0    0  501  502 -0.00000000000E+00 -0.00000000000E+00 -0.55861863848E+03  0.55861863848E+03  0.00000000000E+00 0. -1.
         25    1    1    2    0    0 -0.11735287601E+03  0.65388890787E+01 -0.13316049730E+03  0.21718925531E+03  0.12500000000E+03 0.  0.
         25    1    1    2    0    0  0.11348404690E+03  0.68300341532E+02 -0.20401599338E+03  0.27347959907E+03  0.12500000000E+03 0.  0.
         25    1    1    2    0    0  0.38688291137E+01 -0.74839230611E+02 -0.10799681173E+03  0.18139512017E+03  0.12500000000E+03 0.  0.
</event>
<event>
 5    0  0.5663008E-005  0.4013837E+03  0.7546771E-02  0.1043302E+00
         21   -1    0    0  502  501  0.00000000000E+00  0.00000000000E+00  0.14731391192E+03  0.14731391192E+03  0.00000000000E+00 0.  1.
         21   -1    0    0  501  502 -0.00000000000E+00 -0.00000000000E+00 -0.10936433228E+04  0.10936433228E+04  0.00000000000E+00 0.  1.
         25    1    1    2    0    0  0.18462498499E+03 -0.65248831457E+02 -0.35643059247E+03  0.42545453616E+03  0.12500000000E+03 0.  0.
         25    1    1    2    0    0 -0.18973586756E+03  0.29400737809E+02 -0.63712050641E+03  0.67706103308E+03  0.12500000000E+03 0.  0.
         25    1    1    2    0    0  0.51108825671E+01  0.35848093648E+02  0.47221687961E+02  0.13844166552E+03  0.12500000000E+03 0.  0.
</event>
<event>
 5    0  0.5663008E-005  0.4044424E+03  0.7546771E-02  0.1042252E+00
         21   -1    0    0  502  501  0.00000000000E+00  0.00000000000E+00  0.10199390526E+04  0.10199390526E+04  0.00000000000E+00 0.  1.
         21   -1    0    0  501  502 -0.00000000000E+00 -0.00000000000E+00 -0.16037590751E+03  0.16037590751E+03  0.00000000000E+00 0.  1.
         25    1    1    2    0    0 -0.13502165896E+03  0.12294653056E+03  0.57499493836E+03  0.61610946828E+03  0.12500000000E+03 0.  0.
         25    1    1    2    0    0 -0.30255185407E+02 -0.14801622900E+03 -0.17686056237E+02  0.19688061580E+03  0.12500000000E+03 0.  0.
         25    1    1    2    0    0  0.16527684437E+03  0.25069698444E+02  0.30225426297E+03  0.36732487603E+03  0.12500000000E+03 0.  0.
</event>
<event>
 5    0  0.5663008E-005  0.3692653E+03  0.7546771E-02  0.1054974E+00
         21   -1    0    0  502  501  0.00000000000E+00  0.00000000000E+00  0.13511381177E+03  0.13511381177E+03  0.00000000000E+00 0. -1.
         21   -1    0    0  501  502 -0.00000000000E+00 -0.00000000000E+00 -0.10091997919E+04  0.10091997919E+04  0.00000000000E+00 0. -1.
         25    1    1    2    0    0 -0.92622364966E+02  0.11709684764E+03 -0.45680152235E+02  0.20000562624E+03  0.12500000000E+03 0.  0.
         25    1    1    2    0    0 -0.36349702698E+02  0.46227693467E+02 -0.58289586439E+03  0.59904164233E+03  0.12500000000E+03 0.  0.
         25    1    1    2    0    0  0.12897206766E+03 -0.16332454111E+03 -0.24550996349E+03  0.34526633508E+03  0.12500000000E+03 0.  0.
</event>
<event>
 5    0  0.5663008E-005  0.4209800E+03  0.7546771E-02  0.1036748E+00
         21   -1    0    0  502  501  0.00000000000E+00  0.00000000000E+00  0.12819889418E+04  0.12819889418E+04  0.00000000000E+00 0.  1.
         21   -1    0    0  501  502 -0.00000000000E+00 -0.00000000000E+00 -0.13824154664E+03  0.13824154664E+03  0.00000000000E+00 0.  1.
         25    1    1    2    0    0  0.15821868985E+03  0.14917232804E+03  0.17747166748E+03  0.30725678191E+03  0.12500000000E+03 0.  0.
         25    1    1    2    0    0 -0.30363400968E+03 -0.10655033435E+03  0.50609611174E+03  0.61262130220E+03  0.12500000000E+03 0.  0.
         25    1    1    2    0    0  0.14541531983E+03 -0.42621993696E+02  0.46017961597E+03  0.50035240436E+03  0.12500000000E+03 0.  0.
</event>
<event>
 5    0  0.5663008E-005  0.3445550E+03  0.7546771E-02  0.1064872E+00
         21   -1    0    0  502  501  0.00000000000E+00  0.00000000000E+00  0.15562626330E+03  0.15562626330E+03  0.00000000000E+00 0.  1.
         21   -1    0    0  501  502 -0.00000000000E+00 -0.00000000000E+00 -0.76284116864E+03  0.76284116864E+03  0.00000000000E+00 0.  1.
         25    1    1    2    0    0  0.80083513157E+02 -0.18762406222E+03 -0.11696201592E+03  0.26631047852E+03  0.12500000000E+03 0.  0.
         25    1    1    2    0    0  0.85776108813E+02  0.43157638990E+02 -0.28777996586E+03  0.32811953828E+03  0.12500000000E+03 0.  0.
         25    1    1    2    0    0 -0.16585962197E+03  0.14446642323E+03 -0.20247292354E+03  0.32403741514E+03  0.12500000000E+03 0.  0.
</event>
<event>
 5    0  0.5663008E-005  0.3255649E+03  0.7546771E-02  0.1073116E+00
         21   -1    0    0  502  501  0.00000000000E+00  0.00000000000E+00  0.93524533315E+03  0.93524533315E+03  0.00000000000E+00 0. -1.
         21   -1    0    0  501  502 -0.00000000000E+00 -0.00000000000E+00 -0.11333126137E+03  0.11333126137E+03  0.00000000000E+00 0. -1.
         25    1    1    2    0    0 -0.14144121258E+02  0.19675667235E+03  0.54460610884E+03  0.59256565718E+03  0.12500000000E+03 0.  0.
         25    1    1    2    0    0  0.90120209648E+02 -0.11496271644E+03  0.12327979699E+03  0.22838779894E+03  0.12500000000E+03 0.  0.
         25    1    1    2    0    0 -0.75976088390E+02 -0.81793955915E+02  0.15402816595E+03  0.22762313840E+03  0.12500000000E+03 0.  0.
</event>
<event>
 5    0  0.5663008E-005  0.2577049E+03  0.7546771E-02  0.1108530E+00
         21   -1    0    0  502  501  0.00000000000E+00  0.00000000000E+00  0.20406367015E+03  0.20406367015E+03  0.00000000000E+00 0. -1.
         21   -1    0    0  501  502 -0.00000000000E+00 -0.00000000000E+00 -0.32544642218E+03  0.32544642218E+03  0.00000000000E+00 0. -1.
         25    1    1    2    0    0  0.23317028840E+02  0.29507992000E+02 -0.76638992582E+02  0.15137021044E+03  0.12500000000E+03 0.  0.
         25    1    1    2    0    0 -0.13501574138E+02 -0.12306495208E+03  0.64441672073E+02  0.18736329426E+03  0.12500000000E+03 0.  0.
         25    1    1    2    0    0 -0.98154547014E+01  0.93556960085E+02 -0.10918543152E+03  0.19077658763E+03  0.12500000000E+03 0.  0.
</event>
<event>
 5    0  0.5663008E-005  0.2192839E+03  0.7546771E-02  0.1134418E+00
         21   -1    0    0  502  501  0.00000000000E+00  0.00000000000E+00  0.34748902160E+03  0.34748902160E+03  0.00000000000E+00 0. -1.
         21   -1    0    0  501  502 -0.00000000000E+00 -0.00000000000E+00 -0.13837975921E+03  0.13837975921E+03  0.00000000000E+00 0. -1.
         25    1    1    2    0    0 -0.59555784087E+02 -0.52275151029E+02  0.34452162415E+02  0.15195898897E+03  0.12500000000E+03 0.  0.
         25    1    1    2    0    0  0.47748477130E+02 -0.26082901908E+02  0.76626963790E+02  0.15638710439E+03  0.12500000000E+03 0.  0.
         25    1    1    2    0    0  0.11807306957E+02  0.78358052937E+02  0.98030136189E+02  0.17752268745E+03  0.12500000000E+03 0.  0.
</event>
<event>
 5    0  0.5663008E-005  0.2276121E+03  0.7546771E-02  0.1128332E+00
         21   -1    0    0  502  501  0.00000000000E+00  0.00000000000E+00  0.39625255269E+03  0.39625255269E+03  0.00000000000E+00 0.  1.
         21   -1    0    0  501  502 -0.00000000000E+00 -0.00000000000E+00 -0.13074305552E+03  0.13074305552E+03  0.00000000000E+00 0.  1.
         25    1    1    2    0    0  0.29867609602E+02 -0.82951085517E+02  0.16628581924E+03  0.22594010351E+03  0.12500000000E+03 0.  0.
         25    1    1    2    0    0 -0.10538795320E+02  0.93694195137E+02  0.65431402068E+02  0.16969365570E+03  0.12500000000E+03 0.  0.
         25    1    1    2    0    0 -0.19328814282E+02 -0.10743109620E+02  0.33792275852E+02  0.13136184900E+03  0.12500000000E+03 0.  0.
</event>
<event>
 5    0  0.5663008E-005  0.2243088E+03  0.7546771E-02  0.1130711E+00
         21   -1    0    0  502  501  0.00000000000E+00  0.00000000000E+00  0.13054749999E+03  0.13054749999E+03  0.00000000000E+00 0. -1.
         21   -1    0    0  501  502 -0.00000000000E+00 -0.00000000000E+00 -0.38541110651E+03  0.38541110651E+03  0.00000000000E+00 0. -1.
         25    1    1    2    0    0  0.84215497667E+02  0.12649049317E+01 -0.11964818445E+03  0.19244359713E+03  0.12500000000E+03 0.  0.
         25    1    1    2    0    0 -0.19015227900E+02 -0.59011171062E+02 -0.83598222227E+02  0.16265780019E+03  0.12500000000E+03 0.  0.
         25    1    1    2    0    0 -0.65200269767E+02  0.57746266131E+02 -0.51617199844E+02  0.16085720919E+03  0.12500000000E+03 0.  0.
</event>
<event>
 5    0  0.5663008E-005  0.3934463E+03  0.7546771E-02  0.1046073E+00
         21   -1    0    0  502  501  0.00000000000E+00  0.00000000000E+00  0.28087030595E+03  0.28087030595E+03  0.00000000000E+00 0. -1.
         21   -1    0    0  501  502 -0.00000000000E+00 -0.00000000000E+00 -0.55114414070E+03  0.55114414070E+03  0.00000000000E+00 0. -1.
         25    1    1    2    0    0 -0.22790596042E+03  0.11845137900E+03  0.72495079230E+02  0.29470729969E+03  0.12500000000E+03 0.  0.
         25    1    1    2    0    0  0.11241785487E+03 -0.36957395152E+02 -0.34011273672E+02  0.17545765839E+03  0.12500000000E+03 0.  0.
         25    1    1    2    0    0  0.11548810555E+03 -0.81493983844E+02 -0.30875764031E+03  0.36184948857E+03  0.12500000000E+03 0.  0.
</event>
<event>
 5    0  0.5663008E-005  0.3968902E+03  0.7546771E-02  0.1044862E+00
         21   -1    0    0  502  501  0.00000000000E+00  0.00000000000E+00  0.18525227177E+03  0.18525227177E+03  0.00000000000E+00 0. -1.
         21   -1    0    0  501  502 -0.00000000000E+00 -0.00000000000E+00 -0.85030989884E+03  0.85030989884E+03  0.00000000000E+00 0. -1.
         25    1    1    2    0    0 -0.13375847212E+03  0.66646518990E+01 -0.68047362228E+02  0.19542566350E+03  0.12500000000E+03 0.  0.
         25    1    1    2    0    0  0.28991553771E+03 -0.69452214488E+02 -0.17186635275E+03  0.36611155719E+03  0.12500000000E+03 0.  0.
         25    1    1    2    0    0 -0.15615706558E+03  0.62787562589E+02 -0.42514391209E+03  0.47402494991E+03  0.12500000000E+03 0.  0.
</event>
<event>
 5    0  0.5663008E-005  0.2358901E+03  0.7546771E-02  0.1122561E+00
         21   -1    0    0  502  501  0.00000000000E+00  0.00000000000E+00  0.96889350833E+03  0.96889350833E+03  0.00000000000E+00 0.  1.
         21   -1    0    0  501  502 -0.00000000000E+00 -0.00000000000E+00 -0.57430623426E+02  0.57430623426E+02  0.00000000000E+00 0.  1.
         25    1    1    2    0    0  0.55019445226E+02 -0.85645732048E+02  0.35397972331E+03  0.38895883495E+03  0.12500000000E+03 0.  0.
         25    1    1    2    0    0 -0.53244661057E+02  0.10284719861E+02  0.40031022658E+03  0.42286409980E+03  0.12500000000E+03 0.  0.
         25    1    1    2    0    0 -0.17747841693E+01  0.75361012186E+02  0.15717293501E+03  0.21450119700E+03  0.12500000000E+03 0.  0.
</event>
<event>
 5    0  0.7074694E-005  0.2944334E+03  0.7546771E-02  0.1088057E+00
         21   -1    0    0  502  501  0.00000000000E+00  0.00000000000E+00  0.46431062812E+03  0.46431062812E+03  0.00000000000E+00 0. -1.
         21   -1    0    0  501  502 -0.00000000000E+00 -0.00000000000E+00 -0.18670910610E+03  0.18670910610E+03  0.00000000000E+00 0. -1.
         25    1    1    2    0    0  0.15345710777E+03 -0.22966820647E+02 -0.50012501158E+01  0.19931525601E+03  0.12500000000E+03 0.  0.
         25    1    1    2    0    0 -0.10330799271E+03  0.98166752529E+02  0.10588045742E+03  0.21712881873E+03  0.12500000000E+03 0.  0.
         25    1    1    2    0    0 -0.50149115066E+02 -0.75199931882E+02  0.17672231472E+03  0.23457565947E+03  0.12500000000E+03 0.  0.
</event>
<event>
 5    0  0.5663008E-005  0.4277035E+03  0.7546771E-02  0.1034588E+00
         21   -1    0    0  502  501  0.00000000000E+00  0.00000000000E+00  0.11262006908E+03  0.11262006908E+03  0.00000000000E+00 0. -1.
         21   -1    0    0  501  502 -0.00000000000E+00 -0.00000000000E+00 -0.16243130699E+04  0.16243130699E+04  0.00000000000E+00 0. -1.
         25    1    1    2    0    0  0.28945905250E+02 -0.24829736890E+03 -0.58174801430E+03  0.64540313059E+03  0.12500000000E+03 0.  0.
         25    1    1    2    0    0 -0.61703919987E+02 -0.11457481582E+03 -0.22716286172E+03  0.29010813141E+03  0.12500000000E+03 0.  0.
         25    1    1    2    0    0  0.32758014737E+02  0.36287218472E+03 -0.70278212483E+03  0.80142187701E+03  0.12500000000E+03 0.  0.
</event>
<event>
 5    0  0.7505893E-005  0.6459870E+03  0.7546771E-02  0.9814338E-01
         21   -1    0    0  502  501  0.00000000000E+00  0.00000000000E+00  0.28080198776E+03  0.28080198776E+03  0.00000000000E+00 0. -1.
         21   -1    0    0  501  502 -0.00000000000E+00 -0.00000000000E+00 -0.14860979612E+04  0.14860979612E+04  0.00000000000E+00 0. -1.
         25    1    1    2    0    0 -0.52146131876E+02  0.34301693478E+03 -0.78056203306E+03  0.86329712386E+03  0.12500000000E+03 0.  0.
         25    1    1    2    0    0  0.34448939356E+03 -0.23050224980E+03 -0.35344170723E+03  0.55888305561E+03  0.12500000000E+03 0.  0.
         25    1    1    2    0    0 -0.29234326169E+03 -0.11251468498E+03 -0.71292233199E+02  0.34471976953E+03  0.12500000000E+03 0.  0.
</event>
<event>
 5    0  0.5663008E-005  0.4575517E+03  0.7546771E-02  0.1025494E+00
         21   -1    0    0  502  501  0.00000000000E+00  0.00000000000E+00  0.27049159495E+03  0.27049159495E+03  0.00000000000E+00 0.  1.
         21   -1    0    0  501  502 -0.00000000000E+00 -0.00000000000E+00 -0.77397444465E+03  0.77397444465E+03  0.00000000000E+00 0.  1.
         25    1    1    2    0    0 -0.23274376079E+03 -0.18025189421E+03 -0.41932410218E+03  0.52736904177E+03  0.12500000000E+03 0.  0.
         25    1    1    2    0    0  0.15782167826E+03  0.14453634680E+03  0.11047123468E+03  0.27134356702E+03  0.12500000000E+03 0.  0.
         25    1    1    2    0    0  0.74922082533E+02  0.35715547409E+02 -0.19462998220E+03  0.24575343080E+03  0.12500000000E+03 0.  0.
</event>
<event>
 5    0  0.5663008E-005  0.5565368E+03  0.7546771E-02  0.9999921E-01
         21   -1    0    0  502  501  0.00000000000E+00  0.00000000000E+00  0.19108887497E+03  0.19108887497E+03  0.00000000000E+00 0. -1.
         21   -1    0    0  501  502 -0.00000000000E+00 -0.00000000000E+00 -0.16208857055E+04  0.16208857055E+04  0.00000000000E+00 0. -1.
         25    1    1    2    0    0  0.33411780956E+03  0.16675511213E+03 -0.59244797901E+03  0.71138005730E+03  0.12500000000E+03 0.  0.
         25    1    1    2    0    0 -0.44282759191E+03 -0.13696877805E+03 -0.37693198698E+03  0.61037647819E+03  0.12500000000E+03 0.  0.
         25    1    1    2    0    0  0.10870978236E+03 -0.29786334075E+02 -0.46041686458E+03  0.49021804502E+03  0.12500000000E+03 0.  0.
</event>
<event>
 5    0  0.5663008E-005  0.2947852E+03  0.7546771E-02  0.1087877E+00
         21   -1    0    0  502  501  0.00000000000E+00  0.00000000000E+00  0.21309697106E+03  0.21309697106E+03  0.00000000000E+00 0.  1.
         21   -1    0    0  501  502 -0.00000000000E+00 -0.00000000000E+00 -0.40778758790E+03  0.40778758790E+03  0.00000000000E+00 0.  1.
         25    1    1    2    0    0  0.73216362210E+02 -0.79966755043E+02  0.66822245895E+02  0.17845315955E+03  0.12500000000E+03 0.  0.
         25    1    1    2    0    0  0.88547146212E+01  0.14653385343E+03 -0.13126296472E+03  0.23324995623E+03  0.12500000000E+03 0.  0.
         25    1    1    2    0    0 -0.82071076831E+02 -0.66567098389E+02 -0.13024989801E+03  0.20918144318E+03  0.12500000000E+03 0.  0.
</event>
<event>
 5    0  0.5663008E-005  0.2976636E+03  0.7546771E-02  0.1086414E+00
         21   -1    0    0  502  501  0.00000000000E+00  0.00000000000E+00  0.11129033787E+03  0.11129033787E+03  0.00000000000E+00 0.  1.
         21   -1    0    0  501  502 -0.00000000000E+00 -0.00000000000E+00 -0.79614860638E+03  0.79614860638E+03  0.00000000000E+00 0.  1.
         25    1    1    2    0    0 -0.20979607597E+02  0.16317415828E+03 -0.36244929923E+03  0.41720551815E+03  0.12500000000E+03 0.  0.
         25    1    1    2    0    0 -0.72542040883E+02 -0.90111713469E+02 -0.69002832090E+02  0.18376305242E+03  0.12500000000E+03 0.  0.
         25    1    1    2    0    0  0.93521648480E+02 -0.73062444813E+02 -0.25340613719E+03  0.30647037367E+03  0.12500000000E+03 0.  0.
</event>
<event>
 5    0  0.5663008E-005  0.4148983E+03  0.7546771E-02  0.1038740E+00
         21   -1    0    0  502  501  0.00000000000E+00  0.00000000000E+00  0.34419118229E+03  0.34419118229E+03  0.00000000000E+00 0. -1.
         21   -1    0    0  501  502 -0.00000000000E+00 -0.00000000000E+00 -0.50013070800E+03  0.50013070800E+03  0.00000000000E+00 0. -1.
         25    1    1    2    0    0  0.30373756221E+02 -0.10023543803E+02  0.43625577237E+02  0.13620289089E+03  0.12500000000E+03 0.  0.
         25    1    1    2    0    0 -0.58871975195E+02  0.78179203718E+01  0.22525403982E+03  0.26436983904E+03  0.12500000000E+03 0.  0.
         25    1    1    2    0    0  0.28498218974E+02  0.22056234313E+01 -0.42481914276E+03  0.44374916036E+03  0.12500000000E+03 0.  0.
</event>
<event>
 5    0  0.5663008E-005  0.4091349E+03  0.7546771E-02  0.1040662E+00
         21   -1    0    0  502  501  0.00000000000E+00  0.00000000000E+00  0.59776876635E+03  0.59776876635E+03  0.00000000000E+00 0.  1.
         21   -1    0    0  501  502 -0.00000000000E+00 -0.00000000000E+00 -0.28002700530E+03  0.28002700530E+03  0.00000000000E+00 0.  1.
         25    1    1    2    0    0 -0.91705426308E+02  0.10836932288E+03  0.41704451944E+02  0.19369578382E+03  0.12500000000E+03 0.  0.
         25    1    1    2    0    0  0.31270932326E+03 -0.11182307148E+03  0.23816474403E+03  0.42736280309E+03  0.12500000000E+03 0.  0.
         25    1    1    2    0    0 -0.22100389695E+03  0.34537485976E+01  0.37872565070E+02  0.25673718474E+03  0.12500000000E+03 0.  0.
</event>
<event>
 5    0  0.5663008E-005  0.3067645E+03  0.7546771E-02  0.1081907E+00
         21   -1    0    0  502  501  0.00000000000E+00  0.00000000000E+00  0.44016005056E+03  0.44016005056E+03  0.00000000000E+00 0. -1.
         21   -1    0    0  501  502 -0.00000000000E+00 -0.00000000000E+00 -0.21379596980E+03  0.21379596980E+03  0.00000000000E+00 0. -1.
         25    1    1    2    0    0 -0.40688617774E+02  0.15029491891E+03 -0.71221185803E+01  0.19979952663E+03  0.12500000000E+03 0.  0.
         25    1    1    2    0    0  0.32515451003E+02 -0.20580293935E+03  0.19581236801E+03  0.31205702662E+03  0.12500000000E+03 0.  0.
         25    1    1    2    0    0  0.81731667702E+01  0.55508020434E+02  0.37673831332E+02  0.14209946712E+03  0.12500000000E+03 0.  0.
</event>
<event>
 5    0  0.5663008E-005  0.5229369E+03  0.7546771E-02  0.1007960E+00
         21   -1    0    0  502  501  0.00000000000E+00  0.00000000000E+00  0.23337681532E+03  0.23337681532E+03  0.00000000000E+00 0. -1.
         21   -1    0    0  501  502 -0.00000000000E+00 -0.00000000000E+00 -0.11717659034E+04  0.11717659034E+04  0.00000000000E+00 0. -1.
         25    1    1    2    0    0  0.25524948881E+03 -0.27226054422E+03 -0.58808177825E+03  0.70763216673E+03  0.12500000000E+03 0.  0.
         25    1    1    2    0    0 -0.47690155495E+02 -0.91804910866E+02 -0.61963253915E+02  0.17368631905E+03  0.12500000000E+03 0.  0.
         25    1    1    2    0    0 -0.20755933332E+03  0.36406545509E+03 -0.28834405594E+03  0.52382423295E+03  0.12500000000E+03 0.  0.
</event>
<event>
 5    0  0.5663008E-005  0.5337364E+03  0.7546771E-02  0.1005330E+00
         21   -1    0    0  502  501  0.00000000000E+00  0.00000000000E+00  0.25628633982E+03  0.25628633982E+03  0.00000000000E+00 0. -1.
         21   -1    0    0  501  502 -0.00000000000E+00 -0.00000000000E+00 -0.11115477465E+04  0.11115477465E+04  0.00000000000E+00 0. -1.
         25    1    1    2    0    0  0.18544971398E+03 -0.26157386086E+03 -0.24279924999E+02  0.34500289253E+03  0.12500000000E+03 0.  0.
         25    1    1    2    0    0  0.10823087288E+03 -0.11742721081E+02 -0.15531659750E+03  0.22715646326E+03  0.12500000000E+03 0.  0.
         25    1    1    2    0    0 -0.29368058686E+03  0.27331658194E+03 -0.67566488416E+03  0.79567473049E+03  0.12500000000E+03 0.  0.
</event>
<event>
 5    0  0.5663008E-005  0.3241938E+03  0.7546771E-02  0.1073735E+00
         21   -1    0    0  502  501  0.00000000000E+00  0.00000000000E+00  0.16467868855E+03  0.16467868855E+03  0.00000000000E+00 0. -1.
         21   -1    0    0  501  502 -0.00000000000E+00 -0.00000000000E+00 -0.63822238382E+03  0.63822238382E+03  0.00000000000E+00 0. -1.
         25    1    1    2    0    0 -0.12627393248E+03  0.14177463647E+02 -0.27437818279E+03  0.32719183011E+03  0.12500000000E+03 0.  0.
         25    1    1    2    0    0  0.83307388484E+01 -0.30707178794E+02  0.76849166543E+02  0.15014368597E+03  0.12500000000E+03 0.  0.
         25    1    1    2    0    0  0.11794319363E+03  0.16529715147E+02 -0.27601467902E+03  0.32556555629E+03  0.12500000000E+03 0.  0.
</event>
<event>
 5    0  0.5663008E-005  0.2576158E+03  0.7546771E-02  0.1108584E+00
         21   -1    0    0  502  501  0.00000000000E+00  0.00000000000E+00  0.61847098425E+02  0.61847098425E+02  0.00000000000E+00 0. -1.
         21   -1    0    0  501  502 -0.00000000000E+00 -0.00000000000E+00 -0.10730642066E+04  0.10730642066E+04  0.00000000000E+00 0. -1.
         25    1    1    2    0    0 -0.34288373190E+02 -0.21213688786E+02 -0.26196141372E+03  0.29304350429E+03  0.12500000000E+03 0.  0.
         25    1    1    2    0    0 -0.44980974610E+02  0.10628324468E+03 -0.18049639899E+03  0.24803904174E+03  0.12500000000E+03 0.  0.
         25    1    1    2    0    0  0.79269347800E+02 -0.85069555890E+02 -0.56875929546E+03  0.59382875900E+03  0.12500000000E+03 0.  0.
</event>
<event>
 5    0  0.6741149E-005  0.2723376E+03  0.7546771E-02  0.1099949E+00
         21   -1    0    0  502  501  0.00000000000E+00  0.00000000000E+00  0.39630724404E+03  0.39630724404E+03  0.00000000000E+00 0.  1.
         21   -1    0    0  501  502 -0.00000000000E+00 -0.00000000000E+00 -0.18714707596E+03  0.18714707596E+03  0.00000000000E+00 0.  1.
         25    1    1    2    0    0 -0.12656482841E+03  0.80597232025E+02  0.18124555289E+02  0.19613278437E+03  0.12500000000E+03 0.  0.
         25    1    1    2    0    0  0.10767785215E+03 -0.43103365615E+02  0.20494211298E+02  0.17174816642E+03  0.12500000000E+03 0.  0.
         25    1    1    2    0    0  0.18886976257E+02 -0.37493866411E+02  0.17054140149E+03  0.21557336921E+03  0.12500000000E+03 0.  0.
</event>
<event>
 5    0  0.5663008E-005  0.3068774E+03  0.7546771E-02  0.1081852E+00
         21   -1    0    0  502  501  0.00000000000E+00  0.00000000000E+00  0.73996972677E+03  0.73996972677E+03  0.00000000000E+00 0. -1.
         21   -1    0    0  501  502 -0.00000000000E+00 -0.00000000000E+00 -0.12726705226E+03  0.12726705226E+03  0.00000000000E+00 0. -1.
         25    1    1    2    0    0 -0.27291497065E+02 -0.13214962397E+03  0.39009950351E+03  0.43128989273E+03  0.12500000000E+03 0.  0.
         25    1    1    2    0    0  0.77058236147E+02  0.52293642118E+02  0.23166900056E+03  0.27922772531E+03  0.12500000000E+03 0.  0.
         25    1    1    2    0    0 -0.49766739083E+02  0.79855981854E+02 -0.90658295537E+01  0.15671916099E+03  0.12500000000E+03 0.  0.
</event>
<event>
 5    0  0.5663008E-005  0.3663951E+03  0.7546771E-02  0.1056080E+00
         21   -1    0    0  502  501  0.00000000000E+00  0.00000000000E+00  0.14895387631E+03  0.14895387631E+03  0.00000000000E+00 0. -1.
         21   -1    0    0  501  502 -0.00000000000E+00 -0.00000000000E+00 -0.90125484015E+03  0.90125484015E+03  0.00000000000E+00 0. -1.
         25    1    1    2    0    0 -0.22118837181E+03 -0.17761747627E+02 -0.22726318822E+03  0.34134049309E+03  0.12500000000E+03 0.  0.
         25    1    1    2    0    0  0.17873848467E+03  0.13301086423E+03 -0.15340036570E+03  0.29798659047E+03  0.12500000000E+03 0.  0.
         25    1    1    2    0    0  0.42449887140E+02 -0.11524911661E+03 -0.37163740993E+03  0.41088163290E+03  0.12500000000E+03 0.  0.
</event>
<event>
 5    0  0.5663008E-005  0.2844481E+03  0.7546771E-02  0.1093284E+00
         21   -1    0    0  502  501  0.00000000000E+00  0.00000000000E+00  0.11415963027E+03  0.11415963027E+03  0.00000000000E+00 0.  1.
         21   -1    0    0  501  502 -0.00000000000E+00 -0.00000000000E+00 -0.70875066041E+03  0.70875066041E+03  0.00000000000E+00 0.  1.
         25    1    1    2    0    0 -0.57340111643E+02 -0.57994460168E+02  0.26181378074E+01  0.14927525066E+03  0.12500000000E+03 0.  0.
         25    1    1    2    0    0  0.36582944991E+02  0.11399262526E+03 -0.32684945986E+03  0.36984888791E+03  0.12500000000E+03 0.  0.
         25    1    1    2    0    0  0.20757166652E+02 -0.55998165092E+02 -0.27035970808E+03  0.30378615211E+03  0.12500000000E+03 0.  0.
</event>
<event>
 5    0  0.5663008E-005  0.3077722E+03  0.7546771E-02  0.1081419E+00
         21   -1    0    0  502  501  0.00000000000E+00  0.00000000000E+00  0.85655146842E+03  0.85655146842E+03  0.00000000000E+00 0. -1.
         21   -1    0    0  501  502 -0.00000000000E+00 -0.00000000000E+00 -0.11058728283E+03  0.11058728283E+03  0.00000000000E+00 0. -1.
         25    1    1    2    0    0  0.18564565260E+03 -0.12410187933E+03  0.37775167388E+03  0.45627503975E+03  0.12500000000E+03 0.  0.
         25    1    1    2    0    0 -0.11957411202E+03  0.12374263577E+03  0.22523150772E+03  0.30978127807E+03  0.12500000000E+03 0.  0.
         25    1    1    2    0    0 -0.66071540573E+02  0.35924356045E+00  0.14298100399E+03  0.20108243342E+03  0.12500000000E+03 0.  0.
</event>
<event>
 5    0  0.5663008E-005  0.2984991E+03  0.7546771E-02  0.1085993E+00
         21   -1    0    0  502  501  0.00000000000E+00  0.00000000000E+00  0.23558122612E+03  0.23558122612E+03  0.00000000000E+00 0.  1.
         21   -1    0    0  501  502 -0.00000000000E+00 -0.00000000000E+00 -0.37822065394E+03  0.37822065394E+03  0.00000000000E+00 0.  1.
         25    1    1    2    0    0 -0.14964551700E+03  0.12141869712E+03 -0.10050977067E+03  0.25072593557E+03  0.12500000000E+03 0.  0.
         25    1    1    2    0    0  0.11789315895E+03 -0.14505922651E+03  0.15470824108E+01  0.22487411942E+03  0.12500000000E+03 0.  0.
         25    1    1    2    0    0  0.31752358044E+02  0.23640529389E+02 -0.43676739564E+02  0.13820182506E+03  0.12500000000E+03 0.  0.
</event>
<event>
 5    0  0.5663008E-005  0.3291316E+03  0.7546771E-02  0.1071522E+00
         21   -1    0    0  502  501  0.00000000000E+00  0.00000000000E+00  0.21823626640E+03  0.21823626640E+03  0.00000000000E+00 0. -1.
         21   -1    0    0  501  502 -0.00000000000E+00 -0.00000000000E+00 -0.49637772990E+03  0.49637772990E+03  0.00000000000E+00 0. -1.
         25    1    1    2    0    0  0.15754715600E+03 -0.14297669462E+03 -0.18499925737E+03  0.30840422630E+03  0.12500000000E+03 0.  0.
         25    1    1    2    0    0 -0.13161359113E+03  0.17042961083E+03 -0.56889335249E+01  0.24904970103E+03  0.12500000000E+03 0.  0.
         25    1    1    2    0    0 -0.25933564868E+02 -0.27452916206E+02 -0.87453272601E+02  0.15716006899E+03  0.12500000000E+03 0.  0.
</event>
<event>
 5    0  0.5663008E-005  0.3012253E+03  0.7546771E-02  0.1084630E+00
         21   -1    0    0  502  501  0.00000000000E+00  0.00000000000E+00  0.23261887102E+03  0.23261887102E+03  0.00000000000E+00 0. -1.
         21   -1    0    0  501  502 -0.00000000000E+00 -0.00000000000E+00 -0.39006587698E+03  0.39006587698E+03  0.00000000000E+00 0. -1.
         25    1    1    2    0    0  0.98839095628E+01 -0.11975432058E+03 -0.19820502717E+03  0.26334202430E+03  0.12500000000E+03 0.  0.
         25    1    1    2    0    0 -0.11007581741E+03  0.64814219033E+02  0.60846231899E+02  0.18879839116E+03  0.12500000000E+03 0.  0.
         25    1    1    2    0    0  0.10019190784E+03  0.54940101546E+02 -0.20088210682E+02  0.17054433255E+03  0.12500000000E+03 0.  0.
</event>
<event>
 5    0  0.5663008E-005  0.2652785E+03  0.7546771E-02  0.1104013E+00
         21   -1    0    0  502  501  0.00000000000E+00  0.00000000000E+00  0.20836452741E+04  0.20836452741E+04  0.00000000000E+00 0.  1.
         21   -1    0    0  501  502 -0.00000000000E+00 -0.00000000000E+00 -0.33773840271E+02  0.33773840271E+02  0.00000000000E+00 0.  1.
         25    1    1    2    0    0 -0.21124914288E+02 -0.10393234049E+03  0.11773033334E+04  0.11886615717E+04  0.12500000000E+03 0.  0.
         25    1    1    2    0    0 -0.36307062640E+02  0.60621478131E+02  0.23760934515E+03  0.27762630875E+03  0.12500000000E+03 0.  0.
         25    1    1    2    0    0  0.57431976928E+02  0.43310862355E+02  0.63495875532E+03  0.65113123388E+03  0.12500000000E+03 0.  0.
</event>
<event>
 5    0  0.5663008E-005  0.2293746E+03  0.7546771E-02  0.1127081E+00
         21   -1    0    0  502  501  0.00000000000E+00  0.00000000000E+00  0.28763283525E+03  0.28763283525E+03  0.00000000000E+00 0.  1.
         21   -1    0    0  501  502 -0.00000000000E+00 -0.00000000000E+00 -0.18291617821E+03  0.18291617821E+03  0.00000000000E+00 0.  1.
         25    1    1    2    0    0 -0.16820364063E+02  0.74190826234E+02  0.11299551311E+03  0.18487885040E+03  0.12500000000E+03 0.  0.
         25    1    1    2    0    0 -0.10904785857E+02 -0.92818682546E+02 -0.80959687494E+01  0.15628425031E+03  0.12500000000E+03 0.  0.
         25    1    1    2    0    0  0.27725149920E+02  0.18627856312E+02 -0.18288731599E+00  0.12938591274E+03  0.12500000000E+03 0.  0.
</event>
<event>
 5    0  0.5663008E-005  0.4332873E+03  0.7546771E-02  0.1032827E+00
         21   -1    0    0  502  501  0.00000000000E+00  0.00000000000E+00  0.25578689208E+03  0.25578689208E+03  0.00000000000E+00 0.  1.
         21   -1    0    0  501  502 -0.00000000000E+00 -0.00000000000E+00 -0.73396214263E+03  0.73396214263E+03  0.00000000000E+00 0.  1.
         25    1    1    2    0    0 -0.10776377300E+03  0.56649849325E+02 -0.17546777125E+03  0.24745944101E+03  0.12500000000E+03 0.  0.
         25    1    1    2    0    0 -0.11601398844E+03  0.22948097832E+03 -0.74471457285E+02  0.29545179450E+03  0.12500000000E+03 0.  0.
         25    1    1    2    0    0  0.22377776144E+03 -0.28613082764E+03 -0.22823602202E+03  0.44683779920E+03  0.12500000000E+03 0.  0.
</event>
<event>
 5    0  0.5663008E-005  0.3587407E+03  0.7546771E-02  0.1059084E+00
         21   -1    0    0  502  501  0.00000000000E+00  0.00000000000E+00  0.30986932068E+03  0.30986932068E+03  0.00000000000E+00 0.  1.
         21   -1    0    0  501  502 -0.00000000000E+00 -0.00000000000E+00 -0.41531982255E+03  0.41531982255E+03  0.00000000000E+00 0.  1.
         25    1    1    2    0    0  0.14603766781E+03  0.11949993693E+03  0.15571498760E+03  0.27473513191E+03  0.12500000000E+03 0.  0.
         25    1    1    2    0    0 -0.66891557214E+02  0.23523749438E+02 -0.41774241777E+02  0.14965939493E+03  0.12500000000E+03 0.  0.
         25    1    1    2    0    0 -0.79146110591E+02 -0.14302368636E+03 -0.21939124769E+03  0.30079461638E+03  0.12500000000E+03 0.  0.
</event>
<event>
 5    0  0.6805135E-005  0.4396265E+03  0.7546771E-02  0.1030861E+00
         21   -1    0    0  502  501  0.00000000000E+00  0.00000000000E+00  0.11064343036E+04  0.11064343036E+04  0.00000000000E+00 0. -1.
         21   -1    0    0  501  502 -0.00000000000E+00 -0.00000000000E+00 -0.17467959695E+03  0.17467959695E+03  0.00000000000E+00 0. -1.
         25    1    1    2    0    0  0.19195466038E+03 -0.11012977848E+03  0.20978095219E+03  0.32955759383E+03  0.12500000000E+03 0.  0.
         25    1    1    2    0    0 -0.12028870173E+03  0.15379739357E+01  0.74925781854E+03  0.76907998009E+03  0.12500000000E+03 0.  0.
         25    1    1    2    0    0 -0.71665958647E+02  0.10859180454E+03 -0.27284064046E+02  0.18247632666E+03  0.12500000000E+03 0.  0.
</event>
<event>
 5    0  0.5663008E-005  0.2676859E+03  0.7546771E-02  0.1102611E+00
         21   -1    0    0  502  501  0.00000000000E+00  0.00000000000E+00  0.33437738679E+03  0.33437738679E+03  0.00000000000E+00 0. -1.
         21   -1    0    0  501  502 -0.00000000000E+00 -0.00000000000E+00 -0.21429608580E+03  0.21429608580E+03  0.00000000000E+00 0. -1.
         25    1    1    2    0    0 -0.40911363675E+02  0.80821772616E+02 -0.93373882190E+02  0.18041502288E+03  0.12500000000E+03 0.  0.
         25    1    1    2    0    0  0.83316602809E+01  0.10371935932E+02  0.36390928671E+02  0.13086746466E+03  0.12500000000E+03 0.  0.
         25    1    1    2    0    0  0.32579703394E+02 -0.91193708548E+02  0.17706425452E+03  0.23739098504E+03  0.12500000000E+03 0.  0.
</event>
<event>
 5    0  0.5663008E-005  0.3228551E+03  0.7546771E-02  0.1074343E+00
         21   -1    0    0  502  501  0.00000000000E+00  0.00000000000E+00  0.22213745145E+04  0.22213745145E+04  0.00000000000E+00 0. -1.
         21   -1    0    0  501  502 -0.00000000000E+00 -0.00000000000E+00 -0.46923830229E+02  0.46923830229E+02  0.00000000000E+00 0. -1.
         25    1    1    2    0    0  0.46509909513E+02  0.53775443318E+02  0.31104834772E+03  0.34268213348E+03  0.12500000000E+03 0.  0.
         25    1    1    2    0    0 -0.86781445507E+02 -0.22360183707E+03  0.10759873696E+04  0.11094605087E+04  0.12500000000E+03 0.  0.
         25    1    1    2    0    0  0.40271535993E+02  0.16982639375E+03  0.78741496689E+03  0.81615570249E+03  0.12500000000E+03 0.  0.
</event>
<event>
 5    0  0.5663008E-005  0.2834872E+03  0.7546771E-02  0.1093799E+00
         21   -1    0    0  502  501  0.00000000000E+00  0.00000000000E+00  0.19684461897E+03  0.19684461897E+03  0.00000000000E+00 0. -1.
         21   -1    0    0  501  502 -0.00000000000E+00 -0.00000000000E+00 -0.40826626259E+03  0.40826626259E+03  0.00000000000E+00 0. -1.
         25    1    1    2    0    0 -0.10517495080E+03 -0.71687720891E+02 -0.17140870965E+03  0.24740017249E+03  0.12500000000E+03 0.  0.
         25    1    1    2    0    0  0.36110689074E+02  0.14130784336E+03 -0.50107351498E+02  0.19851356410E+03  0.12500000000E+03 0.  0.
         25    1    1    2    0    0  0.69064261724E+02 -0.69620122465E+02  0.10094417535E+02  0.15919714496E+03  0.12500000000E+03 0.  0.
</event>
<event>
 5    0  0.6954344E-005  0.3406772E+03  0.7546771E-02  0.1066508E+00
         21   -1    0    0  502  501  0.00000000000E+00  0.00000000000E+00  0.56094765264E+03  0.56094765264E+03  0.00000000000E+00 0. -1.
         21   -1    0    0  501  502 -0.00000000000E+00 -0.00000000000E+00 -0.20690154601E+03  0.20690154601E+03  0.00000000000E+00 0. -1.
         25    1    1    2    0    0 -0.19759378770E+03  0.30283700063E+02  0.29361809888E+03  0.37655941817E+03  0.12500000000E+03 0.  0.
         25    1    1    2    0    0  0.40499730409E+02 -0.32934688027E+02 -0.69391157105E+02  0.15220070474E+03  0.12500000000E+03 0.  0.
         25    1    1    2    0    0  0.15709405729E+03  0.26509879639E+01  0.12981916486E+03  0.23908907574E+03  0.12500000000E+03 0.  0.
</event>
<event>
 5    0  0.5663008E-005  0.3017605E+03  0.7546771E-02  0.1084364E+00
         21   -1    0    0  502  501  0.00000000000E+00  0.00000000000E+00  0.17906959470E+04  0.17906959470E+04  0.00000000000E+00 0.  1.
         21   -1    0    0  501  502 -0.00000000000E+00 -0.00000000000E+00 -0.50851389812E+02  0.50851389812E+02  0.00000000000E+00 0.  1.
         25    1    1    2    0    0  0.14658697968E+03  0.14048353436E+03  0.57627996304E+03  0.62365612467E+03  0.12500000000E+03 0.  0.
         25    1    1    2    0    0 -0.28442755031E+02  0.13374716713E+02  0.42417263678E+03  0.44332301898E+03  0.12500000000E+03 0.  0.
         25    1    1    2    0    0 -0.11814422465E+03 -0.15385825107E+03  0.73939195733E+03  0.77456819313E+03  0.12500000000E+03 0.  0.
</event>
<event>
 5    0  0.5663008E-005  0.2558004E+03  0.7546771E-02  0.1109693E+00
         21   -1    0    0  502  501  0.00000000000E+00  0.00000000000E+00  0.19789974563E+03  0.19789974563E+03  0.00000000000E+00 0.  1.
         21   -1    0    0  501  502 -0.00000000000E+00 -0.00000000000E+00 -0.33064135597E+03  0.33064135597E+03  0.00000000000E+00 0.  1.
         25    1    1    2    0    0 -0.19481977366E+02 -0.11262201933E+02  0.73986640295E+02  0.14698778037E+03  0.12500000000E+03 0.  0.
         25    1    1    2    0    0  0.87715453295E+02 -0.37252328043E+02 -0.51559211275E+02  0.16542396730E+03  0.12500000000E+03 0.  0.
         25    1    1    2    0    0 -0.68233475930E+02  0.48514529976E+02 -0.15516903936E+03  0.21612935393E+03  0.12500000000E+03 0.  0.
</event>
<event>
 5    0  0.5717141E-005  0.4063532E+03  0.7546771E-02  0.1041602E+00
         21   -1    0    0  502  501  0.00000000000E+00  0.00000000000E+00  0.49246156022E+03  0.49246156022E+03  0.00000000000E+00 0.  1.
         21   -1    0    0  501  502 -0.00000000000E+00 -0.00000000000E+00 -0.33530118703E+03  0.33530118703E+03  0.00000000000E+00 0.  1.
         25    1    1    2    0    0 -0.60803194501E+02  0.78876528206E+02 -0.15540101110E+03  0.22291928902E+03  0.12500000000E+03 0.  0.
         25    1    1    2    0    0 -0.15000862772E+03 -0.77331689724E+02  0.29091083937E+03  0.35879924064E+03  0.12500000000E+03 0.  0.
         25    1    1    2    0    0  0.21081182222E+03 -0.15448384829E+01  0.21650544934E+02  0.24604421759E+03  0.12500000000E+03 0.  0.
</event>
<event>
 5    0  0.5663008E-005  0.2516372E+03  0.7546771E-02  0.1112274E+00
         21   -1    0    0  502  501  0.00000000000E+00  0.00000000000E+00  0.46002636334E+02  0.46002636334E+02  0.00000000000E+00 0.  1.
         21   -1    0    0  501  502 -0.00000000000E+00 -0.00000000000E+00 -0.13764710809E+04  0.13764710809E+04  0.00000000000E+00 0.  1.
         25    1    1    2    0    0 -0.27427749872E+01 -0.94304324548E+02 -0.56597376420E+03  0.58724111761E+03  0.12500000000E+03 0.  0.
         25    1    1    2    0    0  0.27806433949E+02  0.11759700588E+03 -0.24896287049E+03  0.30366060733E+03  0.12500000000E+03 0.  0.
         25    1    1    2    0    0 -0.25063658962E+02 -0.23292681334E+02 -0.51553180988E+03  0.53157199231E+03  0.12500000000E+03 0.  0.
</event>
<event>
 5    0  0.5663008E-005  0.3513161E+03  0.7546771E-02  0.1062076E+00
         21   -1    0    0  502  501  0.00000000000E+00  0.00000000000E+00  0.78009180402E+03  0.78009180402E+03  0.00000000000E+00 0. -1.
         21   -1    0    0  501  502 -0.00000000000E+00 -0.00000000000E+00 -0.15821599564E+03  0.15821599564E+03  0.00000000000E+00 0. -1.
         25    1    1    2    0    0 -0.11664260488E+03  0.77244492005E+01  0.27530217477E+03  0.32416269344E+03  0.12500000000E+03 0.  0.
         25    1    1    2    0    0  0.21182519696E+03  0.14123137731E+03  0.14591008866E+03  0.31895292752E+03  0.12500000000E+03 0.  0.
         25    1    1    2    0    0 -0.95182592072E+02 -0.14895582652E+03  0.20066354495E+03  0.29519217869E+03  0.12500000000E+03 0.  0.
</event>
<event>
 5    0  0.5663008E-005  0.3039946E+03  0.7546771E-02  0.1083261E+00
         21   -1    0    0  502  501  0.00000000000E+00  0.00000000000E+00  0.14264659014E+04  0.14264659014E+04  0.00000000000E+00 0.  1.
         21   -1    0    0  501  502 -0.00000000000E+00 -0.00000000000E+00 -0.64784394608E+02  0.64784394608E+02  0.00000000000E+00 0.  1.
         25    1    1    2    0    0 -0.99875125199E+02  0.16390405248E+03  0.57055716105E+03  0.61481708912E+03  0.12500000000E+03 0.  0.
         25    1    1    2    0    0  0.10867952807E+03 -0.16476502649E+03  0.37476612324E+03  0.44162586077E+03  0.12500000000E+03 0.  0.
         25    1    1    2    0    0 -0.88044028716E+01  0.86097401226E+00  0.41635822255E+03  0.43480734615E+03  0.12500000000E+03 0.  0.
</event>
<event>
 5    0  0.5663008E-005  0.4020287E+03  0.7546771E-02  0.1043079E+00
         21   -1    0    0  502  501  0.00000000000E+00  0.00000000000E+00  0.48810300183E+03  0.48810300183E+03  0.00000000000E+00 0.  1.
         21   -1    0    0  501  502 -0.00000000000E+00 -0.00000000000E+00 -0.33113318270E+03  0.33113318270E+03  0.00000000000E+00 0.  1.
         25    1    1    2    0    0  0.68518776407E+02 -0.37319139573E+02  0.13609173576E+03  0.20058290416E+03  0.12500000000E+03 0.  0.
         25    1    1    2    0    0  0.13861412088E+03 -0.16413768447E+03  0.13613498254E+03  0.28339510836E+03  0.12500000000E+03 0.  0.
         25    1    1    2    0    0 -0.20713289729E+03  0.20145682404E+03 -0.11525689918E+03  0.33525817201E+03  0.12500000000E+03 0.  0.
</event>
<event>
 5    0  0.5663008E-005  0.2881452E+03  0.7546771E-02  0.1091322E+00
         21   -1    0    0  502  501  0.00000000000E+00  0.00000000000E+00  0.30566728563E+03  0.30566728563E+03  0.00000000000E+00 0.  1.
         21   -1    0    0  501  502 -0.00000000000E+00 -0.00000000000E+00 -0.27162760619E+03  0.27162760619E+03  0.00000000000E+00 0.  1.
         25    1    1    2    0    0  0.22949678710E+02  0.97519049431E+02  0.14617715908E+03  0.21686266298E+03  0.12500000000E+03 0.  0.
         25    1    1    2    0    0  0.15922401346E+02  0.73357453724E+01 -0.14208930908E+03  0.19005711715E+03  0.12500000000E+03 0.  0.
         25    1    1    2    0    0 -0.38872080056E+02 -0.10485479480E+03  0.29951829435E+02  0.17037511170E+03  0.12500000000E+03 0.  0.
</event>
<event>
 5    0  0.5663008E-005  0.4503806E+03  0.7546771E-02  0.1027609E+00
         21   -1    0    0  502  501  0.00000000000E+00  0.00000000000E+00  0.22349759602E+03  0.22349759602E+03  0.00000000000E+00 0. -1.
         21   -1    0    0  501  502 -0.00000000000E+00 -0.00000000000E+00 -0.90758318953E+03  0.90758318953E+03  0.00000000000E+00 0. -1.
         25    1    1    2    0    0 -0.19392122672E+03  0.21970671037E+03 -0.28768558647E+03  0.42926038417E+03  0.12500000000E+03 0.  0.
         25    1    1    2    0    0  0.10242573087E+03 -0.31144974412E+03 -0.38576389995E+03  0.52146980733E+03  0.12500000000E+03 0.  0.
         25    1    1    2    0    0  0.91495495853E+02  0.91743033746E+02 -0.10636107091E+02  0.18035059406E+03  0.12500000000E+03 0.  0.
</event>
<event>
 5    0  0.5663008E-005  0.2678795E+03  0.7546771E-02  0.1102499E+00
         21   -1    0    0  502  501  0.00000000000E+00  0.00000000000E+00  0.20758626790E+03  0.20758626790E+03  0.00000000000E+00 0.  1.
         21   -1    0    0  501  502 -0.00000000000E+00 -0.00000000000E+00 -0.34568484811E+03  0.34568484811E+03  0.00000000000E+00 0.  1.
         25    1    1    2    0    0  0.82831076515E+02 -0.52716285720E+02  0.22183090709E+02  0.16049013530E+03  0.12500000000E+03 0.  0.
         25    1    1    2    0    0 -0.64459157002E+02  0.14509957124E+03 -0.90486658777E+02  0.22140845493E+03  0.12500000000E+03 0.  0.
         25    1    1    2    0    0 -0.18371919513E+02 -0.92383285520E+02 -0.69795012141E+02  0.17137252577E+03  0.12500000000E+03 0.  0.
</event>
<event>
 5    0  0.5918484E-005  0.3047882E+03  0.7546771E-02  0.1082871E+00
         21   -1    0    0  502  501  0.00000000000E+00  0.00000000000E+00  0.18570117234E+03  0.18570117234E+03  0.00000000000E+00 0.  1.
         21   -1    0    0  501  502 -0.00000000000E+00 -0.00000000000E+00 -0.50024374264E+03  0.50024374264E+03  0.00000000000E+00 0.  1.
         25    1    1    2    0    0  0.19649896213E+03  0.60049704496E+01 -0.20146251672E+03  0.30799358342E+03  0.12500000000E+03 0.  0.
         25    1    1    2    0    0 -0.81594236883E+02 -0.12995966658E+02 -0.14099062472E+03  0.20574224384E+03  0.12500000000E+03 0.  0.
         25    1    1    2    0    0 -0.11490472525E+03  0.69909962087E+01  0.27910571129E+02  0.17220908772E+03  0.12500000000E+03 0.  0.
</event>
<event>
 5    0  0.5663008E-005  0.2115926E+03  0.7546771E-02  0.1140311E+00
         21   -1    0    0  502  501  0.00000000000E+00  0.00000000000E+00  0.30171048173E+02  0.30171048173E+02  0.00000000000E+00 0.  1.
         21   -1    0    0  501  502 -0.00000000000E+00 -0.00000000000E+00 -0.14839202247E+04  0.14839202247E+04  0.00000000000E+00 0.  1.
         25    1    1    2    0    0  0.67010086595E+02  0.44254965313E+01 -0.53945164135E+03  0.55780194521E+03  0.12500000000E+03 0.  0.
         25    1    1    2    0    0 -0.11437033138E+02  0.25783439444E+01 -0.27240964057E+03  0.29994910545E+03  0.12500000000E+03 0.  0.
         25    1    1    2    0    0 -0.55573053457E+02 -0.70038404757E+01 -0.64188789462E+03  0.65634022222E+03  0.12500000000E+03 0.  0.
</event>
<event>
 5    0  0.5663008E-005  0.3627606E+03  0.7546771E-02  0.1057496E+00
         21   -1    0    0  502  501  0.00000000000E+00  0.00000000000E+00  0.63018159931E+02  0.63018159931E+02  0.00000000000E+00 0. -1.
         21   -1    0    0  501  502 -0.00000000000E+00 -0.00000000000E+00 -0.20882114095E+04  0.20882114095E+04  0.00000000000E+00 0. -1.
         25    1    1    2    0    0 -0.24308922517E+03  0.18235933791E+02 -0.63154242792E+03  0.68840087081E+03  0.12500000000E+03 0.  0.
         25    1    1    2    0    0  0.25931740381E+03  0.50148772517E+02 -0.10627510656E+04  0.11021911099E+04  0.12500000000E+03 0.  0.
         25    1    1    2    0    0 -0.16228178639E+02 -0.68384706308E+02 -0.33089975599E+03  0.36063758866E+03  0.12500000000E+03 0.  0.
</event>
<event>
 5    0  0.5663008E-005  0.4276838E+03  0.7546771E-02  0.1034594E+00
         21   -1    0    0  502  501  0.00000000000E+00  0.00000000000E+00  0.65222051983E+03  0.65222051983E+03  0.00000000000E+00 0. -1.
         21   -1    0    0  501  502 -0.00000000000E+00 -0.00000000000E+00 -0.28044728587E+03  0.28044728587E+03  0.00000000000E+00 0. -1.
         25    1    1    2    0    0  0.11838191325E+03 -0.28985057390E+03  0.33734121272E+03  0.47691899352E+03  0.12500000000E+03 0.  0.
         25    1    1    2    0    0 -0.13189681926E+03  0.10636198459E+03 -0.52382488863E+02  0.21697596142E+03  0.12500000000E+03 0.  0.
         25    1    1    2    0    0  0.13514906011E+02  0.18348858932E+03  0.86814510110E+02  0.23877285076E+03  0.12500000000E+03 0.  0.
</event>
<event>
 5    0  0.5663008E-005  0.3582677E+03  0.7546771E-02  0.1059272E+00
         21   -1    0    0  502  501  0.00000000000E+00  0.00000000000E+00  0.33745265101E+04  0.33745265101E+04  0.00000000000E+00 0.  1.
         21   -1    0    0  501  502 -0.00000000000E+00 -0.00000000000E+00 -0.38036663331E+02  0.38036663331E+02  0.00000000000E+00 0.  1.
         25    1    1    2    0    0 -0.72964440661E+02  0.22431753739E+03  0.81197877679E+03  0.85473779672E+03  0.12500000000E+03 0.  0.
         25    1    1    2    0    0 -0.66870176505E+01 -0.19082705104E+03  0.99762414109E+03  0.10233956256E+04  0.12500000000E+03 0.  0.
         25    1    1    2    0    0  0.79651458311E+02 -0.33490486357E+02  0.15268869289E+04  0.15344297511E+04  0.12500000000E+03 0.  0.
</event>
<event>
 5    0  0.5663008E-005  0.5840487E+03  0.7546771E-02  0.9939064E-01
         21   -1    0    0  502  501  0.00000000000E+00  0.00000000000E+00  0.13482870217E+03  0.13482870217E+03  0.00000000000E+00 0.  1.
         21   -1    0    0  501  502 -0.00000000000E+00 -0.00000000000E+00 -0.25299718857E+04  0.25299718857E+04  0.00000000000E+00 0.  1.
         25    1    1    2    0    0  0.14527407279E+02 -0.38380980646E+03 -0.61929921352E+03  0.73937644604E+03  0.12500000000E+03 0.  0.
         25    1    1    2    0    0 -0.11752630852E+03  0.37457301204E+03 -0.16946420368E+04  0.17440051627E+04  0.12500000000E+03 0.  0.
         25    1    1    2    0    0  0.10299890124E+03  0.92367944163E+01 -0.81201933164E+02  0.18141897910E+03  0.12500000000E+03 0.  0.
</event>
<event>
 5    0  0.5663008E-005  0.3053948E+03  0.7546771E-02  0.1082574E+00
         21   -1    0    0  502  501  0.00000000000E+00  0.00000000000E+00  0.74907650088E+02  0.74907650088E+02  0.00000000000E+00 0. -1.
         21   -1    0    0  501  502 -0.00000000000E+00 -0.00000000000E+00 -0.12450793344E+04  0.12450793344E+04  0.00000000000E+00 0. -1.
         25    1    1    2    0    0 -0.12429485511E+03  0.12263073773E+03 -0.28338096413E+03  0.35555207730E+03  0.12500000000E+03 0.  0.
         25    1    1    2    0    0  0.46488811986E+02 -0.15042757017E+03 -0.31781255087E+03  0.37605781603E+03  0.12500000000E+03 0.  0.
         25    1    1    2    0    0  0.77806043120E+02  0.27796832441E+02 -0.56897816933E+03  0.58837709117E+03  0.12500000000E+03 0.  0.
</event>
<event>
 5    0  0.5663008E-005  0.3575454E+03  0.7546771E-02  0.1059560E+00
         21   -1    0    0  502  501  0.00000000000E+00  0.00000000000E+00  0.17646332546E+03  0.17646332546E+03  0.00000000000E+00 0. -1.
         21   -1    0    0  501  502 -0.00000000000E+00 -0.00000000000E+00 -0.72444930168E+03  0.72444930168E+03  0.00000000000E+00 0. -1.
         25    1    1    2    0    0  0.19957759788E+02  0.59146203500E+02 -0.57602856594E+02  0.15112800750E+03  0.12500000000E+03 0.  0.
         25    1    1    2    0    0 -0.58383523029E+02 -0.27399542614E+03 -0.20286529930E+03  0.36777908990E+03  0.12500000000E+03 0.  0.
         25    1    1    2    0    0  0.38425763241E+02  0.21484922264E+03 -0.28751782033E+03  0.38200552974E+03  0.12500000000E+03 0.  0.
</event>
<event>
 5    0  0.5663008E-005  0.2746696E+03  0.7546771E-02  0.1098636E+00
         21   -1    0    0  502  501  0.00000000000E+00  0.00000000000E+00  0.11363419131E+03  0.11363419131E+03  0.00000000000E+00 0.  1.
         21   -1    0    0  501  502 -0.00000000000E+00 -0.00000000000E+00 -0.66391461503E+03  0.66391461503E+03  0.00000000000E+00 0.  1.
         25    1    1    2    0    0  0.14122509837E+03 -0.34410728725E+02 -0.18073649096E+03  0.26347543685E+03  0.12500000000E+03 0.  0.
         25    1    1    2    0    0 -0.38018641974E+02  0.11637255157E+03 -0.16463559358E+03  0.24024542987E+03  0.12500000000E+03 0.  0.
         25    1    1    2    0    0 -0.10320645640E+03 -0.81961822849E+02 -0.20490833918E+03  0.27382793961E+03  0.12500000000E+03 0.  0.
</event>
<event>
 5    0  0.5682874E-005  0.3680589E+03  0.7546771E-02  0.1055438E+00
         21   -1    0    0  502  501  0.00000000000E+00  0.00000000000E+00  0.88163395577E+03  0.88163395577E+03  0.00000000000E+00 0. -1.
         21   -1    0    0  501  502 -0.00000000000E+00 -0.00000000000E+00 -0.15365483928E+03  0.15365483928E+03  0.00000000000E+00 0. -1.
         25    1    1    2    0    0  0.13167462843E+03  0.11619508970E+03  0.13756253137E+03  0.25571068941E+03  0.12500000000E+03 0.  0.
         25    1    1    2    0    0 -0.33011730186E+02 -0.26245680914E+03  0.32681018812E+03  0.43863794872E+03  0.12500000000E+03 0.  0.
         25    1    1    2    0    0 -0.98662898245E+02  0.14626171945E+03  0.26360639700E+03  0.34094015692E+03  0.12500000000E+03 0.  0.
</event>
<event>
 5    0  0.5663008E-005  0.3673669E+03  0.7546771E-02  0.1055704E+00
         21   -1    0    0  502  501  0.00000000000E+00  0.00000000000E+00  0.64756072683E+03  0.64756072683E+03  0.00000000000E+00 0. -1.
         21   -1    0    0  501  502 -0.00000000000E+00 -0.00000000000E+00 -0.20841052073E+03  0.20841052073E+03  0.00000000000E+00 0. -1.
         25    1    1    2    0    0  0.74295276024E+02 -0.21110183053E+02  0.25889096809E+03  0.29768265187E+03  0.12500000000E+03 0.  0.
         25    1    1    2    0    0  0.13309240237E+03 -0.11928184361E+03 -0.12465928581E+02  0.21845398865E+03  0.12500000000E+03 0.  0.
         25    1    1    2    0    0 -0.20738767839E+03  0.14039202666E+03  0.19272516659E+03  0.33983460703E+03  0.12500000000E+03 0.  0.
</event>
<event>
 5    0  0.5689851E-005  0.2859327E+03  0.7546771E-02  0.1092492E+00
         21   -1    0    0  502  501  0.00000000000E+00  0.00000000000E+00  0.10619616268E+03  0.10619616268E+03  0.00000000000E+00 0.  1.
         21   -1    0    0  501  502 -0.00000000000E+00 -0.00000000000E+00 -0.76987243266E+03  0.76987243266E+03  0.00000000000E+00 0.  1.
         25    1    1    2    0    0  0.80157774124E+02 -0.53669002977E+02 -0.16553644372E+03  0.22876395003E+03  0.12500000000E+03 0.  0.
         25    1    1    2    0    0 -0.16991298465E+03 -0.42895690899E+02 -0.35852014784E+03  0.41817718620E+03  0.12500000000E+03 0.  0.
         25    1    1    2    0    0  0.89755210522E+02  0.96564693877E+02 -0.13961967842E+03  0.22912745912E+03  0.12500000000E+03 0.  0.
</event>
<event>
 5    0  0.6207807E-005  0.5942150E+03  0.7546771E-02  0.9917481E-01
         21   -1    0    0  502  501  0.00000000000E+00  0.00000000000E+00  0.60541138278E+03  0.60541138278E+03  0.00000000000E+00 0. -1.
         21   -1    0    0  501  502 -0.00000000000E+00 -0.00000000000E+00 -0.58322566606E+03  0.58322566606E+03  0.00000000000E+00 0. -1.
         25    1    1    2    0    0  0.19185182750E+03 -0.16726193382E+03  0.16068545334E+03  0.32592712857E+03  0.12500000000E+03 0.  0.
         25    1    1    2    0    0  0.49493066168E+02  0.18789353167E+03 -0.41466358982E+03  0.47468351095E+03  0.12500000000E+03 0.  0.
         25    1    1    2    0    0 -0.24134489366E+03 -0.20631597848E+02  0.27616385319E+03  0.38802640933E+03  0.12500000000E+03 0.  0.
</event>
<event>
 5    0  0.5663008E-005  0.4522789E+03  0.7546771E-02  0.1027045E+00
         21   -1    0    0  502  501  0.00000000000E+00  0.00000000000E+00  0.60059698839E+03  0.60059698839E+03  0.00000000000E+00 0. -1.
         21   -1    0    0  501  502 -0.00000000000E+00 -0.00000000000E+00 -0.34058819072E+03  0.34058819072E+03  0.00000000000E+00 0. -1.
         25    1    1    2    0    0 -0.20028941025E+02 -0.34887957580E+02 -0.22221286110E+03  0.25811215334E+03  0.12500000000E+03 0.  0.
         25    1    1    2    0    0 -0.43414056464E+02 -0.75397662219E+02 -0.16716590243E+02  0.15321237599E+03  0.12500000000E+03 0.  0.
         25    1    1    2    0    0  0.63442997489E+02  0.11028561980E+03  0.49893824901E+03  0.52986064979E+03  0.12500000000E+03 0.  0.
</event>
<event>
 5    0  0.5663008E-005  0.2772227E+03  0.7546771E-02  0.1097216E+00
         21   -1    0    0  502  501  0.00000000000E+00  0.00000000000E+00  0.66826497769E+02  0.66826497769E+02  0.00000000000E+00 0.  1.
         21   -1    0    0  501  502 -0.00000000000E+00 -0.00000000000E+00 -0.11500295668E+04  0.11500295668E+04  0.00000000000E+00 0.  1.
         25    1    1    2    0    0  0.53998727270E+02  0.58361644641E+02 -0.15025138087E+03  0.21100336861E+03  0.12500000000E+03 0.  0.
         25    1    1    2    0    0 -0.16762524357E+02  0.32308692308E+02 -0.75980936446E+03  0.77088267859E+03  0.12500000000E+03 0.  0.
         25    1    1    2    0    0 -0.37236202913E+02 -0.90670336949E+02 -0.17314232372E+03  0.23497001739E+03  0.12500000000E+03 0.  0.
</event>
<event>
 5    0  0.5663008E-005  0.3942835E+03  0.7546771E-02  0.1045777E+00
         21   -1    0    0  502  501  0.00000000000E+00  0.00000000000E+00  0.16817737791E+03  0.16817737791E+03  0.00000000000E+00 0. -1.
         21   -1    0    0  501  502 -0.00000000000E+00 -0.00000000000E+00 -0.92437786296E+03  0.92437786296E+03  0.00000000000E+00 0. -1.
         25    1    1    2    0    0 -0.12646326739E+03 -0.29894889564E+02 -0.70633127973E+03  0.72898253693E+03  0.12500000000E+03 0.  0.
         25    1    1    2    0    0 -0.22351972959E+02 -0.54387591520E+02 -0.61944701134E+02  0.15139275678E+03  0.12500000000E+03 0.  0.
         25    1    1    2    0    0  0.14881524035E+03  0.84282481085E+02  0.12075495821E+02  0.21217994716E+03  0.12500000000E+03 0.  0.
</event>
<event>
 5    0  0.5663008E-005  0.3519413E+03  0.7546771E-02  0.1061821E+00
         21   -1    0    0  502  501  0.00000000000E+00  0.00000000000E+00  0.21244936236E+04  0.21244936236E+04  0.00000000000E+00 0. -1.
         21   -1    0    0  501  502 -0.00000000000E+00 -0.00000000000E+00 -0.58302224184E+02  0.58302224184E+02  0.00000000000E+00 0. -1.
         25    1    1    2    0    0  0.84726402521E+02 -0.74237089420E+02  0.23116922608E+03  0.28592642378E+03  0.12500000000E+03 0.  0.
         25    1    1    2    0    0 -0.11324691231E+03  0.17351143621E+03  0.15514587872E+04  0.15702166889E+04  0.12500000000E+03 0.  0.
         25    1    1    2    0    0  0.28520509792E+02 -0.99274346794E+02  0.28356338616E+03  0.32665273515E+03  0.12500000000E+03 0.  0.
</event>
<event>
 5    0  0.5663008E-005  0.3376801E+03  0.7546771E-02  0.1067788E+00
         21   -1    0    0  502  501  0.00000000000E+00  0.00000000000E+00  0.21813426461E+03  0.21813426461E+03  0.00000000000E+00 0.  1.
         21   -1    0    0  501  502 -0.00000000000E+00 -0.00000000000E+00 -0.52274148905E+03  0.52274148905E+03  0.00000000000E+00 0.  1.
         25    1    1    2    0    0 -0.63493147220E+02  0.22049450102E+03 -0.22369992788E+03  0.34397072907E+03  0.12500000000E+03 0.  0.
         25    1    1    2    0    0 -0.31666616924E+02 -0.20125870047E+02 -0.26508598794E+01  0.13053678535E+03  0.12500000000E+03 0.  0.
         25    1    1    2    0    0  0.95159764144E+02 -0.20036863098E+03 -0.78256436681E+02  0.26636823924E+03  0.12500000000E+03 0.  0.
</event>
<event>
 5    0  0.5663008E-005  0.4079963E+03  0.7546771E-02  0.1041046E+00
         21   -1    0    0  502  501  0.00000000000E+00  0.00000000000E+00  0.13174017420E+04  0.13174017420E+04  0.00000000000E+00 0. -1.
         21   -1    0    0  501  502 -0.00000000000E+00 -0.00000000000E+00 -0.12635548954E+03  0.12635548954E+03  0.00000000000E+00 0. -1.
         25    1    1    2    0    0 -0.14493468652E+03  0.18366524286E+03  0.41498344755E+03  0.49251928545E+03  0.12500000000E+03 0.  0.
         25    1    1    2    0    0 -0.77909102018E+02  0.31160239325E+02  0.61655706736E+02  0.16268747605E+03  0.12500000000E+03 0.  0.
         25    1    1    2    0    0  0.22284378854E+03 -0.21482548218E+03  0.71440709814E+03  0.78855047001E+03  0.12500000000E+03 0.  0.
</event>
<event>
 5    0  0.5663008E-005  0.4248467E+03  0.7546771E-02  0.1035500E+00
         21   -1    0    0  502  501  0.00000000000E+00  0.00000000000E+00  0.10956169504E+03  0.10956169504E+03  0.00000000000E+00 0.  1.
         21   -1    0    0  501  502 -0.00000000000E+00 -0.00000000000E+00 -0.16474255319E+04  0.16474255319E+04  0.00000000000E+00 0.  1.
         25    1    1    2    0    0  0.32969474848E+02 -0.29732357682E+03 -0.28292929894E+03  0.43030487309E+03  0.12500000000E+03 0.  0.
         25    1    1    2    0    0  0.36459878505E+02  0.16144247773E+03 -0.41558594965E+03  0.46446709023E+03  0.12500000000E+03 0.  0.
         25    1    1    2    0    0 -0.69429353353E+02  0.13588109909E+03 -0.83934858826E+03  0.86221526361E+03  0.12500000000E+03 0.  0.
</event>
<event>
 5    0  0.5663008E-005  0.2837519E+03  0.7546771E-02  0.1093657E+00
         21   -1    0    0  502  501  0.00000000000E+00  0.00000000000E+00  0.29020870780E+03  0.29020870780E+03  0.00000000000E+00 0. -1.
         21   -1    0    0  501  502 -0.00000000000E+00 -0.00000000000E+00 -0.27743882729E+03  0.27743882729E+03  0.00000000000E+00 0. -1.
         25    1    1    2    0    0 -0.70592919806E+02 -0.36838276427E+02 -0.97697974529E+02  0.17751144516E+03  0.12500000000E+03 0.  0.
         25    1    1    2    0    0 -0.65477142607E+02 -0.67885057664E+01 -0.41180323988E+02  0.14715352221E+03  0.12500000000E+03 0.  0.
         25    1    1    2    0    0  0.13607006241E+03  0.43626782194E+02  0.15164817903E+03  0.24298256771E+03  0.12500000000E+03 0.  0.
</event>
<event>
 5    0  0.5663008E-005  0.2995409E+03  0.7546771E-02  0.1085470E+00
         21   -1    0    0  502  501  0.00000000000E+00  0.00000000000E+00  0.21556620777E+03  0.21556620777E+03  0.00000000000E+00 0.  1.
         21   -1    0    0  501  502 -0.00000000000E+00 -0.00000000000E+00 -0.41622822338E+03  0.41622822338E+03  0.00000000000E+00 0.  1.
         25    1    1    2    0    0  0.52248779749E+02  0.17263689532E+03 -0.10235651766E+03  0.24214724718E+03  0.12500000000E+03 0.  0.
         25    1    1    2    0    0 -0.94362658986E+02 -0.55480883478E+00 -0.67905093933E+02  0.17070653475E+03  0.12500000000E+03 0.  0.
         25    1    1    2    0    0  0.42113879236E+02 -0.17208208649E+03 -0.30400404019E+02  0.21894064921E+03  0.12500000000E+03 0.  0.
</event>
<event>
 5    0  0.5663008E-005  0.2453467E+03  0.7546771E-02  0.1116281E+00
         21   -1    0    0  502  501  0.00000000000E+00  0.00000000000E+00  0.88598978857E+02  0.88598978857E+02  0.00000000000E+00 0. -1.
         21   -1    0    0  501  502 -0.00000000000E+00 -0.00000000000E+00 -0.67940948422E+03  0.67940948422E+03  0.00000000000E+00 0. -1.
         25    1    1    2    0    0  0.12943730842E+02 -0.82251132280E+02 -0.36843240632E+03  0.39786961049E+03  0.12500000000E+03 0.  0.
         25    1    1    2    0    0 -0.40624352806E-02  0.94501021791E+02 -0.68314751646E+02  0.17094545454E+03  0.12500000000E+03 0.  0.
         25    1    1    2    0    0 -0.12939668407E+02 -0.12249889511E+02 -0.15406334740E+03  0.19919339804E+03  0.12500000000E+03 0.  0.
</event>
<event>
 5    0  0.5663008E-005  0.4501212E+03  0.7546771E-02  0.1027686E+00
         21   -1    0    0  502  501  0.00000000000E+00  0.00000000000E+00  0.20056756237E+04  0.20056756237E+04  0.00000000000E+00 0. -1.
         21   -1    0    0  501  502 -0.00000000000E+00 -0.00000000000E+00 -0.10101786107E+03  0.10101786107E+03  0.00000000000E+00 0. -1.
         25    1    1    2    0    0  0.10503952500E+03  0.61104449275E+02  0.16184328070E+03  0.23787665510E+03  0.12500000000E+03 0.  0.
         25    1    1    2    0    0  0.21930840548E+03 -0.12653592369E+03  0.10939923842E+04  0.11298459423E+04  0.12500000000E+03 0.  0.
         25    1    1    2    0    0 -0.32434793047E+03  0.65431474413E+02  0.64882209774E+03  0.73897088736E+03  0.12500000000E+03 0.  0.
</event>
<event>
 5    0  0.5663008E-005  0.2318755E+03  0.7546771E-02  0.1125327E+00
         21   -1    0    0  502  501  0.00000000000E+00  0.00000000000E+00  0.25933139177E+02  0.25933139177E+02  0.00000000000E+00 0.  1.
         21   -1    0    0  501  502 -0.00000000000E+00 -0.00000000000E+00 -0.20732637461E+04  0.20732637461E+04  0.00000000000E+00 0.  1.
         25    1    1    2    0    0 -0.25236945214E+02  0.26967033126E+02 -0.34223401772E+03  0.36621475552E+03  0.12500000000E+03 0.  0.
         25    1    1    2    0    0 -0.57121854112E+02 -0.30979824535E+02 -0.53086558402E+03  0.54924122573E+03  0.12500000000E+03 0.  0.
         25    1    1    2    0    0  0.82358799326E+02  0.40127914086E+01 -0.11742310052E+04  0.11837409040E+04  0.12500000000E+03 0.  0.
</event>
<event>
 5    0  0.5663008E-005  0.4045142E+03  0.7546771E-02  0.1042228E+00
         21   -1    0    0  502  501  0.00000000000E+00  0.00000000000E+00  0.45114033100E+03  0.45114033100E+03  0.00000000000E+00 0. -1.
         21   -1    0    0  501  502 -0.00000000000E+00 -0.00000000000E+00 -0.36270695428E+03  0.36270695428E+03  0.00000000000E+00 0. -1.
         25    1    1    2    0    0  0.22316360796E+03  0.13993400082E+03  0.13625811582E+03  0.32183038177E+03  0.12500000000E+03 0.  0.
         25    1    1    2    0    0 -0.94157960794E+02  0.90432645241E+02  0.43584137701E+02  0.18592568936E+03  0.12500000000E+03 0.  0.
         25    1    1    2    0    0 -0.12900564716E+03 -0.23036664606E+03 -0.91408876801E+02  0.30609121414E+03  0.12500000000E+03 0.  0.
</event>
<event>
 5    0  0.5663008E-005  0.3589039E+03  0.7546771E-02  0.1059019E+00
         21   -1    0    0  502  501  0.00000000000E+00  0.00000000000E+00  0.22874158554E+03  0.22874158554E+03  0.00000000000E+00 0.  1.
         21   -1    0    0  501  502 -0.00000000000E+00 -0.00000000000E+00 -0.56313347044E+03  0.56313347044E+03  0.00000000000E+00 0.  1.
         25    1    1    2    0    0 -0.10619286885E+03  0.24820293506E+02 -0.27795378385E+03  0.32369164079E+03  0.12500000000E+03 0.  0.
         25    1    1    2    0    0 -0.12239231715E+03  0.43811687024E+02  0.34923368616E+02  0.18369535893E+03  0.12500000000E+03 0.  0.
         25    1    1    2    0    0  0.22858518601E+03 -0.68631980529E+02 -0.91361469669E+02  0.28448805626E+03  0.12500000000E+03 0.  0.
</event>
<event>
 5    0  0.5663008E-005  0.3298910E+03  0.7546771E-02  0.1071185E+00
         21   -1    0    0  502  501  0.00000000000E+00  0.00000000000E+00  0.13608304993E+03  0.13608304993E+03  0.00000000000E+00 0. -1.
         21   -1    0    0  501  502 -0.00000000000E+00 -0.00000000000E+00 -0.79971805158E+03  0.79971805158E+03  0.00000000000E+00 0. -1.
         25    1    1    2    0    0  0.10407080704E+03 -0.18368636807E+02 -0.22981022454E+02  0.16529146103E+03  0.12500000000E+03 0.  0.
         25    1    1    2    0    0  0.35083561137E+02 -0.12117173300E+03 -0.17332771280E+03  0.24815507483E+03  0.12500000000E+03 0.  0.
         25    1    1    2    0    0 -0.13915436818E+03  0.13954036981E+03 -0.46732626639E+03  0.52235456564E+03  0.12500000000E+03 0.  0.
</event>
<event>
 5    0  0.5663008E-005  0.3006332E+03  0.7546771E-02  0.1084925E+00
         21   -1    0    0  502  501  0.00000000000E+00  0.00000000000E+00  0.13406499522E+04  0.13406499522E+04  0.00000000000E+00 0.  1.
         21   -1    0    0  501  502 -0.00000000000E+00 -0.00000000000E+00 -0.67415281197E+02  0.67415281197E+02  0.00000000000E+00 0.  1.
         25    1    1    2    0    0 -0.89349601293E+02  0.49410411885E+02  0.24718193532E+03  0.29520950053E+03  0.12500000000E+03 0.  0.
         25    1    1    2    0    0  0.21105289983E+03  0.12422675891E+02  0.56886859777E+03  0.61962418523E+03  0.12500000000E+03 0.  0.
         25    1    1    2    0    0 -0.12170329854E+03 -0.61833087777E+02  0.45718413791E+03  0.49323154763E+03  0.12500000000E+03 0.  0.
</event>
<event>
 5    0  0.5663008E-005  0.2248870E+03  0.7546771E-02  0.1130291E+00
         21   -1    0    0  502  501  0.00000000000E+00  0.00000000000E+00  0.24403238829E+03  0.24403238829E+03  0.00000000000E+00 0. -1.
         21   -1    0    0  501  502 -0.00000000000E+00 -0.00000000000E+00 -0.20724356121E+03  0.20724356121E+03  0.00000000000E+00 0. -1.
         25    1    1    2    0    0 -0.51007833621E+02 -0.60645230139E+02  0.68132738315E+02  0.16293162081E+03  0.12500000000E+03 0.  0.
         25    1    1    2    0    0  0.83933442521E+02  0.31373916426E+02 -0.10254777972E+02  0.15414053937E+03  0.12500000000E+03 0.  0.
         25    1    1    2    0    0 -0.32925608901E+02  0.29271313714E+02 -0.21089133264E+02  0.13420378933E+03  0.12500000000E+03 0.  0.
</event>
<event>
 5    0  0.5663008E-005  0.3505578E+03  0.7546771E-02  0.1062386E+00
         21   -1    0    0  502  501  0.00000000000E+00  0.00000000000E+00  0.15928213884E+03  0.15928213884E+03  0.00000000000E+00 0. -1.
         21   -1    0    0  501  502 -0.00000000000E+00 -0.00000000000E+00 -0.77152891864E+03  0.77152891864E+03  0.00000000000E+00 0. -1.
         25    1    1    2    0    0  0.90099939860E+02 -0.63340116518E+02 -0.12738472778E+03  0.20971847414E+03  0.12500000000E+03 0.  0.
         25    1    1    2    0    0 -0.15820096733E+03  0.15542548338E+02 -0.52755350649E+03  0.56498391046E+03  0.12500000000E+03 0.  0.
         25    1    1    2    0    0  0.68101027466E+02  0.47797568179E+02  0.42691454470E+02  0.15610867289E+03  0.12500000000E+03 0.  0.
</event>
<event>
 5    0  0.5663008E-005  0.3257212E+03  0.7546771E-02  0.1073046E+00
         21   -1    0    0  502  501  0.00000000000E+00  0.00000000000E+00  0.22408885562E+03  0.22408885562E+03  0.00000000000E+00 0.  1.
         21   -1    0    0  501  502 -0.00000000000E+00 -0.00000000000E+00 -0.47344759103E+03  0.47344759103E+03  0.00000000000E+00 0.  1.
         25    1    1    2    0    0  0.88261052262E+02 -0.16376790693E+03 -0.11432425077E+03  0.25160479924E+03  0.12500000000E+03 0.  0.
         25    1    1    2    0    0  0.84946676464E+02  0.10969988452E+03 -0.12624590330E+03  0.22541745852E+03  0.12500000000E+03 0.  0.
         25    1    1    2    0    0 -0.17320772873E+03  0.54068022410E+02 -0.87885813352E+01  0.22051418888E+03  0.12500000000E+03 0.  0.
</event>
<event>
 5    0  0.5663008E-005  0.2316176E+03  0.7546771E-02  0.1125506E+00
         21   -1    0    0  502  501  0.00000000000E+00  0.00000000000E+00  0.33503712110E+02  0.33503712110E+02  0.00000000000E+00 0. -1.
         21   -1    0    0  501  502 -0.00000000000E+00 -0.00000000000E+00 -0.16012176175E+04  0.16012176175E+04  0.00000000000E+00 0. -1.
         25    1    1    2    0    0  0.28111635400E+02  0.43527116324E+02 -0.33792027865E+03  0.36400547883E+03  0.12500000000E+03 0.  0.
         25    1    1    2    0    0  0.57047891393E+02 -0.86124450945E+02 -0.66297822600E+03  0.68252253524E+03  0.12500000000E+03 0.  0.
         25    1    1    2    0    0 -0.85159526793E+02  0.42597334621E+02 -0.56681540074E+03  0.58819331553E+03  0.12500000000E+03 0.  0.
</event>
<event>
 5    0  0.5663008E-005  0.5045283E+03  0.7546771E-02  0.1012604E+00
         21   -1    0    0  502  501  0.00000000000E+00  0.00000000000E+00  0.21902535895E+03  0.21902535895E+03  0.00000000000E+00 0.  1.
         21   -1    0    0  501  502 -0.00000000000E+00 -0.00000000000E+00 -0.11621887344E+04  0.11621887344E+04  0.00000000000E+00 0.  1.
         25    1    1    2    0    0 -0.49581683097E+01 -0.21085183674E+03 -0.63898913397E+03  0.68440864534E+03  0.12500000000E+03 0.  0.
         25    1    1    2    0    0  0.24751844181E+03  0.21949208664E+03 -0.16188166737E+03  0.38893807908E+03  0.12500000000E+03 0.  0.
         25    1    1    2    0    0 -0.24256027350E+03 -0.86402498972E+01 -0.14229257408E+03  0.30786736890E+03  0.12500000000E+03 0.  0.
</event>
<event>
 5    0  0.5663008E-005  0.2319344E+03  0.7546771E-02  0.1125286E+00
         21   -1    0    0  502  501  0.00000000000E+00  0.00000000000E+00  0.20370928761E+03  0.20370928761E+03  0.00000000000E+00 0.  1.
         21   -1    0    0  501  502 -0.00000000000E+00 -0.00000000000E+00 -0.26407020183E+03  0.26407020183E+03  0.00000000000E+00 0.  1.
         25    1    1    2    0    0 -0.25881781459E+02  0.38134263478E+02  0.15046293265E+01  0.13323420196E+03  0.12500000000E+03 0.  0.
         25    1    1    2    0    0  0.47735618358E+02  0.12365009946E+01  0.66830751793E+02  0.14957127926E+03  0.12500000000E+03 0.  0.
         25    1    1    2    0    0 -0.21853836899E+02 -0.39370764472E+02 -0.12869629534E+03  0.18497400822E+03  0.12500000000E+03 0.  0.
</event>
<event>
 5    0  0.5663008E-005  0.4119063E+03  0.7546771E-02  0.1039733E+00
         21   -1    0    0  502  501  0.00000000000E+00  0.00000000000E+00  0.68594979776E+03  0.68594979776E+03  0.00000000000E+00 0.  1.
         21   -1    0    0  501  502 -0.00000000000E+00 -0.00000000000E+00 -0.24734575868E+03  0.24734575868E+03  0.00000000000E+00 0.  1.
         25    1    1    2    0    0  0.48092038812E+02 -0.69156666037E+02  0.70467571757E+02  0.16639160833E+03  0.12500000000E+03 0.  0.
         25    1    1    2    0    0 -0.16007594457E+03  0.28052187615E+03  0.35611072988E+03  0.49674609507E+03  0.12500000000E+03 0.  0.
         25    1    1    2    0    0  0.11198390576E+03 -0.21136521011E+03  0.12025737433E+02  0.27015785303E+03  0.12500000000E+03 0.  0.
</event>
<event>
 5    0  0.5663008E-005  0.3536655E+03  0.7546771E-02  0.1061121E+00
         21   -1    0    0  502  501  0.00000000000E+00  0.00000000000E+00  0.75366293997E+03  0.75366293997E+03  0.00000000000E+00 0.  1.
         21   -1    0    0  501  502 -0.00000000000E+00 -0.00000000000E+00 -0.16596184170E+03  0.16596184170E+03  0.00000000000E+00 0.  1.
         25    1    1    2    0    0 -0.17136529343E+02  0.71908173527E+00  0.59008250491E+03  0.60342069927E+03  0.12500000000E+03 0.  0.
         25    1    1    2    0    0 -0.17470780088E+02 -0.84338493768E+02  0.38408570257E+02  0.15658361331E+03  0.12500000000E+03 0.  0.
         25    1    1    2    0    0  0.34607309431E+02  0.83619412033E+02 -0.40789976889E+02  0.15962046908E+03  0.12500000000E+03 0.  0.
</event>
<event>
 5    0  0.5947807E-005  0.3181537E+03  0.7546771E-02  0.1076502E+00
         21   -1    0    0  502  501  0.00000000000E+00  0.00000000000E+00  0.43192964262E+03  0.43192964262E+03  0.00000000000E+00 0.  1.
         21   -1    0    0  501  502 -0.00000000000E+00 -0.00000000000E+00 -0.23434779732E+03  0.23434779732E+03  0.00000000000E+00 0.  1.
         25    1    1    2    0    0  0.13958381004E+03  0.17047682133E+03  0.14591962262E+03  0.29234144917E+03  0.12500000000E+03 0.  0.
         25    1    1    2    0    0 -0.10761884649E+02 -0.81426413375E+02 -0.38143196547E+02  0.15435667267E+03  0.12500000000E+03 0.  0.
         25    1    1    2    0    0 -0.12882192539E+03 -0.89050407955E+02  0.89805419222E+02  0.21957931810E+03  0.12500000000E+03 0.  0.
</event>
<event>
 5    0  0.5663008E-005  0.2453276E+03  0.7546771E-02  0.1116294E+00
         21   -1    0    0  502  501  0.00000000000E+00  0.00000000000E+00  0.30273228736E+02  0.30273228736E+02  0.00000000000E+00 0. -1.
         21   -1    0    0  501  502 -0.00000000000E+00 -0.00000000000E+00 -0.19880812594E+04  0.19880812594E+04  0.00000000000E+00 0. -1.
         25    1    1    2    0    0  0.10236931082E+03  0.75950172780E+02 -0.81976922123E+03  0.83898419569E+03  0.12500000000E+03 0.  0.
         25    1    1    2    0    0 -0.77253519507E+01 -0.45111548722E+02 -0.33289432248E+03  0.35852247186E+03  0.12500000000E+03 0.  0.
         25    1    1    2    0    0 -0.94643958866E+02 -0.30838624058E+02 -0.80514448696E+03  0.82084782058E+03  0.12500000000E+03 0.  0.
</event>
<event>
 5    0  0.5663008E-005  0.4038304E+03  0.7546771E-02  0.1042461E+00
         21   -1    0    0  502  501  0.00000000000E+00  0.00000000000E+00  0.27174010464E+03  0.27174010464E+03  0.00000000000E+00 0. -1.
         21   -1    0    0  501  502 -0.00000000000E+00 -0.00000000000E+00 -0.60012843009E+03  0.60012843009E+03  0.00000000000E+00 0. -1.
         25    1    1    2    0    0 -0.22219445630E+03  0.82554808880E+02 -0.12858176590E+03  0.29722709063E+03  0.12500000000E+03 0.  0.
         25    1    1    2    0    0  0.28131929492E+03 -0.84149066951E+02 -0.27138932363E+03  0.41892574061E+03  0.12500000000E+03 0.  0.
         25    1    1    2    0    0 -0.59124838622E+02  0.15942580712E+01  0.71582764081E+02  0.15571570349E+03  0.12500000000E+03 0.  0.
</event>
<event>
 5    0  0.5663008E-005  0.3063672E+03  0.7546771E-02  0.1082100E+00
         21   -1    0    0  502  501  0.00000000000E+00  0.00000000000E+00  0.70315577007E+03  0.70315577007E+03  0.00000000000E+00 0.  1.
         21   -1    0    0  501  502 -0.00000000000E+00 -0.00000000000E+00 -0.13348517127E+03  0.13348517127E+03  0.00000000000E+00 0.  1.
         25    1    1    2    0    0  0.11745911576E+03  0.51940418014E+02  0.74975031231E+01  0.17937576049E+03  0.12500000000E+03 0.  0.
         25    1    1    2    0    0 -0.12356993961E+03  0.42937681598E+02  0.26067616115E+03  0.31731724735E+03  0.12500000000E+03 0.  0.
         25    1    1    2    0    0  0.61108238425E+01 -0.94878099612E+02  0.30149693453E+03  0.33994793349E+03  0.12500000000E+03 0.  0.
</event>
<event>
 5    0  0.5663008E-005  0.3901028E+03  0.7546771E-02  0.1047262E+00
         21   -1    0    0  502  501  0.00000000000E+00  0.00000000000E+00  0.11880875665E+04  0.11880875665E+04  0.00000000000E+00 0.  1.
         21   -1    0    0  501  502 -0.00000000000E+00 -0.00000000000E+00 -0.12808833383E+03  0.12808833383E+03  0.00000000000E+00 0.  1.
         25    1    1    2    0    0  0.68994507867E+02  0.14240527501E+03  0.84150679141E+03  0.86533125707E+03  0.12500000000E+03 0.  0.
         25    1    1    2    0    0  0.47377663962E+02 -0.16314769340E+03  0.66149318288E+02  0.22104873945E+03  0.12500000000E+03 0.  0.
         25    1    1    2    0    0 -0.11637217183E+03  0.20742418388E+02  0.15234312301E+03  0.22979590385E+03  0.12500000000E+03 0.  0.
</event>
<event>
 5    0  0.5663008E-005  0.2865437E+03  0.7546771E-02  0.1092168E+00
         21   -1    0    0  502  501  0.00000000000E+00  0.00000000000E+00  0.15906788714E+04  0.15906788714E+04  0.00000000000E+00 0. -1.
         21   -1    0    0  501  502 -0.00000000000E+00 -0.00000000000E+00 -0.51617773298E+02  0.51617773298E+02  0.00000000000E+00 0. -1.
         25    1    1    2    0    0 -0.38246263717E+02 -0.15788208454E+03  0.76910906768E+03  0.79595432488E+03  0.12500000000E+03 0.  0.
         25    1    1    2    0    0  0.69187561397E+02  0.12603867729E+03  0.27942248821E+03  0.33819313083E+03  0.12500000000E+03 0.  0.
         25    1    1    2    0    0 -0.30941297680E+02  0.31843407254E+02  0.49052954225E+03  0.50814918902E+03  0.12500000000E+03 0.  0.
</event>
<event>
 5    0  0.5663008E-005  0.3474444E+03  0.7546771E-02  0.1063669E+00
         21   -1    0    0  502  501  0.00000000000E+00  0.00000000000E+00  0.15519101744E+03  0.15519101744E+03  0.00000000000E+00 0. -1.
         21   -1    0    0  501  502 -0.00000000000E+00 -0.00000000000E+00 -0.77786455232E+03  0.77786455232E+03  0.00000000000E+00 0. -1.
         25    1    1    2    0    0  0.17387872177E+03 -0.15300599274E+03 -0.18451544663E+03  0.32142743154E+03  0.12500000000E+03 0.  0.
         25    1    1    2    0    0 -0.16308131257E+03  0.18353374570E+03 -0.38158969255E+03  0.47065469697E+03  0.12500000000E+03 0.  0.
         25    1    1    2    0    0 -0.10797409200E+02 -0.30527752959E+02 -0.56568395692E+02  0.14097344125E+03  0.12500000000E+03 0.  0.
</event>
<event>
 5    0  0.5663008E-005  0.4648562E+03  0.7546771E-02  0.1023382E+00
         21   -1    0    0  502  501  0.00000000000E+00  0.00000000000E+00  0.42826450810E+03  0.42826450810E+03  0.00000000000E+00 0.  1.
         21   -1    0    0  501  502 -0.00000000000E+00 -0.00000000000E+00 -0.50457439534E+03  0.50457439534E+03  0.00000000000E+00 0. -1.
         25    1    1    2    0    0 -0.16496129924E+03  0.20577246066E+03 -0.21679540977E+03  0.36356537997E+03  0.12500000000E+03 0.  0.
         25    1    1    2    0    0  0.24646665619E+03 -0.24122237927E+03  0.84945327170E+01  0.36692125308E+03  0.12500000000E+03 0.  0.
         25    1    1    2    0    0 -0.81505356950E+02  0.35449918612E+02  0.13199098982E+03  0.20235227040E+03  0.12500000000E+03 0.  0.
</event>
<event>
 5    0  0.5663008E-005  0.3108005E+03  0.7546771E-02  0.1079963E+00
         21   -1    0    0  502  501  0.00000000000E+00  0.00000000000E+00  0.75830782627E+03  0.75830782627E+03  0.00000000000E+00 0. -1.
         21   -1    0    0  501  502 -0.00000000000E+00 -0.00000000000E+00 -0.12738485679E+03  0.12738485679E+03  0.00000000000E+00 0. -1.
         25    1    1    2    0    0  0.11251443212E+03 -0.72506013420E+01  0.22142691493E+02  0.16978624044E+03  0.12500000000E+03 0.  0.
         25    1    1    2    0    0 -0.19127653252E+03  0.41038914399E+01  0.35359357581E+03  0.42101896712E+03  0.12500000000E+03 0.  0.
         25    1    1    2    0    0  0.78762100407E+02  0.31467099021E+01  0.25518670218E+03  0.29488747551E+03  0.12500000000E+03 0.  0.
</event>
<event>
 5    0  0.5783330E-005  0.2907853E+03  0.7546771E-02  0.1089940E+00
         21   -1    0    0  502  501  0.00000000000E+00  0.00000000000E+00  0.97057339698E+02  0.97057339698E+02  0.00000000000E+00 0. -1.
         21   -1    0    0  501  502 -0.00000000000E+00 -0.00000000000E+00 -0.87119717509E+03  0.87119717509E+03  0.00000000000E+00 0. -1.
         25    1    1    2    0    0 -0.99459697397E+02 -0.68825831376E+02 -0.11465419482E+03  0.20832621261E+03  0.12500000000E+03 0.  0.
         25    1    1    2    0    0  0.34322611837E+02  0.15757838352E+03 -0.43418803392E+03  0.47974288680E+03  0.12500000000E+03 0.  0.
         25    1    1    2    0    0  0.65137085560E+02 -0.88752552143E+02 -0.22529760665E+03  0.28018541538E+03  0.12500000000E+03 0.  0.
</event>
<event>
 5    0  0.5663008E-005  0.2649702E+03  0.7546771E-02  0.1104193E+00
         21   -1    0    0  502  501  0.00000000000E+00  0.00000000000E+00  0.54858892480E+03  0.54858892480E+03  0.00000000000E+00 0. -1.
         21   -1    0    0  501  502 -0.00000000000E+00 -0.00000000000E+00 -0.12798147204E+03  0.12798147204E+03  0.00000000000E+00 0. -1.
         25    1    1    2    0    0 -0.20676394065E+02  0.13885034548E+03  0.23850288571E+03  0.30367014704E+03  0.12500000000E+03 0.  0.
         25    1    1    2    0    0 -0.41631005796E+02 -0.36308739904E+02  0.13776006204E+03  0.19404715904E+03  0.12500000000E+03 0.  0.
         25    1    1    2    0    0  0.62307399861E+02 -0.10254160558E+03  0.44344505010E+02  0.17885309077E+03  0.12500000000E+03 0.  0.
</event>
<event>
 5    0  0.5663008E-005  0.3774365E+03  0.7546771E-02  0.1051885E+00
         21   -1    0    0  502  501  0.00000000000E+00  0.00000000000E+00  0.71756685288E+03  0.71756685288E+03  0.00000000000E+00 0. -1.
         21   -1    0    0  501  502 -0.00000000000E+00 -0.00000000000E+00 -0.19852963131E+03  0.19852963131E+03  0.00000000000E+00 0. -1.
         25    1    1    2    0    0  0.77581172098E+02 -0.85309304517E+02  0.25835309185E+03  0.30930217550E+03  0.12500000000E+03 0.  0.
         25    1    1    2    0    0 -0.27310176265E+03  0.24880303983E+02  0.19203418881E+03  0.35735938767E+03  0.12500000000E+03 0.  0.
         25    1    1    2    0    0  0.19552059055E+03  0.60429000534E+02  0.68649940904E+02  0.24943492101E+03  0.12500000000E+03 0.  0.
</event>
<event>
 5    0  0.5663008E-005  0.3635010E+03  0.7546771E-02  0.1057206E+00
         21   -1    0    0  502  501  0.00000000000E+00  0.00000000000E+00  0.45686041081E+02  0.45686041081E+02  0.00000000000E+00 0.  1.
         21   -1    0    0  501  502 -0.00000000000E+00 -0.00000000000E+00 -0.28921963372E+04  0.28921963372E+04  0.00000000000E+00 0.  1.
         25    1    1    2    0    0  0.12001309053E+03 -0.96917906388E+02 -0.10456558624E+04  0.10643389522E+04  0.12500000000E+03 0.  0.
         25    1    1    2    0    0  0.36610081635E+02  0.22578552671E+03 -0.11822710460E+04  0.12106647877E+04  0.12500000000E+03 0.  0.
         25    1    1    2    0    0 -0.15662317217E+03 -0.12886762033E+03 -0.61858338766E+03  0.66287863830E+03  0.12500000000E+03 0.  0.
</event>
<event>
 5    0  0.5663008E-005  0.2374423E+03  0.7546771E-02  0.1121508E+00
         21   -1    0    0  502  501  0.00000000000E+00  0.00000000000E+00  0.19298144494E+03  0.19298144494E+03  0.00000000000E+00 0.  1.
         21   -1    0    0  501  502 -0.00000000000E+00 -0.00000000000E+00 -0.29214651018E+03  0.29214651018E+03  0.00000000000E+00 0.  1.
         25    1    1    2    0    0 -0.13611174369E+02  0.59710931848E+02 -0.11428295221E+03  0.18010067356E+03  0.12500000000E+03 0.  0.
         25    1    1    2    0    0  0.24905856813E+02 -0.75720904011E+02 -0.57650772946E+02  0.15906781142E+03  0.12500000000E+03 0.  0.
         25    1    1    2    0    0 -0.11294682444E+02  0.16009972162E+02  0.72768659910E+02  0.14595947015E+03  0.12500000000E+03 0.  0.
</event>
<event>
 5    0  0.5663008E-005  0.2938324E+03  0.7546771E-02  0.1088365E+00
         21   -1    0    0  502  501  0.00000000000E+00  0.00000000000E+00  0.16476472706E+04  0.16476472706E+04  0.00000000000E+00 0. -1.
         21   -1    0    0  501  502 -0.00000000000E+00 -0.00000000000E+00 -0.52400475650E+02  0.52400475650E+02  0.00000000000E+00 0. -1.
         25    1    1    2    0    0 -0.84954228358E+02  0.24742853595E+02  0.22787111225E+03  0.27455358952E+03  0.12500000000E+03 0.  0.
         25    1    1    2    0    0 -0.80853675637E+02  0.36617850910E+02  0.30597781455E+03  0.34223618579E+03  0.12500000000E+03 0.  0.
         25    1    1    2    0    0  0.16580790400E+03 -0.61360704505E+02  0.10613978681E+04  0.10832579709E+04  0.12500000000E+03 0.  0.
</event>
<event>
 5    0  0.5663008E-005  0.2897162E+03  0.7546771E-02  0.1090497E+00
         21   -1    0    0  502  501  0.00000000000E+00  0.00000000000E+00  0.24141607258E+03  0.24141607258E+03  0.00000000000E+00 0. -1.
         21   -1    0    0  501  502 -0.00000000000E+00 -0.00000000000E+00 -0.34767984186E+03  0.34767984186E+03  0.00000000000E+00 0. -1.
         25    1    1    2    0    0 -0.77447046586E+02  0.11080349183E+03 -0.18241718021E+03  0.25918427125E+03  0.12500000000E+03 0.  0.
         25    1    1    2    0    0 -0.16297011115E+02 -0.65860863433E+02  0.87412392043E+02  0.16694062473E+03  0.12500000000E+03 0.  0.
         25    1    1    2    0    0  0.93744057700E+02 -0.44942628401E+02 -0.11258981104E+02  0.16297101846E+03  0.12500000000E+03 0.  0.
</event>
<event>
 5    0  0.5663008E-005  0.4183789E+03  0.7546771E-02  0.1037595E+00
         21   -1    0    0  502  501  0.00000000000E+00  0.00000000000E+00  0.56468821698E+03  0.56468821698E+03  0.00000000000E+00 0. -1.
         21   -1    0    0  501  502 -0.00000000000E+00 -0.00000000000E+00 -0.30997800546E+03  0.30997800546E+03  0.00000000000E+00 0. -1.
         25    1    1    2    0    0 -0.18411472121E+02 -0.52991193094E+02  0.10373012108E+03  0.17184873253E+03  0.12500000000E+03 0.  0.
         25    1    1    2    0    0 -0.14561658678E+03  0.26738572997E+03  0.22197068905E+03  0.39698275244E+03  0.12500000000E+03 0.  0.
         25    1    1    2    0    0  0.16402805891E+03 -0.21439453688E+03 -0.70990598617E+02  0.30583473747E+03  0.12500000000E+03 0.  0.
</event>
<event>
 5    0  0.5663008E-005  0.3981687E+03  0.7546771E-02  0.1044416E+00
         21   -1    0    0  502  501  0.00000000000E+00  0.00000000000E+00  0.20476510021E+03  0.20476510021E+03  0.00000000000E+00 0.  1.
         21   -1    0    0  501  502 -0.00000000000E+00 -0.00000000000E+00 -0.77424495868E+03  0.77424495868E+03  0.00000000000E+00 0.  1.
         25    1    1    2    0    0 -0.67291567486E+02  0.24074048010E+03 -0.47597778175E+03  0.55196375110E+03  0.12500000000E+03 0.  0.
         25    1    1    2    0    0 -0.47495787668E+02 -0.27535531519E+02 -0.70290670602E+02  0.15355726527E+03  0.12500000000E+03 0.  0.
         25    1    1    2    0    0  0.11478735515E+03 -0.21320494858E+03 -0.23211406119E+02  0.27348904251E+03  0.12500000000E+03 0.  0.
</event>
<event>
 5    0  0.5663008E-005  0.2939143E+03  0.7546771E-02  0.1088323E+00
         21   -1    0    0  502  501  0.00000000000E+00  0.00000000000E+00  0.18154940590E+03  0.18154940590E+03  0.00000000000E+00 0.  1.
         21   -1    0    0  501  502 -0.00000000000E+00 -0.00000000000E+00 -0.47582430256E+03  0.47582430256E+03  0.00000000000E+00 0.  1.
         25    1    1    2    0    0  0.14795470673E+02 -0.83936094269E+02 -0.60112454095E+02  0.16279644041E+03  0.12500000000E+03 0.  0.
         25    1    1    2    0    0 -0.74665113838E+02  0.20500870942E+03 -0.12886751882E+03  0.28255138925E+03  0.12500000000E+03 0.  0.
         25    1    1    2    0    0  0.59869643165E+02 -0.12107261515E+03 -0.10529492374E+03  0.21202587879E+03  0.12500000000E+03 0.  0.
</event>
<event>
 5    0  0.5663008E-005  0.2453485E+03  0.7546771E-02  0.1116280E+00
         21   -1    0    0  502  501  0.00000000000E+00  0.00000000000E+00  0.40868905456E+03  0.40868905456E+03  0.00000000000E+00 0. -1.
         21   -1    0    0  501  502 -0.00000000000E+00 -0.00000000000E+00 -0.14729019277E+03  0.14729019277E+03  0.00000000000E+00 0. -1.
         25    1    1    2    0    0 -0.47402377319E+02 -0.12992828442E+03  0.54974352205E+02  0.19435926494E+03  0.12500000000E+03 0.  0.
         25    1    1    2    0    0  0.60645499146E+02  0.48563479624E+02  0.10182331441E+03  0.17896724694E+03  0.12500000000E+03 0.  0.
         25    1    1    2    0    0 -0.13243121827E+02  0.81364804794E+02  0.10460119517E+03  0.18265273545E+03  0.12500000000E+03 0.  0.
</event>
<event>
 5    0  0.5663008E-005  0.2628925E+03  0.7546771E-02  0.1105418E+00
         21   -1    0    0  502  501  0.00000000000E+00  0.00000000000E+00  0.31854130185E+02  0.31854130185E+02  0.00000000000E+00 0.  1.
         21   -1    0    0  501  502 -0.00000000000E+00 -0.00000000000E+00 -0.21696549052E+04  0.21696549052E+04  0.00000000000E+00 0.  1.
         25    1    1    2    0    0 -0.98504442508E+02 -0.89219982328E+01 -0.52174400547E+03  0.54554975437E+03  0.12500000000E+03 0.  0.
         25    1    1    2    0    0 -0.17153182895E+02  0.57786943531E+02 -0.33347042629E+03  0.36119397522E+03  0.12500000000E+03 0.  0.
         25    1    1    2    0    0  0.11565762540E+03 -0.48864945298E+02 -0.12825863433E+04  0.12947653058E+04  0.12500000000E+03 0.  0.
</event>
<event>
 5    0  0.6216414E-005  0.8092152E+03  0.7546771E-02  0.9546773E-01
         21   -1    0    0  502  501  0.00000000000E+00  0.00000000000E+00  0.99607318935E+03  0.99607318935E+03  0.00000000000E+00 0. -1.
         21   -1    0    0  501  502 -0.00000000000E+00 -0.00000000000E+00 -0.65741080750E+03  0.65741080750E+03  0.00000000000E+00 0. -1.
         25    1    1    2    0    0 -0.44691889306E+03  0.55097268919E+02  0.23245247058E+02  0.46790762713E+03  0.12500000000E+03 0.  0.
         25    1    1    2    0    0  0.93271248001E+02  0.40737093609E+03 -0.11468638610E+03  0.45103056707E+03  0.12500000000E+03 0.  0.
         25    1    1    2    0    0  0.35364764506E+03 -0.46246820501E+03  0.43010352089E+03  0.73454580265E+03  0.12500000000E+03 0.  0.
</event>
<event>
 5    0  0.5663008E-005  0.2722121E+03  0.7546771E-02  0.1100020E+00
         21   -1    0    0  502  501  0.00000000000E+00  0.00000000000E+00  0.12173892457E+04  0.12173892457E+04  0.00000000000E+00 0. -1.
         21   -1    0    0  501  502 -0.00000000000E+00 -0.00000000000E+00 -0.60867472770E+02  0.60867472770E+02  0.00000000000E+00 0. -1.
         25    1    1    2    0    0 -0.11748060376E+03  0.10070117396E+03  0.32720279860E+03  0.38292178067E+03  0.12500000000E+03 0.  0.
         25    1    1    2    0    0  0.12901434392E+03 -0.11520693184E+02  0.50981471757E+03  0.54066022007E+03  0.12500000000E+03 0.  0.
         25    1    1    2    0    0 -0.11533740159E+02 -0.89180480772E+02  0.31950425671E+03  0.35467471769E+03  0.12500000000E+03 0.  0.
</event>
<event>
 5    0  0.5663008E-005  0.3753212E+03  0.7546771E-02  0.1052677E+00
         21   -1    0    0  502  501  0.00000000000E+00  0.00000000000E+00  0.19661061324E+03  0.19661061324E+03  0.00000000000E+00 0. -1.
         21   -1    0    0  501  502 -0.00000000000E+00 -0.00000000000E+00 -0.71647186955E+03  0.71647186955E+03  0.00000000000E+00 0. -1.
         25    1    1    2    0    0  0.11493089630E+03 -0.19840192610E+03 -0.23278260355E+02  0.26218183120E+03  0.12500000000E+03 0.  0.
         25    1    1    2    0    0  0.16552587597E+02  0.20222483234E+03 -0.25919594485E+03  0.35210283839E+03  0.12500000000E+03 0.  0.
         25    1    1    2    0    0 -0.13148348389E+03 -0.38229062360E+01 -0.23738705109E+03  0.29879781321E+03  0.12500000000E+03 0.  0.
</event>
<event>
 5    0  0.5663008E-005  0.3531790E+03  0.7546771E-02  0.1061318E+00
         21   -1    0    0  502  501  0.00000000000E+00  0.00000000000E+00  0.32631524406E+03  0.32631524406E+03  0.00000000000E+00 0.  1.
         21   -1    0    0  501  502 -0.00000000000E+00 -0.00000000000E+00 -0.38225436683E+03  0.38225436683E+03  0.00000000000E+00 0.  1.
         25    1    1    2    0    0 -0.19011791135E+03  0.10139450521E+03 -0.48353652605E+02  0.25374936773E+03  0.12500000000E+03 0.  0.
         25    1    1    2    0    0 -0.11218258770E+02 -0.67086920773E+01  0.11621486909E+03  0.17117754431E+03  0.12500000000E+03 0.  0.
         25    1    1    2    0    0  0.20133617012E+03 -0.94685813132E+02 -0.12380033926E+03  0.28364269884E+03  0.12500000000E+03 0.  0.
</event>
<event>
 5    0  0.5663008E-005  0.2734342E+03  0.7546771E-02  0.1099330E+00
         21   -1    0    0  502  501  0.00000000000E+00  0.00000000000E+00  0.22190692167E+03  0.22190692167E+03  0.00000000000E+00 0. -1.
         21   -1    0    0  501  502 -0.00000000000E+00 -0.00000000000E+00 -0.33692634014E+03  0.33692634014E+03  0.00000000000E+00 0. -1.
         25    1    1    2    0    0  0.11859496390E+03 -0.55021004995E+02 -0.52518960561E+02  0.18834892532E+03  0.12500000000E+03 0.  0.
         25    1    1    2    0    0  0.20640248274E+02  0.10624343462E+03 -0.61710703162E+02  0.17648483825E+03  0.12500000000E+03 0.  0.
         25    1    1    2    0    0 -0.13923521217E+03 -0.51222429623E+02 -0.78975474857E+00  0.19399949824E+03  0.12500000000E+03 0.  0.
</event>
<event>
 5    0  0.5663008E-005  0.3200141E+03  0.7546771E-02  0.1075643E+00
         21   -1    0    0  502  501  0.00000000000E+00  0.00000000000E+00  0.29928090195E+03  0.29928090195E+03  0.00000000000E+00 0. -1.
         21   -1    0    0  501  502 -0.00000000000E+00 -0.00000000000E+00 -0.34218363989E+03  0.34218363989E+03  0.00000000000E+00 0. -1.
         25    1    1    2    0    0 -0.50939421102E+02  0.29908953669E+02 -0.20551369659E+03  0.24768982542E+03  0.12500000000E+03 0.  0.
         25    1    1    2    0    0  0.82232334868E+01  0.25299906618E+02  0.20752940422E+03  0.24372353284E+03  0.12500000000E+03 0.  0.
         25    1    1    2    0    0  0.42716187616E+02 -0.55208860287E+02 -0.44918445576E+02  0.15005118357E+03  0.12500000000E+03 0.  0.
</event>
<event>
 5    0  0.5663008E-005  0.4231535E+03  0.7546771E-02  0.1036045E+00
         21   -1    0    0  502  501  0.00000000000E+00  0.00000000000E+00  0.24386436475E+03  0.24386436475E+03  0.00000000000E+00 0.  1.
         21   -1    0    0  501  502 -0.00000000000E+00 -0.00000000000E+00 -0.73425616947E+03  0.73425616947E+03  0.00000000000E+00 0. -1.
         25    1    1    2    0    0 -0.14433096734E+03  0.25733476046E+03 -0.71137278505E+02  0.32823485413E+03  0.12500000000E+03 0.  0.
         25    1    1    2    0    0 -0.75257639245E+02 -0.21812915502E+02 -0.16260364933E+03  0.21955514643E+03  0.12500000000E+03 0.  0.
         25    1    1    2    0    0  0.21958860659E+03 -0.23552184496E+03 -0.25665087689E+03  0.43033053366E+03  0.12500000000E+03 0.  0.
</event>
<event>
 5    0  0.5663008E-005  0.3322970E+03  0.7546771E-02  0.1070125E+00
         21   -1    0    0  502  501  0.00000000000E+00  0.00000000000E+00  0.25225940518E+03  0.25225940518E+03  0.00000000000E+00 0. -1.
         21   -1    0    0  501  502 -0.00000000000E+00 -0.00000000000E+00 -0.43772912531E+03  0.43772912531E+03  0.00000000000E+00 0. -1.
         25    1    1    2    0    0 -0.78190116988E+02  0.10911845193E+03 -0.39309235628E+02  0.18759196931E+03  0.12500000000E+03 0.  0.
         25    1    1    2    0    0  0.15206769923E+03  0.20459317530E+01  0.79184416336E+02  0.21218846052E+03  0.12500000000E+03 0.  0.
         25    1    1    2    0    0 -0.73877582246E+02 -0.11116438368E+03 -0.22534490084E+03  0.29020810066E+03  0.12500000000E+03 0.  0.
</event>
<event>
 5    0  0.5663008E-005  0.2047822E+03  0.7546771E-02  0.1145766E+00
         21   -1    0    0  502  501  0.00000000000E+00  0.00000000000E+00  0.24966871495E+04  0.24966871495E+04  0.00000000000E+00 0.  1.
         21   -1    0    0  501  502 -0.00000000000E+00 -0.00000000000E+00 -0.16796565087E+02  0.16796565087E+02  0.00000000000E+00 0.  1.
         25    1    1    2    0    0  0.15870525249E+02  0.38292053383E+02  0.11843875441E+04  0.11916866239E+04  0.12500000000E+03 0.  0.
         25    1    1    2    0    0  0.13182607089E+02 -0.43190818987E+02  0.60106519458E+03  0.61558394725E+03  0.12500000000E+03 0.  0.
         25    1    1    2    0    0 -0.29053132339E+02  0.48987656039E+01  0.69443784573E+03  0.70621314346E+03  0.12500000000E+03 0.  0.
</event>
<event>
 5    0  0.5663008E-005  0.2734559E+03  0.7546771E-02  0.1099318E+00
         21   -1    0    0  502  501  0.00000000000E+00  0.00000000000E+00  0.15845491966E+04  0.15845491966E+04  0.00000000000E+00 0.  1.
         21   -1    0    0  501  502 -0.00000000000E+00 -0.00000000000E+00 -0.47192049141E+02  0.47192049141E+02  0.00000000000E+00 0.  1.
         25    1    1    2    0    0  0.53716301359E+02 -0.13250913681E+02  0.27881820297E+03  0.31052474628E+03  0.12500000000E+03 0.  0.
         25    1    1    2    0    0  0.55752656441E+02  0.13202539374E+03  0.73622220413E+03  0.76038621577E+03  0.12500000000E+03 0.  0.
         25    1    1    2    0    0 -0.10946895780E+03 -0.11877448006E+03  0.52231674039E+03  0.56083028371E+03  0.12500000000E+03 0.  0.
</event>
<event>
 5    0  0.5663008E-005  0.3947967E+03  0.7546771E-02  0.1045596E+00
         21   -1    0    0  502  501  0.00000000000E+00  0.00000000000E+00  0.32558958387E+03  0.32558958387E+03  0.00000000000E+00 0.  1.
         21   -1    0    0  501  502 -0.00000000000E+00 -0.00000000000E+00 -0.47871451442E+03  0.47871451442E+03  0.00000000000E+00 0.  1.
         25    1    1    2    0    0 -0.18793093375E+03 -0.48703147975E+02 -0.85458193898E+02  0.24620750473E+03  0.12500000000E+03 0.  0.
         25    1    1    2    0    0  0.14759439788E+03 -0.12568421855E+03 -0.19786586778E+03  0.30390217293E+03  0.12500000000E+03 0.  0.
         25    1    1    2    0    0  0.40336535872E+02  0.17438736653E+03  0.13019913113E+03  0.25419442063E+03  0.12500000000E+03 0.  0.
</event>
<event>
 5    0  0.5663008E-005  0.6953788E+03  0.7546771E-02  0.9725168E-01
         21   -1    0    0  502  501  0.00000000000E+00  0.00000000000E+00  0.90234624767E+03  0.90234624767E+03  0.00000000000E+00 0. -1.
         21   -1    0    0  501  502 -0.00000000000E+00 -0.00000000000E+00 -0.53588256577E+03  0.53588256577E+03  0.00000000000E+00 0. -1.
         25    1    1    2    0    0  0.76358757646E+02 -0.23651785459E+03  0.45516372097E+03  0.53345137388E+03  0.12500000000E+03 0.  0.
         25    1    1    2    0    0 -0.69544304891E+00 -0.15884521806E+03  0.27961840848E+03  0.34502716024E+03  0.12500000000E+03 0.  0.
         25    1    1    2    0    0 -0.75663314597E+02  0.39536307265E+03 -0.36831844755E+03  0.55975027932E+03  0.12500000000E+03 0.  0.
</event>
<event>
 5    0  0.5663008E-005  0.2404390E+03  0.7546771E-02  0.1119501E+00
         21   -1    0    0  502  501  0.00000000000E+00  0.00000000000E+00  0.52699143635E+02  0.52699143635E+02  0.00000000000E+00 0.  1.
         21   -1    0    0  501  502 -0.00000000000E+00 -0.00000000000E+00 -0.10969992249E+04  0.10969992249E+04  0.00000000000E+00 0.  1.
         25    1    1    2    0    0 -0.67084166334E+02 -0.77317042114E+02 -0.37385771941E+03  0.40727485159E+03  0.12500000000E+03 0.  0.
         25    1    1    2    0    0 -0.58977677308E+01 -0.28040815443E+02 -0.18570732327E+03  0.22568402893E+03  0.12500000000E+03 0.  0.
         25    1    1    2    0    0  0.72981934065E+02  0.10535785756E+03 -0.48473503855E+03  0.51673948799E+03  0.12500000000E+03 0.  0.
</event>
<event>
 5    0  0.5663008E-005  0.3244595E+03  0.7546771E-02  0.1073615E+00
         21   -1    0    0  502  501  0.00000000000E+00  0.00000000000E+00  0.21525001595E+03  0.21525001595E+03  0.00000000000E+00 0.  1.
         21   -1    0    0  501  502 -0.00000000000E+00 -0.00000000000E+00 -0.48907770103E+03  0.48907770103E+03  0.00000000000E+00 0.  1.
         25    1    1    2    0    0 -0.94233638906E+02  0.22268620051E+03 -0.77062684181E+02  0.28290065375E+03  0.12500000000E+03 0.  0.
         25    1    1    2    0    0  0.36533417173E+02 -0.19137252703E+03 -0.12260394149E+03  0.26194438559E+03  0.12500000000E+03 0.  0.
         25    1    1    2    0    0  0.57700221734E+02 -0.31313673480E+02 -0.74161059415E+02  0.15948267764E+03  0.12500000000E+03 0.  0.
</event>
<event>
 5    0  0.5663008E-005  0.2699990E+03  0.7546771E-02  0.1101280E+00
         21   -1    0    0  502  501  0.00000000000E+00  0.00000000000E+00  0.18823107827E+03  0.18823107827E+03  0.00000000000E+00 0. -1.
         21   -1    0    0  501  502 -0.00000000000E+00 -0.00000000000E+00 -0.38728706443E+03  0.38728706443E+03  0.00000000000E+00 0. -1.
         25    1    1    2    0    0  0.20023224033E+02  0.15324378338E+03 -0.13949053858E+03  0.24283162273E+03  0.12500000000E+03 0.  0.
         25    1    1    2    0    0  0.58850570141E+02 -0.98558521480E+02 -0.30238384303E+02  0.17238483590E+03  0.12500000000E+03 0.  0.
         25    1    1    2    0    0 -0.78873794174E+02 -0.54685261897E+02 -0.29327063280E+02  0.16030168407E+03  0.12500000000E+03 0.  0.
</event>
<event>
 5    0  0.5663008E-005  0.3073366E+03  0.7546771E-02  0.1081630E+00
         21   -1    0    0  502  501  0.00000000000E+00  0.00000000000E+00  0.92645088736E+03  0.92645088736E+03  0.00000000000E+00 0. -1.
         21   -1    0    0  501  502 -0.00000000000E+00 -0.00000000000E+00 -0.10195442939E+03  0.10195442939E+03  0.00000000000E+00 0. -1.
         25    1    1    2    0    0  0.10574590531E+03 -0.12335397858E+03  0.13683115945E+03  0.24646737455E+03  0.12500000000E+03 0.  0.
         25    1    1    2    0    0 -0.75427383479E+02  0.15662746180E+03  0.27570617025E+03  0.34908501011E+03  0.12500000000E+03 0.  0.
         25    1    1    2    0    0 -0.30318521832E+02 -0.33273483217E+02  0.41195912827E+03  0.43285293209E+03  0.12500000000E+03 0.  0.
</event>
<event>
 5    0  0.5663008E-005  0.2781053E+03  0.7546771E-02  0.1096728E+00
         21   -1    0    0  502  501  0.00000000000E+00  0.00000000000E+00  0.91315117405E+02  0.91315117405E+02  0.00000000000E+00 0. -1.
         21   -1    0    0  501  502 -0.00000000000E+00 -0.00000000000E+00 -0.84698547283E+03  0.84698547283E+03  0.00000000000E+00 0. -1.
         25    1    1    2    0    0 -0.10385569161E+01  0.47220108267E+02 -0.42771362042E+03  0.44810128132E+03  0.12500000000E+03 0.  0.
         25    1    1    2    0    0  0.69496688852E+02  0.48168916149E+02 -0.41812737429E+02  0.15659929520E+03  0.12500000000E+03 0.  0.
         25    1    1    2    0    0 -0.68458131936E+02 -0.95389024416E+02 -0.28614399758E+03  0.33360001373E+03  0.12500000000E+03 0.  0.
</event>
<event>
 5    0  0.5663008E-005  0.2678338E+03  0.7546771E-02  0.1102526E+00
         21   -1    0    0  502  501  0.00000000000E+00  0.00000000000E+00  0.97664301612E+02  0.97664301612E+02  0.00000000000E+00 0.  1.
         21   -1    0    0  501  502 -0.00000000000E+00 -0.00000000000E+00 -0.73450528603E+03  0.73450528603E+03  0.00000000000E+00 0.  1.
         25    1    1    2    0    0 -0.58321125134E+02 -0.10284721871E+02 -0.10763752358E+03  0.17526541479E+03  0.12500000000E+03 0.  0.
         25    1    1    2    0    0  0.93872489050E+02  0.98618401728E+02 -0.12473178102E+03  0.22298127849E+03  0.12500000000E+03 0.  0.
         25    1    1    2    0    0 -0.35551363916E+02 -0.88333679856E+02 -0.40447167982E+03  0.43392289436E+03  0.12500000000E+03 0.  0.
</event>
<event>
 5    0  0.5663008E-005  0.2751033E+03  0.7546771E-02  0.1098394E+00
         21   -1    0    0  502  501  0.00000000000E+00  0.00000000000E+00  0.13205343023E+04  0.13205343023E+04  0.00000000000E+00 0. -1.
         21   -1    0    0  501  502 -0.00000000000E+00 -0.00000000000E+00 -0.57311509609E+02  0.57311509609E+02  0.00000000000E+00 0. -1.
         25    1    1    2    0    0  0.69359828259E+02  0.78189403878E+02  0.29837626915E+03  0.33996730232E+03  0.12500000000E+03 0.  0.
         25    1    1    2    0    0 -0.92661397833E+02 -0.15523240754E+03  0.43225689252E+03  0.48492706269E+03  0.12500000000E+03 0.  0.
         25    1    1    2    0    0  0.23301569574E+02  0.77043003659E+02  0.53258963104E+03  0.55295144692E+03  0.12500000000E+03 0.  0.
</event>
<event>
 5    0  0.5663008E-005  0.3062391E+03  0.7546771E-02  0.1082163E+00
         21   -1    0    0  502  501  0.00000000000E+00  0.00000000000E+00  0.15619548283E+03  0.15619548283E+03  0.00000000000E+00 0. -1.
         21   -1    0    0  501  502 -0.00000000000E+00 -0.00000000000E+00 -0.60041671288E+03  0.60041671288E+03  0.00000000000E+00 0. -1.
         25    1    1    2    0    0 -0.18629231986E+02 -0.12845809815E+03 -0.20536931051E+03  0.27322167734E+03  0.12500000000E+03 0.  0.
         25    1    1    2    0    0 -0.80822274256E+02  0.15939555032E+03 -0.23504649850E+03  0.32064160356E+03  0.12500000000E+03 0.  0.
         25    1    1    2    0    0  0.99451506242E+02 -0.30937452170E+02 -0.38054210306E+01  0.16274891480E+03  0.12500000000E+03 0.  0.
</event>
<event>
 5    0  0.5663008E-005  0.4504411E+03  0.7546771E-02  0.1027591E+00
         21   -1    0    0  502  501  0.00000000000E+00  0.00000000000E+00  0.13185275281E+04  0.13185275281E+04  0.00000000000E+00 0. -1.
         21   -1    0    0  501  502 -0.00000000000E+00 -0.00000000000E+00 -0.15388164261E+03  0.15388164261E+03  0.00000000000E+00 0. -1.
         25    1    1    2    0    0  0.72159723301E+02 -0.69755083396E+02 -0.13638489939E+02  0.16088444839E+03  0.12500000000E+03 0.  0.
         25    1    1    2    0    0 -0.89725260069E+02 -0.16826706850E+03  0.22284418538E+03  0.31882433971E+03  0.12500000000E+03 0.  0.
         25    1    1    2    0    0  0.17565536768E+02  0.23802215190E+03  0.95544019007E+03  0.99270038263E+03  0.12500000000E+03 0.  0.
</event>
<event>
 5    0  0.5663008E-005  0.3211998E+03  0.7546771E-02  0.1075098E+00
         21   -1    0    0  502  501  0.00000000000E+00  0.00000000000E+00  0.75484117272E+03  0.75484117272E+03  0.00000000000E+00 0. -1.
         21   -1    0    0  501  502 -0.00000000000E+00 -0.00000000000E+00 -0.13667686174E+03  0.13667686174E+03  0.00000000000E+00 0. -1.
         25    1    1    2    0    0  0.76996575079E+02 -0.16007827797E+03  0.39878852950E+03  0.45410441411E+03  0.12500000000E+03 0.  0.
         25    1    1    2    0    0 -0.13256064931E+03  0.87276282921E+02  0.50552491004E+02  0.20825472300E+03  0.12500000000E+03 0.  0.
         25    1    1    2    0    0  0.55564074234E+02  0.72801995044E+02  0.16882329048E+03  0.22915889735E+03  0.12500000000E+03 0.  0.
</event>
<event>
 5    0  0.5663008E-005  0.3208867E+03  0.7546771E-02  0.1075242E+00
         21   -1    0    0  502  501  0.00000000000E+00  0.00000000000E+00  0.20199648007E+03  0.20199648007E+03  0.00000000000E+00 0. -1.
         21   -1    0    0  501  502 -0.00000000000E+00 -0.00000000000E+00 -0.50975292454E+03  0.50975292454E+03  0.00000000000E+00 0. -1.
         25    1    1    2    0    0  0.75114905656E+02  0.61303704366E+02 -0.13806889357E+03  0.20997240912E+03  0.12500000000E+03 0.  0.
         25    1    1    2    0    0 -0.45262762652E+02 -0.14091353184E+03 -0.26109419475E+03  0.32511616335E+03  0.12500000000E+03 0.  0.
         25    1    1    2    0    0 -0.29852143004E+02  0.79609827474E+02  0.91406643852E+02  0.17666083214E+03  0.12500000000E+03 0.  0.
</event>
<event>
 5    0  0.5663008E-005  0.4760198E+03  0.7546771E-02  0.1020235E+00
         21   -1    0    0  502  501  0.00000000000E+00  0.00000000000E+00  0.49261631540E+03  0.49261631540E+03  0.00000000000E+00 0.  1.
         21   -1    0    0  501  502 -0.00000000000E+00 -0.00000000000E+00 -0.45998247569E+03  0.45998247569E+03  0.00000000000E+00 0.  1.
         25    1    1    2    0    0 -0.64921543283E+02 -0.18995535450E+03 -0.93233492569E+02  0.25419545161E+03  0.12500000000E+03 0.  0.
         25    1    1    2    0    0  0.44326661786E+02  0.40266446112E+03  0.14989496979E+03  0.44966323305E+03  0.12500000000E+03 0.  0.
         25    1    1    2    0    0  0.20594881496E+02 -0.21270910662E+03 -0.24027637504E+02  0.24874010643E+03  0.12500000000E+03 0.  0.
</event>
<event>
 5    0  0.5663008E-005  0.2273414E+03  0.7546771E-02  0.1128525E+00
         21   -1    0    0  502  501  0.00000000000E+00  0.00000000000E+00  0.14500039035E+03  0.14500039035E+03  0.00000000000E+00 0.  1.
         21   -1    0    0  501  502 -0.00000000000E+00 -0.00000000000E+00 -0.35644117494E+03  0.35644117494E+03  0.00000000000E+00 0.  1.
         25    1    1    2    0    0 -0.19446360279E+02  0.47253220221E+02 -0.74096162938E+02  0.15403333766E+03  0.12500000000E+03 0.  0.
         25    1    1    2    0    0 -0.48666321936E+02 -0.80134010033E+02 -0.15227740203E+02  0.15699284865E+03  0.12500000000E+03 0.  0.
         25    1    1    2    0    0  0.68112682214E+02  0.32880789812E+02 -0.12211688145E+03  0.19041537898E+03  0.12500000000E+03 0.  0.
</event>
<event>
 5    0  0.5663008E-005  0.7032526E+03  0.7546771E-02  0.9711686E-01
         21   -1    0    0  502  501  0.00000000000E+00  0.00000000000E+00  0.40506834729E+03  0.40506834729E+03  0.00000000000E+00 0.  1.
         21   -1    0    0  501  502 -0.00000000000E+00 -0.00000000000E+00 -0.12209401063E+04  0.12209401063E+04  0.00000000000E+00 0.  1.
         25    1    1    2    0    0 -0.46248119047E+03 -0.34658627989E+03 -0.10690961295E+02  0.59139681906E+03  0.12500000000E+03 0.  0.
         25    1    1    2    0    0  0.21552417001E+03  0.24269156409E+03 -0.50587270937E+03  0.61390720897E+03  0.12500000000E+03 0.  0.
         25    1    1    2    0    0  0.24695702046E+03  0.10389471579E+03 -0.29930808834E+03  0.42070442554E+03  0.12500000000E+03 0.  0.
</event>
<event>
 5    0  0.5663008E-005  0.2610730E+03  0.7546771E-02  0.1106500E+00
         21   -1    0    0  502  501  0.00000000000E+00  0.00000000000E+00  0.10765663431E+03  0.10765663431E+03  0.00000000000E+00 0. -1.
         21   -1    0    0  501  502 -0.00000000000E+00 -0.00000000000E+00 -0.63311565643E+03  0.63311565643E+03  0.00000000000E+00 0.  1.
         25    1    1    2    0    0  0.90286967519E+01  0.79646226322E+02 -0.11920762734E+03  0.19042189251E+03  0.12500000000E+03 0.  0.
         25    1    1    2    0    0  0.41366328156E+02  0.72390964990E+02 -0.92139145428E+02  0.17625619716E+03  0.12500000000E+03 0.  0.
         25    1    1    2    0    0 -0.50395024908E+02 -0.15203719131E+03 -0.31411224935E+03  0.37409420106E+03  0.12500000000E+03 0.  0.
</event>
<event>
 5    0  0.5663008E-005  0.3291013E+03  0.7546771E-02  0.1071535E+00
         21   -1    0    0  502  501  0.00000000000E+00  0.00000000000E+00  0.17493809096E+03  0.17493809096E+03  0.00000000000E+00 0.  1.
         21   -1    0    0  501  502 -0.00000000000E+00 -0.00000000000E+00 -0.61911998129E+03  0.61911998129E+03  0.00000000000E+00 0.  1.
         25    1    1    2    0    0  0.11635460004E+03  0.22199704898E+02 -0.61103641973E+02  0.18272896571E+03  0.12500000000E+03 0.  0.
         25    1    1    2    0    0  0.68430288297E+02 -0.15281905665E+02  0.25677644244E+02  0.14560419778E+03  0.12500000000E+03 0.  0.
         25    1    1    2    0    0 -0.18478488834E+03 -0.69177992322E+01 -0.40875589260E+03  0.46572490876E+03  0.12500000000E+03 0.  0.
</event>
<event>
 5    0  0.5663008E-005  0.3250168E+03  0.7546771E-02  0.1073363E+00
         21   -1    0    0  502  501  0.00000000000E+00  0.00000000000E+00  0.20294921468E+03  0.20294921468E+03  0.00000000000E+00 0. -1.
         21   -1    0    0  501  502 -0.00000000000E+00 -0.00000000000E+00 -0.52050429817E+03  0.52050429817E+03  0.00000000000E+00 0. -1.
         25    1    1    2    0    0  0.11206855927E+03 -0.95055763934E+02  0.40688989118E+02  0.19716884660E+03  0.12500000000E+03 0.  0.
         25    1    1    2    0    0  0.26906960115E+02 -0.35582752966E+02 -0.47768461361E+02  0.14105652311E+03  0.12500000000E+03 0.  0.
         25    1    1    2    0    0 -0.13897551939E+03  0.13063851690E+03 -0.31047561124E+03  0.38522814314E+03  0.12500000000E+03 0.  0.
</event>
<event>
 5    0  0.5663008E-005  0.3251116E+03  0.7546771E-02  0.1073321E+00
         21   -1    0    0  502  501  0.00000000000E+00  0.00000000000E+00  0.25107648271E+04  0.25107648271E+04  0.00000000000E+00 0.  1.
         21   -1    0    0  501  502 -0.00000000000E+00 -0.00000000000E+00 -0.42097751683E+02  0.42097751683E+02  0.00000000000E+00 0.  1.
         25    1    1    2    0    0  0.18819061670E+03 -0.70864801046E+02  0.76704137589E+03  0.80275463285E+03  0.12500000000E+03 0.  0.
         25    1    1    2    0    0 -0.19056392894E+03  0.12738688105E+03  0.12919291337E+04  0.13180470079E+04  0.12500000000E+03 0.  0.
         25    1    1    2    0    0  0.23733122467E+01 -0.56522080004E+02  0.40969656583E+03  0.43206093806E+03  0.12500000000E+03 0.  0.
</event>
<event>
 5    0  0.5663008E-005  0.2742455E+03  0.7546771E-02  0.1098874E+00
         21   -1    0    0  502  501  0.00000000000E+00  0.00000000000E+00  0.49114323749E+03  0.49114323749E+03  0.00000000000E+00 0.  1.
         21   -1    0    0  501  502 -0.00000000000E+00 -0.00000000000E+00 -0.15313373541E+03  0.15313373541E+03  0.00000000000E+00 0.  1.
         25    1    1    2    0    0 -0.11005168136E+03 -0.44626969063E+02 -0.16463988299E+02  0.17320219932E+03  0.12500000000E+03 0.  0.
         25    1    1    2    0    0  0.59749589092E+02  0.30945223380E+02  0.28604676313E+03  0.31933582784E+03  0.12500000000E+03 0.  0.
         25    1    1    2    0    0  0.50302092268E+02  0.13681745683E+02  0.68426727262E+02  0.15173894574E+03  0.12500000000E+03 0.  0.
</event>
<event>
 5    0  0.5663008E-005  0.2785227E+03  0.7546771E-02  0.1096499E+00
         21   -1    0    0  502  501  0.00000000000E+00  0.00000000000E+00  0.94528820169E+02  0.94528820169E+02  0.00000000000E+00 0. -1.
         21   -1    0    0  501  502 -0.00000000000E+00 -0.00000000000E+00 -0.82064789458E+03  0.82064789458E+03  0.00000000000E+00 0. -1.
         25    1    1    2    0    0  0.15877347169E+03 -0.43630964338E+02 -0.23797686307E+03  0.31523112746E+03  0.12500000000E+03 0.  0.
         25    1    1    2    0    0 -0.89481155301E+02 -0.54021604170E+02 -0.31754764712E+03  0.35691276113E+03  0.12500000000E+03 0.  0.
         25    1    1    2    0    0 -0.69292316389E+02  0.97652568508E+02 -0.17059456422E+03  0.24303282616E+03  0.12500000000E+03 0.  0.
</event>
<event>
 5    0  0.5663008E-005  0.2524775E+03  0.7546771E-02  0.1111749E+00
         21   -1    0    0  502  501  0.00000000000E+00  0.00000000000E+00  0.28396896173E+02  0.28396896173E+02  0.00000000000E+00 0.  1.
         21   -1    0    0  501  502 -0.00000000000E+00 -0.00000000000E+00 -0.22447837315E+04  0.22447837315E+04  0.00000000000E+00 0.  1.
         25    1    1    2    0    0 -0.11293540238E+03 -0.27887250851E+02 -0.11828708753E+04  0.11951320478E+04  0.12500000000E+03 0.  0.
         25    1    1    2    0    0  0.24263393908E+02  0.46853729326E+02 -0.66119532122E+03  0.67497276763E+03  0.12500000000E+03 0.  0.
         25    1    1    2    0    0  0.88672008474E+02 -0.18966478476E+02 -0.37232063878E+03  0.40307581229E+03  0.12500000000E+03 0.  0.
</event>
<event>
 5    0  0.5663008E-005  0.2227833E+03  0.7546771E-02  0.1131825E+00
         21   -1    0    0  502  501  0.00000000000E+00  0.00000000000E+00  0.79903738641E+03  0.79903738641E+03  0.00000000000E+00 0. -1.
         21   -1    0    0  501  502 -0.00000000000E+00 -0.00000000000E+00 -0.62115217835E+02  0.62115217835E+02  0.00000000000E+00 0. -1.
         25    1    1    2    0    0 -0.87981633715E+02  0.12396309902E+02  0.35769187193E+03  0.38918236293E+03  0.12500000000E+03 0.  0.
         25    1    1    2    0    0  0.52477730510E+02 -0.20392748633E+02  0.12133340045E+03  0.18307531363E+03  0.12500000000E+03 0.  0.
         25    1    1    2    0    0  0.35503903206E+02  0.79964387313E+01  0.25789689620E+03  0.28889492769E+03  0.12500000000E+03 0.  0.
</event>
<event>
 5    0  0.5663008E-005  0.3790007E+03  0.7546771E-02  0.1051304E+00
         21   -1    0    0  502  501  0.00000000000E+00  0.00000000000E+00  0.37645200906E+03  0.37645200906E+03  0.00000000000E+00 0. -1.
         21   -1    0    0  501  502 -0.00000000000E+00 -0.00000000000E+00 -0.38156661853E+03  0.38156661853E+03  0.00000000000E+00 0. -1.
         25    1    1    2    0    0 -0.63761524395E+02 -0.22872755784E+03  0.13218618667E+03  0.29913210402E+03  0.12500000000E+03 0.  0.
         25    1    1    2    0    0 -0.68423562886E+02  0.19258296201E+01 -0.14450176163E+02  0.14324559459E+03  0.12500000000E+03 0.  0.
         25    1    1    2    0    0  0.13218508728E+03  0.22680172822E+03 -0.12285061997E+03  0.31564092899E+03  0.12500000000E+03 0.  0.
</event>
<event>
 5    0  0.5663008E-005  0.3376110E+03  0.7546771E-02  0.1067818E+00
         21   -1    0    0  502  501  0.00000000000E+00  0.00000000000E+00  0.28095082477E+04  0.28095082477E+04  0.00000000000E+00 0. -1.
         21   -1    0    0  501  502 -0.00000000000E+00 -0.00000000000E+00 -0.40569797468E+02  0.40569797468E+02  0.00000000000E+00 0. -1.
         25    1    1    2    0    0  0.11207817212E+03 -0.36404153921E+02  0.18557529688E+04  0.18636874363E+04  0.12500000000E+03 0.  0.
         25    1    1    2    0    0  0.13110128455E+02 -0.46061629367E+02  0.61923780499E+03  0.63354084975E+03  0.12500000000E+03 0.  0.
         25    1    1    2    0    0 -0.12518830058E+03  0.82465783288E+02  0.29394767647E+03  0.35284975913E+03  0.12500000000E+03 0.  0.
</event>
<event>
 5    0  0.5663008E-005  0.3044418E+03  0.7546771E-02  0.1083041E+00
         21   -1    0    0  502  501  0.00000000000E+00  0.00000000000E+00  0.81274221310E+03  0.81274221310E+03  0.00000000000E+00 0. -1.
         21   -1    0    0  501  502 -0.00000000000E+00 -0.00000000000E+00 -0.11403965079E+03  0.11403965079E+03  0.00000000000E+00 0. -1.
         25    1    1    2    0    0 -0.34638331684E+01 -0.17097549134E+03  0.13285590648E+03  0.25004061403E+03  0.12500000000E+03 0.  0.
         25    1    1    2    0    0  0.52086983496E+02 -0.74558141590E+01  0.13421905008E+03  0.19080984361E+03  0.12500000000E+03 0.  0.
         25    1    1    2    0    0 -0.48623150328E+02  0.17843130550E+03  0.43162760575E+03  0.48593140625E+03  0.12500000000E+03 0.  0.
</event>
<event>
 5    0  0.5663008E-005  0.2063252E+03  0.7546771E-02  0.1144509E+00
         21   -1    0    0  502  501  0.00000000000E+00  0.00000000000E+00  0.14332213763E+03  0.14332213763E+03  0.00000000000E+00 0. -1.
         21   -1    0    0  501  502 -0.00000000000E+00 -0.00000000000E+00 -0.29702390827E+03  0.29702390827E+03  0.00000000000E+00 0. -1.
         25    1    1    2    0    0  0.69222411262E+02  0.20774005612E+02 -0.54408685143E+02  0.15430037767E+03  0.12500000000E+03 0.  0.
         25    1    1    2    0    0 -0.26010251935E+02  0.21278111365E+02 -0.45510749970E+02  0.13720612083E+03  0.12500000000E+03 0.  0.
         25    1    1    2    0    0 -0.43212159327E+02 -0.42052116978E+02 -0.53782335533E+02  0.14883954740E+03  0.12500000000E+03 0.  0.
</event>
<event>
 5    0  0.5663008E-005  0.2260256E+03  0.7546771E-02  0.1129469E+00
         21   -1    0    0  502  501  0.00000000000E+00  0.00000000000E+00  0.11932500777E+04  0.11932500777E+04  0.00000000000E+00 0.  1.
         21   -1    0    0  501  502 -0.00000000000E+00 -0.00000000000E+00 -0.42813819422E+02  0.42813819422E+02  0.00000000000E+00 0.  1.
         25    1    1    2    0    0 -0.26287342834E+02 -0.47836740570E+02  0.51120871217E+03  0.52909236013E+03  0.12500000000E+03 0.  0.
         25    1    1    2    0    0 -0.37977078904E+02  0.77398556882E+02  0.40111688724E+03  0.42889690178E+03  0.12500000000E+03 0.  0.
         25    1    1    2    0    0  0.64264421738E+02 -0.29561816311E+02  0.23811065887E+03  0.27807463522E+03  0.12500000000E+03 0.  0.
</event>
<event>
 5    0  0.5663008E-005  0.4350966E+03  0.7546771E-02  0.1032262E+00
         21   -1    0    0  502  501  0.00000000000E+00  0.00000000000E+00  0.34988532626E+03  0.34988532626E+03  0.00000000000E+00 0. -1.
         21   -1    0    0  501  502 -0.00000000000E+00 -0.00000000000E+00 -0.54106037622E+03  0.54106037622E+03  0.00000000000E+00 0. -1.
         25    1    1    2    0    0 -0.13301232383E+03 -0.32456995842E+03  0.48073365307E+02  0.37546502454E+03  0.12500000000E+03 0.  0.
         25    1    1    2    0    0  0.69076187500E+02  0.80626698837E+02 -0.34942561966E+02  0.16768472465E+03  0.12500000000E+03 0.  0.
         25    1    1    2    0    0  0.63936136334E+02  0.24394325959E+03 -0.20430585330E+03  0.34779595328E+03  0.12500000000E+03 0.  0.
</event>
<event>
 5    0  0.5663008E-005  0.3076968E+03  0.7546771E-02  0.1081455E+00
         21   -1    0    0  502  501  0.00000000000E+00  0.00000000000E+00  0.14183722368E+03  0.14183722368E+03  0.00000000000E+00 0.  1.
         21   -1    0    0  501  502 -0.00000000000E+00 -0.00000000000E+00 -0.66750689805E+03  0.66750689805E+03  0.00000000000E+00 0.  1.
         25    1    1    2    0    0  0.89034834472E+02 -0.98364913341E+02 -0.20524709868E+03  0.27450724844E+03  0.12500000000E+03 0.  0.
         25    1    1    2    0    0 -0.15723292505E+02  0.11625043099E+03  0.11915462401E+02  0.17183818806E+03  0.12500000000E+03 0.  0.
         25    1    1    2    0    0 -0.73311541967E+02 -0.17885517646E+02 -0.33233803808E+03  0.36299868524E+03  0.12500000000E+03 0.  0.
</event>
<event>
 5    0  0.5663008E-005  0.2871043E+03  0.7546771E-02  0.1091871E+00
         21   -1    0    0  502  501  0.00000000000E+00  0.00000000000E+00  0.16492859530E+04  0.16492859530E+04  0.00000000000E+00 0. -1.
         21   -1    0    0  501  502 -0.00000000000E+00 -0.00000000000E+00 -0.49978537040E+02  0.49978537040E+02  0.00000000000E+00 0. -1.
         25    1    1    2    0    0  0.70303497443E+02 -0.22859383627E+02  0.91465054022E+03  0.92610784679E+03  0.12500000000E+03 0.  0.
         25    1    1    2    0    0  0.70754025724E+02  0.64603852673E+02  0.39318956877E+03  0.42355970881E+03  0.12500000000E+03 0.  0.
         25    1    1    2    0    0 -0.14105752317E+03 -0.41744469046E+02  0.29146730701E+03  0.34959693447E+03  0.12500000000E+03 0.  0.
</event>
<event>
 5    0  0.5663008E-005  0.2750079E+03  0.7546771E-02  0.1098447E+00
         21   -1    0    0  502  501  0.00000000000E+00  0.00000000000E+00  0.25223400335E+03  0.25223400335E+03  0.00000000000E+00 0.  1.
         21   -1    0    0  501  502 -0.00000000000E+00 -0.00000000000E+00 -0.29983794983E+03  0.29983794983E+03  0.00000000000E+00 0.  1.
         25    1    1    2    0    0  0.14565858284E+03  0.26712153999E+00  0.46645240652E+02  0.19752790331E+03  0.12500000000E+03 0.  0.
         25    1    1    2    0    0 -0.12250224906E+03 -0.79120841755E+02 -0.57603031416E+02  0.20052435726E+03  0.12500000000E+03 0.  0.
         25    1    1    2    0    0 -0.23156333777E+02  0.78853720215E+02 -0.36646155718E+02  0.15401969262E+03  0.12500000000E+03 0.  0.
</event>
<event>
 5    0  0.5663008E-005  0.5666894E+03  0.7546771E-02  0.9977031E-01
         21   -1    0    0  502  501  0.00000000000E+00  0.00000000000E+00  0.20716042554E+04  0.20716042554E+04  0.00000000000E+00 0. -1.
         21   -1    0    0  501  502 -0.00000000000E+00 -0.00000000000E+00 -0.15501845225E+03  0.15501845225E+03  0.00000000000E+00 0. -1.
         25    1    1    2    0    0 -0.16019147499E+03 -0.18960285817E+03  0.22676783164E+03  0.35869095605E+03  0.12500000000E+03 0.  0.
         25    1    1    2    0    0 -0.26892780907E+03  0.15723382341E+03  0.88899319068E+03  0.95025182704E+03  0.12500000000E+03 0.  0.
         25    1    1    2    0    0  0.42911928406E+03  0.32369034754E+02  0.80082478085E+03  0.91767992459E+03  0.12500000000E+03 0.  0.
</event>
<event>
 5    0  0.5663008E-005  0.2491024E+03  0.7546771E-02  0.1113873E+00
         21   -1    0    0  502  501  0.00000000000E+00  0.00000000000E+00  0.28800976194E+02  0.28800976194E+02  0.00000000000E+00 0. -1.
         21   -1    0    0  501  502 -0.00000000000E+00 -0.00000000000E+00 -0.21545098903E+04  0.21545098903E+04  0.00000000000E+00 0. -1.
         25    1    1    2    0    0 -0.34810472626E+01 -0.74907265848E+02 -0.69681202183E+03  0.71189550493E+03  0.12500000000E+03 0.  0.
         25    1    1    2    0    0 -0.74248705050E+01 -0.57886171967E+02 -0.33380009732E+03  0.36118339189E+03  0.12500000000E+03 0.  0.
         25    1    1    2    0    0  0.10905917768E+02  0.13279343782E+03 -0.10950967949E+04  0.11102319697E+04  0.12500000000E+03 0.  0.
</event>
<event>
 5    0  0.5663008E-005  0.3234567E+03  0.7546771E-02  0.1074069E+00
         21   -1    0    0  502  501  0.00000000000E+00  0.00000000000E+00  0.56027045721E+03  0.56027045721E+03  0.00000000000E+00 0. -1.
         21   -1    0    0  501  502 -0.00000000000E+00 -0.00000000000E+00 -0.18673880157E+03  0.18673880157E+03  0.00000000000E+00 0. -1.
         25    1    1    2    0    0  0.96051712770E+02  0.10429460781E+03  0.24691262516E+02  0.19062516935E+03  0.12500000000E+03 0.  0.
         25    1    1    2    0    0 -0.17753228291E+03 -0.16455384276E+03  0.22473750821E+03  0.35316798586E+03  0.12500000000E+03 0.  0.
         25    1    1    2    0    0  0.81480570141E+02  0.60259234943E+02  0.12410288491E+03  0.20321610357E+03  0.12500000000E+03 0.  0.
</event>
<event>
 5    0  0.5663008E-005  0.3265395E+03  0.7546771E-02  0.1072678E+00
         21   -1    0    0  502  501  0.00000000000E+00  0.00000000000E+00  0.94866661713E+02  0.94866661713E+02  0.00000000000E+00 0. -1.
         21   -1    0    0  501  502 -0.00000000000E+00 -0.00000000000E+00 -0.11239779762E+04  0.11239779762E+04  0.00000000000E+00 0. -1.
         25    1    1    2    0    0  0.76939967085E+02 -0.51681526562E+02 -0.10505147704E+03  0.18775396548E+03  0.12500000000E+03 0.  0.
         25    1    1    2    0    0 -0.18098479664E+03  0.12034775009E+03 -0.35028054924E+03  0.43076738588E+03  0.12500000000E+03 0.  0.
         25    1    1    2    0    0  0.10404482955E+03 -0.68666223524E+02 -0.57377928822E+03  0.60032328657E+03  0.12500000000E+03 0.  0.
</event>
<event>
 5    0  0.5663008E-005  0.3265761E+03  0.7546771E-02  0.1072662E+00
         21   -1    0    0  502  501  0.00000000000E+00  0.00000000000E+00  0.81507624114E+03  0.81507624114E+03  0.00000000000E+00 0. -1.
         21   -1    0    0  501  502 -0.00000000000E+00 -0.00000000000E+00 -0.13084908555E+03  0.13084908555E+03  0.00000000000E+00 0. -1.
         25    1    1    2    0    0  0.33497495385E+02  0.49439704601E+02  0.98169876552E+02  0.16979013885E+03  0.12500000000E+03 0.  0.
         25    1    1    2    0    0 -0.18592714898E+03  0.44693965878E+01  0.51178012762E+03  0.55868844561E+03  0.12500000000E+03 0.  0.
         25    1    1    2    0    0  0.15242965359E+03 -0.53909101189E+02  0.74277151423E+02  0.21744674224E+03  0.12500000000E+03 0.  0.
</event>
<event>
 5    0  0.5663008E-005  0.2971214E+03  0.7546771E-02  0.1086689E+00
         21   -1    0    0  502  501  0.00000000000E+00  0.00000000000E+00  0.91999488385E+02  0.91999488385E+02  0.00000000000E+00 0. -1.
         21   -1    0    0  501  502 -0.00000000000E+00 -0.00000000000E+00 -0.95958256921E+03  0.95958256921E+03  0.00000000000E+00 0. -1.
         25    1    1    2    0    0  0.22803285833E+02  0.74972871060E+02 -0.19830611923E+03  0.24716641795E+03  0.12500000000E+03 0.  0.
         25    1    1    2    0    0 -0.11783315018E+03 -0.91459496422E+02 -0.11057398562E+03  0.22383274350E+03  0.12500000000E+03 0.  0.
         25    1    1    2    0    0  0.95029864343E+02  0.16486625363E+02 -0.55870297597E+03  0.58058289614E+03  0.12500000000E+03 0.  0.
</event>
<event>
 5    0  0.5663008E-005  0.3565201E+03  0.7546771E-02  0.1059970E+00
         21   -1    0    0  502  501  0.00000000000E+00  0.00000000000E+00  0.85200689341E+03  0.85200689341E+03  0.00000000000E+00 0. -1.
         21   -1    0    0  501  502 -0.00000000000E+00 -0.00000000000E+00 -0.14918492398E+03  0.14918492398E+03  0.00000000000E+00 0. -1.
         25    1    1    2    0    0  0.19692218450E+03 -0.81925898284E+02  0.12740465632E+03  0.27811354877E+03  0.12500000000E+03 0.  0.
         25    1    1    2    0    0  0.19941863840E+02  0.25125429644E+02  0.37753347735E+03  0.39898056553E+03  0.12500000000E+03 0.  0.
         25    1    1    2    0    0 -0.21686404834E+03  0.56800468640E+02  0.19788383575E+03  0.32409770309E+03  0.12500000000E+03 0.  0.
</event>
<event>
 5    0  0.6207189E-005  0.2630834E+03  0.7546771E-02  0.1105305E+00
         21   -1    0    0  502  501  0.00000000000E+00  0.00000000000E+00  0.41034372361E+03  0.41034372361E+03  0.00000000000E+00 0. -1.
         21   -1    0    0  501  502 -0.00000000000E+00 -0.00000000000E+00 -0.16867054709E+03  0.16867054709E+03  0.00000000000E+00 0. -1.
         25    1    1    2    0    0  0.73074662301E+02  0.55100134005E+02  0.31568988404E+02  0.15810607853E+03  0.12500000000E+03 0.  0.
         25    1    1    2    0    0 -0.14241499941E+03 -0.29853415630E+02  0.19730805381E+03  0.27518852916E+03  0.12500000000E+03 0.  0.
         25    1    1    2    0    0  0.69340337104E+02 -0.25246718375E+02  0.12796134305E+02  0.14571966302E+03  0.12500000000E+03 0.  0.
</event>
<event>
 5    0  0.5663008E-005  0.2792659E+03  0.7546771E-02  0.1096091E+00
         21   -1    0    0  502  501  0.00000000000E+00  0.00000000000E+00  0.84002253590E+02  0.84002253590E+02  0.00000000000E+00 0.  1.
         21   -1    0    0  501  502 -0.00000000000E+00 -0.00000000000E+00 -0.92842105270E+03  0.92842105270E+03  0.00000000000E+00 0.  1.
         25    1    1    2    0    0 -0.83558479554E+02 -0.12877549506E+03 -0.40430834389E+03  0.45017261642E+03  0.12500000000E+03 0.  0.
         25    1    1    2    0    0 -0.12921992034E+02  0.86910455850E+02 -0.33445174523E+03  0.36770011572E+03  0.12500000000E+03 0.  0.
         25    1    1    2    0    0  0.96480471589E+02  0.41865039213E+02 -0.10565871000E+03  0.19455057416E+03  0.12500000000E+03 0.  0.
</event>
<event>
 5    0  0.5663008E-005  0.2834059E+03  0.7546771E-02  0.1093843E+00
         21   -1    0    0  502  501  0.00000000000E+00  0.00000000000E+00  0.76904671125E+02  0.76904671125E+02  0.00000000000E+00 0.  1.
         21   -1    0    0  501  502 -0.00000000000E+00 -0.00000000000E+00 -0.10443955601E+04  0.10443955601E+04  0.00000000000E+00 0.  1.
         25    1    1    2    0    0  0.33930984810E+02  0.86930806398E+02 -0.58478797926E+03  0.60523570410E+03  0.12500000000E+03 0.  0.
         25    1    1    2    0    0  0.28329168776E+02  0.13977273530E+02 -0.44301554014E+02  0.13632877050E+03  0.12500000000E+03 0.  0.
         25    1    1    2    0    0 -0.62260153586E+02 -0.10090807993E+03 -0.33840135573E+03  0.37973575665E+03  0.12500000000E+03 0.  0.
</event>
<event>
 5    0  0.5663008E-005  0.5231738E+03  0.7546771E-02  0.1007901E+00
         21   -1    0    0  502  501  0.00000000000E+00  0.00000000000E+00  0.44715148319E+03  0.44715148319E+03  0.00000000000E+00 0. -1.
         21   -1    0    0  501  502 -0.00000000000E+00 -0.00000000000E+00 -0.61212110196E+03  0.61212110196E+03  0.00000000000E+00 0. -1.
         25    1    1    2    0    0 -0.56039416744E+02  0.21093958637E+03 -0.33605784148E+02  0.25375238729E+03  0.12500000000E+03 0.  0.
         25    1    1    2    0    0  0.79717243028E+02 -0.18898998117E+03 -0.42308053393E+03  0.48651227118E+03  0.12500000000E+03 0.  0.
         25    1    1    2    0    0 -0.23677826284E+02 -0.21949605191E+02  0.29171669931E+03  0.31900792668E+03  0.12500000000E+03 0.  0.
</event>
<event>
 5    0  0.5663008E-005  0.2492696E+03  0.7546771E-02  0.1113767E+00
         21   -1    0    0  502  501  0.00000000000E+00  0.00000000000E+00  0.80787822807E+03  0.80787822807E+03  0.00000000000E+00 0. -1.
         21   -1    0    0  501  502 -0.00000000000E+00 -0.00000000000E+00 -0.76911754553E+02  0.76911754553E+02  0.00000000000E+00 0. -1.
         25    1    1    2    0    0 -0.59080513832E+02 -0.13152239772E+03  0.21942690436E+03  0.29079514194E+03  0.12500000000E+03 0.  0.
         25    1    1    2    0    0  0.91568883953E+00  0.55656166849E+02  0.17222921471E+03  0.21996897462E+03  0.12500000000E+03 0.  0.
         25    1    1    2    0    0  0.58164824993E+02  0.75866230875E+02  0.33931035444E+03  0.37402586606E+03  0.12500000000E+03 0.  0.
</event>
<event>
 5    0  0.5663008E-005  0.4815282E+03  0.7546771E-02  0.1018716E+00
         21   -1    0    0  502  501  0.00000000000E+00  0.00000000000E+00  0.11419959907E+04  0.11419959907E+04  0.00000000000E+00 0.  1.
         21   -1    0    0  501  502 -0.00000000000E+00 -0.00000000000E+00 -0.20303871033E+03  0.20303871033E+03  0.00000000000E+00 0.  1.
         25    1    1    2    0    0 -0.62825625547E+02  0.10859155146E+03  0.90988779804E+03  0.92696277665E+03  0.12500000000E+03 0.  0.
         25    1    1    2    0    0 -0.10424976929E+03 -0.63255249691E+02 -0.62859346052E+02  0.18559509260E+03  0.12500000000E+03 0.  0.
         25    1    1    2    0    0  0.16707539484E+03 -0.45336301770E+02  0.91928828368E+02  0.23247683176E+03  0.12500000000E+03 0.  0.
</event>
<event>
 5    0  0.8374292E-005  0.6973561E+03  0.7546771E-02  0.9721764E-01
         21   -1    0    0  502  501  0.00000000000E+00  0.00000000000E+00  0.36936166073E+03  0.36936166073E+03  0.00000000000E+00 0.  1.
         21   -1    0    0  501  502 -0.00000000000E+00 -0.00000000000E+00 -0.13166107817E+04  0.13166107817E+04  0.00000000000E+00 0.  1.
         25    1    1    2    0    0 -0.18021503888E+03 -0.31912445272E+03 -0.54805781931E+03  0.67105160001E+03  0.12500000000E+03 0.  0.
         25    1    1    2    0    0 -0.21322530619E+03  0.16353153537E+03  0.13198779580E+03  0.32442776161E+03  0.12500000000E+03 0.  0.
         25    1    1    2    0    0  0.39344034508E+03  0.15559291735E+03 -0.53117909741E+03  0.69049308077E+03  0.12500000000E+03 0.  0.
</event>
<event>
 5    0  0.5663008E-005  0.2628979E+03  0.7546771E-02  0.1105415E+00
         21   -1    0    0  502  501  0.00000000000E+00  0.00000000000E+00  0.22506868264E+03  0.22506868264E+03  0.00000000000E+00 0. -1.
         21   -1    0    0  501  502 -0.00000000000E+00 -0.00000000000E+00 -0.30708536872E+03  0.30708536872E+03  0.00000000000E+00 0. -1.
         25    1    1    2    0    0 -0.60976969346E+02 -0.23799661209E+02 -0.12473864821E+03  0.18833306938E+03  0.12500000000E+03 0.  0.
         25    1    1    2    0    0  0.92571807723E+02 -0.55310458418E+02 -0.42133546888E+02  0.17037905437E+03  0.12500000000E+03 0.  0.
         25    1    1    2    0    0 -0.31594838377E+02  0.79110119628E+02  0.84855509022E+02  0.17344192760E+03  0.12500000000E+03 0.  0.
</event>
<event>
 5    0  0.5663008E-005  0.2769895E+03  0.7546771E-02  0.1097345E+00
         21   -1    0    0  502  501  0.00000000000E+00  0.00000000000E+00  0.10593962911E+04  0.10593962911E+04  0.00000000000E+00 0.  1.
         21   -1    0    0  501  502 -0.00000000000E+00 -0.00000000000E+00 -0.72421595576E+02  0.72421595576E+02  0.00000000000E+00 0.  1.
         25    1    1    2    0    0  0.35345216609E+02 -0.13594010428E+03  0.48619990902E+03  0.52129103946E+03  0.12500000000E+03 0.  0.
         25    1    1    2    0    0  0.25443593480E+00  0.10324549282E+03  0.42875100154E+03  0.45837988377E+03  0.12500000000E+03 0.  0.
         25    1    1    2    0    0 -0.35599652544E+02  0.32694611456E+02  0.72023784933E+02  0.15214696341E+03  0.12500000000E+03 0.  0.
</event>
<event>
 5    0  0.5663008E-005  0.3392169E+03  0.7546771E-02  0.1067130E+00
         21   -1    0    0  502  501  0.00000000000E+00  0.00000000000E+00  0.37058466405E+03  0.37058466405E+03  0.00000000000E+00 0. -1.
         21   -1    0    0  501  502 -0.00000000000E+00 -0.00000000000E+00 -0.31050414899E+03  0.31050414899E+03  0.00000000000E+00 0. -1.
         25    1    1    2    0    0 -0.11463337044E+03 -0.24453952608E+02  0.25636479674E+03  0.30836133743E+03  0.12500000000E+03 0.  0.
         25    1    1    2    0    0  0.68185581212E+02 -0.56631794444E+02 -0.13773023326E+03  0.20603652779E+03  0.12500000000E+03 0.  0.
         25    1    1    2    0    0  0.46447789224E+02  0.81085747051E+02 -0.58554048419E+02  0.16669094782E+03  0.12500000000E+03 0.  0.
</event>
<event>
 5    0  0.5663008E-005  0.4908612E+03  0.7546771E-02  0.1016192E+00
         21   -1    0    0  502  501  0.00000000000E+00  0.00000000000E+00  0.65327276344E+03  0.65327276344E+03  0.00000000000E+00 0. -1.
         21   -1    0    0  501  502 -0.00000000000E+00 -0.00000000000E+00 -0.36882720134E+03  0.36882720134E+03  0.00000000000E+00 0. -1.
         25    1    1    2    0    0 -0.17281895064E+03 -0.13862006020E+02 -0.63173066037E+01  0.21383043113E+03  0.12500000000E+03 0.  0.
         25    1    1    2    0    0 -0.88803254069E+02  0.39640751679E+02  0.44958678516E+03  0.47666621919E+03  0.12500000000E+03 0.  0.
         25    1    1    2    0    0  0.26162220471E+03 -0.25778745660E+02 -0.15882391645E+03  0.33160331447E+03  0.12500000000E+03 0.  0.
</event>
<event>
 5    0  0.5663008E-005  0.4196743E+03  0.7546771E-02  0.1037172E+00
         21   -1    0    0  502  501  0.00000000000E+00  0.00000000000E+00  0.29719938206E+03  0.29719938206E+03  0.00000000000E+00 0. -1.
         21   -1    0    0  501  502 -0.00000000000E+00 -0.00000000000E+00 -0.59262061187E+03  0.59262061187E+03  0.00000000000E+00 0. -1.
         25    1    1    2    0    0 -0.42303420181E+02  0.12465588079E+03 -0.35760209529E+03  0.40103980667E+03  0.12500000000E+03 0.  0.
         25    1    1    2    0    0 -0.13621177965E+03 -0.63520276156E+02  0.14958575053E+03  0.24614908320E+03  0.12500000000E+03 0.  0.
         25    1    1    2    0    0  0.17851519983E+03 -0.61135604638E+02 -0.87404885054E+02  0.24263110406E+03  0.12500000000E+03 0.  0.
</event>
<event>
 5    0  0.5663008E-005  0.3752625E+03  0.7546771E-02  0.1052699E+00
         21   -1    0    0  502  501  0.00000000000E+00  0.00000000000E+00  0.32963729579E+03  0.32963729579E+03  0.00000000000E+00 0.  1.
         21   -1    0    0  501  502 -0.00000000000E+00 -0.00000000000E+00 -0.42720280371E+03  0.42720280371E+03  0.00000000000E+00 0.  1.
         25    1    1    2    0    0  0.97661139931E+02  0.14323655383E+03  0.17157857987E+03  0.27407775845E+03  0.12500000000E+03 0.  0.
         25    1    1    2    0    0 -0.80781730029E+02 -0.11930258193E+03 -0.29548460073E+03  0.35170291900E+03  0.12500000000E+03 0.  0.
         25    1    1    2    0    0 -0.16879409902E+02 -0.23933971890E+02  0.26340512937E+02  0.13105942206E+03  0.12500000000E+03 0.  0.
</event>
<event>
 5    0  0.5663008E-005  0.3353233E+03  0.7546771E-02  0.1068805E+00
         21   -1    0    0  502  501  0.00000000000E+00  0.00000000000E+00  0.88284828831E+03  0.88284828831E+03  0.00000000000E+00 0.  1.
         21   -1    0    0  501  502 -0.00000000000E+00 -0.00000000000E+00 -0.12736241755E+03  0.12736241755E+03  0.00000000000E+00 0.  1.
         25    1    1    2    0    0  0.40705720283E+02 -0.52767474221E+02  0.15275349331E+03  0.20832664668E+03  0.12500000000E+03 0.  0.
         25    1    1    2    0    0 -0.89808725476E+02  0.17922432985E+03  0.56664687567E+03  0.61392234793E+03  0.12500000000E+03 0.  0.
         25    1    1    2    0    0  0.49103005193E+02 -0.12645685563E+03  0.36085501781E+02  0.18796171124E+03  0.12500000000E+03 0.  0.
</event>
<event>
 5    0  0.5663008E-005  0.3174185E+03  0.7546771E-02  0.1076844E+00
         21   -1    0    0  502  501  0.00000000000E+00  0.00000000000E+00  0.15093982397E+03  0.15093982397E+03  0.00000000000E+00 0. -1.
         21   -1    0    0  501  502 -0.00000000000E+00 -0.00000000000E+00 -0.66751448998E+03  0.66751448998E+03  0.00000000000E+00 0. -1.
         25    1    1    2    0    0  0.11398303523E+03  0.17114487239E+02 -0.80305609176E+02  0.18803996612E+03  0.12500000000E+03 0.  0.
         25    1    1    2    0    0 -0.16451429834E+03  0.12087779845E+03 -0.33723097765E+03  0.41355305440E+03  0.12500000000E+03 0.  0.
         25    1    1    2    0    0  0.50531263113E+02 -0.13799228569E+03 -0.99038079179E+02  0.21686129343E+03  0.12500000000E+03 0.  0.
</event>
<event>
 5    0  0.5663008E-005  0.3813183E+03  0.7546771E-02  0.1050448E+00
         21   -1    0    0  502  501  0.00000000000E+00  0.00000000000E+00  0.25381750656E+03  0.25381750656E+03  0.00000000000E+00 0.  1.
         21   -1    0    0  501  502 -0.00000000000E+00 -0.00000000000E+00 -0.57286686259E+03  0.57286686259E+03  0.00000000000E+00 0.  1.
         25    1    1    2    0    0  0.12908849395E+03  0.14435664606E+03 -0.19097512245E+03  0.29933121776E+03  0.12500000000E+03 0.  0.
         25    1    1    2    0    0 -0.16436719005E+03 -0.38332516957E+02 -0.24518385906E+03  0.32284064143E+03  0.12500000000E+03 0.  0.
         25    1    1    2    0    0  0.35278696096E+02 -0.10602412911E+03  0.11710962547E+03  0.20451250996E+03  0.12500000000E+03 0.  0.
</event>
<event>
 5    0  0.5663008E-005  0.2827998E+03  0.7546771E-02  0.1094170E+00
         21   -1    0    0  502  501  0.00000000000E+00  0.00000000000E+00  0.76330185717E+02  0.76330185717E+02  0.00000000000E+00 0.  1.
         21   -1    0    0  501  502 -0.00000000000E+00 -0.00000000000E+00 -0.10477598597E+04  0.10477598597E+04  0.00000000000E+00 0.  1.
         25    1    1    2    0    0 -0.89118201108E+02 -0.11439334752E+03 -0.31802858598E+03  0.37120758778E+03  0.12500000000E+03 0.  0.
         25    1    1    2    0    0  0.30372560163E+02  0.12065418599E+03 -0.15219097852E+03  0.23295282559E+03  0.12500000000E+03 0.  0.
         25    1    1    2    0    0  0.58745640945E+02 -0.62608384778E+01 -0.50121010944E+03  0.51992963200E+03  0.12500000000E+03 0.  0.
</event>
<event>
 5    0  0.5663008E-005  0.2329724E+03  0.7546771E-02  0.1124565E+00
         21   -1    0    0  502  501  0.00000000000E+00  0.00000000000E+00  0.22734466642E+03  0.22734466642E+03  0.00000000000E+00 0.  1.
         21   -1    0    0  501  502 -0.00000000000E+00 -0.00000000000E+00 -0.23873953342E+03  0.23873953342E+03  0.00000000000E+00 0.  1.
         25    1    1    2    0    0 -0.22035981066E+02 -0.70923282525E+02  0.20757624936E+02  0.14687265048E+03  0.12500000000E+03 0.  0.
         25    1    1    2    0    0  0.38659184241E+02  0.61479445571E+02  0.66210029177E+02  0.15900636062E+03  0.12500000000E+03 0.  0.
         25    1    1    2    0    0 -0.16623203175E+02  0.94438369547E+01 -0.98362521117E+02  0.16020518874E+03  0.12500000000E+03 0.  0.
</event>
<event>
 5    0  0.5663008E-005  0.3220666E+03  0.7546771E-02  0.1074702E+00
         21   -1    0    0  502  501  0.00000000000E+00  0.00000000000E+00  0.79225668342E+03  0.79225668342E+03  0.00000000000E+00 0.  1.
         21   -1    0    0  501  502 -0.00000000000E+00 -0.00000000000E+00 -0.13092587404E+03  0.13092587404E+03  0.00000000000E+00 0. -1.
         25    1    1    2    0    0 -0.19499905521E+03  0.71643371469E+01  0.45833704144E+03  0.51358913814E+03  0.12500000000E+03 0.  0.
         25    1    1    2    0    0  0.40223116446E+01 -0.22055582954E+02  0.70129137441E+02  0.14507144326E+03  0.12500000000E+03 0.  0.
         25    1    1    2    0    0  0.19097674356E+03  0.14891245808E+02  0.13286463051E+03  0.26452197607E+03  0.12500000000E+03 0.  0.
</event>
<event>
 5    0  0.5663008E-005  0.3317336E+03  0.7546771E-02  0.1070372E+00
         21   -1    0    0  502  501  0.00000000000E+00  0.00000000000E+00  0.13750393183E+04  0.13750393183E+04  0.00000000000E+00 0.  1.
         21   -1    0    0  501  502 -0.00000000000E+00 -0.00000000000E+00 -0.80032013831E+02  0.80032013831E+02  0.00000000000E+00 0.  1.
         25    1    1    2    0    0 -0.11176535536E+02  0.10315094657E+03  0.46799358751E+03  0.49538674858E+03  0.12500000000E+03 0.  0.
         25    1    1    2    0    0  0.27724651208E+02 -0.18033138863E+03  0.15124294425E+03  0.26793188350E+03  0.12500000000E+03 0.  0.
         25    1    1    2    0    0 -0.16548115672E+02  0.77180442065E+02  0.67577077273E+03  0.69175270006E+03  0.12500000000E+03 0.  0.
</event>
<event>
 5    0  0.5663008E-005  0.3242339E+03  0.7546771E-02  0.1073717E+00
         21   -1    0    0  502  501  0.00000000000E+00  0.00000000000E+00  0.59117333620E+03  0.59117333620E+03  0.00000000000E+00 0.  1.
         21   -1    0    0  501  502 -0.00000000000E+00 -0.00000000000E+00 -0.17782880425E+03  0.17782880425E+03  0.00000000000E+00 0.  1.
         25    1    1    2    0    0 -0.53205985388E+02  0.13515328552E+03  0.35838598050E+03  0.40640226191E+03  0.12500000000E+03 0.  0.
         25    1    1    2    0    0  0.23048122005E+02 -0.83803648745E+02  0.13430124812E+03  0.20301746900E+03  0.12500000000E+03 0.  0.
         25    1    1    2    0    0  0.30157863384E+02 -0.51349636773E+02 -0.79342696671E+02  0.15958240954E+03  0.12500000000E+03 0.  0.
</event>
<event>
 5    0  0.5663008E-005  0.2474617E+03  0.7546771E-02  0.1114920E+00
         21   -1    0    0  502  501  0.00000000000E+00  0.00000000000E+00  0.19727169477E+03  0.19727169477E+03  0.00000000000E+00 0. -1.
         21   -1    0    0  501  502 -0.00000000000E+00 -0.00000000000E+00 -0.31042115170E+03  0.31042115170E+03  0.00000000000E+00 0. -1.
         25    1    1    2    0    0 -0.10907500735E+03  0.79243423834E+02 -0.27851319447E+02  0.18595045965E+03  0.12500000000E+03 0.  0.
         25    1    1    2    0    0  0.34082985618E+01 -0.40977359746E+02 -0.79106396784E+02  0.15353690932E+03  0.12500000000E+03 0.  0.
         25    1    1    2    0    0  0.10566670879E+03 -0.38266064089E+02 -0.61917406981E+01  0.16820547750E+03  0.12500000000E+03 0.  0.
</event>
<event>
 5    0  0.5663008E-005  0.3888110E+03  0.7546771E-02  0.1047724E+00
         21   -1    0    0  502  501  0.00000000000E+00  0.00000000000E+00  0.30820125059E+03  0.30820125059E+03  0.00000000000E+00 0.  1.
         21   -1    0    0  501  502 -0.00000000000E+00 -0.00000000000E+00 -0.49050421020E+03  0.49050421020E+03  0.00000000000E+00 0.  1.
         25    1    1    2    0    0 -0.15665122783E+03  0.78859476772E+02  0.12231627433E+03  0.24767861277E+03  0.12500000000E+03 0.  0.
         25    1    1    2    0    0 -0.30612931818E+02 -0.39855424628E+02  0.37289905347E+02  0.13978964020E+03  0.12500000000E+03 0.  0.
         25    1    1    2    0    0  0.18726415964E+03 -0.39004052144E+02 -0.34190913928E+03  0.41123720782E+03  0.12500000000E+03 0.  0.
</event>
<event>
 5    0  0.5663008E-005  0.2723723E+03  0.7546771E-02  0.1099929E+00
         21   -1    0    0  502  501  0.00000000000E+00  0.00000000000E+00  0.33117147550E+03  0.33117147550E+03  0.00000000000E+00 0.  1.
         21   -1    0    0  501  502 -0.00000000000E+00 -0.00000000000E+00 -0.22401290186E+03  0.22401290186E+03  0.00000000000E+00 0.  1.
         25    1    1    2    0    0 -0.12901425030E+03 -0.30576451979E+02  0.17551361988E+03  0.25300123905E+03  0.12500000000E+03 0.  0.
         25    1    1    2    0    0  0.34291878739E+02 -0.10347518799E+02 -0.48948980401E+02  0.13893885985E+03  0.12500000000E+03 0.  0.
         25    1    1    2    0    0  0.94722371561E+02  0.40923970777E+02 -0.19406065838E+02  0.16324427846E+03  0.12500000000E+03 0.  0.
</event>
<event>
 5    0  0.5758169E-005  0.5287959E+03  0.7546771E-02  0.1006525E+00
         21   -1    0    0  502  501  0.00000000000E+00  0.00000000000E+00  0.13448881283E+03  0.13448881283E+03  0.00000000000E+00 0.  1.
         21   -1    0    0  501  502 -0.00000000000E+00 -0.00000000000E+00 -0.20791703722E+04  0.20791703722E+04  0.00000000000E+00 0.  1.
         25    1    1    2    0    0 -0.19583706906E+03  0.28009504310E+03 -0.98428853054E+03  0.10494066429E+04  0.12500000000E+03 0.  0.
         25    1    1    2    0    0  0.26811470207E+03 -0.14882900769E+03 -0.90153312586E+03  0.96042831279E+03  0.12500000000E+03 0.  0.
         25    1    1    2    0    0 -0.72277633006E+02 -0.13126603541E+03 -0.58859902948E+02  0.20382422933E+03  0.12500000000E+03 0.  0.
</event>
<event>
 5    0  0.5663008E-005  0.2593323E+03  0.7546771E-02  0.1107545E+00
         21   -1    0    0  502  501  0.00000000000E+00  0.00000000000E+00  0.15435913237E+03  0.15435913237E+03  0.00000000000E+00 0. -1.
         21   -1    0    0  501  502 -0.00000000000E+00 -0.00000000000E+00 -0.43569317094E+03  0.43569317094E+03  0.00000000000E+00 0. -1.
         25    1    1    2    0    0  0.10250335599E+03 -0.85762681306E+02 -0.22124321237E+03  0.28711623868E+03  0.12500000000E+03 0.  0.
         25    1    1    2    0    0 -0.14717781969E+02  0.32701165877E+02  0.10961987233E+01  0.13004684159E+03  0.12500000000E+03 0.  0.
         25    1    1    2    0    0 -0.87785574019E+02  0.53061515429E+02 -0.61187024925E+02  0.17288922304E+03  0.12500000000E+03 0.  0.
</event>
<event>
 5    0  0.5663008E-005  0.2680177E+03  0.7546771E-02  0.1102419E+00
         21   -1    0    0  502  501  0.00000000000E+00  0.00000000000E+00  0.19660784869E+04  0.19660784869E+04  0.00000000000E+00 0.  1.
         21   -1    0    0  501  502 -0.00000000000E+00 -0.00000000000E+00 -0.36536441376E+02  0.36536441376E+02  0.00000000000E+00 0.  1.
         25    1    1    2    0    0 -0.12011234173E+03  0.41457666076E+01  0.69642366635E+03  0.71768731706E+03  0.12500000000E+03 0.  0.
         25    1    1    2    0    0  0.17453595820E+03  0.22290628413E+02  0.62719393957E+03  0.66329247746E+03  0.12500000000E+03 0.  0.
         25    1    1    2    0    0 -0.54423616475E+02 -0.26436395021E+02  0.60592443961E+03  0.62163513377E+03  0.12500000000E+03 0.  0.
</event>
<event>
 5    0  0.5663008E-005  0.3264745E+03  0.7546771E-02  0.1072708E+00
         21   -1    0    0  502  501  0.00000000000E+00  0.00000000000E+00  0.78302830845E+02  0.78302830845E+02  0.00000000000E+00 0.  1.
         21   -1    0    0  501  502 -0.00000000000E+00 -0.00000000000E+00 -0.13611970988E+04  0.13611970988E+04  0.00000000000E+00 0.  1.
         25    1    1    2    0    0 -0.68058269303E+01 -0.26169887382E+02 -0.21500160629E+03  0.25016369239E+03  0.12500000000E+03 0.  0.
         25    1    1    2    0    0 -0.95160539598E+01  0.22206474608E+03 -0.77028928465E+03  0.81140242099E+03  0.12500000000E+03 0.  0.
         25    1    1    2    0    0  0.16321880890E+02 -0.19589485870E+03 -0.29760337700E+03  0.37793381625E+03  0.12500000000E+03 0.  0.
</event>
<event>
 5    0  0.5663008E-005  0.2076438E+03  0.7546771E-02  0.1143446E+00
         21   -1    0    0  502  501  0.00000000000E+00  0.00000000000E+00  0.51386978789E+02  0.51386978789E+02  0.00000000000E+00 0. -1.
         21   -1    0    0  501  502 -0.00000000000E+00 -0.00000000000E+00 -0.83904420463E+03  0.83904420463E+03  0.00000000000E+00 0. -1.
         25    1    1    2    0    0  0.19154999060E+02  0.25177809558E+02 -0.23259879081E+03  0.26594742633E+03  0.12500000000E+03 0.  0.
         25    1    1    2    0    0 -0.32858355987E+02  0.44707056795E+02 -0.20964662761E+03  0.25031000969E+03  0.12500000000E+03 0.  0.
         25    1    1    2    0    0  0.13703356927E+02 -0.69884866353E+02 -0.34541180742E+03  0.37417374739E+03  0.12500000000E+03 0.  0.
</event>
<event>
 5    0  0.5663008E-005  0.3334005E+03  0.7546771E-02  0.1069642E+00
         21   -1    0    0  502  501  0.00000000000E+00  0.00000000000E+00  0.42036509359E+02  0.42036509359E+02  0.00000000000E+00 0.  1.
         21   -1    0    0  501  502 -0.00000000000E+00 -0.00000000000E+00 -0.26442706450E+04  0.26442706450E+04  0.00000000000E+00 0.  1.
         25    1    1    2    0    0 -0.14764336165E+02 -0.75663008471E+02 -0.17583550002E+04  0.17644773116E+04  0.12500000000E+03 0.  0.
         25    1    1    2    0    0  0.87708646932E+02  0.14000285081E+03 -0.39861911749E+03  0.44923914101E+03  0.12500000000E+03 0.  0.
         25    1    1    2    0    0 -0.72944310767E+02 -0.64339842342E+02 -0.44526001797E+03  0.47259070176E+03  0.12500000000E+03 0.  0.
</event>
<event>
 5    0  0.5663008E-005  0.3096320E+03  0.7546771E-02  0.1080522E+00
         21   -1    0    0  502  501  0.00000000000E+00  0.00000000000E+00  0.11929136644E+03  0.11929136644E+03  0.00000000000E+00 0.  1.
         21   -1    0    0  501  502 -0.00000000000E+00 -0.00000000000E+00 -0.80367899598E+03  0.80367899598E+03  0.00000000000E+00 0.  1.
         25    1    1    2    0    0  0.13847815328E+03  0.10185009370E+03 -0.73822019268E+02  0.22499851344E+03  0.12500000000E+03 0.  0.
         25    1    1    2    0    0 -0.15429166325E+02 -0.97531465909E+02 -0.24124976875E+03  0.28909669133E+03  0.12500000000E+03 0.  0.
         25    1    1    2    0    0 -0.12304898696E+03 -0.43186277899E+01 -0.36931584153E+03  0.40887515765E+03  0.12500000000E+03 0.  0.
</event>
<event>
 5    0  0.5663008E-005  0.3378386E+03  0.7546771E-02  0.1067720E+00
         21   -1    0    0  502  501  0.00000000000E+00  0.00000000000E+00  0.38601029681E+03  0.38601029681E+03  0.00000000000E+00 0.  1.
         21   -1    0    0  501  502 -0.00000000000E+00 -0.00000000000E+00 -0.29567848257E+03  0.29567848257E+03  0.00000000000E+00 0.  1.
         25    1    1    2    0    0  0.19582602353E+03  0.29342416612E+02  0.28585973355E+02  0.23590457133E+03  0.12500000000E+03 0.  0.
         25    1    1    2    0    0  0.24306306144E+02 -0.10765921054E+03  0.69573446228E+02  0.18068416243E+03  0.12500000000E+03 0.  0.
         25    1    1    2    0    0 -0.22013232967E+03  0.78316793931E+02 -0.78276053360E+01  0.26510004561E+03  0.12500000000E+03 0.  0.
</event>
<event>
 5    0  0.6268021E-005  0.3457606E+03  0.7546771E-02  0.1064369E+00
         21   -1    0    0  502  501  0.00000000000E+00  0.00000000000E+00  0.38432361435E+03  0.38432361435E+03  0.00000000000E+00 0. -1.
         21   -1    0    0  501  502 -0.00000000000E+00 -0.00000000000E+00 -0.31106698565E+03  0.31106698565E+03  0.00000000000E+00 0. -1.
         25    1    1    2    0    0 -0.94083017899E+02  0.12723843542E+03 -0.79871890944E+02  0.21690032888E+03  0.12500000000E+03 0.  0.
         25    1    1    2    0    0  0.70052937630E+02 -0.89543560746E+02 -0.97350360818E+02  0.19500655397E+03  0.12500000000E+03 0.  0.
         25    1    1    2    0    0  0.24030080270E+02 -0.37694874674E+02  0.25047888046E+03  0.28348371715E+03  0.12500000000E+03 0.  0.
</event>
<event>
 5    0  0.5663008E-005  0.2354187E+03  0.7546771E-02  0.1122883E+00
         21   -1    0    0  502  501  0.00000000000E+00  0.00000000000E+00  0.62782571406E+03  0.62782571406E+03  0.00000000000E+00 0.  1.
         21   -1    0    0  501  502 -0.00000000000E+00 -0.00000000000E+00 -0.88276059627E+02  0.88276059627E+02  0.00000000000E+00 0.  1.
         25    1    1    2    0    0  0.95224153940E+01  0.69731282401E+02  0.12934798710E+03  0.19315545529E+03  0.12500000000E+03 0.  0.
         25    1    1    2    0    0  0.11544403999E+01  0.57081354598E+02  0.12071111305E+03  0.18290923046E+03  0.12500000000E+03 0.  0.
         25    1    1    2    0    0 -0.10676855794E+02 -0.12681263700E+03  0.28949055429E+03  0.34003708794E+03  0.12500000000E+03 0.  0.
</event>
<event>
 5    0  0.5663008E-005  0.2489218E+03  0.7546771E-02  0.1113988E+00
         21   -1    0    0  502  501  0.00000000000E+00  0.00000000000E+00  0.63036457654E+03  0.63036457654E+03  0.00000000000E+00 0. -1.
         21   -1    0    0  501  502 -0.00000000000E+00 -0.00000000000E+00 -0.98295606928E+02  0.98295606928E+02  0.00000000000E+00 0. -1.
         25    1    1    2    0    0 -0.38017698745E+02 -0.31251132086E+02  0.98664592401E+02  0.16667837433E+03  0.12500000000E+03 0.  0.
         25    1    1    2    0    0  0.11720362062E+03 -0.62635671400E+02  0.21574146670E+03  0.28254078727E+03  0.12500000000E+03 0.  0.
         25    1    1    2    0    0 -0.79185921873E+02  0.93886803487E+02  0.21766291051E+03  0.27944102187E+03  0.12500000000E+03 0.  0.
</event>
<event>
 5    0  0.5663008E-005  0.3911089E+03  0.7546771E-02  0.1046903E+00
         21   -1    0    0  502  501  0.00000000000E+00  0.00000000000E+00  0.18729091323E+03  0.18729091323E+03  0.00000000000E+00 0.  1.
         21   -1    0    0  501  502 -0.00000000000E+00 -0.00000000000E+00 -0.81673044156E+03  0.81673044156E+03  0.00000000000E+00 0.  1.
         25    1    1    2    0    0  0.29961329219E+02 -0.17485279387E+03 -0.47594436342E+03  0.52308624322E+03  0.12500000000E+03 0.  0.
         25    1    1    2    0    0 -0.13550257170E+03  0.10933857447E+03  0.41271366211E+02  0.21827550589E+03  0.12500000000E+03 0.  0.
         25    1    1    2    0    0  0.10554124248E+03  0.65514219405E+02 -0.19476653111E+03  0.26265960567E+03  0.12500000000E+03 0.  0.
</event>
<event>
 5    0  0.5663008E-005  0.4057042E+03  0.7546771E-02  0.1041822E+00
         21   -1    0    0  502  501  0.00000000000E+00  0.00000000000E+00  0.15999856462E+03  0.15999856462E+03  0.00000000000E+00 0. -1.
         21   -1    0    0  501  502 -0.00000000000E+00 -0.00000000000E+00 -0.10287334162E+04  0.10287334162E+04  0.00000000000E+00 0. -1.
         25    1    1    2    0    0 -0.12371937047E+03  0.10985824447E+03 -0.10381819770E+03  0.23190199370E+03  0.12500000000E+03 0.  0.
         25    1    1    2    0    0  0.14451539294E+03  0.99387007520E+02 -0.65340800582E+03  0.68798946077E+03  0.12500000000E+03 0.  0.
         25    1    1    2    0    0 -0.20796022469E+02 -0.20924525199E+03 -0.11150864810E+03  0.26884052639E+03  0.12500000000E+03 0.  0.
</event>
<event>
 5    0  0.5663008E-005  0.2852752E+03  0.7546771E-02  0.1092842E+00
         21   -1    0    0  502  501  0.00000000000E+00  0.00000000000E+00  0.10110112995E+03  0.10110112995E+03  0.00000000000E+00 0.  1.
         21   -1    0    0  501  502 -0.00000000000E+00 -0.00000000000E+00 -0.80495587191E+03  0.80495587191E+03  0.00000000000E+00 0.  1.
         25    1    1    2    0    0 -0.15174680403E+03  0.51240819668E+02 -0.44530124039E+03  0.48945981329E+03  0.12500000000E+03 0.  0.
         25    1    1    2    0    0  0.16021750360E+02 -0.43815978654E+02 -0.15633277883E+03  0.20552730769E+03  0.12500000000E+03 0.  0.
         25    1    1    2    0    0  0.13572505367E+03 -0.74248410137E+01 -0.10222072275E+03  0.21106988089E+03  0.12500000000E+03 0.  0.
</event>
<event>
 5    0  0.5663008E-005  0.2540877E+03  0.7546771E-02  0.1110748E+00
         21   -1    0    0  502  501  0.00000000000E+00  0.00000000000E+00  0.27436010191E+03  0.27436010191E+03  0.00000000000E+00 0. -1.
         21   -1    0    0  501  502 -0.00000000000E+00 -0.00000000000E+00 -0.23531328284E+03  0.23531328284E+03  0.00000000000E+00 0. -1.
         25    1    1    2    0    0 -0.31200506374E+02 -0.70836064276E+02 -0.32475162759E+02  0.15056844223E+03  0.12500000000E+03 0.  0.
         25    1    1    2    0    0  0.92195824641E+02 -0.51091482318E+02  0.58587267490E+02  0.17368902544E+03  0.12500000000E+03 0.  0.
         25    1    1    2    0    0 -0.60995318267E+02  0.12192754659E+03  0.12934714336E+02  0.18541591707E+03  0.12500000000E+03 0.  0.
</event>
<event>
 5    0  0.5663008E-005  0.3484308E+03  0.7546771E-02  0.1063261E+00
         21   -1    0    0  502  501  0.00000000000E+00  0.00000000000E+00  0.46432468318E+03  0.46432468318E+03  0.00000000000E+00 0. -1.
         21   -1    0    0  501  502 -0.00000000000E+00 -0.00000000000E+00 -0.26146367216E+03  0.26146367216E+03  0.00000000000E+00 0. -1.
         25    1    1    2    0    0  0.37358742760E+02 -0.20180882097E+03  0.12166444316E+03  0.26935053854E+03  0.12500000000E+03 0.  0.
         25    1    1    2    0    0  0.11810336174E+03  0.28301117339E+02  0.80687630942E+02  0.19205429202E+03  0.12500000000E+03 0.  0.
         25    1    1    2    0    0 -0.15546210450E+03  0.17350770363E+03  0.50893691107E+00  0.26438352477E+03  0.12500000000E+03 0.  0.
</event>
<event>
 5    0  0.5663008E-005  0.2988419E+03  0.7546771E-02  0.1085821E+00
         21   -1    0    0  502  501  0.00000000000E+00  0.00000000000E+00  0.10519651047E+04  0.10519651047E+04  0.00000000000E+00 0. -1.
         21   -1    0    0  501  502 -0.00000000000E+00 -0.00000000000E+00 -0.84894893999E+02  0.84894893999E+02  0.00000000000E+00 0. -1.
         25    1    1    2    0    0 -0.52234909602E+02 -0.22923597489E+01  0.50952307708E+03  0.52723098047E+03  0.12500000000E+03 0.  0.
         25    1    1    2    0    0 -0.97544809924E+02 -0.88872045717E+02  0.15879336557E+03  0.24135774983E+03  0.12500000000E+03 0.  0.
         25    1    1    2    0    0  0.14977971953E+03  0.91164405466E+02  0.29875376807E+03  0.36827126842E+03  0.12500000000E+03 0.  0.
</event>
<event>
 5    0  0.5663008E-005  0.2930226E+03  0.7546771E-02  0.1088782E+00
         21   -1    0    0  502  501  0.00000000000E+00  0.00000000000E+00  0.12397177379E+04  0.12397177379E+04  0.00000000000E+00 0. -1.
         21   -1    0    0  501  502 -0.00000000000E+00 -0.00000000000E+00 -0.69259493889E+02  0.69259493889E+02  0.00000000000E+00 0. -1.
         25    1    1    2    0    0  0.37434914317E+02  0.39118845247E+02  0.39858354205E+03  0.42121906042E+03  0.12500000000E+03 0.  0.
         25    1    1    2    0    0 -0.19059786091E+03 -0.66079591389E+02  0.38010820259E+03  0.44810858356E+03  0.12500000000E+03 0.  0.
         25    1    1    2    0    0  0.15316294659E+03  0.26960746142E+02  0.39176649937E+03  0.43964958782E+03  0.12500000000E+03 0.  0.
</event>
<event>
 5    0  0.5663008E-005  0.3573875E+03  0.7546771E-02  0.1059623E+00
         21   -1    0    0  502  501  0.00000000000E+00  0.00000000000E+00  0.72383371209E+02  0.72383371209E+02  0.00000000000E+00 0. -1.
         21   -1    0    0  501  502 -0.00000000000E+00 -0.00000000000E+00 -0.17645742243E+04  0.17645742243E+04  0.00000000000E+00 0. -1.
         25    1    1    2    0    0 -0.10869664733E+03 -0.20440496115E+03 -0.55770185232E+03  0.61664633735E+03  0.12500000000E+03 0.  0.
         25    1    1    2    0    0  0.94352084282E+01  0.13219909463E+03 -0.94437339650E+03  0.96178570160E+03  0.12500000000E+03 0.  0.
         25    1    1    2    0    0  0.99261438898E+02  0.72205866525E+02 -0.19011560430E+03  0.25852555659E+03  0.12500000000E+03 0.  0.
</event>
<event>
 5    0  0.5663008E-005  0.3006612E+03  0.7546771E-02  0.1084911E+00
         21   -1    0    0  502  501  0.00000000000E+00  0.00000000000E+00  0.16210911833E+03  0.16210911833E+03  0.00000000000E+00 0. -1.
         21   -1    0    0  501  502 -0.00000000000E+00 -0.00000000000E+00 -0.55763138680E+03  0.55763138680E+03  0.00000000000E+00 0. -1.
         25    1    1    2    0    0 -0.11890440269E+02 -0.20456178593E+01 -0.89483816996E+02  0.15420090994E+03  0.12500000000E+03 0.  0.
         25    1    1    2    0    0  0.15959701248E+03  0.38347869144E+02 -0.56639472344E+01  0.20639487823E+03  0.12500000000E+03 0.  0.
         25    1    1    2    0    0 -0.14770657221E+03 -0.36302251285E+02 -0.30037450425E+03  0.35914471696E+03  0.12500000000E+03 0.  0.
</event>
<event>
 5    0  0.6154733E-005  0.2835026E+03  0.7546771E-02  0.1093791E+00
         21   -1    0    0  502  501  0.00000000000E+00  0.00000000000E+00  0.19895030786E+03  0.19895030786E+03  0.00000000000E+00 0. -1.
         21   -1    0    0  501  502 -0.00000000000E+00 -0.00000000000E+00 -0.40398880673E+03  0.40398880673E+03  0.00000000000E+00 0. -1.
         25    1    1    2    0    0  0.14513216906E+02 -0.94912052540E+02  0.15748801193E+02  0.15840440626E+03  0.12500000000E+03 0.  0.
         25    1    1    2    0    0  0.13105974246E+02  0.57634967987E+01  0.47258134187E+02  0.13439983520E+03  0.12500000000E+03 0.  0.
         25    1    1    2    0    0 -0.27619191152E+02  0.89148555741E+02 -0.26804543425E+03  0.31013487313E+03  0.12500000000E+03 0.  0.
</event>
<event>
 5    0  0.5722719E-005  0.2867591E+03  0.7546771E-02  0.1092053E+00
         21   -1    0    0  502  501  0.00000000000E+00  0.00000000000E+00  0.31893788111E+03  0.31893788111E+03  0.00000000000E+00 0. -1.
         21   -1    0    0  501  502 -0.00000000000E+00 -0.00000000000E+00 -0.25782692234E+03  0.25782692234E+03  0.00000000000E+00 0. -1.
         25    1    1    2    0    0  0.12354342575E+03 -0.57616157036E+02  0.11981651730E+03  0.22037149864E+03  0.12500000000E+03 0.  0.
         25    1    1    2    0    0  0.32942271397E+01 -0.28315296649E+01 -0.10433180585E+03  0.16287723968E+03  0.12500000000E+03 0.  0.
         25    1    1    2    0    0 -0.12683765289E+03  0.60447686700E+02  0.45626247331E+02  0.19351606513E+03  0.12500000000E+03 0.  0.
</event>
<event>
 5    0  0.5663008E-005  0.3825559E+03  0.7546771E-02  0.1049993E+00
         21   -1    0    0  502  501  0.00000000000E+00  0.00000000000E+00  0.16443555380E+04  0.16443555380E+04  0.00000000000E+00 0.  1.
         21   -1    0    0  501  502 -0.00000000000E+00 -0.00000000000E+00 -0.89000854596E+02  0.89000854596E+02  0.00000000000E+00 0.  1.
         25    1    1    2    0    0  0.23741083923E+03 -0.12338493449E+03  0.49358571076E+03  0.57518658061E+03  0.12500000000E+03 0.  0.
         25    1    1    2    0    0 -0.81007099529E+02 -0.10079242057E+02  0.74802269306E+03  0.76277564895E+03  0.12500000000E+03 0.  0.
         25    1    1    2    0    0 -0.15640373970E+03  0.13346417654E+03  0.31374627956E+03  0.39539416302E+03  0.12500000000E+03 0.  0.
</event>
<event>
 5    0  0.5663008E-005  0.2278494E+03  0.7546771E-02  0.1128163E+00
         21   -1    0    0  502  501  0.00000000000E+00  0.00000000000E+00  0.49901006504E+02  0.49901006504E+02  0.00000000000E+00 0.  1.
         21   -1    0    0  501  502 -0.00000000000E+00 -0.00000000000E+00 -0.10403664353E+04  0.10403664353E+04  0.00000000000E+00 0.  1.
         25    1    1    2    0    0  0.26455296493E+02 -0.46281599245E+02 -0.24747926856E+03  0.28233465516E+03  0.12500000000E+03 0.  0.
         25    1    1    2    0    0 -0.48995773995E+01  0.63188939928E+02 -0.16753922507E+03  0.21842902720E+03  0.12500000000E+03 0.  0.
         25    1    1    2    0    0 -0.21555719093E+02 -0.16907340683E+02 -0.57544693518E+03  0.58950375945E+03  0.12500000000E+03 0.  0.
</event>
<event>
 5    0  0.5663008E-005  0.2662015E+03  0.7546771E-02  0.1103473E+00
         21   -1    0    0  502  501  0.00000000000E+00  0.00000000000E+00  0.12912904054E+04  0.12912904054E+04  0.00000000000E+00 0. -1.
         21   -1    0    0  501  502 -0.00000000000E+00 -0.00000000000E+00 -0.54877829032E+02  0.54877829032E+02  0.00000000000E+00 0. -1.
         25    1    1    2    0    0  0.10231125146E+03 -0.79857136976E+02  0.27580753419E+03  0.32945341161E+03  0.12500000000E+03 0.  0.
         25    1    1    2    0    0 -0.36203407153E+02  0.85911820031E+02  0.72735126542E+03  0.74387928511E+03  0.12500000000E+03 0.  0.
         25    1    1    2    0    0 -0.66107844307E+02 -0.60546830549E+01  0.23325377672E+03  0.27283553768E+03  0.12500000000E+03 0.  0.
</event>
<event>
 5    0  0.5663008E-005  0.3300626E+03  0.7546771E-02  0.1071109E+00
         21   -1    0    0  502  501  0.00000000000E+00  0.00000000000E+00  0.88914135527E+03  0.88914135527E+03  0.00000000000E+00 0. -1.
         21   -1    0    0  501  502 -0.00000000000E+00 -0.00000000000E+00 -0.12252417530E+03  0.12252417530E+03  0.00000000000E+00 0. -1.
         25    1    1    2    0    0  0.10739985806E+03  0.14949136215E+02  0.13027064325E+03  0.21060305477E+03  0.12500000000E+03 0.  0.
         25    1    1    2    0    0  0.14035901144E+03 -0.52915107848E+02  0.17971846151E+03  0.26537593361E+03  0.12500000000E+03 0.  0.
         25    1    1    2    0    0 -0.24775886950E+03  0.37965971633E+02  0.45662807521E+03  0.53568654220E+03  0.12500000000E+03 0.  0.
</event>
<event>
 5    0  0.5663008E-005  0.2220833E+03  0.7546771E-02  0.1132339E+00
         21   -1    0    0  502  501  0.00000000000E+00  0.00000000000E+00  0.53745108230E+02  0.53745108230E+02  0.00000000000E+00 0.  1.
         21   -1    0    0  501  502 -0.00000000000E+00 -0.00000000000E+00 -0.91768373311E+03  0.91768373311E+03  0.00000000000E+00 0.  1.
         25    1    1    2    0    0  0.20794322578E+02 -0.28102278471E+02 -0.29255732241E+03  0.32005769605E+03  0.12500000000E+03 0.  0.
         25    1    1    2    0    0  0.29064497526E+02 -0.28226879322E+02 -0.42440683218E+03  0.44428331156E+03  0.12500000000E+03 0.  0.
         25    1    1    2    0    0 -0.49858820103E+02  0.56329157793E+02 -0.14697447030E+03  0.20708783373E+03  0.12500000000E+03 0.  0.
</event>
<event>
 5    0  0.5663008E-005  0.3155055E+03  0.7546771E-02  0.1077737E+00
         21   -1    0    0  502  501  0.00000000000E+00  0.00000000000E+00  0.34721182474E+03  0.34721182474E+03  0.00000000000E+00 0. -1.
         21   -1    0    0  501  502 -0.00000000000E+00 -0.00000000000E+00 -0.28669451527E+03  0.28669451527E+03  0.00000000000E+00 0. -1.
         25    1    1    2    0    0  0.75554492302E+01  0.17805042607E+03 -0.44986256395E+02  0.22227865912E+03  0.12500000000E+03 0.  0.
         25    1    1    2    0    0 -0.58301149193E+02 -0.14893320567E+03 -0.44480034785E+02  0.20780663426E+03  0.12500000000E+03 0.  0.
         25    1    1    2    0    0  0.50745699963E+02 -0.29117220397E+02  0.14998360065E+03  0.20382104664E+03  0.12500000000E+03 0.  0.
</event>
<event>
 5    0  0.5694806E-005  0.2842173E+03  0.7546771E-02  0.1093408E+00
         21   -1    0    0  502  501  0.00000000000E+00  0.00000000000E+00  0.16142335823E+03  0.16142335823E+03  0.00000000000E+00 0. -1.
         21   -1    0    0  501  502 -0.00000000000E+00 -0.00000000000E+00 -0.50041996681E+03  0.50041996681E+03  0.00000000000E+00 0. -1.
         25    1    1    2    0    0 -0.80327625315E+02  0.10382683467E+03 -0.11904058826E+03  0.21685986406E+03  0.12500000000E+03 0.  0.
         25    1    1    2    0    0  0.93188968233E+02 -0.17890459342E+03 -0.16307636047E+03  0.28794085624E+03  0.12500000000E+03 0.  0.
         25    1    1    2    0    0 -0.12861342918E+02  0.75077758753E+02 -0.56879659854E+02  0.15704260475E+03  0.12500000000E+03 0.  0.
</event>
<event>
 5    0  0.5663008E-005  0.3139919E+03  0.7546771E-02  0.1078448E+00
         21   -1    0    0  502  501  0.00000000000E+00  0.00000000000E+00  0.53791696198E+02  0.53791696198E+02  0.00000000000E+00 0. -1.
         21   -1    0    0  501  502 -0.00000000000E+00 -0.00000000000E+00 -0.18328277505E+04  0.18328277505E+04  0.00000000000E+00 0.  1.
         25    1    1    2    0    0  0.58840732535E+02  0.20302356022E+03 -0.67448299837E+03  0.71779740380E+03  0.12500000000E+03 0.  0.
         25    1    1    2    0    0  0.15688014480E+02 -0.17508219905E+03 -0.46902410877E+03  0.51624461724E+03  0.12500000000E+03 0.  0.
         25    1    1    2    0    0 -0.74528747015E+02 -0.27941361173E+02 -0.63552894716E+03  0.65257742566E+03  0.12500000000E+03 0.  0.
</event>
<event>
 5    0  0.5663008E-005  0.5188634E+03  0.7546771E-02  0.1008969E+00
         21   -1    0    0  502  501  0.00000000000E+00  0.00000000000E+00  0.16601142476E+03  0.16601142476E+03  0.00000000000E+00 0.  1.
         21   -1    0    0  501  502 -0.00000000000E+00 -0.00000000000E+00 -0.16216909110E+04  0.16216909110E+04  0.00000000000E+00 0.  1.
         25    1    1    2    0    0 -0.55734190199E+02  0.19705442136E+03 -0.86408666714E+01  0.24007584117E+03  0.12500000000E+03 0.  0.
         25    1    1    2    0    0  0.57530213266E+02 -0.29442487897E+03 -0.12659363472E+04  0.13069872111E+04  0.12500000000E+03 0.  0.
         25    1    1    2    0    0 -0.17960230671E+01  0.97370457611E+02 -0.18110227240E+03  0.24063928354E+03  0.12500000000E+03 0.  0.
</event>
<event>
 5    0  0.5663008E-005  0.3350870E+03  0.7546771E-02  0.1068908E+00
         21   -1    0    0  502  501  0.00000000000E+00  0.00000000000E+00  0.87249027599E+02  0.87249027599E+02  0.00000000000E+00 0. -1.
         21   -1    0    0  501  502 -0.00000000000E+00 -0.00000000000E+00 -0.12869292550E+04  0.12869292550E+04  0.00000000000E+00 0. -1.
         25    1    1    2    0    0  0.89645332731E+01  0.36842089572E+02 -0.19798533996E+03  0.23719379684E+03  0.12500000000E+03 0.  0.
         25    1    1    2    0    0  0.89705745049E+02 -0.23486962291E+03 -0.46555322005E+03  0.54366870533E+03  0.12500000000E+03 0.  0.
         25    1    1    2    0    0 -0.98670278322E+02  0.19802753334E+03 -0.53614166735E+03  0.59331578038E+03  0.12500000000E+03 0.  0.
</event>
<event>
 5    0  0.5663008E-005  0.2670799E+03  0.7546771E-02  0.1102963E+00
         21   -1    0    0  502  501  0.00000000000E+00  0.00000000000E+00  0.39617135172E+03  0.39617135172E+03  0.00000000000E+00 0.  1.
         21   -1    0    0  501  502 -0.00000000000E+00 -0.00000000000E+00 -0.18005261936E+03  0.18005261936E+03  0.00000000000E+00 0.  1.
         25    1    1    2    0    0  0.33421834677E+02  0.54428970923E+02 -0.49708408977E+01  0.14046081720E+03  0.12500000000E+03 0.  0.
         25    1    1    2    0    0 -0.10150914942E+03 -0.32251405248E+02 -0.88083947512E+01  0.16445926053E+03  0.12500000000E+03 0.  0.
         25    1    1    2    0    0  0.68087314745E+02 -0.22177565675E+02  0.22989796801E+03  0.27130389334E+03  0.12500000000E+03 0.  0.
</event>
<event>
 5    0  0.5663008E-005  0.7417856E+03  0.7546771E-02  0.9648326E-01
         21   -1    0    0  502  501  0.00000000000E+00  0.00000000000E+00  0.13697340224E+04  0.13697340224E+04  0.00000000000E+00 0.  1.
         21   -1    0    0  501  502 -0.00000000000E+00 -0.00000000000E+00 -0.40171735941E+03  0.40171735941E+03  0.00000000000E+00 0.  1.
         25    1    1    2    0    0  0.25305500556E+03  0.24493210064E+03  0.21512734548E+03  0.43119988931E+03  0.12500000000E+03 0.  0.
         25    1    1    2    0    0 -0.62254236153E+03 -0.13557137563E+03  0.25300804920E+03  0.69683331059E+03  0.12500000000E+03 0.  0.
         25    1    1    2    0    0  0.36948735597E+03 -0.10936072500E+03  0.49988126828E+03  0.64341818188E+03  0.12500000000E+03 0.  0.
</event>
<event>
 5    0  0.5663008E-005  0.3716947E+03  0.7546771E-02  0.1054047E+00
         21   -1    0    0  502  501  0.00000000000E+00  0.00000000000E+00  0.17592232658E+03  0.17592232658E+03  0.00000000000E+00 0. -1.
         21   -1    0    0  501  502 -0.00000000000E+00 -0.00000000000E+00 -0.78532944687E+03  0.78532944687E+03  0.00000000000E+00 0. -1.
         25    1    1    2    0    0  0.40038964022E+02  0.47756583385E+02 -0.43652560562E+03  0.45832675490E+03  0.12500000000E+03 0.  0.
         25    1    1    2    0    0 -0.35228397221E+02  0.22714856481E+02  0.11902442137E+03  0.17761986814E+03  0.12500000000E+03 0.  0.
         25    1    1    2    0    0 -0.48105668013E+01 -0.70471439866E+02 -0.29190593605E+03  0.32530515042E+03  0.12500000000E+03 0.  0.
</event>
<event>
 5    0  0.5663008E-005  0.3266265E+03  0.7546771E-02  0.1072639E+00
         21   -1    0    0  502  501  0.00000000000E+00  0.00000000000E+00  0.55450612078E+02  0.55450612078E+02  0.00000000000E+00 0.  1.
         21   -1    0    0  501  502 -0.00000000000E+00 -0.00000000000E+00 -0.19239624257E+04  0.19239624257E+04  0.00000000000E+00 0.  1.
         25    1    1    2    0    0 -0.20224351192E+03  0.39320922194E+02 -0.42708697289E+03  0.49038439560E+03  0.12500000000E+03 0.  0.
         25    1    1    2    0    0  0.36911025513E+02 -0.92101177819E+02 -0.62402667856E+03  0.64411128411E+03  0.12500000000E+03 0.  0.
         25    1    1    2    0    0  0.16533248641E+03  0.52780255624E+02 -0.81739816219E+03  0.84491735809E+03  0.12500000000E+03 0.  0.
</event>
<event>
 5    0  0.6073622E-005  0.2867350E+03  0.7546771E-02  0.1092066E+00
         21   -1    0    0  502  501  0.00000000000E+00  0.00000000000E+00  0.18775131181E+03  0.18775131181E+03  0.00000000000E+00 0.  1.
         21   -1    0    0  501  502 -0.00000000000E+00 -0.00000000000E+00 -0.43790352652E+03  0.43790352652E+03  0.00000000000E+00 0.  1.
         25    1    1    2    0    0  0.89975566043E+01  0.66910677830E+02  0.52813752938E+02  0.15156611538E+03  0.12500000000E+03 0.  0.
         25    1    1    2    0    0  0.40461354247E+02 -0.56124680600E+02 -0.30758670543E+03  0.33914846648E+03  0.12500000000E+03 0.  0.
         25    1    1    2    0    0 -0.49458910851E+02 -0.10785997230E+02  0.46207377830E+01  0.13494025647E+03  0.12500000000E+03 0.  0.
</event>
<event>
 5    0  0.5663008E-005  0.2785298E+03  0.7546771E-02  0.1096495E+00
         21   -1    0    0  502  501  0.00000000000E+00  0.00000000000E+00  0.38328451132E+03  0.38328451132E+03  0.00000000000E+00 0.  1.
         21   -1    0    0  501  502 -0.00000000000E+00 -0.00000000000E+00 -0.20240537035E+03  0.20240537035E+03  0.00000000000E+00 0.  1.
         25    1    1    2    0    0 -0.46537948852E+02  0.82193028906E+02  0.11312640990E+03  0.19324611070E+03  0.12500000000E+03 0.  0.
         25    1    1    2    0    0 -0.95762744085E+02  0.38036845878E+02  0.34849201950E+02  0.16570084995E+03  0.12500000000E+03 0.  0.
         25    1    1    2    0    0  0.14230069294E+03 -0.12022987478E+03  0.32903529129E+02  0.22674292101E+03  0.12500000000E+03 0.  0.
</event>
<event>
 5    0  0.5663008E-005  0.2154815E+03  0.7546771E-02  0.1137297E+00
         21   -1    0    0  502  501  0.00000000000E+00  0.00000000000E+00  0.60579928699E+02  0.60579928699E+02  0.00000000000E+00 0.  1.
         21   -1    0    0  501  502 -0.00000000000E+00 -0.00000000000E+00 -0.76646303088E+03  0.76646303088E+03  0.00000000000E+00 0.  1.
         25    1    1    2    0    0  0.50467727317E+01  0.85060832507E+02 -0.19642633504E+03  0.24792966792E+03  0.12500000000E+03 0.  0.
         25    1    1    2    0    0  0.21222760962E+02 -0.57989477418E+02 -0.20584781067E+03  0.24861919924E+03  0.12500000000E+03 0.  0.
         25    1    1    2    0    0 -0.26269533694E+02 -0.27071355089E+02 -0.30360895647E+03  0.33049409241E+03  0.12500000000E+03 0.  0.
</event>
<event>
 5    0  0.5663008E-005  0.2942986E+03  0.7546771E-02  0.1088126E+00
         21   -1    0    0  502  501  0.00000000000E+00  0.00000000000E+00  0.89006905406E+02  0.89006905406E+02  0.00000000000E+00 0.  1.
         21   -1    0    0  501  502 -0.00000000000E+00 -0.00000000000E+00 -0.97308947725E+03  0.97308947725E+03  0.00000000000E+00 0.  1.
         25    1    1    2    0    0 -0.68645571019E+02 -0.34459470838E+02 -0.63846744449E+03  0.65510712653E+03  0.12500000000E+03 0.  0.
         25    1    1    2    0    0  0.13832889059E+02 -0.91823740807E+01 -0.23070679563E+03  0.26291879043E+03  0.12500000000E+03 0.  0.
         25    1    1    2    0    0  0.54812681960E+02  0.43641844919E+02 -0.14908331726E+02  0.14407046570E+03  0.12500000000E+03 0.  0.
</event>
<event>
 5    0  0.5663008E-005  0.3267499E+03  0.7546771E-02  0.1072584E+00
         21   -1    0    0  502  501  0.00000000000E+00  0.00000000000E+00  0.72756662447E+03  0.72756662447E+03  0.00000000000E+00 0.  1.
         21   -1    0    0  501  502 -0.00000000000E+00 -0.00000000000E+00 -0.14674323952E+03  0.14674323952E+03  0.00000000000E+00 0.  1.
         25    1    1    2    0    0  0.71931758803E+02  0.11557869849E+03  0.18189164704E+03  0.25931098074E+03  0.12500000000E+03 0.  0.
         25    1    1    2    0    0 -0.16331865568E+03  0.13174124620E+02  0.35251931951E+03  0.40833982353E+03  0.12500000000E+03 0.  0.
         25    1    1    2    0    0  0.91386896880E+02 -0.12875282311E+03  0.46412418411E+02  0.20665905972E+03  0.12500000000E+03 0.  0.
</event>
<event>
 5    0  0.5663008E-005  0.4018140E+03  0.7546771E-02  0.1043153E+00
         21   -1    0    0  502  501  0.00000000000E+00  0.00000000000E+00  0.49151756906E+03  0.49151756906E+03  0.00000000000E+00 0.  1.
         21   -1    0    0  501  502 -0.00000000000E+00 -0.00000000000E+00 -0.32848157294E+03  0.32848157294E+03  0.00000000000E+00 0.  1.
         25    1    1    2    0    0  0.11533312912E+03  0.75691011997E+02  0.50418899106E+02  0.19286763688E+03  0.12500000000E+03 0.  0.
         25    1    1    2    0    0  0.12993331265E+03  0.16999729550E+03  0.52189567627E+02  0.25323999918E+03  0.12500000000E+03 0.  0.
         25    1    1    2    0    0 -0.24526644177E+03 -0.24568830750E+03  0.60427529384E+02  0.37389150593E+03  0.12500000000E+03 0.  0.
</event>
<event>
 5    0  0.5663008E-005  0.2806237E+03  0.7546771E-02  0.1095349E+00
         21   -1    0    0  502  501  0.00000000000E+00  0.00000000000E+00  0.13239291177E+03  0.13239291177E+03  0.00000000000E+00 0. -1.
         21   -1    0    0  501  502 -0.00000000000E+00 -0.00000000000E+00 -0.59481774479E+03  0.59481774479E+03  0.00000000000E+00 0. -1.
         25    1    1    2    0    0 -0.27752021378E+02 -0.14575728619E+03 -0.11463689506E+03  0.22534857195E+03  0.12500000000E+03 0.  0.
         25    1    1    2    0    0  0.11742641529E+01  0.57661001970E+02 -0.31422526508E+03  0.34305784827E+03  0.12500000000E+03 0.  0.
         25    1    1    2    0    0  0.26577757226E+02  0.88096284224E+02 -0.33562672886E+02  0.15880423636E+03  0.12500000000E+03 0.  0.
</event>
<event>
 5    0  0.5889823E-005  0.2775130E+03  0.7546771E-02  0.1097055E+00
         21   -1    0    0  502  501  0.00000000000E+00  0.00000000000E+00  0.38187562865E+03  0.38187562865E+03  0.00000000000E+00 0. -1.
         21   -1    0    0  501  502 -0.00000000000E+00 -0.00000000000E+00 -0.20167152104E+03  0.20167152104E+03  0.00000000000E+00 0. -1.
         25    1    1    2    0    0 -0.13892553139E+02  0.13943439625E+02  0.87644832159E+02  0.15392868201E+03  0.12500000000E+03 0.  0.
         25    1    1    2    0    0 -0.82928104632E+02 -0.13775626693E+03 -0.10427453489E+02  0.20393035919E+03  0.12500000000E+03 0.  0.
         25    1    1    2    0    0  0.96820657771E+02  0.12381282730E+03  0.10298672894E+03  0.22568810849E+03  0.12500000000E+03 0.  0.
</event>
<event>
 5    0  0.5663008E-005  0.2422246E+03  0.7546771E-02  0.1118320E+00
         21   -1    0    0  502  501  0.00000000000E+00  0.00000000000E+00  0.19836980851E+03  0.19836980851E+03  0.00000000000E+00 0. -1.
         21   -1    0    0  501  502 -0.00000000000E+00 -0.00000000000E+00 -0.29577466617E+03  0.29577466617E+03  0.00000000000E+00 0. -1.
         25    1    1    2    0    0  0.72092119347E+02 -0.49961941488E+02  0.23212218553E+02  0.15445800840E+03  0.12500000000E+03 0.  0.
         25    1    1    2    0    0 -0.11957603572E+03 -0.20199128342E+01 -0.79905398674E+02  0.19055807803E+03  0.12500000000E+03 0.  0.
         25    1    1    2    0    0  0.47483916370E+02  0.51981854322E+02 -0.40711677535E+02  0.14912838824E+03  0.12500000000E+03 0.  0.
</event>
<event>
 5    0  0.5663008E-005  0.3458253E+03  0.7546771E-02  0.1064342E+00
         21   -1    0    0  502  501  0.00000000000E+00  0.00000000000E+00  0.49966881411E+03  0.49966881411E+03  0.00000000000E+00 0.  1.
         21   -1    0    0  501  502 -0.00000000000E+00 -0.00000000000E+00 -0.23934885963E+03  0.23934885963E+03  0.00000000000E+00 0.  1.
         25    1    1    2    0    0 -0.46454619081E+02 -0.43053244466E+02 -0.13995480032E+02  0.14082786285E+03  0.12500000000E+03 0.  0.
         25    1    1    2    0    0  0.58443981654E+02  0.55778261626E+02 -0.11553599981E+03  0.18841571249E+03  0.12500000000E+03 0.  0.
         25    1    1    2    0    0 -0.11989362573E+02 -0.12725017160E+02  0.38985143432E+03  0.40977409840E+03  0.12500000000E+03 0.  0.
</event>
<event>
 5    0  0.5663008E-005  0.2389702E+03  0.7546771E-02  0.1120481E+00
         21   -1    0    0  502  501  0.00000000000E+00  0.00000000000E+00  0.29465099887E+03  0.29465099887E+03  0.00000000000E+00 0. -1.
         21   -1    0    0  501  502 -0.00000000000E+00 -0.00000000000E+00 -0.19381158888E+03  0.19381158888E+03  0.00000000000E+00 0. -1.
         25    1    1    2    0    0  0.59249047014E+02 -0.84911701850E+02  0.57804904101E+01  0.16241570353E+03  0.12500000000E+03 0.  0.
         25    1    1    2    0    0 -0.63092808958E+02  0.94644921097E+02  0.57766560946E+00  0.16900798008E+03  0.12500000000E+03 0.  0.
         25    1    1    2    0    0  0.38437619438E+01 -0.97332192466E+01  0.94481253978E+02  0.15703890415E+03  0.12500000000E+03 0.  0.
</event>
<event>
 5    0  0.5663008E-005  0.3428847E+03  0.7546771E-02  0.1065574E+00
         21   -1    0    0  502  501  0.00000000000E+00  0.00000000000E+00  0.85898653620E+03  0.85898653620E+03  0.00000000000E+00 0.  1.
         21   -1    0    0  501  502 -0.00000000000E+00 -0.00000000000E+00 -0.13687051516E+03  0.13687051516E+03  0.00000000000E+00 0.  1.
         25    1    1    2    0    0 -0.55561028416E+02  0.93604922397E+02  0.32464542028E+02  0.16890191196E+03  0.12500000000E+03 0.  0.
         25    1    1    2    0    0  0.76844770337E+02  0.16416379228E+02  0.35839395673E+02  0.15193445467E+03  0.12500000000E+03 0.  0.
         25    1    1    2    0    0 -0.21283741921E+02 -0.11002130162E+03  0.65381208334E+03  0.67502068473E+03  0.12500000000E+03 0.  0.
</event>
<event>
 5    0  0.5663008E-005  0.4422782E+03  0.7546771E-02  0.1030050E+00
         21   -1    0    0  502  501  0.00000000000E+00  0.00000000000E+00  0.22227551752E+03  0.22227551752E+03  0.00000000000E+00 0.  1.
         21   -1    0    0  501  502 -0.00000000000E+00 -0.00000000000E+00 -0.88003378976E+03  0.88003378976E+03  0.00000000000E+00 0. -1.
         25    1    1    2    0    0  0.11981540215E+02  0.75112456364E+02 -0.63183157524E+02  0.15938177374E+03  0.12500000000E+03 0.  0.
         25    1    1    2    0    0 -0.33345079271E+03 -0.11493331687E+01 -0.18141015086E+03  0.39965659629E+03  0.12500000000E+03 0.  0.
         25    1    1    2    0    0  0.32146925250E+03 -0.73963123195E+02 -0.41316496386E+03  0.54327093725E+03  0.12500000000E+03 0.  0.
</event>
<event>
 5    0  0.5663008E-005  0.2907724E+03  0.7546771E-02  0.1089947E+00
         21   -1    0    0  502  501  0.00000000000E+00  0.00000000000E+00  0.78248840465E+02  0.78248840465E+02  0.00000000000E+00 0.  1.
         21   -1    0    0  501  502 -0.00000000000E+00 -0.00000000000E+00 -0.10805094121E+04  0.10805094121E+04  0.00000000000E+00 0.  1.
         25    1    1    2    0    0 -0.70767507810E+02 -0.71780050854E+02 -0.65693610584E+03  0.67627691297E+03  0.12500000000E+03 0.  0.
         25    1    1    2    0    0  0.21837291367E+02  0.10987253782E+02 -0.30374378482E+03  0.32936738432E+03  0.12500000000E+03 0.  0.
         25    1    1    2    0    0  0.48930216443E+02  0.60792797071E+02 -0.41580680927E+02  0.15311395522E+03  0.12500000000E+03 0.  0.
</event>
<event>
 5    0  0.5725828E-005  0.2769746E+03  0.7546771E-02  0.1097353E+00
         21   -1    0    0  502  501  0.00000000000E+00  0.00000000000E+00  0.47390960184E+03  0.47390960184E+03  0.00000000000E+00 0. -1.
         21   -1    0    0  501  502 -0.00000000000E+00 -0.00000000000E+00 -0.16187665951E+03  0.16187665951E+03  0.00000000000E+00 0. -1.
         25    1    1    2    0    0  0.28391934594E+02  0.86128706576E+02  0.18620258988E+03  0.24191043906E+03  0.12500000000E+03 0.  0.
         25    1    1    2    0    0 -0.22851171238E+01 -0.12114687817E+03  0.18036309827E+03  0.25067436061E+03  0.12500000000E+03 0.  0.
         25    1    1    2    0    0 -0.26106817470E+02  0.35018171593E+02 -0.54532745817E+02  0.14320146168E+03  0.12500000000E+03 0.  0.
</event>
<event>
 5    0  0.5663008E-005  0.2790506E+03  0.7546771E-02  0.1096209E+00
         21   -1    0    0  502  501  0.00000000000E+00  0.00000000000E+00  0.13954217502E+04  0.13954217502E+04  0.00000000000E+00 0. -1.
         21   -1    0    0  501  502 -0.00000000000E+00 -0.00000000000E+00 -0.55803363599E+02  0.55803363599E+02  0.00000000000E+00 0. -1.
         25    1    1    2    0    0 -0.25856256513E+00  0.29216726683E+02  0.28549871048E+03  0.31303066569E+03  0.12500000000E+03 0.  0.
         25    1    1    2    0    0  0.19541845332E+02  0.53963468885E+01  0.68661076054E+02  0.14404980959E+03  0.12500000000E+03 0.  0.
         25    1    1    2    0    0 -0.19283282767E+02 -0.34613073571E+02  0.98545860002E+03  0.99414463847E+03  0.12500000000E+03 0.  0.
</event>
<event>
 5    0  0.5663008E-005  0.3631422E+03  0.7546771E-02  0.1057347E+00
         21   -1    0    0  502  501  0.00000000000E+00  0.00000000000E+00  0.38687337376E+03  0.38687337376E+03  0.00000000000E+00 0.  1.
         21   -1    0    0  501  502 -0.00000000000E+00 -0.00000000000E+00 -0.34086678599E+03  0.34086678599E+03  0.00000000000E+00 0.  1.
         25    1    1    2    0    0  0.10803869284E+03 -0.22422761106E+02 -0.17760347792E+03  0.24360446370E+03  0.12500000000E+03 0.  0.
         25    1    1    2    0    0 -0.15784183419E+03  0.14410225463E+03  0.13920987272E+03  0.28404910328E+03  0.12500000000E+03 0.  0.
         25    1    1    2    0    0  0.49803141355E+02 -0.12167949353E+03  0.84400192967E+02  0.20008659277E+03  0.12500000000E+03 0.  0.
</event>
<event>
 5    0  0.5663008E-005  0.2508309E+03  0.7546771E-02  0.1112781E+00
         21   -1    0    0  502  501  0.00000000000E+00  0.00000000000E+00  0.16001562935E+03  0.16001562935E+03  0.00000000000E+00 0.  1.
         21   -1    0    0  501  502 -0.00000000000E+00 -0.00000000000E+00 -0.39318758478E+03  0.39318758478E+03  0.00000000000E+00 0.  1.
         25    1    1    2    0    0 -0.13029224525E+03  0.91263911496E+01 -0.12951276973E+03  0.22239136160E+03  0.12500000000E+03 0.  0.
         25    1    1    2    0    0  0.48834325221E+02 -0.68766651745E+02 -0.71763297394E+02  0.16699884600E+03  0.12500000000E+03 0.  0.
         25    1    1    2    0    0  0.81457920033E+02  0.59640260595E+02 -0.31895888310E+02  0.16381300654E+03  0.12500000000E+03 0.  0.
</event>
<event>
 5    0  0.5663008E-005  0.3009084E+03  0.7546771E-02  0.1084787E+00
         21   -1    0    0  502  501  0.00000000000E+00  0.00000000000E+00  0.78115774005E+03  0.78115774005E+03  0.00000000000E+00 0.  1.
         21   -1    0    0  501  502 -0.00000000000E+00 -0.00000000000E+00 -0.11591241408E+03  0.11591241408E+03  0.00000000000E+00 0.  1.
         25    1    1    2    0    0  0.48482807666E+02 -0.21968263876E+02  0.52619942375E+03  0.54345562911E+03  0.12500000000E+03 0.  0.
         25    1    1    2    0    0  0.58315055828E+00  0.97579234033E+02  0.11888311806E+03  0.19819243865E+03  0.12500000000E+03 0.  0.
         25    1    1    2    0    0 -0.49065958225E+02 -0.75610970157E+02  0.20162784158E+02  0.15542208636E+03  0.12500000000E+03 0.  0.
</event>
<event>
 5    0  0.5663008E-005  0.3363771E+03  0.7546771E-02  0.1068350E+00
         21   -1    0    0  502  501  0.00000000000E+00  0.00000000000E+00  0.75038305545E+03  0.75038305545E+03  0.00000000000E+00 0. -1.
         21   -1    0    0  501  502 -0.00000000000E+00 -0.00000000000E+00 -0.15078902517E+03  0.15078902517E+03  0.00000000000E+00 0. -1.
         25    1    1    2    0    0  0.12988840915E+03  0.13812488533E+03  0.13599692390E+03  0.26470671712E+03  0.12500000000E+03 0.  0.
         25    1    1    2    0    0 -0.14683826278E+03 -0.16270698121E+03  0.43792564984E+03  0.50540964765E+03  0.12500000000E+03 0.  0.
         25    1    1    2    0    0  0.16949853637E+02  0.24582095874E+02  0.25671456533E+02  0.13105571585E+03  0.12500000000E+03 0.  0.
</event>
<event>
 5    0  0.5663008E-005  0.2484906E+03  0.7546771E-02  0.1114262E+00
         21   -1    0    0  502  501  0.00000000000E+00  0.00000000000E+00  0.57728171908E+02  0.57728171908E+02  0.00000000000E+00 0.  1.
         21   -1    0    0  501  502 -0.00000000000E+00 -0.00000000000E+00 -0.10696262374E+04  0.10696262374E+04  0.00000000000E+00 0.  1.
         25    1    1    2    0    0  0.14189465305E+02 -0.44351257738E+02 -0.18331829884E+03  0.22671341751E+03  0.12500000000E+03 0.  0.
         25    1    1    2    0    0 -0.11222686444E+02  0.77412208300E+02 -0.15185526696E+03  0.21166865802E+03  0.12500000000E+03 0.  0.
         25    1    1    2    0    0 -0.29667788609E+01 -0.33060950563E+02 -0.67672449966E+03  0.68897233374E+03  0.12500000000E+03 0.  0.
</event>
<event>
 5    0  0.5663008E-005  0.3524363E+03  0.7546771E-02  0.1061620E+00
         21   -1    0    0  502  501  0.00000000000E+00  0.00000000000E+00  0.22666121494E+03  0.22666121494E+03  0.00000000000E+00 0. -1.
         21   -1    0    0  501  502 -0.00000000000E+00 -0.00000000000E+00 -0.54800430375E+03  0.54800430375E+03  0.00000000000E+00 0. -1.
         25    1    1    2    0    0  0.73176450619E+02 -0.29953452467E+02  0.93298780964E+02  0.17487614122E+03  0.12500000000E+03 0.  0.
         25    1    1    2    0    0 -0.66879959259E+02 -0.15338359258E+03 -0.23343794347E+03  0.31323749596E+03  0.12500000000E+03 0.  0.
         25    1    1    2    0    0 -0.62964913594E+01  0.18333704504E+03 -0.18120392630E+03  0.28655188151E+03  0.12500000000E+03 0.  0.
</event>
<event>
 5    0  0.5663008E-005  0.4442613E+03  0.7546771E-02  0.1029447E+00
         21   -1    0    0  502  501  0.00000000000E+00  0.00000000000E+00  0.11995818052E+03  0.11995818052E+03  0.00000000000E+00 0.  1.
         21   -1    0    0  501  502 -0.00000000000E+00 -0.00000000000E+00 -0.16453077571E+04  0.16453077571E+04  0.00000000000E+00 0. -1.
         25    1    1    2    0    0 -0.96745712614E+02  0.30511110542E+03 -0.52545012970E+03  0.62783386207E+03  0.12500000000E+03 0.  0.
         25    1    1    2    0    0  0.21005694002E+03 -0.18875821559E+03 -0.41246149640E+03  0.51526989822E+03  0.12500000000E+03 0.  0.
         25    1    1    2    0    0 -0.11331122741E+03 -0.11635288984E+03 -0.58743795051E+03  0.62216217736E+03  0.12500000000E+03 0.  0.
</event>
<event>
 5    0  0.5663008E-005  0.3017908E+03  0.7546771E-02  0.1084349E+00
         21   -1    0    0  502  501  0.00000000000E+00  0.00000000000E+00  0.80595565141E+03  0.80595565141E+03  0.00000000000E+00 0.  1.
         21   -1    0    0  501  502 -0.00000000000E+00 -0.00000000000E+00 -0.11300579985E+03  0.11300579985E+03  0.00000000000E+00 0.  1.
         25    1    1    2    0    0  0.44512780101E+02  0.19628526208E+02  0.49735473434E+03  0.51512464356E+03  0.12500000000E+03 0.  0.
         25    1    1    2    0    0  0.55622333032E+02  0.44594201659E+02  0.12052498484E+01  0.14390600884E+03  0.12500000000E+03 0.  0.
         25    1    1    2    0    0 -0.10013511313E+03 -0.64222727866E+02  0.19438986738E+03  0.25993079886E+03  0.12500000000E+03 0.  0.
</event>
<event>
 5    0  0.5663008E-005  0.3331756E+03  0.7546771E-02  0.1069740E+00
         21   -1    0    0  502  501  0.00000000000E+00  0.00000000000E+00  0.18463630540E+03  0.18463630540E+03  0.00000000000E+00 0.  1.
         21   -1    0    0  501  502 -0.00000000000E+00 -0.00000000000E+00 -0.60121437662E+03  0.60121437662E+03  0.00000000000E+00 0.  1.
         25    1    1    2    0    0  0.36996561485E+02  0.22556122523E+03 -0.28410801618E+03  0.38547240725E+03  0.12500000000E+03 0.  0.
         25    1    1    2    0    0  0.19446179663E+02 -0.19622357801E+03 -0.53872835375E+02  0.23960202183E+03  0.12500000000E+03 0.  0.
         25    1    1    2    0    0 -0.56442741148E+02 -0.29337647220E+02 -0.78597219671E+02  0.16077625295E+03  0.12500000000E+03 0.  0.
</event>
<event>
 5    0  0.5663008E-005  0.2385879E+03  0.7546771E-02  0.1120737E+00
         21   -1    0    0  502  501  0.00000000000E+00  0.00000000000E+00  0.15921364260E+03  0.15921364260E+03  0.00000000000E+00 0.  1.
         21   -1    0    0  501  502 -0.00000000000E+00 -0.00000000000E+00 -0.35753328226E+03  0.35753328226E+03  0.00000000000E+00 0.  1.
         25    1    1    2    0    0  0.10960419084E+03 -0.72179739902E+02 -0.63170894895E+02  0.19193372675E+03  0.12500000000E+03 0.  0.
         25    1    1    2    0    0 -0.60667983991E+02  0.15962268580E+01 -0.35748088229E+02  0.14347849328E+03  0.12500000000E+03 0.  0.
         25    1    1    2    0    0 -0.48936206850E+02  0.70583513044E+02 -0.99400656544E+02  0.18133470483E+03  0.12500000000E+03 0.  0.
</event>
<event>
 5    0  0.5663008E-005  0.4649203E+03  0.7546771E-02  0.1023364E+00
         21   -1    0    0  502  501  0.00000000000E+00  0.00000000000E+00  0.25317405184E+04  0.25317405184E+04  0.00000000000E+00 0.  1.
         21   -1    0    0  501  502 -0.00000000000E+00 -0.00000000000E+00 -0.85376400188E+02  0.85376400188E+02  0.00000000000E+00 0.  1.
         25    1    1    2    0    0  0.26607056381E+03 -0.67596476715E+02  0.15639867457E+04  0.15928095836E+04  0.12500000000E+03 0.  0.
         25    1    1    2    0    0  0.14750632991E+02 -0.10245359187E+03  0.35886240866E+03  0.39385472957E+03  0.12500000000E+03 0.  0.
         25    1    1    2    0    0 -0.28082119680E+03  0.17005006859E+03  0.52351496382E+03  0.63045260547E+03  0.12500000000E+03 0.  0.
</event>
<event>
 5    0  0.5663008E-005  0.2998267E+03  0.7546771E-02  0.1085327E+00
         21   -1    0    0  502  501  0.00000000000E+00  0.00000000000E+00  0.26798740341E+03  0.26798740341E+03  0.00000000000E+00 0.  1.
         21   -1    0    0  501  502 -0.00000000000E+00 -0.00000000000E+00 -0.33544871005E+03  0.33544871005E+03  0.00000000000E+00 0.  1.
         25    1    1    2    0    0 -0.37818946915E+02 -0.48022903280E+02  0.16511893805E+03  0.21592993236E+03  0.12500000000E+03 0.  0.
         25    1    1    2    0    0 -0.41502629774E+02 -0.39434503043E+02 -0.11446869242E+03  0.17890117342E+03  0.12500000000E+03 0.  0.
         25    1    1    2    0    0  0.79321576689E+02  0.87457406324E+02 -0.11811155228E+03  0.20860500768E+03  0.12500000000E+03 0.  0.
</event>
<event>
 5    0  0.5753452E-005  0.2597558E+03  0.7546771E-02  0.1107290E+00
         21   -1    0    0  502  501  0.00000000000E+00  0.00000000000E+00  0.34371886011E+03  0.34371886011E+03  0.00000000000E+00 0. -1.
         21   -1    0    0  501  502 -0.00000000000E+00 -0.00000000000E+00 -0.19630305943E+03  0.19630305943E+03  0.00000000000E+00 0. -1.
         25    1    1    2    0    0 -0.43301679118E+02  0.25443889084E+02  0.12067115093E+03  0.18085616819E+03  0.12500000000E+03 0.  0.
         25    1    1    2    0    0  0.37058740072E+01  0.17995843767E+02  0.13408517928E+03  0.18423197116E+03  0.12500000000E+03 0.  0.
         25    1    1    2    0    0  0.39595805111E+02 -0.43439732851E+02 -0.10734052953E+03  0.17493378019E+03  0.12500000000E+03 0.  0.
</event>
<event>
 5    0  0.5663008E-005  0.2756016E+03  0.7546771E-02  0.1098116E+00
         21   -1    0    0  502  501  0.00000000000E+00  0.00000000000E+00  0.71488565848E+02  0.71488565848E+02  0.00000000000E+00 0. -1.
         21   -1    0    0  501  502 -0.00000000000E+00 -0.00000000000E+00 -0.10624949175E+04  0.10624949175E+04  0.00000000000E+00 0. -1.
         25    1    1    2    0    0 -0.44447416493E+02  0.10893815533E+03 -0.19003884768E+03  0.25609150347E+03  0.12500000000E+03 0.  0.
         25    1    1    2    0    0  0.11282030111E+02 -0.51579791021E+02 -0.11615581277E+03  0.17861951709E+03  0.12500000000E+03 0.  0.
         25    1    1    2    0    0  0.33165386382E+02 -0.57358364314E+02 -0.68481169116E+03  0.69927246275E+03  0.12500000000E+03 0.  0.
</event>
<event>
 5    0  0.5663008E-005  0.4390649E+03  0.7546771E-02  0.1031034E+00
         21   -1    0    0  502  501  0.00000000000E+00  0.00000000000E+00  0.98810727677E+03  0.98810727677E+03  0.00000000000E+00 0.  1.
         21   -1    0    0  501  502 -0.00000000000E+00 -0.00000000000E+00 -0.19509826533E+03  0.19509826533E+03  0.00000000000E+00 0.  1.
         25    1    1    2    0    0  0.24797953619E+03  0.20610051253E+03  0.17582461305E+03  0.38795691280E+03  0.12500000000E+03 0.  0.
         25    1    1    2    0    0 -0.12570297706E+03  0.29352408339E+01  0.83437907760E+02  0.19595085744E+03  0.12500000000E+03 0.  0.
         25    1    1    2    0    0 -0.12227655913E+03 -0.20903575336E+03  0.53374649063E+03  0.59929777186E+03  0.12500000000E+03 0.  0.
</event>
<event>
 5    0  0.5663008E-005  0.3311120E+03  0.7546771E-02  0.1070646E+00
         21   -1    0    0  502  501  0.00000000000E+00  0.00000000000E+00  0.26837793247E+04  0.26837793247E+04  0.00000000000E+00 0. -1.
         21   -1    0    0  501  502 -0.00000000000E+00 -0.00000000000E+00 -0.40851036612E+02  0.40851036612E+02  0.00000000000E+00 0. -1.
         25    1    1    2    0    0 -0.16750695499E+03 -0.59098770579E+02  0.14607013587E+04  0.14767615597E+04  0.12500000000E+03 0.  0.
         25    1    1    2    0    0  0.21926341453E+03  0.50854419193E+02  0.66282948190E+03  0.71107702746E+03  0.12500000000E+03 0.  0.
         25    1    1    2    0    0 -0.51756459535E+02  0.82443513859E+01  0.51939744750E+03  0.53679177425E+03  0.12500000000E+03 0.  0.
</event>
<event>
 5    0  0.5663008E-005  0.2533544E+03  0.7546771E-02  0.1111203E+00
         21   -1    0    0  502  501  0.00000000000E+00  0.00000000000E+00  0.10380734429E+04  0.10380734429E+04  0.00000000000E+00 0. -1.
         21   -1    0    0  501  502 -0.00000000000E+00 -0.00000000000E+00 -0.61834225536E+02  0.61834225536E+02  0.00000000000E+00 0. -1.
         25    1    1    2    0    0 -0.14893436375E+02  0.99213280952E+02  0.24993951293E+03  0.29691724384E+03  0.12500000000E+03 0.  0.
         25    1    1    2    0    0  0.61401641662E+02 -0.11723322237E+03  0.25815264229E+03  0.31588221974E+03  0.12500000000E+03 0.  0.
         25    1    1    2    0    0 -0.46508205287E+02  0.18019941419E+02  0.46814706218E+03  0.48710820490E+03  0.12500000000E+03 0.  0.
</event>
<event>
 5    0  0.5663008E-005  0.3722814E+03  0.7546771E-02  0.1053824E+00
         21   -1    0    0  502  501  0.00000000000E+00  0.00000000000E+00  0.71632820652E+03  0.71632820652E+03  0.00000000000E+00 0.  1.
         21   -1    0    0  501  502 -0.00000000000E+00 -0.00000000000E+00 -0.19347756380E+03  0.19347756380E+03  0.00000000000E+00 0.  1.
         25    1    1    2    0    0  0.15492413590E+03 -0.13575066144E+03  0.54973408972E+02  0.24713722031E+03  0.12500000000E+03 0.  0.
         25    1    1    2    0    0 -0.25808560769E+03  0.87808477135E+02  0.28673599275E+03  0.41492293151E+03  0.12500000000E+03 0.  0.
         25    1    1    2    0    0  0.10316147179E+03  0.47942184306E+02  0.18114124100E+03  0.24774561851E+03  0.12500000000E+03 0.  0.
</event>
<event>
 5    0  0.5663008E-005  0.2245605E+03  0.7546771E-02  0.1130528E+00
         21   -1    0    0  502  501  0.00000000000E+00  0.00000000000E+00  0.20670352694E+03  0.20670352694E+03  0.00000000000E+00 0. -1.
         21   -1    0    0  501  502 -0.00000000000E+00 -0.00000000000E+00 -0.24396009502E+03  0.24396009502E+03  0.00000000000E+00 0. -1.
         25    1    1    2    0    0  0.62994381696E+02 -0.10234939280E+02 -0.49390535331E+02  0.14878666300E+03  0.12500000000E+03 0.  0.
         25    1    1    2    0    0 -0.10685986628E+03 -0.12750318252E+02 -0.11575388039E+02  0.16534990549E+03  0.12500000000E+03 0.  0.
         25    1    1    2    0    0  0.43865484580E+02  0.22985257533E+02  0.23709355289E+02  0.13652705347E+03  0.12500000000E+03 0.  0.
</event>
<event>
 5    0  0.5663008E-005  0.4527676E+03  0.7546771E-02  0.1026900E+00
         21   -1    0    0  502  501  0.00000000000E+00  0.00000000000E+00  0.96921079368E+03  0.96921079368E+03  0.00000000000E+00 0. -1.
         21   -1    0    0  501  502 -0.00000000000E+00 -0.00000000000E+00 -0.21151071958E+03  0.21151071958E+03  0.00000000000E+00 0.  1.
         25    1    1    2    0    0 -0.28867754945E+03 -0.16874140589E+03  0.82533576523E+02  0.36639484286E+03  0.12500000000E+03 0.  0.
         25    1    1    2    0    0  0.46268446416E+02  0.99649903068E+02  0.18253907470E+03  0.24701495118E+03  0.12500000000E+03 0.  0.
         25    1    1    2    0    0  0.24240910304E+03  0.69091502823E+02  0.49262742287E+03  0.56731171922E+03  0.12500000000E+03 0.  0.
</event>
<event>
 5    0  0.5663008E-005  0.2792238E+03  0.7546771E-02  0.1096114E+00
         21   -1    0    0  502  501  0.00000000000E+00  0.00000000000E+00  0.12880733036E+03  0.12880733036E+03  0.00000000000E+00 0. -1.
         21   -1    0    0  501  502 -0.00000000000E+00 -0.00000000000E+00 -0.60529106696E+03  0.60529106696E+03  0.00000000000E+00 0. -1.
         25    1    1    2    0    0  0.41902217838E+02 -0.35363677363E+01 -0.17950036313E+03  0.22274128966E+03  0.12500000000E+03 0.  0.
         25    1    1    2    0    0 -0.96893407399E+02  0.48914970081E+02 -0.32501610036E+03  0.36474850539E+03  0.12500000000E+03 0.  0.
         25    1    1    2    0    0  0.54991189561E+02 -0.45378602345E+02  0.28032726899E+02  0.14660860226E+03  0.12500000000E+03 0.  0.
</event>
<event>
 5    0  0.5663008E-005  0.3129549E+03  0.7546771E-02  0.1078938E+00
         21   -1    0    0  502  501  0.00000000000E+00  0.00000000000E+00  0.49796250775E+03  0.49796250775E+03  0.00000000000E+00 0.  1.
         21   -1    0    0  501  502 -0.00000000000E+00 -0.00000000000E+00 -0.19668307052E+03  0.19668307052E+03  0.00000000000E+00 0.  1.
         25    1    1    2    0    0  0.11154569206E+03 -0.12184834026E+03  0.97729911454E+02  0.22905369466E+03  0.12500000000E+03 0.  0.
         25    1    1    2    0    0 -0.18479308300E+03  0.19334351778E+02  0.17845727436E+03  0.28634646751E+03  0.12500000000E+03 0.  0.
         25    1    1    2    0    0  0.73247390945E+02  0.10251398849E+03  0.25092251420E+02  0.17924541611E+03  0.12500000000E+03 0.  0.
</event>
<event>
 5    0  0.5663008E-005  0.2403931E+03  0.7546771E-02  0.1119531E+00
         21   -1    0    0  502  501  0.00000000000E+00  0.00000000000E+00  0.46599492124E+03  0.46599492124E+03  0.00000000000E+00 0.  1.
         21   -1    0    0  501  502 -0.00000000000E+00 -0.00000000000E+00 -0.12401172623E+03  0.12401172623E+03  0.00000000000E+00 0.  1.
         25    1    1    2    0    0  0.76901310832E+02 -0.23625029651E+00  0.24924801875E+03  0.28924633493E+03  0.12500000000E+03 0.  0.
         25    1    1    2    0    0 -0.73858287410E+02 -0.13297019915E+02  0.96665498204E+02  0.17493163208E+03  0.12500000000E+03 0.  0.
         25    1    1    2    0    0 -0.30430234222E+01  0.13533270211E+02 -0.39303219430E+01  0.12582868045E+03  0.12500000000E+03 0.  0.
</event>
<event>
 5    0  0.5663008E-005  0.3370643E+03  0.7546771E-02  0.1068053E+00
         21   -1    0    0  502  501  0.00000000000E+00  0.00000000000E+00  0.11158643344E+03  0.11158643344E+03  0.00000000000E+00 0.  1.
         21   -1    0    0  501  502 -0.00000000000E+00 -0.00000000000E+00 -0.10181556130E+04  0.10181556130E+04  0.00000000000E+00 0.  1.
         25    1    1    2    0    0 -0.78215584819E+02  0.12592810360E+03 -0.58683226372E+03  0.61803937636E+03  0.12500000000E+03 0.  0.
         25    1    1    2    0    0  0.58308947700E+02  0.32254473965E+01 -0.29948289243E+03  0.32973525707E+03  0.12500000000E+03 0.  0.
         25    1    1    2    0    0  0.19906637119E+02 -0.12915355100E+03 -0.20254023408E+02  0.18196741302E+03  0.12500000000E+03 0.  0.
</event>
<event>
 5    0  0.5663008E-005  0.2448789E+03  0.7546771E-02  0.1116585E+00
         21   -1    0    0  502  501  0.00000000000E+00  0.00000000000E+00  0.24459748128E+02  0.24459748128E+02  0.00000000000E+00 0. -1.
         21   -1    0    0  501  502 -0.00000000000E+00 -0.00000000000E+00 -0.24516070864E+04  0.24516070864E+04  0.00000000000E+00 0. -1.
         25    1    1    2    0    0  0.91134893256E+02 -0.96609859511E+02 -0.64359537004E+03  0.66893873716E+03  0.12500000000E+03 0.  0.
         25    1    1    2    0    0 -0.75707411077E+02  0.67014332526E+02 -0.92101212416E+03  0.93493896363E+03  0.12500000000E+03 0.  0.
         25    1    1    2    0    0 -0.15427482179E+02  0.29595526986E+02 -0.86253984406E+03  0.87218913374E+03  0.12500000000E+03 0.  0.
</event>
<event>
 5    0  0.5663008E-005  0.3290848E+03  0.7546771E-02  0.1071543E+00
         21   -1    0    0  502  501  0.00000000000E+00  0.00000000000E+00  0.29337017814E+03  0.29337017814E+03  0.00000000000E+00 0. -1.
         21   -1    0    0  501  502 -0.00000000000E+00 -0.00000000000E+00 -0.36914731375E+03  0.36914731375E+03  0.00000000000E+00 0. -1.
         25    1    1    2    0    0 -0.13543078760E+03  0.11020250004E+03  0.38833133035E+02  0.21821801362E+03  0.12500000000E+03 0.  0.
         25    1    1    2    0    0  0.61561758823E+01  0.70734976638E+02  0.35815456466E+02  0.14815222693E+03  0.12500000000E+03 0.  0.
         25    1    1    2    0    0  0.12927461172E+03 -0.18093747668E+03 -0.15042572512E+03  0.29614725134E+03  0.12500000000E+03 0.  0.
</event>
<event>
 5    0  0.5663008E-005  0.3033446E+03  0.7546771E-02  0.1083581E+00
         21   -1    0    0  502  501  0.00000000000E+00  0.00000000000E+00  0.11014134032E+04  0.11014134032E+04  0.00000000000E+00 0. -1.
         21   -1    0    0  501  502 -0.00000000000E+00 -0.00000000000E+00 -0.83545307351E+02  0.83545307351E+02  0.00000000000E+00 0. -1.
         25    1    1    2    0    0 -0.10374725727E+03 -0.11662750042E+03  0.12040695499E+03  0.23342729501E+03  0.12500000000E+03 0.  0.
         25    1    1    2    0    0  0.15048863490E+02  0.31882797985E+02  0.51082454682E+03  0.52707655870E+03  0.12500000000E+03 0.  0.
         25    1    1    2    0    0  0.88698393777E+02  0.84744702436E+02  0.38663659408E+03  0.42445485688E+03  0.12500000000E+03 0.  0.
</event>
<event>
 5    0  0.5663008E-005  0.2689650E+03  0.7546771E-02  0.1101873E+00
         21   -1    0    0  502  501  0.00000000000E+00  0.00000000000E+00  0.30452481872E+03  0.30452481872E+03  0.00000000000E+00 0.  1.
         21   -1    0    0  501  502 -0.00000000000E+00 -0.00000000000E+00 -0.23755748395E+03  0.23755748395E+03  0.00000000000E+00 0.  1.
         25    1    1    2    0    0  0.19050274295E+02 -0.36501800034E+02  0.13997489748E+03  0.19212825477E+03  0.12500000000E+03 0.  0.
         25    1    1    2    0    0 -0.57010318006E+02  0.61182173707E+02  0.59976071259E+02  0.16191221036E+03  0.12500000000E+03 0.  0.
         25    1    1    2    0    0  0.37960043710E+02 -0.24680373673E+02 -0.13298363397E+03  0.18804183754E+03  0.12500000000E+03 0.  0.
</event>
<event>
 5    0  0.5971291E-005  0.3537793E+03  0.7546771E-02  0.1061074E+00
         21   -1    0    0  502  501  0.00000000000E+00  0.00000000000E+00  0.79710163521E+03  0.79710163521E+03  0.00000000000E+00 0. -1.
         21   -1    0    0  501  502 -0.00000000000E+00 -0.00000000000E+00 -0.15701859295E+03  0.15701859295E+03  0.00000000000E+00 0. -1.
         25    1    1    2    0    0 -0.15565205399E+03  0.19892124608E+03  0.18724866668E+03  0.33835526776E+03  0.12500000000E+03 0.  0.
         25    1    1    2    0    0  0.61016199731E+02 -0.78527038636E+02  0.36700721101E+03  0.40026087163E+03  0.12500000000E+03 0.  0.
         25    1    1    2    0    0  0.94635854259E+02 -0.12039420744E+03  0.85827164583E+02  0.21550408877E+03  0.12500000000E+03 0.  0.
</event>
<event>
 5    0  0.5663008E-005  0.3059727E+03  0.7546771E-02  0.1082292E+00
         21   -1    0    0  502  501  0.00000000000E+00  0.00000000000E+00  0.21423750744E+03  0.21423750744E+03  0.00000000000E+00 0.  1.
         21   -1    0    0  501  502 -0.00000000000E+00 -0.00000000000E+00 -0.43698848204E+03  0.43698848204E+03  0.00000000000E+00 0.  1.
         25    1    1    2    0    0  0.55887085693E+02  0.70067827321E+02  0.78573783388E+02  0.17271857517E+03  0.12500000000E+03 0.  0.
         25    1    1    2    0    0  0.48160585931E+02  0.16615048144E+02 -0.25493118782E+03  0.28846215069E+03  0.12500000000E+03 0.  0.
         25    1    1    2    0    0 -0.10404767162E+03 -0.86682875465E+02 -0.46393570166E+02  0.19004526361E+03  0.12500000000E+03 0.  0.
</event>
<event>
 5    0  0.5663008E-005  0.2291209E+03  0.7546771E-02  0.1127260E+00
         21   -1    0    0  502  501  0.00000000000E+00  0.00000000000E+00  0.73407805249E+02  0.73407805249E+02  0.00000000000E+00 0.  1.
         21   -1    0    0  501  502 -0.00000000000E+00 -0.00000000000E+00 -0.71513360705E+03  0.71513360705E+03  0.00000000000E+00 0.  1.
         25    1    1    2    0    0  0.10951043976E+03 -0.34618996691E+02 -0.32584191459E+03  0.36740844391E+03  0.12500000000E+03 0.  0.
         25    1    1    2    0    0 -0.38804257585E+02  0.15826247611E+02 -0.17475975135E+03  0.21891142321E+03  0.12500000000E+03 0.  0.
         25    1    1    2    0    0 -0.70706182170E+02  0.18792749080E+02 -0.14112413586E+03  0.20222154519E+03  0.12500000000E+03 0.  0.
</event>
<event>
 5    0  0.5663008E-005  0.3505147E+03  0.7546771E-02  0.1062404E+00
         21   -1    0    0  502  501  0.00000000000E+00  0.00000000000E+00  0.26854247797E+03  0.26854247797E+03  0.00000000000E+00 0. -1.
         21   -1    0    0  501  502 -0.00000000000E+00 -0.00000000000E+00 -0.45750880749E+03  0.45750880749E+03  0.00000000000E+00 0. -1.
         25    1    1    2    0    0  0.13315822563E+02  0.14611529918E+03 -0.85263543344E+02  0.21076494872E+03  0.12500000000E+03 0.  0.
         25    1    1    2    0    0 -0.21172008855E+03 -0.83045732176E+02 -0.28480896916E+02  0.26107116083E+03  0.12500000000E+03 0.  0.
         25    1    1    2    0    0  0.19840426599E+03 -0.63069566999E+02 -0.75221889253E+02  0.25421517592E+03  0.12500000000E+03 0.  0.
</event>
<event>
 5    0  0.5663008E-005  0.2661007E+03  0.7546771E-02  0.1103532E+00
         21   -1    0    0  502  501  0.00000000000E+00  0.00000000000E+00  0.40465781445E+02  0.40465781445E+02  0.00000000000E+00 0.  1.
         21   -1    0    0  501  502 -0.00000000000E+00 -0.00000000000E+00 -0.17498635983E+04  0.17498635983E+04  0.00000000000E+00 0.  1.
         25    1    1    2    0    0  0.97180255829E+02 -0.51634707598E+02 -0.93662174970E+03  0.95131248660E+03  0.12500000000E+03 0.  0.
         25    1    1    2    0    0 -0.44120387400E+02  0.11602544965E+03 -0.43487377488E+03  0.46920007846E+03  0.12500000000E+03 0.  0.
         25    1    1    2    0    0 -0.53059868429E+02 -0.64390742050E+02 -0.33790229232E+03  0.36981681473E+03  0.12500000000E+03 0.  0.
</event>
<event>
 5    0  0.5663008E-005  0.3440254E+03  0.7546771E-02  0.1065094E+00
         21   -1    0    0  502  501  0.00000000000E+00  0.00000000000E+00  0.26974756994E+03  0.26974756994E+03  0.00000000000E+00 0.  1.
         21   -1    0    0  501  502 -0.00000000000E+00 -0.00000000000E+00 -0.43875651162E+03  0.43875651162E+03  0.00000000000E+00 0.  1.
         25    1    1    2    0    0  0.17373133380E+03 -0.92800615780E+02 -0.12676788050E+03  0.26549882515E+03  0.12500000000E+03 0.  0.
         25    1    1    2    0    0 -0.12599982385E+00  0.15195780462E+03  0.49410329294E+02  0.20287328779E+03  0.12500000000E+03 0.  0.
         25    1    1    2    0    0 -0.17360533397E+03 -0.59157188836E+02 -0.91651390464E+02  0.24013196861E+03  0.12500000000E+03 0.  0.
</event>
<event>
 5    0  0.5663008E-005  0.3082266E+03  0.7546771E-02  0.1081199E+00
         21   -1    0    0  502  501  0.00000000000E+00  0.00000000000E+00  0.30454782674E+03  0.30454782674E+03  0.00000000000E+00 0.  1.
         21   -1    0    0  501  502 -0.00000000000E+00 -0.00000000000E+00 -0.31194984911E+03  0.31194984911E+03  0.00000000000E+00 0.  1.
         25    1    1    2    0    0  0.44617095395E+02 -0.19195926603E+03 -0.80371281686E+02  0.24682704053E+03  0.12500000000E+03 0.  0.
         25    1    1    2    0    0 -0.28363359411E+02  0.31730499599E+02  0.97765221373E+02  0.16429955347E+03  0.12500000000E+03 0.  0.
         25    1    1    2    0    0 -0.16253735984E+02  0.16022876643E+03 -0.24795962064E+02  0.20537108185E+03  0.12500000000E+03 0.  0.
</event>
<event>
 5    0  0.5663008E-005  0.3554946E+03  0.7546771E-02  0.1060382E+00
         21   -1    0    0  502  501  0.00000000000E+00  0.00000000000E+00  0.33519957267E+03  0.33519957267E+03  0.00000000000E+00 0.  1.
         21   -1    0    0  501  502 -0.00000000000E+00 -0.00000000000E+00 -0.37701840454E+03  0.37701840454E+03  0.00000000000E+00 0.  1.
         25    1    1    2    0    0  0.14502157134E+03 -0.33838818756E+02  0.18128211437E+03  0.26582800228E+03  0.12500000000E+03 0.  0.
         25    1    1    2    0    0 -0.69123149207E+02  0.13099118702E+03 -0.50703762944E+02  0.20033115686E+03  0.12500000000E+03 0.  0.
         25    1    1    2    0    0 -0.75898422132E+02 -0.97152368260E+02 -0.17239718329E+03  0.24605881806E+03  0.12500000000E+03 0.  0.
</event>
<event>
 5    0  0.5663008E-005  0.3768666E+03  0.7546771E-02  0.1052098E+00
         21   -1    0    0  502  501  0.00000000000E+00  0.00000000000E+00  0.13468176732E+04  0.13468176732E+04  0.00000000000E+00 0.  1.
         21   -1    0    0  501  502 -0.00000000000E+00 -0.00000000000E+00 -0.10545481604E+03  0.10545481604E+03  0.00000000000E+00 0. -1.
         25    1    1    2    0    0  0.19739662669E+03 -0.20687219672E+03  0.56162241585E+03  0.64250001712E+03  0.12500000000E+03 0.  0.
         25    1    1    2    0    0 -0.29200062511E+02  0.10131401597E+03  0.11998576890E+03  0.20282691691E+03  0.12500000000E+03 0.  0.
         25    1    1    2    0    0 -0.16819656417E+03  0.10555818075E+03  0.55975467244E+03  0.60694555525E+03  0.12500000000E+03 0.  0.
</event>
<event>
 5    0  0.5663008E-005  0.4190014E+03  0.7546771E-02  0.1037392E+00
         21   -1    0    0  502  501  0.00000000000E+00  0.00000000000E+00  0.99734510650E+02  0.99734510650E+02  0.00000000000E+00 0. -1.
         21   -1    0    0  501  502 -0.00000000000E+00 -0.00000000000E+00 -0.17602955236E+04  0.17602955236E+04  0.00000000000E+00 0. -1.
         25    1    1    2    0    0  0.37160441517E+02 -0.12947315421E+03 -0.11801544560E+04  0.11943758772E+04  0.12500000000E+03 0.  0.
         25    1    1    2    0    0 -0.22163346921E+02  0.22923609941E+03 -0.15943743576E+03  0.30673392238E+03  0.12500000000E+03 0.  0.
         25    1    1    2    0    0 -0.14997094596E+02 -0.99762945197E+02 -0.32096912121E+03  0.35892023466E+03  0.12500000000E+03 0.  0.
</event>
<event>
 5    0  0.5663008E-005  0.2665077E+03  0.7546771E-02  0.1103295E+00
         21   -1    0    0  502  501  0.00000000000E+00  0.00000000000E+00  0.68107647164E+03  0.68107647164E+03  0.00000000000E+00 0.  1.
         21   -1    0    0  501  502 -0.00000000000E+00 -0.00000000000E+00 -0.10428546271E+03  0.10428546271E+03  0.00000000000E+00 0.  1.
         25    1    1    2    0    0 -0.32657829210E+02 -0.75594185036E+02  0.23070185513E+03  0.27500792821E+03  0.12500000000E+03 0.  0.
         25    1    1    2    0    0 -0.64876254813E+01 -0.95151976134E+02  0.17638956887E+03  0.23629275878E+03  0.12500000000E+03 0.  0.
         25    1    1    2    0    0  0.39145454691E+02  0.17074616117E+03  0.16969958493E+03  0.27406124736E+03  0.12500000000E+03 0.  0.
</event>
<event>
 5    0  0.5663008E-005  0.2247637E+03  0.7546771E-02  0.1130381E+00
         21   -1    0    0  502  501  0.00000000000E+00  0.00000000000E+00  0.62422873808E+02  0.62422873808E+02  0.00000000000E+00 0. -1.
         21   -1    0    0  501  502 -0.00000000000E+00 -0.00000000000E+00 -0.80929805657E+03  0.80929805657E+03  0.00000000000E+00 0. -1.
         25    1    1    2    0    0 -0.66982749099E+02  0.48777171364E+02 -0.16038933411E+03  0.21958059937E+03  0.12500000000E+03 0.  0.
         25    1    1    2    0    0  0.18577702720E+02  0.15509122685E+02 -0.19014553132E+03  0.22883615756E+03  0.12500000000E+03 0.  0.
         25    1    1    2    0    0  0.48405046378E+02 -0.64286294048E+02 -0.39634031734E+03  0.42330417345E+03  0.12500000000E+03 0.  0.
</event>
<event>
 5    0  0.5663008E-005  0.3169809E+03  0.7546771E-02  0.1077047E+00
         21   -1    0    0  502  501  0.00000000000E+00  0.00000000000E+00  0.97832955164E+03  0.97832955164E+03  0.00000000000E+00 0.  1.
         21   -1    0    0  501  502 -0.00000000000E+00 -0.00000000000E+00 -0.10270249428E+03  0.10270249428E+03  0.00000000000E+00 0.  1.
         25    1    1    2    0    0 -0.15374338779E+03 -0.73509931758E+02  0.27351934197E+03  0.34565672247E+03  0.12500000000E+03 0.  0.
         25    1    1    2    0    0  0.22198070188E+03  0.10144268058E+03  0.35185169704E+03  0.44608369860E+03  0.12500000000E+03 0.  0.
         25    1    1    2    0    0 -0.68237314083E+02 -0.27932748825E+02  0.25025601835E+03  0.28929162486E+03  0.12500000000E+03 0.  0.
</event>
<event>
 5    0  0.5663008E-005  0.3034228E+03  0.7546771E-02  0.1083542E+00
         21   -1    0    0  502  501  0.00000000000E+00  0.00000000000E+00  0.42151948514E+02  0.42151948514E+02  0.00000000000E+00 0. -1.
         21   -1    0    0  501  502 -0.00000000000E+00 -0.00000000000E+00 -0.21841307476E+04  0.21841307476E+04  0.00000000000E+00 0. -1.
         25    1    1    2    0    0 -0.53147747823E+02  0.97909463690E+02 -0.56065927931E+03  0.58512799766E+03  0.12500000000E+03 0.  0.
         25    1    1    2    0    0  0.69575004606E+02  0.22291834304E+02 -0.18951683886E+03  0.23849368829E+03  0.12500000000E+03 0.  0.
         25    1    1    2    0    0 -0.16427256782E+02 -0.12020129799E+03 -0.13918026809E+04  0.14026610102E+04  0.12500000000E+03 0.  0.
</event>
<event>
 5    0  0.5663008E-005  0.3139700E+03  0.7546771E-02  0.1078458E+00
         21   -1    0    0  502  501  0.00000000000E+00  0.00000000000E+00  0.54012748201E+03  0.54012748201E+03  0.00000000000E+00 0.  1.
         21   -1    0    0  501  502 -0.00000000000E+00 -0.00000000000E+00 -0.18250716161E+03  0.18250716161E+03  0.00000000000E+00 0.  1.
         25    1    1    2    0    0 -0.16788144319E+03  0.30657376124E+02  0.44519700780E+02  0.21617367425E+03  0.12500000000E+03 0.  0.
         25    1    1    2    0    0 -0.29191368790E+02  0.17698290718E+02  0.21005948880E+03  0.24681036109E+03  0.12500000000E+03 0.  0.
         25    1    1    2    0    0  0.19707281198E+03 -0.48355666842E+02  0.10304113081E+03  0.25965060828E+03  0.12500000000E+03 0.  0.
</event>
<event>
 5    0  0.5663008E-005  0.2076389E+03  0.7546771E-02  0.1143449E+00
         21   -1    0    0  502  501  0.00000000000E+00  0.00000000000E+00  0.54512730019E+03  0.54512730019E+03  0.00000000000E+00 0.  1.
         21   -1    0    0  501  502 -0.00000000000E+00 -0.00000000000E+00 -0.79089650996E+02  0.79089650996E+02  0.00000000000E+00 0.  1.
         25    1    1    2    0    0 -0.32900628014E+01  0.16910306628E+01  0.55720837132E+02  0.13690688729E+03  0.12500000000E+03 0.  0.
         25    1    1    2    0    0 -0.40013626013E+01 -0.34008903346E+01  0.13067336572E+03  0.18090910830E+03  0.12500000000E+03 0.  0.
         25    1    1    2    0    0  0.72914254027E+01  0.17098596718E+01  0.27964344635E+03  0.30640095560E+03  0.12500000000E+03 0.  0.
</event>
<event>
 5    0  0.5663008E-005  0.3288204E+03  0.7546771E-02  0.1071660E+00
         21   -1    0    0  502  501  0.00000000000E+00  0.00000000000E+00  0.53056392450E+02  0.53056392450E+02  0.00000000000E+00 0.  1.
         21   -1    0    0  501  502 -0.00000000000E+00 -0.00000000000E+00 -0.20378853782E+04  0.20378853782E+04  0.00000000000E+00 0. -1.
         25    1    1    2    0    0  0.46812987674E+02 -0.23637993619E+03 -0.90167460752E+03  0.94165228609E+03  0.12500000000E+03 0.  0.
         25    1    1    2    0    0 -0.48059264583E+02  0.19654490450E+03 -0.53213006882E+03  0.58286104909E+03  0.12500000000E+03 0.  0.
         25    1    1    2    0    0  0.12462769083E+01  0.39835031680E+02 -0.55102430936E+03  0.56642843543E+03  0.12500000000E+03 0.  0.
</event>
<event>
 5    0  0.5663008E-005  0.3167967E+03  0.7546771E-02  0.1077133E+00
         21   -1    0    0  502  501  0.00000000000E+00  0.00000000000E+00  0.67772592569E+03  0.67772592569E+03  0.00000000000E+00 0.  1.
         21   -1    0    0  501  502 -0.00000000000E+00 -0.00000000000E+00 -0.14808365395E+03  0.14808365395E+03  0.00000000000E+00 0.  1.
         25    1    1    2    0    0 -0.14005086842E+01  0.12293238987E+03  0.17893218956E+03  0.25051160125E+03  0.12500000000E+03 0.  0.
         25    1    1    2    0    0  0.15040623448E+03 -0.48436321830E+02  0.46751127665E+02  0.20683031833E+03  0.12500000000E+03 0.  0.
         25    1    1    2    0    0 -0.14900572580E+03 -0.74496068041E+02  0.30395895452E+03  0.36846766005E+03  0.12500000000E+03 0.  0.
</event>
<event>
 5    0  0.5663008E-005  0.3774157E+03  0.7546771E-02  0.1051893E+00
         21   -1    0    0  502  501  0.00000000000E+00  0.00000000000E+00  0.31969230815E+03  0.31969230815E+03  0.00000000000E+00 0.  1.
         21   -1    0    0  501  502 -0.00000000000E+00 -0.00000000000E+00 -0.44556148470E+03  0.44556148470E+03  0.00000000000E+00 0. -1.
         25    1    1    2    0    0 -0.18153425636E+03  0.14968860206E+03  0.10425408355E+02  0.26663655593E+03  0.12500000000E+03 0.  0.
         25    1    1    2    0    0  0.20554029637E+02  0.96275192379E+02 -0.61201477398E+02  0.17047580954E+03  0.12500000000E+03 0.  0.
         25    1    1    2    0    0  0.16098022672E+03 -0.24596379444E+03 -0.75093107508E+02  0.32814142739E+03  0.12500000000E+03 0.  0.
</event>
<event>
 5    0  0.5814392E-005  0.3217082E+03  0.7546771E-02  0.1074866E+00
         21   -1    0    0  502  501  0.00000000000E+00  0.00000000000E+00  0.16750194729E+03  0.16750194729E+03  0.00000000000E+00 0. -1.
         21   -1    0    0  501  502 -0.00000000000E+00 -0.00000000000E+00 -0.61788042171E+03  0.61788042171E+03  0.00000000000E+00 0. -1.
         25    1    1    2    0    0  0.74977991932E+02 -0.13626785032E+02 -0.15537717568E+01  0.14640629341E+03  0.12500000000E+03 0.  0.
         25    1    1    2    0    0 -0.15288499334E+03  0.14862006800E+03 -0.30617084521E+03  0.39348104434E+03  0.12500000000E+03 0.  0.
         25    1    1    2    0    0  0.77907001410E+02 -0.13499328297E+03 -0.14265385746E+03  0.24549503124E+03  0.12500000000E+03 0.  0.
</event>
<event>
 5    0  0.5663008E-005  0.4649714E+03  0.7546771E-02  0.1023349E+00
         21   -1    0    0  502  501  0.00000000000E+00  0.00000000000E+00  0.19424450700E+03  0.19424450700E+03  0.00000000000E+00 0.  1.
         21   -1    0    0  501  502 -0.00000000000E+00 -0.00000000000E+00 -0.11130220102E+04  0.11130220102E+04  0.00000000000E+00 0.  1.
         25    1    1    2    0    0  0.75765441510E+01 -0.22397748522E+03 -0.68986695090E+03  0.73604668864E+03  0.12500000000E+03 0.  0.
         25    1    1    2    0    0 -0.89691093284E+02  0.11612574137E+02  0.74903690687E+02  0.17150774610E+03  0.12500000000E+03 0.  0.
         25    1    1    2    0    0  0.82114549133E+02  0.21236491108E+03 -0.30381424303E+03  0.39971208251E+03  0.12500000000E+03 0.  0.
</event>
<event>
 5    0  0.5927244E-005  0.3627618E+03  0.7546771E-02  0.1057496E+00
         21   -1    0    0  502  501  0.00000000000E+00  0.00000000000E+00  0.10796083673E+03  0.10796083673E+03  0.00000000000E+00 0. -1.
         21   -1    0    0  501  502 -0.00000000000E+00 -0.00000000000E+00 -0.12189246983E+04  0.12189246983E+04  0.00000000000E+00 0. -1.
         25    1    1    2    0    0 -0.13906041355E+03 -0.10927433062E+03 -0.42485237819E+03  0.47686813817E+03  0.12500000000E+03 0.  0.
         25    1    1    2    0    0 -0.88790045107E+01  0.48089165561E+02  0.25825388385E+00  0.13422544938E+03  0.12500000000E+03 0.  0.
         25    1    1    2    0    0  0.14793941806E+03  0.61185165060E+02 -0.68636973726E+03  0.71579194747E+03  0.12500000000E+03 0.  0.
</event>
<event>
 5    0  0.6281301E-005  0.3044890E+03  0.7546771E-02  0.1083018E+00
         21   -1    0    0  502  501  0.00000000000E+00  0.00000000000E+00  0.78234398720E+03  0.78234398720E+03  0.00000000000E+00 0. -1.
         21   -1    0    0  501  502 -0.00000000000E+00 -0.00000000000E+00 -0.11850740398E+03  0.11850740398E+03  0.00000000000E+00 0. -1.
         25    1    1    2    0    0 -0.42664743736E+01 -0.39497853718E+01 -0.89382566446E+01  0.12545395984E+03  0.12500000000E+03 0.  0.
         25    1    1    2    0    0 -0.12544307554E+03 -0.69703839208E+02  0.35387077664E+03  0.40180109128E+03  0.12500000000E+03 0.  0.
         25    1    1    2    0    0  0.12970954991E+03  0.73653624580E+02  0.31890406323E+03  0.37359634005E+03  0.12500000000E+03 0.  0.
</event>
<event>
 5    0  0.5663008E-005  0.2828536E+03  0.7546771E-02  0.1094140E+00
         21   -1    0    0  502  501  0.00000000000E+00  0.00000000000E+00  0.65653480241E+02  0.65653480241E+02  0.00000000000E+00 0.  1.
         21   -1    0    0  501  502 -0.00000000000E+00 -0.00000000000E+00 -0.12186126522E+04  0.12186126522E+04  0.00000000000E+00 0.  1.
         25    1    1    2    0    0 -0.40207171962E+02 -0.71008443040E+02 -0.64720619214E+02  0.16270394652E+03  0.12500000000E+03 0.  0.
         25    1    1    2    0    0  0.65212310376E+01  0.25850555150E+02 -0.64732532313E+03  0.65982259102E+03  0.12500000000E+03 0.  0.
         25    1    1    2    0    0  0.33685940925E+02  0.45157887891E+02 -0.44091322965E+03  0.46173959494E+03  0.12500000000E+03 0.  0.
</event>
<event>
 5    0  0.5663008E-005  0.2370153E+03  0.7546771E-02  0.1121797E+00
         21   -1    0    0  502  501  0.00000000000E+00  0.00000000000E+00  0.11594388769E+04  0.11594388769E+04  0.00000000000E+00 0.  1.
         21   -1    0    0  501  502 -0.00000000000E+00 -0.00000000000E+00 -0.48451235235E+02  0.48451235235E+02  0.00000000000E+00 0.  1.
         25    1    1    2    0    0 -0.95250835336E+01 -0.10422396591E+03  0.35378234956E+03  0.38953859006E+03  0.12500000000E+03 0.  0.
         25    1    1    2    0    0 -0.27723314869E+02 -0.20609528455E+02  0.32944010537E+03  0.35404677357E+03  0.12500000000E+03 0.  0.
         25    1    1    2    0    0  0.37248398402E+02  0.12483349436E+03  0.42776518673E+03  0.46430474849E+03  0.12500000000E+03 0.  0.
</event>
<event>
 5    0  0.5663008E-005  0.4391776E+03  0.7546771E-02  0.1030999E+00
         21   -1    0    0  502  501  0.00000000000E+00  0.00000000000E+00  0.89491369973E+02  0.89491369973E+02  0.00000000000E+00 0.  1.
         21   -1    0    0  501  502 -0.00000000000E+00 -0.00000000000E+00 -0.21552576154E+04  0.21552576154E+04  0.00000000000E+00 0.  1.
         25    1    1    2    0    0 -0.50672643963E+02  0.44750863289E+02 -0.19286157079E+03  0.23956406679E+03  0.12500000000E+03 0.  0.
         25    1    1    2    0    0  0.34262374724E+03 -0.12954997570E+03 -0.10494576410E+04  0.11185528904E+04  0.12500000000E+03 0.  0.
         25    1    1    2    0    0 -0.29195110328E+03  0.84799112411E+02 -0.82344703357E+03  0.88663202811E+03  0.12500000000E+03 0.  0.
</event>
<event>
 5    0  0.5663008E-005  0.2358849E+03  0.7546771E-02  0.1122565E+00
         21   -1    0    0  502  501  0.00000000000E+00  0.00000000000E+00  0.17180509441E+03  0.17180509441E+03  0.00000000000E+00 0. -1.
         21   -1    0    0  501  502 -0.00000000000E+00 -0.00000000000E+00 -0.32386509564E+03  0.32386509564E+03  0.00000000000E+00 0. -1.
         25    1    1    2    0    0  0.36579001799E+02 -0.76549230643E+02 -0.15021192757E+02  0.15181714105E+03  0.12500000000E+03 0.  0.
         25    1    1    2    0    0 -0.50278715204E+02 -0.97529698819E+01  0.53645812598E+01  0.13519189457E+03  0.12500000000E+03 0.  0.
         25    1    1    2    0    0  0.13699713405E+02  0.86302200525E+02 -0.14240338974E+03  0.20866115444E+03  0.12500000000E+03 0.  0.
</event>
<event>
 5    0  0.5663008E-005  0.3816390E+03  0.7546771E-02  0.1050330E+00
         21   -1    0    0  502  501  0.00000000000E+00  0.00000000000E+00  0.28141364659E+03  0.28141364659E+03  0.00000000000E+00 0. -1.
         21   -1    0    0  501  502 -0.00000000000E+00 -0.00000000000E+00 -0.51755952420E+03  0.51755952420E+03  0.00000000000E+00 0. -1.
         25    1    1    2    0    0  0.23893677245E+03  0.39921664669E+02 -0.29456384669E+03  0.40134446591E+03  0.12500000000E+03 0.  0.
         25    1    1    2    0    0 -0.11489330116E+02 -0.43034721371E+02  0.59836704057E+01  0.13283371658E+03  0.12500000000E+03 0.  0.
         25    1    1    2    0    0 -0.22744744234E+03  0.31130567018E+01  0.52434298673E+02  0.26479498829E+03  0.12500000000E+03 0.  0.
</event>
<event>
 5    0  0.5663008E-005  0.2146891E+03  0.7546771E-02  0.1137906E+00
         21   -1    0    0  502  501  0.00000000000E+00  0.00000000000E+00  0.88674512711E+02  0.88674512711E+02  0.00000000000E+00 0.  1.
         21   -1    0    0  501  502 -0.00000000000E+00 -0.00000000000E+00 -0.51978215397E+03  0.51978215397E+03  0.00000000000E+00 0.  1.
         25    1    1    2    0    0  0.45763403226E+02 -0.51164029953E+02 -0.17298301642E+03  0.22418780298E+03  0.12500000000E+03 0.  0.
         25    1    1    2    0    0 -0.78951498860E+02  0.33104456905E+02 -0.11275727530E+03  0.18886092072E+03  0.12500000000E+03 0.  0.
         25    1    1    2    0    0  0.33188095634E+02  0.18059573048E+02 -0.14536734954E+03  0.19540794298E+03  0.12500000000E+03 0.  0.
</event>
<event>
 5    0  0.5663008E-005  0.3887144E+03  0.7546771E-02  0.1047759E+00
         21   -1    0    0  502  501  0.00000000000E+00  0.00000000000E+00  0.10876384696E+04  0.10876384696E+04  0.00000000000E+00 0.  1.
         21   -1    0    0  501  502 -0.00000000000E+00 -0.00000000000E+00 -0.13892384923E+03  0.13892384923E+03  0.00000000000E+00 0.  1.
         25    1    1    2    0    0  0.71641494176E+02  0.26077229914E+02  0.34625979199E+03  0.37594330578E+03  0.12500000000E+03 0.  0.
         25    1    1    2    0    0  0.35038194481E+02  0.54698066918E+02 -0.67416265039E+02  0.15617140068E+03  0.12500000000E+03 0.  0.
         25    1    1    2    0    0 -0.10667968866E+03 -0.80775296832E+02  0.66987109341E+03  0.69444761238E+03  0.12500000000E+03 0.  0.
</event>
<event>
 5    0  0.5663008E-005  0.2787802E+03  0.7546771E-02  0.1096357E+00
         21   -1    0    0  502  501  0.00000000000E+00  0.00000000000E+00  0.12664997214E+03  0.12664997214E+03  0.00000000000E+00 0.  1.
         21   -1    0    0  501  502 -0.00000000000E+00 -0.00000000000E+00 -0.61364702062E+03  0.61364702062E+03  0.00000000000E+00 0.  1.
         25    1    1    2    0    0 -0.13416228102E+03 -0.29204716683E+02 -0.20606387895E+03  0.27738016391E+03  0.12500000000E+03 0.  0.
         25    1    1    2    0    0 -0.49037366719E+02  0.51109066344E+02 -0.12998727927E+03  0.19374852972E+03  0.12500000000E+03 0.  0.
         25    1    1    2    0    0  0.18319964774E+03 -0.21904349662E+02 -0.15094589026E+03  0.26916829913E+03  0.12500000000E+03 0.  0.
</event>
<event>
 5    0  0.5663008E-005  0.2720069E+03  0.7546771E-02  0.1100136E+00
         21   -1    0    0  502  501  0.00000000000E+00  0.00000000000E+00  0.28636140716E+03  0.28636140716E+03  0.00000000000E+00 0.  1.
         21   -1    0    0  501  502 -0.00000000000E+00 -0.00000000000E+00 -0.25837195906E+03  0.25837195906E+03  0.00000000000E+00 0.  1.
         25    1    1    2    0    0  0.11875279281E+03  0.63344820983E+02 -0.24726732859E+01  0.18370058862E+03  0.12500000000E+03 0.  0.
         25    1    1    2    0    0 -0.63218108006E+02 -0.13834836650E+03 -0.17952321525E+02  0.19769695380E+03  0.12500000000E+03 0.  0.
         25    1    1    2    0    0 -0.55534684805E+02  0.75003545514E+02  0.48414442907E+02  0.16333582380E+03  0.12500000000E+03 0.  0.
</event>
<event>
 5    0  0.5663008E-005  0.3052514E+03  0.7546771E-02  0.1082645E+00
         21   -1    0    0  502  501  0.00000000000E+00  0.00000000000E+00  0.89021241506E+02  0.89021241506E+02  0.00000000000E+00 0.  1.
         21   -1    0    0  501  502 -0.00000000000E+00 -0.00000000000E+00 -0.10466985885E+04  0.10466985885E+04  0.00000000000E+00 0.  1.
         25    1    1    2    0    0  0.24703257324E+02 -0.17288982650E+03 -0.27677785542E+03  0.35033144917E+03  0.12500000000E+03 0.  0.
         25    1    1    2    0    0 -0.71915455394E+02 -0.28334052657E+02 -0.30514602262E+03  0.33869417826E+03  0.12500000000E+03 0.  0.
         25    1    1    2    0    0  0.47212198069E+02  0.20122387915E+03 -0.37575346899E+03  0.44669420262E+03  0.12500000000E+03 0.  0.
</event>
<event>
 5    0  0.5663008E-005  0.4377892E+03  0.7546771E-02  0.1031427E+00
         21   -1    0    0  502  501  0.00000000000E+00  0.00000000000E+00  0.26105310893E+03  0.26105310893E+03  0.00000000000E+00 0.  1.
         21   -1    0    0  501  502 -0.00000000000E+00 -0.00000000000E+00 -0.73417760526E+03  0.73417760526E+03  0.00000000000E+00 0.  1.
         25    1    1    2    0    0 -0.27781422415E+02  0.32605572211E+03 -0.36553490804E+03  0.50628540405E+03  0.12500000000E+03 0.  0.
         25    1    1    2    0    0  0.28347937998E+02 -0.31455982859E+03 -0.12556344033E+03  0.36213625737E+03  0.12500000000E+03 0.  0.
         25    1    1    2    0    0 -0.56651558354E+00 -0.11495893516E+02  0.17973852040E+02  0.12680905277E+03  0.12500000000E+03 0.  0.
</event>
<event>
 5    0  0.5663008E-005  0.2291636E+03  0.7546771E-02  0.1127230E+00
         21   -1    0    0  502  501  0.00000000000E+00  0.00000000000E+00  0.16451136531E+03  0.16451136531E+03  0.00000000000E+00 0. -1.
         21   -1    0    0  501  502 -0.00000000000E+00 -0.00000000000E+00 -0.31922392847E+03  0.31922392847E+03  0.00000000000E+00 0. -1.
         25    1    1    2    0    0 -0.22491064325E+02 -0.44363596967E+02 -0.72001924543E+01  0.13472497720E+03  0.12500000000E+03 0.  0.
         25    1    1    2    0    0 -0.27497760030E+01 -0.16145256234E+02  0.22478958979E+02  0.12805676149E+03  0.12500000000E+03 0.  0.
         25    1    1    2    0    0  0.25240840328E+02  0.60508853201E+02 -0.16999132969E+03  0.22095355509E+03  0.12500000000E+03 0.  0.
</event>
<event>
 5    0  0.5663008E-005  0.3101362E+03  0.7546771E-02  0.1080281E+00
         21   -1    0    0  502  501  0.00000000000E+00  0.00000000000E+00  0.20198432930E+03  0.20198432930E+03  0.00000000000E+00 0. -1.
         21   -1    0    0  501  502 -0.00000000000E+00 -0.00000000000E+00 -0.47619756297E+03  0.47619756297E+03  0.00000000000E+00 0. -1.
         25    1    1    2    0    0  0.94228145707E+02  0.19536337808E+02 -0.14473689498E+03  0.21408965577E+03  0.12500000000E+03 0.  0.
         25    1    1    2    0    0  0.31533490218E+02  0.12589131443E+03  0.32811500383E+02  0.18315179118E+03  0.12500000000E+03 0.  0.
         25    1    1    2    0    0 -0.12576163592E+03 -0.14542765224E+03 -0.16228783907E+03  0.28094044532E+03  0.12500000000E+03 0.  0.
</event>
<event>
 5    0  0.5767576E-005  0.2940050E+03  0.7546771E-02  0.1088276E+00
         21   -1    0    0  502  501  0.00000000000E+00  0.00000000000E+00  0.40919138428E+03  0.40919138428E+03  0.00000000000E+00 0.  1.
         21   -1    0    0  501  502 -0.00000000000E+00 -0.00000000000E+00 -0.21124337439E+03  0.21124337439E+03  0.00000000000E+00 0.  1.
         25    1    1    2    0    0  0.67881595184E+02  0.56025789571E+02  0.81982344601E+01  0.15309804411E+03  0.12500000000E+03 0.  0.
         25    1    1    2    0    0 -0.90443059045E+02 -0.18410919228E+03  0.14812603729E+03  0.28220996534E+03  0.12500000000E+03 0.  0.
         25    1    1    2    0    0  0.22561463862E+02  0.12808340271E+03  0.41623738130E+02  0.18512674922E+03  0.12500000000E+03 0.  0.
</event>
<event>
 5    0  0.5663008E-005  0.3081812E+03  0.7546771E-02  0.1081221E+00
         21   -1    0    0  502  501  0.00000000000E+00  0.00000000000E+00  0.16495193364E+04  0.16495193364E+04  0.00000000000E+00 0.  1.
         21   -1    0    0  501  502 -0.00000000000E+00 -0.00000000000E+00 -0.57577767932E+02  0.57577767932E+02  0.00000000000E+00 0.  1.
         25    1    1    2    0    0 -0.99432867621E+01  0.21491111418E+03  0.82061398683E+03  0.85750683457E+03  0.12500000000E+03 0.  0.
         25    1    1    2    0    0 -0.12815737401E+02 -0.53726124484E+02  0.43119283428E+03  0.45233063119E+03  0.12500000000E+03 0.  0.
         25    1    1    2    0    0  0.22759024163E+02 -0.16118498969E+03  0.34013474738E+03  0.39725963860E+03  0.12500000000E+03 0.  0.
</event>
<event>
 5    0  0.5663008E-005  0.2937495E+03  0.7546771E-02  0.1088408E+00
         21   -1    0    0  502  501  0.00000000000E+00  0.00000000000E+00  0.12508881103E+03  0.12508881103E+03  0.00000000000E+00 0. -1.
         21   -1    0    0  501  502 -0.00000000000E+00 -0.00000000000E+00 -0.68981995811E+03  0.68981995811E+03  0.00000000000E+00 0. -1.
         25    1    1    2    0    0 -0.70360519059E+02  0.14466486490E+03 -0.36031754517E+03  0.41392301112E+03  0.12500000000E+03 0.  0.
         25    1    1    2    0    0  0.73132318412E+02 -0.10896274014E+03 -0.30415013251E+02  0.18376965954E+03  0.12500000000E+03 0.  0.
         25    1    1    2    0    0 -0.27717993534E+01 -0.35702124757E+02 -0.17399858866E+03  0.21721609848E+03  0.12500000000E+03 0.  0.
</event>
<event>
 5    0  0.5663008E-005  0.3988326E+03  0.7546771E-02  0.1044185E+00
         21   -1    0    0  502  501  0.00000000000E+00  0.00000000000E+00  0.14091713737E+03  0.14091713737E+03  0.00000000000E+00 0.  1.
         21   -1    0    0  501  502 -0.00000000000E+00 -0.00000000000E+00 -0.11288010011E+04  0.11288010011E+04  0.00000000000E+00 0.  1.
         25    1    1    2    0    0  0.35286253706E+02 -0.18730251824E+03 -0.78806109060E+03  0.82036128356E+03  0.12500000000E+03 0.  0.
         25    1    1    2    0    0 -0.11541682391E+03  0.12230667971E+03 -0.19647488434E+03  0.28724092208E+03  0.12500000000E+03 0.  0.
         25    1    1    2    0    0  0.80130570203E+02  0.64995838531E+02 -0.33478887600E+01  0.16211593280E+03  0.12500000000E+03 0.  0.
</event>
<event>
 5    0  0.5663008E-005  0.3160098E+03  0.7546771E-02  0.1077500E+00
         21   -1    0    0  502  501  0.00000000000E+00  0.00000000000E+00  0.14842157323E+03  0.14842157323E+03  0.00000000000E+00 0.  1.
         21   -1    0    0  501  502 -0.00000000000E+00 -0.00000000000E+00 -0.67282802221E+03  0.67282802221E+03  0.00000000000E+00 0.  1.
         25    1    1    2    0    0  0.20012582962E+02  0.13571633534E+03 -0.28407263200E+03  0.33932534153E+03  0.12500000000E+03 0.  0.
         25    1    1    2    0    0  0.71415417658E+01  0.39123549742E+02  0.30929634588E+02  0.13477127312E+03  0.12500000000E+03 0.  0.
         25    1    1    2    0    0 -0.27154124728E+02 -0.17483988508E+03 -0.27126345157E+03  0.34715298078E+03  0.12500000000E+03 0.  0.
</event>
<event>
 5    0  0.5663008E-005  0.4039535E+03  0.7546771E-02  0.1042419E+00
         21   -1    0    0  502  501  0.00000000000E+00  0.00000000000E+00  0.15704543607E+03  0.15704543607E+03  0.00000000000E+00 0. -1.
         21   -1    0    0  501  502 -0.00000000000E+00 -0.00000000000E+00 -0.10390521574E+04  0.10390521574E+04  0.00000000000E+00 0.  1.
         25    1    1    2    0    0  0.30975924214E+02  0.49237452235E+02 -0.14272336542E+03  0.19844090712E+03  0.12500000000E+03 0.  0.
         25    1    1    2    0    0 -0.90977872160E+02  0.24147700593E+03 -0.14407614558E+03  0.32089103032E+03  0.12500000000E+03 0.  0.
         25    1    1    2    0    0  0.60001947946E+02 -0.29071445816E+03 -0.59520721030E+03  0.67676565600E+03  0.12500000000E+03 0.  0.
</event>
<event>
 5    0  0.5663008E-005  0.2672718E+03  0.7546771E-02  0.1102851E+00
         21   -1    0    0  502  501  0.00000000000E+00  0.00000000000E+00  0.15021195274E+03  0.15021195274E+03  0.00000000000E+00 0.  1.
         21   -1    0    0  501  502 -0.00000000000E+00 -0.00000000000E+00 -0.47555605838E+03  0.47555605838E+03  0.00000000000E+00 0.  1.
         25    1    1    2    0    0 -0.21376564450E+02  0.76673028412E+02 -0.85757174912E+02  0.17121624877E+03  0.12500000000E+03 0.  0.
         25    1    1    2    0    0 -0.33288252929E+02 -0.39166257921E+02 -0.27698488074E+03  0.30820079120E+03  0.12500000000E+03 0.  0.
         25    1    1    2    0    0  0.54664817379E+02 -0.37506770490E+02  0.37397950013E+02  0.14635097115E+03  0.12500000000E+03 0.  0.
</event>
<event>
 5    0  0.6571576E-005  0.4462345E+03  0.7546771E-02  0.1028851E+00
         21   -1    0    0  502  501  0.00000000000E+00  0.00000000000E+00  0.30940676898E+03  0.30940676898E+03  0.00000000000E+00 0.  1.
         21   -1    0    0  501  502 -0.00000000000E+00 -0.00000000000E+00 -0.64357103688E+03  0.64357103688E+03  0.00000000000E+00 0.  1.
         25    1    1    2    0    0 -0.97548782822E+02  0.15035665412E+03 -0.35087745487E+03  0.41335562994E+03  0.12500000000E+03 0.  0.
         25    1    1    2    0    0  0.80152291631E+02 -0.28525053853E+03 -0.79606299026E+02  0.33129205006E+03  0.12500000000E+03 0.  0.
         25    1    1    2    0    0  0.17396491191E+02  0.13489388441E+03  0.96319485992E+02  0.20833012585E+03  0.12500000000E+03 0.  0.
</event>
<event>
 5    0  0.5663008E-005  0.3858019E+03  0.7546771E-02  0.1048810E+00
         21   -1    0    0  502  501  0.00000000000E+00  0.00000000000E+00  0.12368228572E+04  0.12368228572E+04  0.00000000000E+00 0. -1.
         21   -1    0    0  501  502 -0.00000000000E+00 -0.00000000000E+00 -0.12034309058E+03  0.12034309058E+03  0.00000000000E+00 0. -1.
         25    1    1    2    0    0  0.61288988927E+02  0.50807912690E+02  0.89789206012E+03  0.91004007373E+03  0.12500000000E+03 0.  0.
         25    1    1    2    0    0  0.15687154055E+01 -0.24354556755E+02  0.26773962011E+03  0.29648795840E+03  0.12500000000E+03 0.  0.
         25    1    1    2    0    0 -0.62857704332E+02 -0.26453355935E+02 -0.49151913576E+02  0.15063791569E+03  0.12500000000E+03 0.  0.
</event>
<event>
 5    0  0.5663008E-005  0.2377597E+03  0.7546771E-02  0.1121294E+00
         21   -1    0    0  502  501  0.00000000000E+00  0.00000000000E+00  0.28436959253E+03  0.28436959253E+03  0.00000000000E+00 0. -1.
         21   -1    0    0  501  502 -0.00000000000E+00 -0.00000000000E+00 -0.19878944442E+03  0.19878944442E+03  0.00000000000E+00 0. -1.
         25    1    1    2    0    0 -0.33978704388E+02 -0.58065642703E+02  0.11202925201E+03  0.18083618145E+03  0.12500000000E+03 0.  0.
         25    1    1    2    0    0  0.25989344194E+01  0.93670943216E+02 -0.54961112732E+02  0.16561015662E+03  0.12500000000E+03 0.  0.
         25    1    1    2    0    0  0.31379769968E+02 -0.35605300513E+02  0.28512008830E+02  0.13671269888E+03  0.12500000000E+03 0.  0.
</event>
<event>
 5    0  0.5663008E-005  0.2118805E+03  0.7546771E-02  0.1140085E+00
         21   -1    0    0  502  501  0.00000000000E+00  0.00000000000E+00  0.33072376398E+03  0.33072376398E+03  0.00000000000E+00 0. -1.
         21   -1    0    0  501  502 -0.00000000000E+00 -0.00000000000E+00 -0.13574272110E+03  0.13574272110E+03  0.00000000000E+00 0. -1.
         25    1    1    2    0    0 -0.43034898540E+02 -0.11166606133E+02  0.48336088004E+02  0.14120224144E+03  0.12500000000E+03 0.  0.
         25    1    1    2    0    0  0.39237067520E+02  0.73649516316E+02  0.69404625601E+02  0.16554697453E+03  0.12500000000E+03 0.  0.
         25    1    1    2    0    0  0.37978310195E+01 -0.62482910183E+02  0.77240329272E+02  0.15971726911E+03  0.12500000000E+03 0.  0.
</event>
<event>
 5    0  0.5663008E-005  0.3977997E+03  0.7546771E-02  0.1044544E+00
         21   -1    0    0  502  501  0.00000000000E+00  0.00000000000E+00  0.28243003148E+03  0.28243003148E+03  0.00000000000E+00 0.  1.
         21   -1    0    0  501  502 -0.00000000000E+00 -0.00000000000E+00 -0.56029659961E+03  0.56029659961E+03  0.00000000000E+00 0.  1.
         25    1    1    2    0    0  0.14232418527E+03  0.24297459858E+03 -0.41868036919E+02  0.31091922067E+03  0.12500000000E+03 0.  0.
         25    1    1    2    0    0 -0.22213436728E+02 -0.27220195515E+03 -0.13802718468E+03  0.33055082040E+03  0.12500000000E+03 0.  0.
         25    1    1    2    0    0 -0.12011074854E+03  0.29227356568E+02 -0.97971346531E+02  0.20125659002E+03  0.12500000000E+03 0.  0.
</event>
<event>
 5    0  0.5663008E-005  0.2445558E+03  0.7546771E-02  0.1116795E+00
         21   -1    0    0  502  501  0.00000000000E+00  0.00000000000E+00  0.52219398115E+02  0.52219398115E+02  0.00000000000E+00 0.  1.
         21   -1    0    0  501  502 -0.00000000000E+00 -0.00000000000E+00 -0.11453123737E+04  0.11453123737E+04  0.00000000000E+00 0.  1.
         25    1    1    2    0    0 -0.37022978654E+02  0.77593447982E+02 -0.44996334125E+03  0.47485097934E+03  0.12500000000E+03 0.  0.
         25    1    1    2    0    0 -0.17300637826E+02  0.31661351517E+02 -0.14500208953E+03  0.19481365254E+03  0.12500000000E+03 0.  0.
         25    1    1    2    0    0  0.54323616480E+02 -0.10925479950E+03 -0.49812754485E+03  0.52786713997E+03  0.12500000000E+03 0.  0.
</event>
<event>
 5    0  0.5663008E-005  0.4212598E+03  0.7546771E-02  0.1036657E+00
         21   -1    0    0  502  501  0.00000000000E+00  0.00000000000E+00  0.14291049026E+04  0.14291049026E+04  0.00000000000E+00 0. -1.
         21   -1    0    0  501  502 -0.00000000000E+00 -0.00000000000E+00 -0.12417547907E+03  0.12417547907E+03  0.00000000000E+00 0. -1.
         25    1    1    2    0    0 -0.75888668515E+02  0.31880544867E+02  0.34530119763E+03  0.37634210000E+03  0.12500000000E+03 0.  0.
         25    1    1    2    0    0  0.66368426412E+01 -0.15625921145E+03  0.96683941077E+03  0.98735223455E+03  0.12500000000E+03 0.  0.
         25    1    1    2    0    0  0.69251825873E+02  0.12437866658E+03 -0.72111848443E+01  0.18958604715E+03  0.12500000000E+03 0.  0.
</event>
<event>
 5    0  0.5663008E-005  0.2557977E+03  0.7546771E-02  0.1109695E+00
         21   -1    0    0  502  501  0.00000000000E+00  0.00000000000E+00  0.86688702884E+03  0.86688702884E+03  0.00000000000E+00 0. -1.
         21   -1    0    0  501  502 -0.00000000000E+00 -0.00000000000E+00 -0.75479809298E+02  0.75479809298E+02  0.00000000000E+00 0. -1.
         25    1    1    2    0    0  0.22515969831E+02 -0.93150909069E+02  0.20104743831E+03  0.25539994755E+03  0.12500000000E+03 0.  0.
         25    1    1    2    0    0  0.92173046978E+02  0.91449676805E+02  0.33463344749E+03  0.38008348840E+03  0.12500000000E+03 0.  0.
         25    1    1    2    0    0 -0.11468901681E+03  0.17012322638E+01  0.25572633375E+03  0.30688340219E+03  0.12500000000E+03 0.  0.
</event>
<event>
 5    0  0.5663008E-005  0.3024549E+03  0.7546771E-02  0.1084020E+00
         21   -1    0    0  502  501  0.00000000000E+00  0.00000000000E+00  0.12705668972E+03  0.12705668972E+03  0.00000000000E+00 0. -1.
         21   -1    0    0  501  502 -0.00000000000E+00 -0.00000000000E+00 -0.71998550429E+03  0.71998550429E+03  0.00000000000E+00 0. -1.
         25    1    1    2    0    0 -0.99694469451E+02  0.10847579121E+03 -0.15516048542E+03  0.24780185785E+03  0.12500000000E+03 0.  0.
         25    1    1    2    0    0 -0.32596430427E+02  0.74007532912E+02 -0.12856034882E+03  0.19670385226E+03  0.12500000000E+03 0.  0.
         25    1    1    2    0    0  0.13229089988E+03 -0.18248332412E+03 -0.30920798033E+03  0.40253648390E+03  0.12500000000E+03 0.  0.
</event>
<event>
 5    0  0.5663008E-005  0.4244639E+03  0.7546771E-02  0.1035623E+00
         21   -1    0    0  502  501  0.00000000000E+00  0.00000000000E+00  0.23646053871E+04  0.23646053871E+04  0.00000000000E+00 0. -1.
         21   -1    0    0  501  502 -0.00000000000E+00 -0.00000000000E+00 -0.76194367697E+02  0.76194367697E+02  0.00000000000E+00 0. -1.
         25    1    1    2    0    0 -0.36928637609E+02  0.17482315222E+03  0.11436083216E+04  0.11642129754E+04  0.12500000000E+03 0.  0.
         25    1    1    2    0    0  0.17184848293E+03 -0.24761178758E+03  0.92510487901E+03  0.98096255566E+03  0.12500000000E+03 0.  0.
         25    1    1    2    0    0 -0.13491984532E+03  0.72788635354E+02  0.21969781886E+03  0.29562422382E+03  0.12500000000E+03 0.  0.
</event>
<event>
 5    0  0.5663008E-005  0.4136985E+03  0.7546771E-02  0.1039137E+00
         21   -1    0    0  502  501  0.00000000000E+00  0.00000000000E+00  0.63341343897E+02  0.63341343897E+02  0.00000000000E+00 0.  1.
         21   -1    0    0  501  502 -0.00000000000E+00 -0.00000000000E+00 -0.27019709520E+04  0.27019709520E+04  0.00000000000E+00 0.  1.
         25    1    1    2    0    0  0.18199366401E+03  0.28875481355E+03 -0.13339856006E+04  0.13826220086E+04  0.12500000000E+03 0.  0.
         25    1    1    2    0    0 -0.24090410216E+00 -0.55381128282E+02 -0.37499713998E+03  0.39914280953E+03  0.12500000000E+03 0.  0.
         25    1    1    2    0    0 -0.18175275990E+03 -0.23337368526E+03 -0.92964686748E+03  0.98354747772E+03  0.12500000000E+03 0.  0.
</event>
<event>
 5    0  0.5663008E-005  0.2158849E+03  0.7546771E-02  0.1136989E+00
         21   -1    0    0  502  501  0.00000000000E+00  0.00000000000E+00  0.40769353656E+03  0.40769353656E+03  0.00000000000E+00 0.  1.
         21   -1    0    0  501  502 -0.00000000000E+00 -0.00000000000E+00 -0.11431697411E+03  0.11431697411E+03  0.00000000000E+00 0.  1.
         25    1    1    2    0    0  0.25314837406E+02  0.43946034194E+02  0.12097319697E+03  0.18119494833E+03  0.12500000000E+03 0.  0.
         25    1    1    2    0    0  0.16256915343E+02 -0.86037321356E+02  0.65765634043E+02  0.16618311161E+03  0.12500000000E+03 0.  0.
         25    1    1    2    0    0 -0.41571752749E+02  0.42091287162E+02  0.10663773143E+03  0.17463245073E+03  0.12500000000E+03 0.  0.
</event>
<event>
 5    0  0.5663008E-005  0.2886435E+03  0.7546771E-02  0.1091060E+00
         21   -1    0    0  502  501  0.00000000000E+00  0.00000000000E+00  0.34342646826E+03  0.34342646826E+03  0.00000000000E+00 0.  1.
         21   -1    0    0  501  502 -0.00000000000E+00 -0.00000000000E+00 -0.24259937402E+03  0.24259937402E+03  0.00000000000E+00 0.  1.
         25    1    1    2    0    0 -0.62698961758E+02 -0.12594823202E+03  0.15842305283E+03  0.24600199312E+03  0.12500000000E+03 0.  0.
         25    1    1    2    0    0  0.11477934565E+03  0.85507646207E+02 -0.58051804517E+02  0.19869793093E+03  0.12500000000E+03 0.  0.
         25    1    1    2    0    0 -0.52080383895E+02  0.40440585809E+02  0.45584593096E+00  0.14132591823E+03  0.12500000000E+03 0.  0.
</event>
<event>
 5    0  0.5663008E-005  0.3503557E+03  0.7546771E-02  0.1062469E+00
         21   -1    0    0  502  501  0.00000000000E+00  0.00000000000E+00  0.74150598964E+03  0.74150598964E+03  0.00000000000E+00 0. -1.
         21   -1    0    0  501  502 -0.00000000000E+00 -0.00000000000E+00 -0.16554027543E+03  0.16554027543E+03  0.00000000000E+00 0. -1.
         25    1    1    2    0    0 -0.74475001153E+02 -0.24847536010E+03  0.32358823594E+03  0.43315225593E+03  0.12500000000E+03 0.  0.
         25    1    1    2    0    0  0.68870833402E+02  0.10492049716E+03  0.27563457011E+02  0.17926585447E+03  0.12500000000E+03 0.  0.
         25    1    1    2    0    0  0.56041677509E+01  0.14355486294E+03  0.22481402125E+03  0.29462815467E+03  0.12500000000E+03 0.  0.
</event>
<event>
 5    0  0.5663008E-005  0.3824084E+03  0.7546771E-02  0.1050047E+00
         21   -1    0    0  502  501  0.00000000000E+00  0.00000000000E+00  0.95179069359E+02  0.95179069359E+02  0.00000000000E+00 0.  1.
         21   -1    0    0  501  502 -0.00000000000E+00 -0.00000000000E+00 -0.15364322832E+04  0.15364322832E+04  0.00000000000E+00 0.  1.
         25    1    1    2    0    0  0.19287883771E+03  0.16213563676E+03 -0.64204574928E+03  0.70095503059E+03  0.12500000000E+03 0.  0.
         25    1    1    2    0    0 -0.40570681514E+02 -0.52049732297E+02 -0.52833070061E+02  0.15090224691E+03  0.12500000000E+03 0.  0.
         25    1    1    2    0    0 -0.15230815620E+03 -0.11008590446E+03 -0.74637439455E+03  0.77975407510E+03  0.12500000000E+03 0.  0.
</event>
<event>
 5    0  0.5663008E-005  0.3795861E+03  0.7546771E-02  0.1051087E+00
         21   -1    0    0  502  501  0.00000000000E+00  0.00000000000E+00  0.67774776327E+02  0.67774776327E+02  0.00000000000E+00 0.  1.
         21   -1    0    0  501  502 -0.00000000000E+00 -0.00000000000E+00 -0.21259478787E+04  0.21259478787E+04  0.00000000000E+00 0.  1.
         25    1    1    2    0    0  0.59267004719E+02 -0.14832123690E+03 -0.33426715388E+03  0.39098759229E+03  0.12500000000E+03 0.  0.
         25    1    1    2    0    0  0.66795727689E+02  0.27465929812E+03 -0.10405640030E+04  0.10854942854E+04  0.12500000000E+03 0.  0.
         25    1    1    2    0    0 -0.12606273241E+03 -0.12633806122E+03 -0.68334194551E+03  0.71724077736E+03  0.12500000000E+03 0.  0.
</event>
<event>
 5    0  0.5663008E-005  0.2987311E+03  0.7546771E-02  0.1085877E+00
         21   -1    0    0  502  501  0.00000000000E+00  0.00000000000E+00  0.26271743999E+03  0.26271743999E+03  0.00000000000E+00 0. -1.
         21   -1    0    0  501  502 -0.00000000000E+00 -0.00000000000E+00 -0.33968151828E+03  0.33968151828E+03  0.00000000000E+00 0. -1.
         25    1    1    2    0    0 -0.76043569804E+02  0.47298954140E+01 -0.66044769537E+02  0.16059859278E+03  0.12500000000E+03 0.  0.
         25    1    1    2    0    0  0.20459788470E+03 -0.56021228684E+02 -0.50015064995E+02  0.25124724717E+03  0.12500000000E+03 0.  0.
         25    1    1    2    0    0 -0.12855431489E+03  0.51291333270E+02  0.39095756235E+02  0.19055311832E+03  0.12500000000E+03 0.  0.
</event>
<event>
 5    0  0.5663008E-005  0.2520691E+03  0.7546771E-02  0.1112004E+00
         21   -1    0    0  502  501  0.00000000000E+00  0.00000000000E+00  0.60253720512E+03  0.60253720512E+03  0.00000000000E+00 0.  1.
         21   -1    0    0  501  502 -0.00000000000E+00 -0.00000000000E+00 -0.10545210208E+03  0.10545210208E+03  0.00000000000E+00 0.  1.
         25    1    1    2    0    0 -0.66814668512E+02  0.53883713268E+01  0.69495098461E+02  0.15794873594E+03  0.12500000000E+03 0.  0.
         25    1    1    2    0    0 -0.50525627800E+02  0.57734420311E+02  0.27638068652E+03  0.31288558010E+03  0.12500000000E+03 0.  0.
         25    1    1    2    0    0  0.11734029631E+03 -0.63122791638E+02  0.15120931806E+03  0.23715499116E+03  0.12500000000E+03 0.  0.
</event>
<event>
 5    0  0.6140026E-005  0.3057340E+03  0.7546771E-02  0.1082409E+00
         21   -1    0    0  502  501  0.00000000000E+00  0.00000000000E+00  0.23447725719E+03  0.23447725719E+03  0.00000000000E+00 0.  1.
         21   -1    0    0  501  502 -0.00000000000E+00 -0.00000000000E+00 -0.39864539832E+03  0.39864539832E+03  0.00000000000E+00 0.  1.
         25    1    1    2    0    0 -0.60917639504E+02  0.80357730606E+02  0.41133564961E+02  0.16578689284E+03  0.12500000000E+03 0.  0.
         25    1    1    2    0    0  0.61328181842E+02  0.92441520881E+02  0.58360151784E+01  0.16722930289E+03  0.12500000000E+03 0.  0.
         25    1    1    2    0    0 -0.41054233779E+00 -0.17279925149E+03 -0.21113772127E+03  0.30010645978E+03  0.12500000000E+03 0.  0.
</event>
<event>
 5    0  0.5663008E-005  0.3085147E+03  0.7546771E-02  0.1081060E+00
         21   -1    0    0  502  501  0.00000000000E+00  0.00000000000E+00  0.14071754785E+04  0.14071754785E+04  0.00000000000E+00 0.  1.
         21   -1    0    0  501  502 -0.00000000000E+00 -0.00000000000E+00 -0.67639986971E+02  0.67639986971E+02  0.00000000000E+00 0.  1.
         25    1    1    2    0    0  0.96202539499E+02 -0.11776285166E+03  0.75373348820E+03  0.77901360006E+03  0.12500000000E+03 0.  0.
         25    1    1    2    0    0 -0.88401490348E+02  0.11077592765E+03  0.52182950383E+03  0.55499293754E+03  0.12500000000E+03 0.  0.
         25    1    1    2    0    0 -0.78010491505E+01  0.69869240125E+01  0.63972499468E+02  0.14080892785E+03  0.12500000000E+03 0.  0.
</event>
<event>
 5    0  0.5663008E-005  0.2568920E+03  0.7546771E-02  0.1109025E+00
         21   -1    0    0  502  501  0.00000000000E+00  0.00000000000E+00  0.90995686739E+03  0.90995686739E+03  0.00000000000E+00 0. -1.
         21   -1    0    0  501  502 -0.00000000000E+00 -0.00000000000E+00 -0.72523783469E+02  0.72523783469E+02  0.00000000000E+00 0. -1.
         25    1    1    2    0    0  0.12755286773E+03 -0.23417489945E+02  0.20045276607E+03  0.26948919149E+03  0.12500000000E+03 0.  0.
         25    1    1    2    0    0 -0.32474562597E+02  0.11019212011E+02  0.13621795765E+03  0.18803284882E+03  0.12500000000E+03 0.  0.
         25    1    1    2    0    0 -0.95078305134E+02  0.12398277934E+02  0.50076236019E+03  0.52495861055E+03  0.12500000000E+03 0.  0.
</event>
<event>
 5    0  0.5663008E-005  0.4328986E+03  0.7546771E-02  0.1032948E+00
         21   -1    0    0  502  501  0.00000000000E+00  0.00000000000E+00  0.66189223369E+03  0.66189223369E+03  0.00000000000E+00 0.  1.
         21   -1    0    0  501  502 -0.00000000000E+00 -0.00000000000E+00 -0.28312953364E+03  0.28312953364E+03  0.00000000000E+00 0.  1.
         25    1    1    2    0    0  0.13409164879E+02  0.17114534919E+03  0.62363177636E+02  0.22132487925E+03  0.12500000000E+03 0.  0.
         25    1    1    2    0    0  0.34932521848E+02 -0.38025872428E+03  0.21168251825E+03  0.45414916823E+03  0.12500000000E+03 0.  0.
         25    1    1    2    0    0 -0.48341686728E+02  0.20911337509E+03  0.10471700416E+03  0.26954771985E+03  0.12500000000E+03 0.  0.
</event>
<event>
 5    0  0.5663008E-005  0.6748255E+03  0.7546771E-02  0.9761280E-01
         21   -1    0    0  502  501  0.00000000000E+00  0.00000000000E+00  0.16286803338E+04  0.16286803338E+04  0.00000000000E+00 0.  1.
         21   -1    0    0  501  502 -0.00000000000E+00 -0.00000000000E+00 -0.27960638408E+03  0.27960638408E+03  0.00000000000E+00 0.  1.
         25    1    1    2    0    0 -0.36955724985E+03 -0.18529067827E+03  0.11347947515E+04  0.12142031644E+04  0.12500000000E+03 0.  0.
         25    1    1    2    0    0  0.27046848650E+02  0.45994820031E+02  0.26761186129E+03  0.30014690369E+03  0.12500000000E+03 0.  0.
         25    1    1    2    0    0  0.34251040121E+03  0.13929585824E+03 -0.53332663131E+02  0.39393664975E+03  0.12500000000E+03 0.  0.
</event>
<event>
 5    0  0.5663008E-005  0.2902622E+03  0.7546771E-02  0.1090212E+00
         21   -1    0    0  502  501  0.00000000000E+00  0.00000000000E+00  0.31211372036E+03  0.31211372036E+03  0.00000000000E+00 0.  1.
         21   -1    0    0  501  502 -0.00000000000E+00 -0.00000000000E+00 -0.26994054256E+03  0.26994054256E+03  0.00000000000E+00 0.  1.
         25    1    1    2    0    0 -0.90346682996E+02  0.54882088726E+02  0.71396996979E+01  0.16386135024E+03  0.12500000000E+03 0.  0.
         25    1    1    2    0    0 -0.10638547261E+02  0.12061494075E+03 -0.16213607122E+02  0.17478278999E+03  0.12500000000E+03 0.  0.
         25    1    1    2    0    0  0.10098523026E+03 -0.17549702948E+03  0.51247085216E+02  0.24341012269E+03  0.12500000000E+03 0.  0.
</event>
<event>
 5    0  0.5800115E-005  0.3591476E+03  0.7546771E-02  0.1058922E+00
         21   -1    0    0  502  501  0.00000000000E+00  0.00000000000E+00  0.12922482390E+03  0.12922482390E+03  0.00000000000E+00 0. -1.
         21   -1    0    0  501  502 -0.00000000000E+00 -0.00000000000E+00 -0.99815962120E+03  0.99815962120E+03  0.00000000000E+00 0. -1.
         25    1    1    2    0    0  0.73822368492E+02  0.18233163280E+03 -0.42819543546E+03  0.48751502270E+03  0.12500000000E+03 0.  0.
         25    1    1    2    0    0 -0.59957853265E+02 -0.20680316376E+02  0.14264172268E+02  0.14089388299E+03  0.12500000000E+03 0.  0.
         25    1    1    2    0    0 -0.13864515227E+02 -0.16165131643E+03 -0.45500353411E+03  0.49897553942E+03  0.12500000000E+03 0.  0.
</event>
<event>
 5    0  0.5663008E-005  0.2468158E+03  0.7546771E-02  0.1115334E+00
         21   -1    0    0  502  501  0.00000000000E+00  0.00000000000E+00  0.12223238643E+04  0.12223238643E+04  0.00000000000E+00 0.  1.
         21   -1    0    0  501  502 -0.00000000000E+00 -0.00000000000E+00 -0.49837905835E+02  0.49837905835E+02  0.00000000000E+00 0.  1.
         25    1    1    2    0    0  0.77042038570E+02  0.87484411153E+01  0.47627709618E+03  0.49847455630E+03  0.12500000000E+03 0.  0.
         25    1    1    2    0    0 -0.13094186106E+03 -0.19558673317E+02  0.26618321587E+03  0.32250087921E+03  0.12500000000E+03 0.  0.
         25    1    1    2    0    0  0.53899822485E+02  0.10810232201E+02  0.43002564644E+03  0.45118633465E+03  0.12500000000E+03 0.  0.
</event>
<event>
 5    0  0.5663008E-005  0.3121268E+03  0.7546771E-02  0.1079331E+00
         21   -1    0    0  502  501  0.00000000000E+00  0.00000000000E+00  0.54421235624E+03  0.54421235624E+03  0.00000000000E+00 0. -1.
         21   -1    0    0  501  502 -0.00000000000E+00 -0.00000000000E+00 -0.17901671535E+03  0.17901671535E+03  0.00000000000E+00 0. -1.
         25    1    1    2    0    0 -0.47094004564E+02  0.46396288762E+02  0.13740965283E+03  0.19717219268E+03  0.12500000000E+03 0.  0.
         25    1    1    2    0    0  0.21995981967E+03 -0.73522238768E+01  0.87646399889E+02  0.26784933989E+03  0.12500000000E+03 0.  0.
         25    1    1    2    0    0 -0.17286581510E+03 -0.39044064885E+02  0.14013958817E+03  0.25820753902E+03  0.12500000000E+03 0.  0.
</event>
<event>
 5    0  0.5663008E-005  0.2510303E+03  0.7546771E-02  0.1112655E+00
         21   -1    0    0  502  501  0.00000000000E+00  0.00000000000E+00  0.62302455172E+03  0.62302455172E+03  0.00000000000E+00 0. -1.
         21   -1    0    0  501  502 -0.00000000000E+00 -0.00000000000E+00 -0.10114566381E+03  0.10114566381E+03  0.00000000000E+00 0. -1.
         25    1    1    2    0    0 -0.74675661786E+02 -0.29212573380E+02  0.16671394558E+03  0.22326748209E+03  0.12500000000E+03 0.  0.
         25    1    1    2    0    0  0.12338608990E+03  0.91283680029E+02  0.25290969305E+03  0.32116218685E+03  0.12500000000E+03 0.  0.
         25    1    1    2    0    0 -0.48710428112E+02 -0.62071106649E+02  0.10225524927E+03  0.17974054660E+03  0.12500000000E+03 0.  0.
</event>
<event>
 5    0  0.5663008E-005  0.5040298E+03  0.7546771E-02  0.1012732E+00
         21   -1    0    0  502  501  0.00000000000E+00  0.00000000000E+00  0.23453140565E+04  0.23453140565E+04  0.00000000000E+00 0.  1.
         21   -1    0    0  501  502 -0.00000000000E+00 -0.00000000000E+00 -0.10832068433E+03  0.10832068433E+03  0.00000000000E+00 0.  1.
         25    1    1    2    0    0 -0.87203900433E+02 -0.19268576338E+03  0.12063172862E+04  0.12310803055E+04  0.12500000000E+03 0.  0.
         25    1    1    2    0    0 -0.10988927818E+03 -0.10078159103E+03  0.99109400809E+02  0.21835809094E+03  0.12500000000E+03 0.  0.
         25    1    1    2    0    0  0.19709317861E+03  0.29346735441E+03  0.93156668521E+03  0.10041963444E+04  0.12500000000E+03 0.  0.
</event>
<event>
 5    0  0.6262109E-005  0.3455092E+03  0.7546771E-02  0.1064473E+00
         21   -1    0    0  502  501  0.00000000000E+00  0.00000000000E+00  0.40190205773E+03  0.40190205773E+03  0.00000000000E+00 0.  1.
         21   -1    0    0  501  502 -0.00000000000E+00 -0.00000000000E+00 -0.29702917727E+03  0.29702917727E+03  0.00000000000E+00 0.  1.
         25    1    1    2    0    0 -0.42617772313E+01  0.18576443312E+02 -0.80473659489E+02  0.14988080885E+03  0.12500000000E+03 0.  0.
         25    1    1    2    0    0  0.21259781311E+03  0.11231311011E+02  0.17764464813E+03  0.30414896596E+03  0.12500000000E+03 0.  0.
         25    1    1    2    0    0 -0.20833603588E+03 -0.29807754324E+02  0.77018918171E+01  0.24490146019E+03  0.12500000000E+03 0.  0.
</event>
<event>
 5    0  0.5663008E-005  0.3666402E+03  0.7546771E-02  0.1055985E+00
         21   -1    0    0  502  501  0.00000000000E+00  0.00000000000E+00  0.37530075813E+03  0.37530075813E+03  0.00000000000E+00 0.  1.
         21   -1    0    0  501  502 -0.00000000000E+00 -0.00000000000E+00 -0.35817946849E+03  0.35817946849E+03  0.00000000000E+00 0.  1.
         25    1    1    2    0    0  0.32543894091E+02  0.18975676460E+02 -0.16904954210E+02  0.13164330145E+03  0.12500000000E+03 0.  0.
         25    1    1    2    0    0  0.85192817000E+02  0.17416000334E+03 -0.15822911901E+03  0.27973376081E+03  0.12500000000E+03 0.  0.
         25    1    1    2    0    0 -0.11773671109E+03 -0.19313567980E+03  0.19225536286E+03  0.32210316437E+03  0.12500000000E+03 0.  0.
</event>
<event>
 5    0  0.5663008E-005  0.4092777E+03  0.7546771E-02  0.1040614E+00
         21   -1    0    0  502  501  0.00000000000E+00  0.00000000000E+00  0.40965006235E+03  0.40965006235E+03  0.00000000000E+00 0. -1.
         21   -1    0    0  501  502 -0.00000000000E+00 -0.00000000000E+00 -0.40890562409E+03  0.40890562409E+03  0.00000000000E+00 0. -1.
         25    1    1    2    0    0 -0.12586269239E+03 -0.22165685056E+03 -0.21587099669E+03  0.35664893656E+03  0.12500000000E+03 0.  0.
         25    1    1    2    0    0  0.12337927523E+03  0.12613826492E+03  0.21446539963E+03  0.30455494590E+03  0.12500000000E+03 0.  0.
         25    1    1    2    0    0  0.24834171532E+01  0.95518585637E+02  0.21500353246E+01  0.15735180398E+03  0.12500000000E+03 0.  0.
</event>
<event>
 5    0  0.5663008E-005  0.2340196E+03  0.7546771E-02  0.1123842E+00
         21   -1    0    0  502  501  0.00000000000E+00  0.00000000000E+00  0.75829034228E+02  0.75829034228E+02  0.00000000000E+00 0.  1.
         21   -1    0    0  501  502 -0.00000000000E+00 -0.00000000000E+00 -0.72221933218E+03  0.72221933218E+03  0.00000000000E+00 0.  1.
         25    1    1    2    0    0  0.50615075421E+02  0.52079786538E+02 -0.20879212127E+03  0.25395538964E+03  0.12500000000E+03 0.  0.
         25    1    1    2    0    0 -0.15746307319E+00  0.37494532420E+01 -0.35510806789E+03  0.37648482450E+03  0.12500000000E+03 0.  0.
         25    1    1    2    0    0 -0.50457612348E+02 -0.55829239779E+02 -0.82490108793E+02  0.16760815227E+03  0.12500000000E+03 0.  0.
</event>
<event>
 5    0  0.5663008E-005  0.3110314E+03  0.7546771E-02  0.1079853E+00
         21   -1    0    0  502  501  0.00000000000E+00  0.00000000000E+00  0.67046918423E+03  0.67046918423E+03  0.00000000000E+00 0. -1.
         21   -1    0    0  501  502 -0.00000000000E+00 -0.00000000000E+00 -0.14428780472E+03  0.14428780472E+03  0.00000000000E+00 0. -1.
         25    1    1    2    0    0 -0.52278183652E+01  0.22224711502E+02  0.26728069329E+03  0.29594803073E+03  0.12500000000E+03 0.  0.
         25    1    1    2    0    0  0.61984732592E+02 -0.13389272044E+03  0.28032508076E+03  0.34055325364E+03  0.12500000000E+03 0.  0.
         25    1    1    2    0    0 -0.56756914227E+02  0.11166800894E+03 -0.21424394547E+02  0.17825570458E+03  0.12500000000E+03 0.  0.
</event>
<event>
 5    0  0.5663008E-005  0.2319556E+03  0.7546771E-02  0.1125271E+00
         21   -1    0    0  502  501  0.00000000000E+00  0.00000000000E+00  0.80018012296E+02  0.80018012296E+02  0.00000000000E+00 0. -1.
         21   -1    0    0  501  502 -0.00000000000E+00 -0.00000000000E+00 -0.67239091564E+03  0.67239091564E+03  0.00000000000E+00 0. -1.
         25    1    1    2    0    0  0.91796910883E+02 -0.95056669046E+01 -0.12489220305E+03  0.19934917339E+03  0.12500000000E+03 0.  0.
         25    1    1    2    0    0 -0.65549269488E+02  0.19717740115E+02 -0.35508146534E+03  0.38261383017E+03  0.12500000000E+03 0.  0.
         25    1    1    2    0    0 -0.26247641395E+02 -0.10212073210E+02 -0.11239923496E+03  0.17044592438E+03  0.12500000000E+03 0.  0.
</event>
<event>
 5    0  0.7375360E-005  0.2900011E+03  0.7546771E-02  0.1090349E+00
         21   -1    0    0  502  501  0.00000000000E+00  0.00000000000E+00  0.33812462836E+03  0.33812462836E+03  0.00000000000E+00 0. -1.
         21   -1    0    0  501  502 -0.00000000000E+00 -0.00000000000E+00 -0.24872674284E+03  0.24872674284E+03  0.00000000000E+00 0. -1.
         25    1    1    2    0    0  0.59833510600E+02  0.12673694495E+02  0.11053602859E+03  0.17771855598E+03  0.12500000000E+03 0.  0.
         25    1    1    2    0    0 -0.10415475486E+03  0.12852109419E+03 -0.49984334237E+02  0.21328225027E+03  0.12500000000E+03 0.  0.
         25    1    1    2    0    0  0.44321244256E+02 -0.14119478868E+03  0.28846191166E+02  0.19585056494E+03  0.12500000000E+03 0.  0.
</event>
<event>
 5    0  0.5663008E-005  0.3846427E+03  0.7546771E-02  0.1049231E+00
         21   -1    0    0  502  501  0.00000000000E+00  0.00000000000E+00  0.19545006006E+03  0.19545006006E+03  0.00000000000E+00 0. -1.
         21   -1    0    0  501  502 -0.00000000000E+00 -0.00000000000E+00 -0.75697094215E+03  0.75697094215E+03  0.00000000000E+00 0. -1.
         25    1    1    2    0    0  0.14978145601E+03  0.43215143955E+02 -0.26507941320E+03  0.33195500980E+03  0.12500000000E+03 0.  0.
         25    1    1    2    0    0 -0.24663536014E+01 -0.13203733549E+03  0.71588506997E+02  0.19542224847E+03  0.12500000000E+03 0.  0.
         25    1    1    2    0    0 -0.14731510241E+03  0.88822191539E+02 -0.36802997589E+03  0.42504374394E+03  0.12500000000E+03 0.  0.
</event>
<event>
 5    0  0.5663008E-005  0.2458181E+03  0.7546771E-02  0.1115977E+00
         21   -1    0    0  502  501  0.00000000000E+00  0.00000000000E+00  0.19001078887E+03  0.19001078887E+03  0.00000000000E+00 0.  1.
         21   -1    0    0  501  502 -0.00000000000E+00 -0.00000000000E+00 -0.31801644105E+03  0.31801644105E+03  0.00000000000E+00 0.  1.
         25    1    1    2    0    0 -0.38549845476E+02  0.99734892323E+02 -0.27376891245E+02  0.16675620980E+03  0.12500000000E+03 0.  0.
         25    1    1    2    0    0  0.22622318717E+02  0.40529268252E+02 -0.68821970469E+02  0.15005283905E+03  0.12500000000E+03 0.  0.
         25    1    1    2    0    0  0.15927526759E+02 -0.14026416057E+03 -0.31806790464E+02  0.19121818107E+03  0.12500000000E+03 0.  0.
</event>
<event>
 5    0  0.5763040E-005  0.2722228E+03  0.7546771E-02  0.1100014E+00
         21   -1    0    0  502  501  0.00000000000E+00  0.00000000000E+00  0.23031512030E+03  0.23031512030E+03  0.00000000000E+00 0. -1.
         21   -1    0    0  501  502 -0.00000000000E+00 -0.00000000000E+00 -0.32175585321E+03  0.32175585321E+03  0.00000000000E+00 0. -1.
         25    1    1    2    0    0  0.17787381142E+03 -0.30260714239E+02  0.14500240496E+01  0.21950377260E+03  0.12500000000E+03 0.  0.
         25    1    1    2    0    0 -0.82093332641E+02 -0.24913180512E+02 -0.32047105052E+02  0.15495805487E+03  0.12500000000E+03 0.  0.
         25    1    1    2    0    0 -0.95780478781E+02  0.55173894751E+02 -0.60843651913E+02  0.17760914604E+03  0.12500000000E+03 0.  0.
</event>
<event>
 5    0  0.5663008E-005  0.3232004E+03  0.7546771E-02  0.1074186E+00
         21   -1    0    0  502  501  0.00000000000E+00  0.00000000000E+00  0.33850726606E+03  0.33850726606E+03  0.00000000000E+00 0. -1.
         21   -1    0    0  501  502 -0.00000000000E+00 -0.00000000000E+00 -0.30858571040E+03  0.30858571040E+03  0.00000000000E+00 0. -1.
         25    1    1    2    0    0  0.52926902787E+02  0.56579253244E+02  0.10449760179E+03  0.18040847462E+03  0.12500000000E+03 0.  0.
         25    1    1    2    0    0  0.11325864940E+03  0.77209497574E+02 -0.11185243247E+03  0.21662131666E+03  0.12500000000E+03 0.  0.
         25    1    1    2    0    0 -0.16618555219E+03 -0.13378875082E+03  0.37276386352E+02  0.25006318518E+03  0.12500000000E+03 0.  0.
</event>
<event>
 5    0  0.5663008E-005  0.3515241E+03  0.7546771E-02  0.1061991E+00
         21   -1    0    0  502  501  0.00000000000E+00  0.00000000000E+00  0.20017823328E+03  0.20017823328E+03  0.00000000000E+00 0. -1.
         21   -1    0    0  501  502 -0.00000000000E+00 -0.00000000000E+00 -0.61729596939E+03  0.61729596939E+03  0.00000000000E+00 0. -1.
         25    1    1    2    0    0  0.10478582583E+03  0.16868212534E+03  0.16881879940E+02  0.23525247411E+03  0.12500000000E+03 0.  0.
         25    1    1    2    0    0 -0.57596326365E+02 -0.20925818633E+02 -0.32854755107E+03  0.35682449469E+03  0.12500000000E+03 0.  0.
         25    1    1    2    0    0 -0.47189499464E+02 -0.14775630670E+03 -0.10545206497E+03  0.22539723387E+03  0.12500000000E+03 0.  0.
</event>
<event>
 5    0  0.5663008E-005  0.2518584E+03  0.7546771E-02  0.1112136E+00
         21   -1    0    0  502  501  0.00000000000E+00  0.00000000000E+00  0.10168359517E+04  0.10168359517E+04  0.00000000000E+00 0. -1.
         21   -1    0    0  501  502 -0.00000000000E+00 -0.00000000000E+00 -0.62382404875E+02  0.62382404875E+02  0.00000000000E+00 0. -1.
         25    1    1    2    0    0  0.10095322729E+03  0.59071196923E+02  0.25175093560E+03  0.30444128167E+03  0.12500000000E+03 0.  0.
         25    1    1    2    0    0  0.15920614790E+01  0.71298481467E+00  0.46266032346E+03  0.47925214440E+03  0.12500000000E+03 0.  0.
         25    1    1    2    0    0 -0.10254528877E+03 -0.59784181737E+02  0.24004228774E+03  0.29552493048E+03  0.12500000000E+03 0.  0.
</event>
<event>
 5    0  0.5663008E-005  0.2751899E+03  0.7546771E-02  0.1098345E+00
         21   -1    0    0  502  501  0.00000000000E+00  0.00000000000E+00  0.21973598720E+03  0.21973598720E+03  0.00000000000E+00 0. -1.
         21   -1    0    0  501  502 -0.00000000000E+00 -0.00000000000E+00 -0.34463857880E+03  0.34463857880E+03  0.00000000000E+00 0. -1.
         25    1    1    2    0    0 -0.38277327392E+01 -0.98845230546E+02 -0.64379357313E+02  0.17191489984E+03  0.12500000000E+03 0.  0.
         25    1    1    2    0    0  0.32412427268E+02 -0.33866083227E+02  0.84291122311E+02  0.15788435747E+03  0.12500000000E+03 0.  0.
         25    1    1    2    0    0 -0.28584694528E+02  0.13271131377E+03 -0.14481435661E+03  0.23457530868E+03  0.12500000000E+03 0.  0.
</event>
<event>
 5    0  0.5663008E-005  0.3350736E+03  0.7546771E-02  0.1068914E+00
         21   -1    0    0  502  501  0.00000000000E+00  0.00000000000E+00  0.29812913230E+03  0.29812913230E+03  0.00000000000E+00 0. -1.
         21   -1    0    0  501  502 -0.00000000000E+00 -0.00000000000E+00 -0.37659625366E+03  0.37659625366E+03  0.00000000000E+00 0.  1.
         25    1    1    2    0    0  0.18324362402E+03  0.19753928175E+03 -0.18872911932E+02  0.29762590678E+03  0.12500000000E+03 0.  0.
         25    1    1    2    0    0 -0.59083907674E+02 -0.75325127538E+02 -0.34806884095E+02  0.16124919276E+03  0.12500000000E+03 0.  0.
         25    1    1    2    0    0 -0.12415971635E+03 -0.12221415422E+03 -0.24787325331E+02  0.21585028643E+03  0.12500000000E+03 0.  0.
</event>
<event>
 5    0  0.5663008E-005  0.5385152E+03  0.7546771E-02  0.1004188E+00
         21   -1    0    0  502  501  0.00000000000E+00  0.00000000000E+00  0.59831283989E+03  0.59831283989E+03  0.00000000000E+00 0.  1.
         21   -1    0    0  501  502 -0.00000000000E+00 -0.00000000000E+00 -0.48469395728E+03  0.48469395728E+03  0.00000000000E+00 0.  1.
         25    1    1    2    0    0  0.99351774484E+02  0.19177199173E+03 -0.37115709614E+03  0.44724698090E+03  0.12500000000E+03 0.  0.
         25    1    1    2    0    0  0.25499176040E+01 -0.21055440711E+03  0.33427742263E+03  0.41437429422E+03  0.12500000000E+03 0.  0.
         25    1    1    2    0    0 -0.10190169209E+03  0.18782415372E+02  0.15049855612E+03  0.22138552205E+03  0.12500000000E+03 0.  0.
</event>
<event>
 5    0  0.5663008E-005  0.2704473E+03  0.7546771E-02  0.1101024E+00
         21   -1    0    0  502  501  0.00000000000E+00  0.00000000000E+00  0.57995214819E+02  0.57995214819E+02  0.00000000000E+00 0. -1.
         21   -1    0    0  501  502 -0.00000000000E+00 -0.00000000000E+00 -0.12611683851E+04  0.12611683851E+04  0.00000000000E+00 0. -1.
         25    1    1    2    0    0  0.62179176105E+02 -0.16385208225E+03 -0.48004586222E+03  0.52610149651E+03  0.12500000000E+03 0.  0.
         25    1    1    2    0    0 -0.49873081766E+02  0.12278974924E+03 -0.51752915018E+03  0.54865842570E+03  0.12500000000E+03 0.  0.
         25    1    1    2    0    0 -0.12306094339E+02  0.41062333016E+02 -0.20559815786E+03  0.24440367768E+03  0.12500000000E+03 0.  0.
</event>
<event>
 5    0  0.5663008E-005  0.3683936E+03  0.7546771E-02  0.1055309E+00
         21   -1    0    0  502  501  0.00000000000E+00  0.00000000000E+00  0.21049346048E+03  0.21049346048E+03  0.00000000000E+00 0. -1.
         21   -1    0    0  501  502 -0.00000000000E+00 -0.00000000000E+00 -0.64474136592E+03  0.64474136592E+03  0.00000000000E+00 0. -1.
         25    1    1    2    0    0  0.89581664390E+02  0.96642097869E+02 -0.12172212877E+03  0.21864548088E+03  0.12500000000E+03 0.  0.
         25    1    1    2    0    0 -0.14799849228E+03 -0.26523255174E+03 -0.13321972876E+03  0.35443526398E+03  0.12500000000E+03 0.  0.
         25    1    1    2    0    0  0.58416827895E+02  0.16859045387E+03 -0.17930604791E+03  0.28215408155E+03  0.12500000000E+03 0.  0.
</event>
<event>
 5    0  0.5663008E-005  0.2546763E+03  0.7546771E-02  0.1110385E+00
         21   -1    0    0  502  501  0.00000000000E+00  0.00000000000E+00  0.53555086370E+03  0.53555086370E+03  0.00000000000E+00 0.  1.
         21   -1    0    0  501  502 -0.00000000000E+00 -0.00000000000E+00 -0.12110894297E+03  0.12110894297E+03  0.00000000000E+00 0.  1.
         25    1    1    2    0    0 -0.13390624288E+02  0.73913381494E+01  0.49319228820E+02  0.13524543257E+03  0.12500000000E+03 0.  0.
         25    1    1    2    0    0  0.56245181956E+01 -0.60221706827E+02  0.77683270006E+01  0.13908140092E+03  0.12500000000E+03 0.  0.
         25    1    1    2    0    0  0.77661060926E+01  0.52830368678E+02  0.35735436491E+03  0.38233297318E+03  0.12500000000E+03 0.  0.
</event>
<event>
 5    0  0.5663008E-005  0.2411172E+03  0.7546771E-02  0.1119051E+00
         21   -1    0    0  502  501  0.00000000000E+00  0.00000000000E+00  0.32121695665E+03  0.32121695665E+03  0.00000000000E+00 0.  1.
         21   -1    0    0  501  502 -0.00000000000E+00 -0.00000000000E+00 -0.18099132155E+03  0.18099132155E+03  0.00000000000E+00 0.  1.
         25    1    1    2    0    0 -0.85112091058E+02  0.29784032442E+02  0.26724174717E+02  0.15642997842E+03  0.12500000000E+03 0.  0.
         25    1    1    2    0    0  0.11398849117E+03 -0.34286813415E+02 -0.26928412076E+01  0.17263027859E+03  0.12500000000E+03 0.  0.
         25    1    1    2    0    0 -0.28876400111E+02  0.45027809730E+01  0.11619430159E+03  0.17314802119E+03  0.12500000000E+03 0.  0.
</event>
<event>
 5    0  0.5663008E-005  0.4070977E+03  0.7546771E-02  0.1041349E+00
         21   -1    0    0  502  501  0.00000000000E+00  0.00000000000E+00  0.45624595512E+03  0.45624595512E+03  0.00000000000E+00 0.  1.
         21   -1    0    0  501  502 -0.00000000000E+00 -0.00000000000E+00 -0.36324388817E+03  0.36324388817E+03  0.00000000000E+00 0.  1.
         25    1    1    2    0    0 -0.51150976026E+02 -0.20246379962E+02 -0.61593727997E+02  0.14981697360E+03  0.12500000000E+03 0.  0.
         25    1    1    2    0    0  0.17003245581E+03 -0.51668454908E+02  0.34188719061E+03  0.40508334496E+03  0.12500000000E+03 0.  0.
         25    1    1    2    0    0 -0.11888147979E+03  0.71914834869E+02 -0.18729139566E+03  0.26458952474E+03  0.12500000000E+03 0.  0.
</event>
<event>
 5    0  0.5663008E-005  0.2640957E+03  0.7546771E-02  0.1104707E+00
         21   -1    0    0  502  501  0.00000000000E+00  0.00000000000E+00  0.25402440451E+04  0.25402440451E+04  0.00000000000E+00 0.  1.
         21   -1    0    0  501  502 -0.00000000000E+00 -0.00000000000E+00 -0.27456624536E+02  0.27456624536E+02  0.00000000000E+00 0.  1.
         25    1    1    2    0    0 -0.47302054067E+02 -0.14021989610E+03  0.12960863748E+04  0.13104823518E+04  0.12500000000E+03 0.  0.
         25    1    1    2    0    0  0.17846784818E+02  0.85433825400E+02  0.87348801711E+03  0.88669259740E+03  0.12500000000E+03 0.  0.
         25    1    1    2    0    0  0.29455269249E+02  0.54786070695E+02  0.34321302871E+03  0.37052572044E+03  0.12500000000E+03 0.  0.
</event>
<event>
 5    0  0.5663008E-005  0.4965587E+03  0.7546771E-02  0.1014681E+00
         21   -1    0    0  502  501  0.00000000000E+00  0.00000000000E+00  0.16810738132E+04  0.16810738132E+04  0.00000000000E+00 0. -1.
         21   -1    0    0  501  502 -0.00000000000E+00 -0.00000000000E+00 -0.14667444086E+03  0.14667444086E+03  0.00000000000E+00 0. -1.
         25    1    1    2    0    0  0.14038114465E+03 -0.89594141002E+02  0.22111871228E+02  0.20939892723E+03  0.12500000000E+03 0.  0.
         25    1    1    2    0    0 -0.31807324296E+03  0.14190497036E+01  0.90094639354E+03  0.96358808918E+03  0.12500000000E+03 0.  0.
         25    1    1    2    0    0  0.17769209832E+03  0.88175091299E+02  0.61134110760E+03  0.65476123768E+03  0.12500000000E+03 0.  0.
</event>
<event>
 5    0  0.5663008E-005  0.2244981E+03  0.7546771E-02  0.1130573E+00
         21   -1    0    0  502  501  0.00000000000E+00  0.00000000000E+00  0.26451536030E+03  0.26451536030E+03  0.00000000000E+00 0. -1.
         21   -1    0    0  501  502 -0.00000000000E+00 -0.00000000000E+00 -0.19053482758E+03  0.19053482758E+03  0.00000000000E+00 0. -1.
         25    1    1    2    0    0 -0.57205693217E+02 -0.11162964285E+02  0.28996951954E+02  0.14093589440E+03  0.12500000000E+03 0.  0.
         25    1    1    2    0    0  0.17466554575E+02  0.37752241172E+02  0.10400377631E+03  0.16784545787E+03  0.12500000000E+03 0.  0.
         25    1    1    2    0    0  0.39739138642E+02 -0.26589276887E+02 -0.59020195551E+02  0.14626883560E+03  0.12500000000E+03 0.  0.
</event>
<event>
 5    0  0.5663008E-005  0.3061894E+03  0.7546771E-02  0.1082187E+00
         21   -1    0    0  502  501  0.00000000000E+00  0.00000000000E+00  0.78571298815E+02  0.78571298815E+02  0.00000000000E+00 0. -1.
         21   -1    0    0  501  502 -0.00000000000E+00 -0.00000000000E+00 -0.11932089750E+04  0.11932089750E+04  0.00000000000E+00 0. -1.
         25    1    1    2    0    0  0.14163899873E+03  0.61035140485E+02 -0.19341279932E+03  0.27716494236E+03  0.12500000000E+03 0.  0.
         25    1    1    2    0    0 -0.76162709475E+02 -0.12840137830E+03 -0.33094353108E+03  0.38397433902E+03  0.12500000000E+03 0.  0.
         25    1    1    2    0    0 -0.65476289251E+02  0.67366237819E+02 -0.59028134579E+03  0.61064099243E+03  0.12500000000E+03 0.  0.
</event>
<event>
 5    0  0.5663008E-005  0.3607494E+03  0.7546771E-02  0.1058288E+00
         21   -1    0    0  502  501  0.00000000000E+00  0.00000000000E+00  0.40855805276E+03  0.40855805276E+03  0.00000000000E+00 0.  1.
         21   -1    0    0  501  502 -0.00000000000E+00 -0.00000000000E+00 -0.31853527713E+03  0.31853527713E+03  0.00000000000E+00 0.  1.
         25    1    1    2    0    0 -0.12309725373E+02 -0.13400978706E+03  0.18542267506E+02  0.18460489715E+03  0.12500000000E+03 0.  0.
         25    1    1    2    0    0 -0.28035777178E+02  0.27896503287E+03  0.13705043491E+03  0.33617750679E+03  0.12500000000E+03 0.  0.
         25    1    1    2    0    0  0.40345502551E+02 -0.14495524581E+03 -0.65569926786E+02  0.20631092594E+03  0.12500000000E+03 0.  0.
</event>
<event>
 5    0  0.5663008E-005  0.3096256E+03  0.7546771E-02  0.1080525E+00
         21   -1    0    0  502  501  0.00000000000E+00  0.00000000000E+00  0.25321236852E+03  0.25321236852E+03  0.00000000000E+00 0. -1.
         21   -1    0    0  501  502 -0.00000000000E+00 -0.00000000000E+00 -0.37860723613E+03  0.37860723613E+03  0.00000000000E+00 0. -1.
         25    1    1    2    0    0 -0.89105614115E+02 -0.92523299817E+02 -0.18911735003E+03  0.26055852233E+03  0.12500000000E+03 0.  0.
         25    1    1    2    0    0  0.10158505547E+03 -0.85237363210E+01  0.11941834173E+03  0.20069359212E+03  0.12500000000E+03 0.  0.
         25    1    1    2    0    0 -0.12479441357E+02  0.10104703614E+03 -0.55695859308E+02  0.17056749020E+03  0.12500000000E+03 0.  0.
</event>
<event>
 5    0  0.5663008E-005  0.3170857E+03  0.7546771E-02  0.1076998E+00
         21   -1    0    0  502  501  0.00000000000E+00  0.00000000000E+00  0.77061844952E+02  0.77061844952E+02  0.00000000000E+00 0. -1.
         21   -1    0    0  501  502 -0.00000000000E+00 -0.00000000000E+00 -0.13047098757E+04  0.13047098757E+04  0.00000000000E+00 0. -1.
         25    1    1    2    0    0 -0.51196395984E+01 -0.10667646501E+03 -0.43857376431E+03  0.46837807980E+03  0.12500000000E+03 0.  0.
         25    1    1    2    0    0  0.57621980895E+02 -0.12172550382E+03 -0.42231605130E+03  0.46055752968E+03  0.12500000000E+03 0.  0.
         25    1    1    2    0    0 -0.52502341297E+02  0.22840196884E+03 -0.36675821517E+03  0.45283611120E+03  0.12500000000E+03 0.  0.
</event>
<event>
 5    0  0.5663008E-005  0.2308656E+03  0.7546771E-02  0.1126032E+00
         21   -1    0    0  502  501  0.00000000000E+00  0.00000000000E+00  0.54642842370E+03  0.54642842370E+03  0.00000000000E+00 0. -1.
         21   -1    0    0  501  502 -0.00000000000E+00 -0.00000000000E+00 -0.97540516784E+02  0.97540516784E+02  0.00000000000E+00 0. -1.
         25    1    1    2    0    0 -0.29144873047E+00  0.96048312932E+02  0.13471439808E+03  0.20736039258E+03  0.12500000000E+03 0.  0.
         25    1    1    2    0    0 -0.22543030749E+02 -0.20200666607E+02  0.23714845346E+03  0.26977888010E+03  0.12500000000E+03 0.  0.
         25    1    1    2    0    0  0.22834479479E+02 -0.75847646325E+02  0.77025055371E+02  0.16682966781E+03  0.12500000000E+03 0.  0.
</event>
<event>
 5    0  0.6834821E-005  0.3522072E+03  0.7546771E-02  0.1061713E+00
         21   -1    0    0  502  501  0.00000000000E+00  0.00000000000E+00  0.27841704831E+03  0.27841704831E+03  0.00000000000E+00 0.  1.
         21   -1    0    0  501  502 -0.00000000000E+00 -0.00000000000E+00 -0.44555441387E+03  0.44555441387E+03  0.00000000000E+00 0.  1.
         25    1    1    2    0    0 -0.10378777221E+03  0.19843400275E+03 -0.14902601749E+03  0.29661710840E+03  0.12500000000E+03 0.  0.
         25    1    1    2    0    0 -0.61431709167E+02 -0.14330389099E+03  0.43033932809E+02  0.20441814850E+03  0.12500000000E+03 0.  0.
         25    1    1    2    0    0  0.16521948138E+03 -0.55130111761E+02 -0.61145280878E+02  0.22293620528E+03  0.12500000000E+03 0.  0.
</event>
<event>
 5    0  0.5663008E-005  0.3647697E+03  0.7546771E-02  0.1056711E+00
         21   -1    0    0  502  501  0.00000000000E+00  0.00000000000E+00  0.83294289784E+02  0.83294289784E+02  0.00000000000E+00 0.  1.
         21   -1    0    0  501  502 -0.00000000000E+00 -0.00000000000E+00 -0.15974314492E+04  0.15974314492E+04  0.00000000000E+00 0.  1.
         25    1    1    2    0    0  0.21860577700E+03 -0.20046827044E+03 -0.57519650609E+03  0.65912975491E+03  0.12500000000E+03 0.  0.
         25    1    1    2    0    0 -0.16946695267E+03  0.14531097109E+03 -0.64048357389E+03  0.68969452281E+03  0.12500000000E+03 0.  0.
         25    1    1    2    0    0 -0.49138824330E+02  0.55157299346E+02 -0.29845707948E+03  0.33190146131E+03  0.12500000000E+03 0.  0.
</event>
<event>
 5    0  0.5663008E-005  0.2954137E+03  0.7546771E-02  0.1087556E+00
         21   -1    0    0  502  501  0.00000000000E+00  0.00000000000E+00  0.13974610798E+03  0.13974610798E+03  0.00000000000E+00 0. -1.
         21   -1    0    0  501  502 -0.00000000000E+00 -0.00000000000E+00 -0.62448429208E+03  0.62448429208E+03  0.00000000000E+00 0. -1.
         25    1    1    2    0    0  0.99257573237E+02 -0.91073456244E+02 -0.69126540886E+02  0.19634133271E+03  0.12500000000E+03 0.  0.
         25    1    1    2    0    0 -0.12900079453E+03  0.64104794478E+02 -0.38998136873E+03  0.43412106332E+03  0.12500000000E+03 0.  0.
         25    1    1    2    0    0  0.29743221295E+02  0.26968661765E+02 -0.25630274492E+02  0.13376800403E+03  0.12500000000E+03 0.  0.
</event>
<event>
 5    0  0.5663008E-005  0.4147943E+03  0.7546771E-02  0.1038774E+00
         21   -1    0    0  502  501  0.00000000000E+00  0.00000000000E+00  0.20354048407E+04  0.20354048407E+04  0.00000000000E+00 0. -1.
         21   -1    0    0  501  502 -0.00000000000E+00 -0.00000000000E+00 -0.84530755720E+02  0.84530755720E+02  0.00000000000E+00 0. -1.
         25    1    1    2    0    0  0.11251432878E+03  0.31075935140E+02  0.19235362874E+03  0.25739096024E+03  0.12500000000E+03 0.  0.
         25    1    1    2    0    0  0.15306939521E+03 -0.55420009098E+02  0.13098601324E+04  0.13258431973E+04  0.12500000000E+03 0.  0.
         25    1    1    2    0    0 -0.26558372400E+03  0.24344073958E+02  0.44866032383E+03  0.53670143895E+03  0.12500000000E+03 0.  0.
</event>
<event>
 5    0  0.5663008E-005  0.2642004E+03  0.7546771E-02  0.1104645E+00
         21   -1    0    0  502  501  0.00000000000E+00  0.00000000000E+00  0.78150481259E+03  0.78150481259E+03  0.00000000000E+00 0. -1.
         21   -1    0    0  501  502 -0.00000000000E+00 -0.00000000000E+00 -0.89317249305E+02  0.89317249305E+02  0.00000000000E+00 0. -1.
         25    1    1    2    0    0  0.18084582004E+02 -0.13173911677E+03  0.40955801923E+03  0.44838043904E+03  0.12500000000E+03 0.  0.
         25    1    1    2    0    0 -0.17877739910E+02 -0.21403904761E+01  0.15119476055E+03  0.19700012811E+03  0.12500000000E+03 0.  0.
         25    1    1    2    0    0 -0.20684209383E+00  0.13387950724E+03  0.13143478350E+03  0.22544149476E+03  0.12500000000E+03 0.  0.
</event>
<event>
 5    0  0.5880717E-005  0.2581923E+03  0.7546771E-02  0.1108234E+00
         21   -1    0    0  502  501  0.00000000000E+00  0.00000000000E+00  0.24986859607E+03  0.24986859607E+03  0.00000000000E+00 0. -1.
         21   -1    0    0  501  502 -0.00000000000E+00 -0.00000000000E+00 -0.26679318347E+03  0.26679318347E+03  0.00000000000E+00 0. -1.
         25    1    1    2    0    0 -0.21641231804E+02 -0.27324517295E+02 -0.90630409937E+02  0.15828405910E+03  0.12500000000E+03 0.  0.
         25    1    1    2    0    0  0.51607450818E+02  0.61212489965E+02 -0.68698768313E+02  0.16356900279E+03  0.12500000000E+03 0.  0.
         25    1    1    2    0    0 -0.29966219014E+02 -0.33887972670E+02  0.14240459085E+03  0.19480871764E+03  0.12500000000E+03 0.  0.
</event>
<event>
 5    0  0.5663008E-005  0.3217764E+03  0.7546771E-02  0.1074835E+00
         21   -1    0    0  502  501  0.00000000000E+00  0.00000000000E+00  0.86191162426E+03  0.86191162426E+03  0.00000000000E+00 0. -1.
         21   -1    0    0  501  502 -0.00000000000E+00 -0.00000000000E+00 -0.12012838372E+03  0.12012838372E+03  0.00000000000E+00 0. -1.
         25    1    1    2    0    0  0.12348979098E+03 -0.14041242689E+02  0.68018485160E+02  0.18894020032E+03  0.12500000000E+03 0.  0.
         25    1    1    2    0    0 -0.17355186149E+03  0.11954544543E+03  0.43699603921E+03  0.50100089864E+03  0.12500000000E+03 0.  0.
         25    1    1    2    0    0  0.50062070508E+02 -0.10550420275E+03  0.23676871617E+03  0.29209890903E+03  0.12500000000E+03 0.  0.
</event>
<event>
 5    0  0.5663008E-005  0.3816491E+03  0.7546771E-02  0.1050326E+00
         21   -1    0    0  502  501  0.00000000000E+00  0.00000000000E+00  0.17545804628E+04  0.17545804628E+04  0.00000000000E+00 0.  1.
         21   -1    0    0  501  502 -0.00000000000E+00 -0.00000000000E+00 -0.83014738840E+02  0.83014738840E+02  0.00000000000E+00 0.  1.
         25    1    1    2    0    0  0.99005979909E+01  0.28349446436E+03  0.91177277232E+03  0.96302737318E+03  0.12500000000E+03 0.  0.
         25    1    1    2    0    0  0.87760371412E+02 -0.14046458131E+03  0.27241890233E+03  0.34244596616E+03  0.12500000000E+03 0.  0.
         25    1    1    2    0    0 -0.97660969403E+02 -0.14302988305E+03  0.48737404934E+03  0.53212186232E+03  0.12500000000E+03 0.  0.
</event>
<event>
 5    0  0.5663008E-005  0.2092254E+03  0.7546771E-02  0.1142181E+00
         21   -1    0    0  502  501  0.00000000000E+00  0.00000000000E+00  0.13062317496E+03  0.13062317496E+03  0.00000000000E+00 0. -1.
         21   -1    0    0  501  502 -0.00000000000E+00 -0.00000000000E+00 -0.33512626998E+03  0.33512626998E+03  0.00000000000E+00 0. -1.
         25    1    1    2    0    0  0.74631020097E+02 -0.26341920712E+02 -0.10533693642E+03  0.18161650839E+03  0.12500000000E+03 0.  0.
         25    1    1    2    0    0 -0.44929452624E+02  0.26627350715E+02 -0.69553765114E+02  0.15228393796E+03  0.12500000000E+03 0.  0.
         25    1    1    2    0    0 -0.29701567473E+02 -0.28543000285E+00 -0.29612393493E+02  0.13184899859E+03  0.12500000000E+03 0.  0.
</event>
<event>
 5    0  0.5663008E-005  0.3079498E+03  0.7546771E-02  0.1081333E+00
         21   -1    0    0  502  501  0.00000000000E+00  0.00000000000E+00  0.22560255068E+03  0.22560255068E+03  0.00000000000E+00 0. -1.
         21   -1    0    0  501  502 -0.00000000000E+00 -0.00000000000E+00 -0.42035466713E+03  0.42035466713E+03  0.00000000000E+00 0. -1.
         25    1    1    2    0    0  0.93259504712E+02  0.53886128053E+02  0.40985428700E+02  0.17001722084E+03  0.12500000000E+03 0.  0.
         25    1    1    2    0    0 -0.76587572150E+01  0.10644550068E+03 -0.16915850418E+02  0.16522846962E+03  0.12500000000E+03 0.  0.
         25    1    1    2    0    0 -0.85600747497E+02 -0.16033162873E+03 -0.21882169474E+03  0.31071152735E+03  0.12500000000E+03 0.  0.
</event>
<event>
 5    0  0.5663008E-005  0.3147102E+03  0.7546771E-02  0.1078110E+00
         21   -1    0    0  502  501  0.00000000000E+00  0.00000000000E+00  0.45982393112E+03  0.45982393112E+03  0.00000000000E+00 0.  1.
         21   -1    0    0  501  502 -0.00000000000E+00 -0.00000000000E+00 -0.21539219197E+03  0.21539219197E+03  0.00000000000E+00 0.  1.
         25    1    1    2    0    0  0.13181939764E+03  0.13936057666E+03  0.89895963864E+02  0.24597562529E+03  0.12500000000E+03 0.  0.
         25    1    1    2    0    0  0.96299086242E+01 -0.11706442577E+03 -0.18081726575E+02  0.17247829938E+03  0.12500000000E+03 0.  0.
         25    1    1    2    0    0 -0.14144930626E+03 -0.22296150888E+02  0.17261750186E+03  0.25676219841E+03  0.12500000000E+03 0.  0.
</event>
<event>
 5    0  0.5663008E-005  0.2029433E+03  0.7546771E-02  0.1147279E+00
         21   -1    0    0  502  501  0.00000000000E+00  0.00000000000E+00  0.83553179278E+03  0.83553179278E+03  0.00000000000E+00 0.  1.
         21   -1    0    0  501  502 -0.00000000000E+00 -0.00000000000E+00 -0.49293129535E+02  0.49293129535E+02  0.00000000000E+00 0.  1.
         25    1    1    2    0    0  0.16160482652E+02  0.10872443618E+02  0.40356315626E+03  0.42292740786E+03  0.12500000000E+03 0.  0.
         25    1    1    2    0    0  0.19920138464E+02  0.28446164887E+01  0.16570722398E+03  0.20853965532E+03  0.12500000000E+03 0.  0.
         25    1    1    2    0    0 -0.36080621116E+02 -0.13717060106E+02  0.21696828300E+03  0.25335785914E+03  0.12500000000E+03 0.  0.
</event>
<event>
 5    0  0.5663008E-005  0.2971151E+03  0.7546771E-02  0.1086692E+00
         21   -1    0    0  502  501  0.00000000000E+00  0.00000000000E+00  0.50862672454E+02  0.50862672454E+02  0.00000000000E+00 0. -1.
         21   -1    0    0  501  502 -0.00000000000E+00 -0.00000000000E+00 -0.17356027084E+04  0.17356027084E+04  0.00000000000E+00 0. -1.
         25    1    1    2    0    0 -0.18826242187E+03 -0.20147245168E+02 -0.39541560547E+03  0.45588063353E+03  0.12500000000E+03 0.  0.
         25    1    1    2    0    0  0.12503305663E+03 -0.27469695941E+02 -0.63377984915E+03  0.65855124830E+03  0.12500000000E+03 0.  0.
         25    1    1    2    0    0  0.63229365242E+02  0.47616941108E+02 -0.65554458135E+03  0.67203349905E+03  0.12500000000E+03 0.  0.
</event>
<event>
 5    0  0.5663008E-005  0.2468453E+03  0.7546771E-02  0.1115315E+00
         21   -1    0    0  502  501  0.00000000000E+00  0.00000000000E+00  0.38596734410E+03  0.38596734410E+03  0.00000000000E+00 0. -1.
         21   -1    0    0  501  502 -0.00000000000E+00 -0.00000000000E+00 -0.15786982465E+03  0.15786982465E+03  0.00000000000E+00 0. -1.
         25    1    1    2    0    0 -0.79870495096E+02  0.50268398771E+02  0.14336970948E+03  0.21233483346E+03  0.12500000000E+03 0.  0.
         25    1    1    2    0    0 -0.50612993938E+02 -0.31436038363E+02  0.29052995201E+02  0.14148843131E+03  0.12500000000E+03 0.  0.
         25    1    1    2    0    0  0.13048348903E+03 -0.18832360408E+02  0.55674814768E+02  0.19001390399E+03  0.12500000000E+03 0.  0.
</event>
<event>
 5    0  0.5663008E-005  0.4587578E+03  0.7546771E-02  0.1025142E+00
         21   -1    0    0  502  501  0.00000000000E+00  0.00000000000E+00  0.93152479548E+03  0.93152479548E+03  0.00000000000E+00 0.  1.
         21   -1    0    0  501  502 -0.00000000000E+00 -0.00000000000E+00 -0.22592930181E+03  0.22592930181E+03  0.00000000000E+00 0.  1.
         25    1    1    2    0    0  0.48927186295E+02  0.32218737672E+03  0.37425364489E+03  0.51175127357E+03  0.12500000000E+03 0.  0.
         25    1    1    2    0    0  0.79615151818E+02  0.31630173398E+02  0.50655330922E+02  0.15978110908E+03  0.12500000000E+03 0.  0.
         25    1    1    2    0    0 -0.12854233811E+03 -0.35381755012E+03  0.28068651785E+03  0.48592171464E+03  0.12500000000E+03 0.  0.
</event>
<event>
 5    0  0.5663008E-005  0.2876652E+03  0.7546771E-02  0.1091575E+00
         21   -1    0    0  502  501  0.00000000000E+00  0.00000000000E+00  0.36066890212E+03  0.36066890212E+03  0.00000000000E+00 0. -1.
         21   -1    0    0  501  502 -0.00000000000E+00 -0.00000000000E+00 -0.22943828115E+03  0.22943828115E+03  0.00000000000E+00 0. -1.
         25    1    1    2    0    0 -0.18351374121E+03 -0.17192318966E+02  0.10238790830E+03  0.24511457079E+03  0.12500000000E+03 0.  0.
         25    1    1    2    0    0  0.92811716583E+02  0.53291501863E+02 -0.44182852046E+02  0.17038522037E+03  0.12500000000E+03 0.  0.
         25    1    1    2    0    0  0.90702024631E+02 -0.36099182897E+02  0.73025564712E+02  0.17460739211E+03  0.12500000000E+03 0.  0.
</event>
<event>
 5    0  0.5663008E-005  0.2558693E+03  0.7546771E-02  0.1109651E+00
         21   -1    0    0  502  501  0.00000000000E+00  0.00000000000E+00  0.20124687989E+03  0.20124687989E+03  0.00000000000E+00 0. -1.
         21   -1    0    0  501  502 -0.00000000000E+00 -0.00000000000E+00 -0.32531734148E+03  0.32531734148E+03  0.00000000000E+00 0. -1.
         25    1    1    2    0    0 -0.81392527441E+02 -0.15027733032E+02 -0.10046636107E+03  0.18046901670E+03  0.12500000000E+03 0.  0.
         25    1    1    2    0    0 -0.45578573840E+01 -0.81469802610E+02 -0.63025037495E+02  0.16203474366E+03  0.12500000000E+03 0.  0.
         25    1    1    2    0    0  0.85950384825E+02  0.96497535641E+02  0.39420936967E+02  0.18406046101E+03  0.12500000000E+03 0.  0.
</event>
<event>
 5    0  0.5663008E-005  0.2040916E+03  0.7546771E-02  0.1146332E+00
         21   -1    0    0  502  501  0.00000000000E+00  0.00000000000E+00  0.75199106575E+02  0.75199106575E+02  0.00000000000E+00 0. -1.
         21   -1    0    0  501  502 -0.00000000000E+00 -0.00000000000E+00 -0.55390806690E+03  0.55390806690E+03  0.00000000000E+00 0. -1.
         25    1    1    2    0    0 -0.35381306137E+02  0.25759499723E+02 -0.22295897591E+03  0.25932815811E+03  0.12500000000E+03 0.  0.
         25    1    1    2    0    0  0.33408351111E+02 -0.27842336960E+01 -0.77492581003E+02  0.15084419111E+03  0.12500000000E+03 0.  0.
         25    1    1    2    0    0  0.19729550259E+01 -0.22975266027E+02 -0.17825740341E+03  0.21893482426E+03  0.12500000000E+03 0.  0.
</event>
<event>
 5    0  0.5663008E-005  0.3236603E+03  0.7546771E-02  0.1073977E+00
         21   -1    0    0  502  501  0.00000000000E+00  0.00000000000E+00  0.39066420927E+03  0.39066420927E+03  0.00000000000E+00 0.  1.
         21   -1    0    0  501  502 -0.00000000000E+00 -0.00000000000E+00 -0.26814841046E+03  0.26814841046E+03  0.00000000000E+00 0.  1.
         25    1    1    2    0    0 -0.51495499592E+02 -0.21007539127E+03 -0.89321333372E+01  0.24997647790E+03  0.12500000000E+03 0.  0.
         25    1    1    2    0    0 -0.23448212298E+02 -0.49467779963E+01  0.39085996632E+02  0.13314279705E+03  0.12500000000E+03 0.  0.
         25    1    1    2    0    0  0.74943711891E+02  0.21502216927E+03  0.92361935518E+02  0.27569334479E+03  0.12500000000E+03 0.  0.
</event>
<event>
 5    0  0.5663008E-005  0.2938983E+03  0.7546771E-02  0.1088331E+00
         21   -1    0    0  502  501  0.00000000000E+00  0.00000000000E+00  0.18709631173E+04  0.18709631173E+04  0.00000000000E+00 0.  1.
         21   -1    0    0  501  502 -0.00000000000E+00 -0.00000000000E+00 -0.46166700279E+02  0.46166700279E+02  0.00000000000E+00 0.  1.
         25    1    1    2    0    0 -0.87563676607E+02  0.24348183693E+02  0.15158661720E+03  0.21648033173E+03  0.12500000000E+03 0.  0.
         25    1    1    2    0    0  0.10523672800E+03 -0.57587875733E+02  0.10005382324E+04  0.10154274405E+04  0.12500000000E+03 0.  0.
         25    1    1    2    0    0 -0.17673051393E+02  0.33239692040E+02  0.67267156736E+03  0.68522204533E+03  0.12500000000E+03 0.  0.
</event>
<event>
 5    0  0.5663008E-005  0.4034107E+03  0.7546771E-02  0.1042605E+00
         21   -1    0    0  502  501  0.00000000000E+00  0.00000000000E+00  0.37169238758E+03  0.37169238758E+03  0.00000000000E+00 0. -1.
         21   -1    0    0  501  502 -0.00000000000E+00 -0.00000000000E+00 -0.43783579445E+03  0.43783579445E+03  0.00000000000E+00 0.  1.
         25    1    1    2    0    0 -0.10027129068E+03 -0.23816684968E+03  0.29041129803E+01  0.28707353395E+03  0.12500000000E+03 0.  0.
         25    1    1    2    0    0  0.66600215999E+02  0.30600050145E+03  0.40766732861E+02  0.33964514154E+03  0.12500000000E+03 0.  0.
         25    1    1    2    0    0  0.33671074686E+02 -0.67833651770E+02 -0.10981425272E+03  0.18280950654E+03  0.12500000000E+03 0.  0.
</event>
<event>
 5    0  0.5663008E-005  0.2818734E+03  0.7546771E-02  0.1094670E+00
         21   -1    0    0  502  501  0.00000000000E+00  0.00000000000E+00  0.10018417473E+03  0.10018417473E+03  0.00000000000E+00 0. -1.
         21   -1    0    0  501  502 -0.00000000000E+00 -0.00000000000E+00 -0.79306554474E+03  0.79306554474E+03  0.00000000000E+00 0. -1.
         25    1    1    2    0    0  0.76022984878E+01  0.89034236225E+02 -0.40197981568E+02  0.15882621913E+03  0.12500000000E+03 0.  0.
         25    1    1    2    0    0 -0.86406399922E+02  0.12807519430E+01 -0.40176133941E+03  0.42954031257E+03  0.12500000000E+03 0.  0.
         25    1    1    2    0    0  0.78804101434E+02 -0.90314988168E+02 -0.25092204903E+03  0.30488318776E+03  0.12500000000E+03 0.  0.
</event>
<event>
 5    0  0.5663008E-005  0.5100318E+03  0.7546771E-02  0.1011193E+00
         21   -1    0    0  502  501  0.00000000000E+00  0.00000000000E+00  0.70050505520E+03  0.70050505520E+03  0.00000000000E+00 0.  1.
         21   -1    0    0  501  502 -0.00000000000E+00 -0.00000000000E+00 -0.37134976316E+03  0.37134976316E+03  0.00000000000E+00 0.  1.
         25    1    1    2    0    0 -0.17124566838E+03  0.19818028807E+03 -0.23828334811E+02  0.29119288291E+03  0.12500000000E+03 0.  0.
         25    1    1    2    0    0 -0.17536614386E+03  0.87703825267E+01 -0.20718811385E+02  0.21652822719E+03  0.12500000000E+03 0.  0.
         25    1    1    2    0    0  0.34661181224E+03 -0.20695067060E+03  0.37370243824E+03  0.56413370826E+03  0.12500000000E+03 0.  0.
</event>
<event>
 5    0  0.5663008E-005  0.2212683E+03  0.7546771E-02  0.1132941E+00
         21   -1    0    0  502  501  0.00000000000E+00  0.00000000000E+00  0.28716446098E+03  0.28716446098E+03  0.00000000000E+00 0.  1.
         21   -1    0    0  501  502 -0.00000000000E+00 -0.00000000000E+00 -0.17049340297E+03  0.17049340297E+03  0.00000000000E+00 0.  1.
         25    1    1    2    0    0  0.75799222123E+02 -0.59942798015E+02  0.56931937224E+01  0.15810146604E+03  0.12500000000E+03 0.  0.
         25    1    1    2    0    0 -0.31197007586E+02  0.63210386405E+02  0.75422467049E+02  0.16211833569E+03  0.12500000000E+03 0.  0.
         25    1    1    2    0    0 -0.44602214536E+02 -0.32675883909E+01  0.35555397234E+02  0.13743806222E+03  0.12500000000E+03 0.  0.
</event>
<event>
 5    0  0.5663008E-005  0.2971869E+03  0.7546771E-02  0.1086655E+00
         21   -1    0    0  502  501  0.00000000000E+00  0.00000000000E+00  0.39873530339E+03  0.39873530339E+03  0.00000000000E+00 0. -1.
         21   -1    0    0  501  502 -0.00000000000E+00 -0.00000000000E+00 -0.22150040911E+03  0.22150040911E+03  0.00000000000E+00 0. -1.
         25    1    1    2    0    0 -0.10536364087E+03 -0.16463186896E+03  0.10942272446E+02  0.23227113988E+03  0.12500000000E+03 0.  0.
         25    1    1    2    0    0  0.99601138077E+02  0.14783886725E+03  0.68419847681E+02  0.22821698651E+03  0.12500000000E+03 0.  0.
         25    1    1    2    0    0  0.57625027951E+01  0.16793001713E+02  0.97872774158E+02  0.15974758611E+03  0.12500000000E+03 0.  0.
</event>
<event>
 5    0  0.5663008E-005  0.2345528E+03  0.7546771E-02  0.1123476E+00
         21   -1    0    0  502  501  0.00000000000E+00  0.00000000000E+00  0.20969762381E+03  0.20969762381E+03  0.00000000000E+00 0. -1.
         21   -1    0    0  501  502 -0.00000000000E+00 -0.00000000000E+00 -0.26235410398E+03  0.26235410398E+03  0.00000000000E+00 0. -1.
         25    1    1    2    0    0  0.44757990693E+02  0.30968472563E+01  0.59570152741E+02  0.14555573260E+03  0.12500000000E+03 0.  0.
         25    1    1    2    0    0 -0.70620169086E+02 -0.27907282928E+00 -0.13468646019E+03  0.19685712769E+03  0.12500000000E+03 0.  0.
         25    1    1    2    0    0  0.25862178393E+02 -0.28177744270E+01  0.22459827284E+02  0.12963886750E+03  0.12500000000E+03 0.  0.
</event>
<event>
 5    0  0.5663008E-005  0.5603138E+03  0.7546771E-02  0.9991345E-01
         21   -1    0    0  502  501  0.00000000000E+00  0.00000000000E+00  0.24769298272E+03  0.24769298272E+03  0.00000000000E+00 0.  1.
         21   -1    0    0  501  502 -0.00000000000E+00 -0.00000000000E+00 -0.12675028321E+04  0.12675028321E+04  0.00000000000E+00 0.  1.
         25    1    1    2    0    0 -0.28127471572E+02 -0.56632959678E+02 -0.21447687045E+03  0.25617137767E+03  0.12500000000E+03 0.  0.
         25    1    1    2    0    0 -0.11842238183E+03  0.44146200516E+03 -0.64375319823E+03  0.79934707277E+03  0.12500000000E+03 0.  0.
         25    1    1    2    0    0  0.14654985340E+03 -0.38482904548E+03 -0.16157978066E+03  0.45967736435E+03  0.12500000000E+03 0.  0.
</event>
<event>
 5    0  0.5663008E-005  0.3371942E+03  0.7546771E-02  0.1067997E+00
         21   -1    0    0  502  501  0.00000000000E+00  0.00000000000E+00  0.45243251143E+03  0.45243251143E+03  0.00000000000E+00 0.  1.
         21   -1    0    0  501  502 -0.00000000000E+00 -0.00000000000E+00 -0.25130805241E+03  0.25130805241E+03  0.00000000000E+00 0.  1.
         25    1    1    2    0    0  0.40263245031E+02  0.13993147197E+03  0.23612893724E+03  0.30427589578E+03  0.12500000000E+03 0.  0.
         25    1    1    2    0    0 -0.10848142231E+03 -0.79961605477E+02 -0.12345548034E+03  0.22142342460E+03  0.12500000000E+03 0.  0.
         25    1    1    2    0    0  0.68218177276E+02 -0.59969866496E+02  0.88451002118E+02  0.17804124346E+03  0.12500000000E+03 0.  0.
</event>
<event>
 5    0  0.5663008E-005  0.2837840E+03  0.7546771E-02  0.1093640E+00
         21   -1    0    0  502  501  0.00000000000E+00  0.00000000000E+00  0.57903117960E+03  0.57903117960E+03  0.00000000000E+00 0.  1.
         21   -1    0    0  501  502 -0.00000000000E+00 -0.00000000000E+00 -0.13908295566E+03  0.13908295566E+03  0.00000000000E+00 0.  1.
         25    1    1    2    0    0  0.52194750286E+02  0.72725350085E+02  0.16713874500E+03  0.22709827957E+03  0.12500000000E+03 0.  0.
         25    1    1    2    0    0 -0.20710946122E+02  0.18233260025E+02  0.30430934721E+03  0.33013720459E+03  0.12500000000E+03 0.  0.
         25    1    1    2    0    0 -0.31483804164E+02 -0.90958610110E+02 -0.31499868265E+02  0.16087865110E+03  0.12500000000E+03 0.  0.
</event>
<event>
 5    0  0.5663008E-005  0.2037090E+03  0.7546771E-02  0.1146647E+00
         21   -1    0    0  502  501  0.00000000000E+00  0.00000000000E+00  0.91544877253E+02  0.91544877253E+02  0.00000000000E+00 0.  1.
         21   -1    0    0  501  502 -0.00000000000E+00 -0.00000000000E+00 -0.45330064331E+03  0.45330064331E+03  0.00000000000E+00 0.  1.
         25    1    1    2    0    0  0.27285206310E+02  0.57498817957E+02 -0.14827683074E+03  0.20411177106E+03  0.12500000000E+03 0.  0.
         25    1    1    2    0    0 -0.15425747387E+02 -0.43407971287E+02 -0.73441380478E+02  0.15212114258E+03  0.12500000000E+03 0.  0.
         25    1    1    2    0    0 -0.11859458923E+02 -0.14090846670E+02 -0.14003755484E+03  0.18861260692E+03  0.12500000000E+03 0.  0.
</event>
<event>
 5    0  0.5663008E-005  0.2769286E+03  0.7546771E-02  0.1097378E+00
         21   -1    0    0  502  501  0.00000000000E+00  0.00000000000E+00  0.12838148939E+03  0.12838148939E+03  0.00000000000E+00 0.  1.
         21   -1    0    0  501  502 -0.00000000000E+00 -0.00000000000E+00 -0.59735615611E+03  0.59735615611E+03  0.00000000000E+00 0.  1.
         25    1    1    2    0    0  0.98752356796E+02  0.12622477370E+03 -0.21268696315E+03  0.29418610736E+03  0.12500000000E+03 0.  0.
         25    1    1    2    0    0 -0.11300207483E+03 -0.22845754543E+02 -0.19202205635E+03  0.25649340643E+03  0.12500000000E+03 0.  0.
         25    1    1    2    0    0  0.14249718037E+02 -0.10337901916E+03 -0.64265647221E+02  0.17505813172E+03  0.12500000000E+03 0.  0.
</event>
<event>
 5    0  0.5663008E-005  0.2981318E+03  0.7546771E-02  0.1086178E+00
         21   -1    0    0  502  501  0.00000000000E+00  0.00000000000E+00  0.10273921578E+03  0.10273921578E+03  0.00000000000E+00 0. -1.
         21   -1    0    0  501  502 -0.00000000000E+00 -0.00000000000E+00 -0.86512770795E+03  0.86512770795E+03  0.00000000000E+00 0. -1.
         25    1    1    2    0    0  0.85636838278E+02 -0.64972601155E+02 -0.27608062423E+03  0.32155966483E+03  0.12500000000E+03 0.  0.
         25    1    1    2    0    0 -0.15125636447E+03  0.13648997675E+03 -0.40018169942E+03  0.46613130564E+03  0.12500000000E+03 0.  0.
         25    1    1    2    0    0  0.65619526192E+02 -0.71517375593E+02 -0.86126168516E+02  0.18017595326E+03  0.12500000000E+03 0.  0.
</event>
<event>
 5    0  0.5663008E-005  0.2947118E+03  0.7546771E-02  0.1087914E+00
         21   -1    0    0  502  501  0.00000000000E+00  0.00000000000E+00  0.16919851204E+04  0.16919851204E+04  0.00000000000E+00 0.  1.
         21   -1    0    0  501  502 -0.00000000000E+00 -0.00000000000E+00 -0.51333219756E+02  0.51333219756E+02  0.00000000000E+00 0.  1.
         25    1    1    2    0    0 -0.14864457697E+03  0.49616726475E+02  0.47311463327E+03  0.51382826511E+03  0.12500000000E+03 0.  0.
         25    1    1    2    0    0  0.72860194678E+02 -0.71496265827E+02  0.23358532036E+03  0.28391446931E+03  0.12500000000E+03 0.  0.
         25    1    1    2    0    0  0.75784382288E+02  0.21879539352E+02  0.93395194700E+03  0.94557560572E+03  0.12500000000E+03 0.  0.
</event>
<event>
 5    0  0.5663008E-005  0.2932291E+03  0.7546771E-02  0.1088675E+00
         21   -1    0    0  502  501  0.00000000000E+00  0.00000000000E+00  0.16967995057E+03  0.16967995057E+03  0.00000000000E+00 0. -1.
         21   -1    0    0  501  502 -0.00000000000E+00 -0.00000000000E+00 -0.50673823088E+03  0.50673823088E+03  0.00000000000E+00 0. -1.
         25    1    1    2    0    0 -0.59361650423E+01 -0.65194221892E+02 -0.16303635570E+02  0.14204341997E+03  0.12500000000E+03 0.  0.
         25    1    1    2    0    0 -0.13277045933E+03 -0.17019094717E+01 -0.27639175600E+03  0.33113183802E+03  0.12500000000E+03 0.  0.
         25    1    1    2    0    0  0.13870662437E+03  0.66896131364E+02 -0.44362888736E+02  0.20324292345E+03  0.12500000000E+03 0.  0.
</event>
<event>
 5    0  0.5663008E-005  0.3618799E+03  0.7546771E-02  0.1057842E+00
         21   -1    0    0  502  501  0.00000000000E+00  0.00000000000E+00  0.11760567690E+03  0.11760567690E+03  0.00000000000E+00 0. -1.
         21   -1    0    0  501  502 -0.00000000000E+00 -0.00000000000E+00 -0.11135267690E+04  0.11135267690E+04  0.00000000000E+00 0. -1.
         25    1    1    2    0    0 -0.13542958658E+03 -0.10684096474E+03 -0.34733076137E+02  0.21584149565E+03  0.12500000000E+03 0.  0.
         25    1    1    2    0    0  0.42885881755E+02  0.27453706919E+02 -0.26318572362E+03  0.29577800796E+03  0.12500000000E+03 0.  0.
         25    1    1    2    0    0  0.92543704827E+02  0.79387257819E+02 -0.69800229239E+03  0.71951294234E+03  0.12500000000E+03 0.  0.
</event>
<event>
 5    0  0.5931627E-005  0.3221986E+03  0.7546771E-02  0.1074642E+00
         21   -1    0    0  502  501  0.00000000000E+00  0.00000000000E+00  0.63724683146E+03  0.63724683146E+03  0.00000000000E+00 0.  1.
         21   -1    0    0  501  502 -0.00000000000E+00 -0.00000000000E+00 -0.16290696959E+03  0.16290696959E+03  0.00000000000E+00 0.  1.
         25    1    1    2    0    0 -0.11778965991E+03 -0.73586656769E+02 -0.24696719662E+00  0.18685411697E+03  0.12500000000E+03 0.  0.
         25    1    1    2    0    0 -0.37447642143E+02  0.11935873792E+03  0.27901801921E+03  0.33034056558E+03  0.12500000000E+03 0.  0.
         25    1    1    2    0    0  0.15523730205E+03 -0.45772081151E+02  0.19556880985E+03  0.28295911851E+03  0.12500000000E+03 0.  0.
</event>
<event>
 5    0  0.5663008E-005  0.2535744E+03  0.7546771E-02  0.1111066E+00
         21   -1    0    0  502  501  0.00000000000E+00  0.00000000000E+00  0.44337792370E+04  0.44337792370E+04  0.00000000000E+00 0. -1.
         21   -1    0    0  501  502 -0.00000000000E+00 -0.00000000000E+00 -0.14502295137E+02  0.14502295137E+02  0.00000000000E+00 0. -1.
         25    1    1    2    0    0  0.55512256748E+02 -0.98705339214E+00  0.10737503677E+04  0.10824266428E+04  0.12500000000E+03 0.  0.
         25    1    1    2    0    0  0.98969451427E+02  0.42307489003E+02  0.16490039166E+04  0.16572337774E+04  0.12500000000E+03 0.  0.
         25    1    1    2    0    0 -0.15448170817E+03 -0.41320435611E+02  0.16965226576E+04  0.17086211120E+04  0.12500000000E+03 0.  0.
</event>
<event>
 5    0  0.5663008E-005  0.4463402E+03  0.7546771E-02  0.1028819E+00
         21   -1    0    0  502  501  0.00000000000E+00  0.00000000000E+00  0.10427135354E+04  0.10427135354E+04  0.00000000000E+00 0.  1.
         21   -1    0    0  501  502 -0.00000000000E+00 -0.00000000000E+00 -0.19105874962E+03  0.19105874962E+03  0.00000000000E+00 0.  1.
         25    1    1    2    0    0 -0.20116147775E+03 -0.19562953826E+03  0.13755621026E+03  0.33657624300E+03  0.12500000000E+03 0.  0.
         25    1    1    2    0    0  0.26467257956E+03  0.25748136738E+03  0.51938295395E+03  0.64940887103E+03  0.12500000000E+03 0.  0.
         25    1    1    2    0    0 -0.63511101806E+02 -0.61851829122E+02  0.19471562152E+03  0.24778717094E+03  0.12500000000E+03 0.  0.
</event>
<event>
 5    0  0.5663008E-005  0.4484926E+03  0.7546771E-02  0.1028173E+00
         21   -1    0    0  502  501  0.00000000000E+00  0.00000000000E+00  0.24787722887E+03  0.24787722887E+03  0.00000000000E+00 0.  1.
         21   -1    0    0  501  502 -0.00000000000E+00 -0.00000000000E+00 -0.81147271969E+03  0.81147271969E+03  0.00000000000E+00 0.  1.
         25    1    1    2    0    0  0.41839214737E+02  0.24679737561E+03 -0.58493513674E+01  0.27985474698E+03  0.12500000000E+03 0.  0.
         25    1    1    2    0    0 -0.19166884431E+02  0.47195992342E+02 -0.40064353378E+03  0.42277070891E+03  0.12500000000E+03 0.  0.
         25    1    1    2    0    0 -0.22672330305E+02 -0.29399336795E+03 -0.15710260567E+03  0.35672449266E+03  0.12500000000E+03 0.  0.
</event>
<event>
 5    0  0.5663008E-005  0.2336164E+03  0.7546771E-02  0.1124120E+00
         21   -1    0    0  502  501  0.00000000000E+00  0.00000000000E+00  0.58225833500E+02  0.58225833500E+02  0.00000000000E+00 0. -1.
         21   -1    0    0  501  502 -0.00000000000E+00 -0.00000000000E+00 -0.93732649830E+03  0.93732649830E+03  0.00000000000E+00 0. -1.
         25    1    1    2    0    0  0.22112243117E+02 -0.14210769163E+02 -0.22210984822E+03  0.25621998738E+03  0.12500000000E+03 0.  0.
         25    1    1    2    0    0 -0.64064004235E+02 -0.15549084992E+02 -0.54731506199E+03  0.56526520127E+03  0.12500000000E+03 0.  0.
         25    1    1    2    0    0  0.41951761118E+02  0.29759854155E+02 -0.10967575458E+03  0.17406714315E+03  0.12500000000E+03 0.  0.
</event>
<event>
 5    0  0.5663008E-005  0.2623122E+03  0.7546771E-02  0.1105762E+00
         21   -1    0    0  502  501  0.00000000000E+00  0.00000000000E+00  0.43403907281E+03  0.43403907281E+03  0.00000000000E+00 0.  1.
         21   -1    0    0  501  502 -0.00000000000E+00 -0.00000000000E+00 -0.15852884987E+03  0.15852884987E+03  0.00000000000E+00 0.  1.
         25    1    1    2    0    0  0.67163484396E+02 -0.48722131670E+02  0.36234722180E+02  0.15434615266E+03  0.12500000000E+03 0.  0.
         25    1    1    2    0    0  0.66354268498E+02 -0.19958975259E+02  0.18814505635E+03  0.23627274890E+03  0.12500000000E+03 0.  0.
         25    1    1    2    0    0 -0.13351775289E+03  0.68681106929E+02  0.51130444414E+02  0.20194902112E+03  0.12500000000E+03 0.  0.
</event>
<event>
 5    0  0.5663008E-005  0.2705026E+03  0.7546771E-02  0.1100992E+00
         21   -1    0    0  502  501  0.00000000000E+00  0.00000000000E+00  0.38912485103E+02  0.38912485103E+02  0.00000000000E+00 0. -1.
         21   -1    0    0  501  502 -0.00000000000E+00 -0.00000000000E+00 -0.18804159874E+04  0.18804159874E+04  0.00000000000E+00 0. -1.
         25    1    1    2    0    0  0.14160837262E+03  0.32542845311E+02 -0.78509653171E+03  0.80815439866E+03  0.12500000000E+03 0.  0.
         25    1    1    2    0    0 -0.10078788650E+03 -0.10141195671E+03 -0.69474019098E+03  0.72023018264E+03  0.12500000000E+03 0.  0.
         25    1    1    2    0    0 -0.40820486117E+02  0.68869111398E+02 -0.36166677961E+03  0.39094389120E+03  0.12500000000E+03 0.  0.
</event>
<event>
 5    0  0.5663008E-005  0.2505393E+03  0.7546771E-02  0.1112964E+00
         21   -1    0    0  502  501  0.00000000000E+00  0.00000000000E+00  0.10182848921E+04  0.10182848921E+04  0.00000000000E+00 0. -1.
         21   -1    0    0  501  502 -0.00000000000E+00 -0.00000000000E+00 -0.61642788895E+02  0.61642788895E+02  0.00000000000E+00 0. -1.
         25    1    1    2    0    0 -0.10927048145E+02 -0.15539340616E+02  0.54047876568E+03  0.55507041683E+03  0.12500000000E+03 0.  0.
         25    1    1    2    0    0  0.98972533856E+02  0.73579517976E+01  0.15725244371E+03  0.22406033332E+03  0.12500000000E+03 0.  0.
         25    1    1    2    0    0 -0.88045485711E+02  0.81813888186E+01  0.25891089386E+03  0.30079693090E+03  0.12500000000E+03 0.  0.
</event>
<event>
 5    0  0.5663008E-005  0.2489466E+03  0.7546771E-02  0.1113972E+00
         21   -1    0    0  502  501  0.00000000000E+00  0.00000000000E+00  0.64311554038E+03  0.64311554038E+03  0.00000000000E+00 0.  1.
         21   -1    0    0  501  502 -0.00000000000E+00 -0.00000000000E+00 -0.96365928878E+02  0.96365928878E+02  0.00000000000E+00 0.  1.
         25    1    1    2    0    0 -0.78716270734E+02  0.17455992081E+02  0.26377892649E+02  0.15106871337E+03  0.12500000000E+03 0.  0.
         25    1    1    2    0    0  0.63333024924E+02 -0.17863605875E+02  0.34230901921E+03  0.37031155140E+03  0.12500000000E+03 0.  0.
         25    1    1    2    0    0  0.15383245810E+02  0.40761379455E+00  0.17806269964E+03  0.21810120450E+03  0.12500000000E+03 0.  0.
</event>
<event>
 5    0  0.5663008E-005  0.2868540E+03  0.7546771E-02  0.1092003E+00
         21   -1    0    0  502  501  0.00000000000E+00  0.00000000000E+00  0.11164477851E+03  0.11164477851E+03  0.00000000000E+00 0.  1.
         21   -1    0    0  501  502 -0.00000000000E+00 -0.00000000000E+00 -0.73702685384E+03  0.73702685384E+03  0.00000000000E+00 0.  1.
         25    1    1    2    0    0 -0.61777545353E+02  0.11734585747E+03 -0.48735683911E+03  0.52031548507E+03  0.12500000000E+03 0.  0.
         25    1    1    2    0    0  0.13223262834E+02 -0.41920224348E+02 -0.19050934475E+02  0.13386597026E+03  0.12500000000E+03 0.  0.
         25    1    1    2    0    0  0.48554282518E+02 -0.75425633126E+02 -0.11897430173E+03  0.19449017702E+03  0.12500000000E+03 0.  0.
</event>
<event>
 5    0  0.5663008E-005  0.3102836E+03  0.7546771E-02  0.1080210E+00
         21   -1    0    0  502  501  0.00000000000E+00  0.00000000000E+00  0.76086000448E+02  0.76086000448E+02  0.00000000000E+00 0.  1.
         21   -1    0    0  501  502 -0.00000000000E+00 -0.00000000000E+00 -0.12653566309E+04  0.12653566309E+04  0.00000000000E+00 0.  1.
         25    1    1    2    0    0  0.18612688681E+02 -0.42369258468E+02 -0.37847418526E+03  0.40125963559E+03  0.12500000000E+03 0.  0.
         25    1    1    2    0    0  0.27483047049E+02  0.50463248944E+02 -0.20977168398E+02  0.13916500624E+03  0.12500000000E+03 0.  0.
         25    1    1    2    0    0 -0.46095735729E+02 -0.80939904765E+01 -0.78981927679E+03  0.80101798951E+03  0.12500000000E+03 0.  0.
</event>
<event>
 5    0  0.5663008E-005  0.3198060E+03  0.7546771E-02  0.1075739E+00
         21   -1    0    0  502  501  0.00000000000E+00  0.00000000000E+00  0.18671282673E+03  0.18671282673E+03  0.00000000000E+00 0.  1.
         21   -1    0    0  501  502 -0.00000000000E+00 -0.00000000000E+00 -0.54777086368E+03  0.54777086368E+03  0.00000000000E+00 0.  1.
         25    1    1    2    0    0 -0.15620110472E+02 -0.12491039577E+03 -0.36868474116E+02  0.18119293365E+03  0.12500000000E+03 0.  0.
         25    1    1    2    0    0  0.73588755552E+02  0.18138610372E+03 -0.44568868127E+02  0.23649018494E+03  0.12500000000E+03 0.  0.
         25    1    1    2    0    0 -0.57968645080E+02 -0.56475707950E+02 -0.27962069471E+03  0.31680057183E+03  0.12500000000E+03 0.  0.
</event>
<event>
 5    0  0.5663008E-005  0.2272550E+03  0.7546771E-02  0.1128587E+00
         21   -1    0    0  502  501  0.00000000000E+00  0.00000000000E+00  0.46749478205E+03  0.46749478205E+03  0.00000000000E+00 0. -1.
         21   -1    0    0  501  502 -0.00000000000E+00 -0.00000000000E+00 -0.11047146305E+03  0.11047146305E+03  0.00000000000E+00 0. -1.
         25    1    1    2    0    0  0.38054845699E+02 -0.28449083292E+02  0.52717799759E+02  0.14374174075E+03  0.12500000000E+03 0.  0.
         25    1    1    2    0    0 -0.14008512481E+02  0.98062213593E+02  0.19861499348E+03  0.25472603281E+03  0.12500000000E+03 0.  0.
         25    1    1    2    0    0 -0.24046333218E+02 -0.69613130301E+02  0.10569052576E+03  0.17949847155E+03  0.12500000000E+03 0.  0.
</event>
<event>
 5    0  0.5663008E-005  0.2558654E+03  0.7546771E-02  0.1109653E+00
         21   -1    0    0  502  501  0.00000000000E+00  0.00000000000E+00  0.19156307266E+03  0.19156307266E+03  0.00000000000E+00 0. -1.
         21   -1    0    0  501  502 -0.00000000000E+00 -0.00000000000E+00 -0.34175212152E+03  0.34175212152E+03  0.00000000000E+00 0. -1.
         25    1    1    2    0    0 -0.83878600509E+02 -0.12220482132E+03 -0.43051075118E+02  0.19861528906E+03  0.12500000000E+03 0.  0.
         25    1    1    2    0    0  0.34194455261E+02  0.67208564437E+02 -0.11977414419E+03  0.18883087015E+03  0.12500000000E+03 0.  0.
         25    1    1    2    0    0  0.49684145248E+02  0.54996256888E+02  0.12636170454E+02  0.14586903497E+03  0.12500000000E+03 0.  0.
</event>
<event>
 5    0  0.5663008E-005  0.2534044E+03  0.7546771E-02  0.1111172E+00
         21   -1    0    0  502  501  0.00000000000E+00  0.00000000000E+00  0.73502099389E+02  0.73502099389E+02  0.00000000000E+00 0.  1.
         21   -1    0    0  501  502 -0.00000000000E+00 -0.00000000000E+00 -0.87363219490E+03  0.87363219490E+03  0.00000000000E+00 0.  1.
         25    1    1    2    0    0 -0.45558143295E+02 -0.56966554920E+02 -0.55684193101E+03  0.57534221897E+03  0.12500000000E+03 0.  0.
         25    1    1    2    0    0 -0.98466714171E+01  0.36961902018E+02 -0.64331080950E+02  0.14569360698E+03  0.12500000000E+03 0.  0.
         25    1    1    2    0    0  0.55404814712E+02  0.20004652902E+02 -0.17895708355E+03  0.22609846834E+03  0.12500000000E+03 0.  0.
</event>
<event>
 5    0  0.5663008E-005  0.3883823E+03  0.7546771E-02  0.1047878E+00
         21   -1    0    0  502  501  0.00000000000E+00  0.00000000000E+00  0.35814689312E+03  0.35814689312E+03  0.00000000000E+00 0.  1.
         21   -1    0    0  501  502 -0.00000000000E+00 -0.00000000000E+00 -0.42117012854E+03  0.42117012854E+03  0.00000000000E+00 0.  1.
         25    1    1    2    0    0 -0.22202955814E+03  0.10372278254E+03  0.60189799421E+02  0.28160850886E+03  0.12500000000E+03 0.  0.
         25    1    1    2    0    0  0.84447463025E+02  0.98901453870E+02  0.30109212140E+02  0.18287820057E+03  0.12500000000E+03 0.  0.
         25    1    1    2    0    0  0.13758209511E+03 -0.20262423641E+03 -0.15332224698E+03  0.31483031223E+03  0.12500000000E+03 0.  0.
</event>
<event>
 5    0  0.5663008E-005  0.3636423E+03  0.7546771E-02  0.1057151E+00
         21   -1    0    0  502  501  0.00000000000E+00  0.00000000000E+00  0.10021940781E+04  0.10021940781E+04  0.00000000000E+00 0. -1.
         21   -1    0    0  501  502 -0.00000000000E+00 -0.00000000000E+00 -0.13194619583E+03  0.13194619583E+03  0.00000000000E+00 0. -1.
         25    1    1    2    0    0 -0.17107931437E+03 -0.61927233406E+02  0.24857309325E+03  0.33244051608E+03  0.12500000000E+03 0.  0.
         25    1    1    2    0    0  0.15755471492E+03  0.21166183130E+03  0.26188310193E+03  0.39221419926E+03  0.12500000000E+03 0.  0.
         25    1    1    2    0    0  0.13524599441E+02 -0.14973459789E+03  0.35979168711E+03  0.40948555861E+03  0.12500000000E+03 0.  0.
</event>
<event>
 5    0  0.5663008E-005  0.2184891E+03  0.7546771E-02  0.1135015E+00
         21   -1    0    0  502  501  0.00000000000E+00  0.00000000000E+00  0.71496145814E+03  0.71496145814E+03  0.00000000000E+00 0. -1.
         21   -1    0    0  501  502 -0.00000000000E+00 -0.00000000000E+00 -0.66769288478E+02  0.66769288478E+02  0.00000000000E+00 0. -1.
         25    1    1    2    0    0  0.82161022850E+01  0.22624103624E+02  0.27012101980E+03  0.29861299325E+03  0.12500000000E+03 0.  0.
         25    1    1    2    0    0  0.45241374393E+01  0.21347856246E+02  0.64249478072E+02  0.14222937186E+03  0.12500000000E+03 0.  0.
         25    1    1    2    0    0 -0.12740239724E+02 -0.43971959870E+02  0.31382167180E+03  0.34088838151E+03  0.12500000000E+03 0.  0.
</event>
<event>
 5    0  0.5663008E-005  0.2963918E+03  0.7546771E-02  0.1087058E+00
         21   -1    0    0  502  501  0.00000000000E+00  0.00000000000E+00  0.44439870903E+03  0.44439870903E+03  0.00000000000E+00 0.  1.
         21   -1    0    0  501  502 -0.00000000000E+00 -0.00000000000E+00 -0.19767852758E+03  0.19767852758E+03  0.00000000000E+00 0.  1.
         25    1    1    2    0    0 -0.72349353033E+02 -0.18389445028E+01  0.14795412141E+03  0.20676854849E+03  0.12500000000E+03 0.  0.
         25    1    1    2    0    0 -0.66252748099E+02 -0.61725446646E+02  0.16630125857E+03  0.22689329209E+03  0.12500000000E+03 0.  0.
         25    1    1    2    0    0  0.13860210113E+03  0.63564391149E+02 -0.67535198529E+02  0.20841539603E+03  0.12500000000E+03 0.  0.
</event>
<event>
 5    0  0.5663008E-005  0.3649885E+03  0.7546771E-02  0.1056626E+00
         21   -1    0    0  502  501  0.00000000000E+00  0.00000000000E+00  0.67680740638E+03  0.67680740638E+03  0.00000000000E+00 0. -1.
         21   -1    0    0  501  502 -0.00000000000E+00 -0.00000000000E+00 -0.19683084191E+03  0.19683084191E+03  0.00000000000E+00 0. -1.
         25    1    1    2    0    0 -0.10571477904E+03  0.15273731964E+03  0.52606675595E+02  0.22999296867E+03  0.12500000000E+03 0.  0.
         25    1    1    2    0    0  0.15955811259E+03 -0.23810575168E+03  0.33526900296E+03  0.45845768030E+03  0.12500000000E+03 0.  0.
         25    1    1    2    0    0 -0.53843333541E+02  0.85368432043E+02  0.92100885922E+02  0.18518759933E+03  0.12500000000E+03 0.  0.
</event>
<event>
 5    0  0.5663008E-005  0.2958513E+03  0.7546771E-02  0.1087333E+00
         21   -1    0    0  502  501  0.00000000000E+00  0.00000000000E+00  0.15001267889E+03  0.15001267889E+03  0.00000000000E+00 0. -1.
         21   -1    0    0  501  502 -0.00000000000E+00 -0.00000000000E+00 -0.58347058470E+03  0.58347058470E+03  0.00000000000E+00 0. -1.
         25    1    1    2    0    0  0.11808216654E+03 -0.24599687282E+02 -0.11657259866E+03  0.20919539533E+03  0.12500000000E+03 0.  0.
         25    1    1    2    0    0 -0.81828917453E+02 -0.11576569682E+03 -0.26583662510E+03  0.32617752763E+03  0.12500000000E+03 0.  0.
         25    1    1    2    0    0 -0.36253249090E+02  0.14036538410E+03 -0.51048682051E+02  0.19811034062E+03  0.12500000000E+03 0.  0.
</event>
<event>
 5    0  0.5663008E-005  0.4358395E+03  0.7546771E-02  0.1032031E+00
         21   -1    0    0  502  501  0.00000000000E+00  0.00000000000E+00  0.15422853217E+03  0.15422853217E+03  0.00000000000E+00 0.  1.
         21   -1    0    0  501  502 -0.00000000000E+00 -0.00000000000E+00 -0.12316532278E+04  0.12316532278E+04  0.00000000000E+00 0.  1.
         25    1    1    2    0    0 -0.12392474681E+03  0.14168050731E+03 -0.21977258038E+03  0.31520738588E+03  0.12500000000E+03 0.  0.
         25    1    1    2    0    0  0.28791565471E+03 -0.84974462028E+02 -0.77667797560E+03  0.84200342113E+03  0.12500000000E+03 0.  0.
         25    1    1    2    0    0 -0.16399090790E+03 -0.56706045287E+02 -0.80974139700E+02  0.22867095300E+03  0.12500000000E+03 0.  0.
</event>
<event>
 5    0  0.5663008E-005  0.3008416E+03  0.7546771E-02  0.1084821E+00
         21   -1    0    0  502  501  0.00000000000E+00  0.00000000000E+00  0.25802966053E+03  0.25802966053E+03  0.00000000000E+00 0.  1.
         21   -1    0    0  501  502 -0.00000000000E+00 -0.00000000000E+00 -0.35075682429E+03  0.35075682429E+03  0.00000000000E+00 0.  1.
         25    1    1    2    0    0 -0.16338069380E+02 -0.18946385933E+03 -0.25266375674E+02  0.22896916003E+03  0.12500000000E+03 0.  0.
         25    1    1    2    0    0  0.10617607015E+03  0.11830042087E+03 -0.17265608437E+02  0.20295676555E+03  0.12500000000E+03 0.  0.
         25    1    1    2    0    0 -0.89838000770E+02  0.71163438464E+02 -0.50195179640E+02  0.17686055924E+03  0.12500000000E+03 0.  0.
</event>
<event>
 5    0  0.5663008E-005  0.3315422E+03  0.7546771E-02  0.1070457E+00
         21   -1    0    0  502  501  0.00000000000E+00  0.00000000000E+00  0.84415487645E+03  0.84415487645E+03  0.00000000000E+00 0.  1.
         21   -1    0    0  501  502 -0.00000000000E+00 -0.00000000000E+00 -0.13021331083E+03  0.13021331083E+03  0.00000000000E+00 0.  1.
         25    1    1    2    0    0  0.48689651439E+02 -0.71841391037E+02  0.10860397075E+03  0.18695371108E+03  0.12500000000E+03 0.  0.
         25    1    1    2    0    0 -0.19179161268E+03  0.17224211774E+03  0.38174804712E+03  0.47729230174E+03  0.12500000000E+03 0.  0.
         25    1    1    2    0    0  0.14310196124E+03 -0.10040072670E+03  0.22358954775E+03  0.31012217446E+03  0.12500000000E+03 0.  0.
</event>
<event>
 5    0  0.5663008E-005  0.4273340E+03  0.7546771E-02  0.1034705E+00
         21   -1    0    0  502  501  0.00000000000E+00  0.00000000000E+00  0.18287829118E+03  0.18287829118E+03  0.00000000000E+00 0.  1.
         21   -1    0    0  501  502 -0.00000000000E+00 -0.00000000000E+00 -0.99855675464E+03  0.99855675464E+03  0.00000000000E+00 0.  1.
         25    1    1    2    0    0  0.32051547115E+02 -0.16129463809E+03 -0.99972275942E+02  0.22948358962E+03  0.12500000000E+03 0.  0.
         25    1    1    2    0    0 -0.35031363364E+01  0.11278585359E+03  0.48740638912E+02  0.17530992732E+03  0.12500000000E+03 0.  0.
         25    1    1    2    0    0 -0.28548410779E+02  0.48508784503E+02 -0.76444682643E+03  0.77664152887E+03  0.12500000000E+03 0.  0.
</event>
<event>
 5    0  0.5663008E-005  0.4006682E+03  0.7546771E-02  0.1043549E+00
         21   -1    0    0  502  501  0.00000000000E+00  0.00000000000E+00  0.76489260576E+03  0.76489260576E+03  0.00000000000E+00 0.  1.
         21   -1    0    0  501  502 -0.00000000000E+00 -0.00000000000E+00 -0.20987918658E+03  0.20987918658E+03  0.00000000000E+00 0.  1.
         25    1    1    2    0    0 -0.25556171436E+02  0.52868577459E+02 -0.61611691176E+02  0.15122567530E+03  0.12500000000E+03 0.  0.
         25    1    1    2    0    0  0.40383434758E+01 -0.25850112112E+03  0.23126494631E+03  0.36871074466E+03  0.12500000000E+03 0.  0.
         25    1    1    2    0    0  0.21517827960E+02  0.20563254366E+03  0.38536016405E+03  0.45483537238E+03  0.12500000000E+03 0.  0.
</event>
<event>
 5    0  0.5663008E-005  0.3149002E+03  0.7546771E-02  0.1078021E+00
         21   -1    0    0  502  501  0.00000000000E+00  0.00000000000E+00  0.86163689099E+03  0.86163689099E+03  0.00000000000E+00 0.  1.
         21   -1    0    0  501  502 -0.00000000000E+00 -0.00000000000E+00 -0.11508572481E+03  0.11508572481E+03  0.00000000000E+00 0.  1.
         25    1    1    2    0    0 -0.95856159061E+02 -0.32178187800E+02  0.16285620568E+03  0.22884707280E+03  0.12500000000E+03 0.  0.
         25    1    1    2    0    0  0.22615959621E+02 -0.13761934791E+03  0.93654270812E+02  0.20939600996E+03  0.12500000000E+03 0.  0.
         25    1    1    2    0    0  0.73240199439E+02  0.16979753571E+03  0.49004068969E+03  0.53847953303E+03  0.12500000000E+03 0.  0.
</event>
<event>
 5    0  0.5663008E-005  0.3191545E+03  0.7546771E-02  0.1076039E+00
         21   -1    0    0  502  501  0.00000000000E+00  0.00000000000E+00  0.29859270340E+03  0.29859270340E+03  0.00000000000E+00 0.  1.
         21   -1    0    0  501  502 -0.00000000000E+00 -0.00000000000E+00 -0.34113226718E+03  0.34113226718E+03  0.00000000000E+00 0.  1.
         25    1    1    2    0    0 -0.37672476977E+02 -0.60397305626E+02  0.17761276117E+03  0.22855708910E+03  0.12500000000E+03 0.  0.
         25    1    1    2    0    0 -0.10135897136E+02 -0.50014989628E+02 -0.54482410182E+01  0.13512556726E+03  0.12500000000E+03 0.  0.
         25    1    1    2    0    0  0.47808374113E+02  0.11041229525E+03 -0.21470408393E+03  0.27604231421E+03  0.12500000000E+03 0.  0.
</event>
<event>
 5    0  0.5663008E-005  0.5686826E+03  0.7546771E-02  0.9972598E-01
         21   -1    0    0  502  501  0.00000000000E+00  0.00000000000E+00  0.12086748782E+03  0.12086748782E+03  0.00000000000E+00 0. -1.
         21   -1    0    0  501  502 -0.00000000000E+00 -0.00000000000E+00 -0.26756570396E+04  0.26756570396E+04  0.00000000000E+00 0. -1.
         25    1    1    2    0    0 -0.11515832469E+03 -0.26276472692E+03 -0.23848635412E+03  0.39345582034E+03  0.12500000000E+03 0.  0.
         25    1    1    2    0    0  0.30488058185E+02  0.83647204405E+02 -0.20177645416E+04  0.20235921333E+04  0.12500000000E+03 0.  0.
         25    1    1    2    0    0  0.84670266505E+02  0.17911752251E+03 -0.29853865603E+03  0.37947657378E+03  0.12500000000E+03 0.  0.
</event>
<event>
 5    0  0.5663008E-005  0.2746464E+03  0.7546771E-02  0.1098649E+00
         21   -1    0    0  502  501  0.00000000000E+00  0.00000000000E+00  0.17710345718E+04  0.17710345718E+04  0.00000000000E+00 0. -1.
         21   -1    0    0  501  502 -0.00000000000E+00 -0.00000000000E+00 -0.42591296338E+02  0.42591296338E+02  0.00000000000E+00 0. -1.
         25    1    1    2    0    0  0.60385300919E+02  0.27474304304E+02  0.25160180655E+03  0.28866882586E+03  0.12500000000E+03 0.  0.
         25    1    1    2    0    0 -0.16717304800E+03  0.58501607918E+01  0.91978076754E+03  0.94318752785E+03  0.12500000000E+03 0.  0.
         25    1    1    2    0    0  0.10678774708E+03 -0.33324465096E+02  0.55706070137E+03  0.58176951443E+03  0.12500000000E+03 0.  0.
</event>
<event>
 5    0  0.5663008E-005  0.2928091E+03  0.7546771E-02  0.1088892E+00
         21   -1    0    0  502  501  0.00000000000E+00  0.00000000000E+00  0.61421288070E+03  0.61421288070E+03  0.00000000000E+00 0. -1.
         21   -1    0    0  501  502 -0.00000000000E+00 -0.00000000000E+00 -0.13958864653E+03  0.13958864653E+03  0.00000000000E+00 0. -1.
         25    1    1    2    0    0  0.10392113236E+03  0.62132216651E+02  0.19710681221E+03  0.26293746313E+03  0.12500000000E+03 0.  0.
         25    1    1    2    0    0 -0.51735092199E+02 -0.17049529010E+03  0.21646995121E+03  0.30696808220E+03  0.12500000000E+03 0.  0.
         25    1    1    2    0    0 -0.52186040162E+02  0.10836307345E+03  0.61047470746E+02  0.18389598190E+03  0.12500000000E+03 0.  0.
</event>
<event>
 5    0  0.5663008E-005  0.2679875E+03  0.7546771E-02  0.1102437E+00
         21   -1    0    0  502  501  0.00000000000E+00  0.00000000000E+00  0.71095361868E+03  0.71095361868E+03  0.00000000000E+00 0. -1.
         21   -1    0    0  501  502 -0.00000000000E+00 -0.00000000000E+00 -0.10101542027E+03  0.10101542027E+03  0.00000000000E+00 0. -1.
         25    1    1    2    0    0  0.66345620425E+01 -0.53772142678E+02  0.59154003116E+02  0.14852493672E+03  0.12500000000E+03 0.  0.
         25    1    1    2    0    0 -0.22798615281E+02 -0.17027282378E+02  0.49022091430E+03  0.50670627589E+03  0.12500000000E+03 0.  0.
         25    1    1    2    0    0  0.16164053239E+02  0.70799425056E+02  0.60563280986E+02  0.15673782635E+03  0.12500000000E+03 0.  0.
</event>
<event>
 5    0  0.5663008E-005  0.2249064E+03  0.7546771E-02  0.1130277E+00
         21   -1    0    0  502  501  0.00000000000E+00  0.00000000000E+00  0.93917756057E+03  0.93917756057E+03  0.00000000000E+00 0. -1.
         21   -1    0    0  501  502 -0.00000000000E+00 -0.00000000000E+00 -0.53858713829E+02  0.53858713829E+02  0.00000000000E+00 0. -1.
         25    1    1    2    0    0  0.90147341975E+02 -0.45290606474E+02  0.26898036499E+03  0.31329414142E+03  0.12500000000E+03 0.  0.
         25    1    1    2    0    0 -0.23085442927E+02 -0.14989379191E+02  0.34051341696E+03  0.36377466417E+03  0.12500000000E+03 0.  0.
         25    1    1    2    0    0 -0.67061899048E+02  0.60279985664E+02  0.27582506479E+03  0.31596746880E+03  0.12500000000E+03 0.  0.
</event>
<event>
 5    0  0.5663008E-005  0.3459712E+03  0.7546771E-02  0.1064281E+00
         21   -1    0    0  502  501  0.00000000000E+00  0.00000000000E+00  0.55356631587E+02  0.55356631587E+02  0.00000000000E+00 0.  1.
         21   -1    0    0  501  502 -0.00000000000E+00 -0.00000000000E+00 -0.21622721248E+04  0.21622721248E+04  0.00000000000E+00 0.  1.
         25    1    1    2    0    0  0.33113017127E+02 -0.52473299725E+02 -0.13186076361E+04  0.13259717256E+04  0.12500000000E+03 0.  0.
         25    1    1    2    0    0  0.36532553482E+02 -0.11763535485E+03 -0.48380087152E+03  0.51464646842E+03  0.12500000000E+03 0.  0.
         25    1    1    2    0    0 -0.69645570609E+02  0.17010865457E+03 -0.30450698559E+03  0.37701056237E+03  0.12500000000E+03 0.  0.
</event>
<event>
 5    0  0.5663008E-005  0.2882018E+03  0.7546771E-02  0.1091292E+00
         21   -1    0    0  502  501  0.00000000000E+00  0.00000000000E+00  0.10492694497E+04  0.10492694497E+04  0.00000000000E+00 0. -1.
         21   -1    0    0  501  502 -0.00000000000E+00 -0.00000000000E+00 -0.79160120963E+02  0.79160120963E+02  0.00000000000E+00 0. -1.
         25    1    1    2    0    0  0.10993315689E+03 -0.18894431226E+02  0.53715926756E+03  0.56267875137E+03  0.12500000000E+03 0.  0.
         25    1    1    2    0    0 -0.27839751772E+02 -0.85224623191E+02  0.30958366352E+03  0.34569543372E+03  0.12500000000E+03 0.  0.
         25    1    1    2    0    0 -0.82093405123E+02  0.10411905442E+03  0.12336639770E+03  0.22005538562E+03  0.12500000000E+03 0.  0.
</event>
<event>
 5    0  0.5663008E-005  0.2787588E+03  0.7546771E-02  0.1096369E+00
         21   -1    0    0  502  501  0.00000000000E+00  0.00000000000E+00  0.14290473255E+03  0.14290473255E+03  0.00000000000E+00 0.  1.
         21   -1    0    0  501  502 -0.00000000000E+00 -0.00000000000E+00 -0.54376421891E+03  0.54376421891E+03  0.00000000000E+00 0.  1.
         25    1    1    2    0    0 -0.13667886262E+03 -0.73107297338E+02 -0.67870608211E+02  0.21037397146E+03  0.12500000000E+03 0.  0.
         25    1    1    2    0    0  0.25028184414E+02  0.90066228126E+02 -0.88628837755E+02  0.17949486440E+03  0.12500000000E+03 0.  0.
         25    1    1    2    0    0  0.11165067820E+03 -0.16958930788E+02 -0.24436004040E+03  0.29680011560E+03  0.12500000000E+03 0.  0.
</event>
<event>
 5    0  0.5663008E-005  0.5996047E+03  0.7546771E-02  0.9906226E-01
         21   -1    0    0  502  501  0.00000000000E+00  0.00000000000E+00  0.11266893987E+04  0.11266893987E+04  0.00000000000E+00 0.  1.
         21   -1    0    0  501  502 -0.00000000000E+00 -0.00000000000E+00 -0.31909932746E+03  0.31909932746E+03  0.00000000000E+00 0.  1.
         25    1    1    2    0    0  0.24112640155E+02  0.22339557678E+03  0.92159707368E+03  0.95679316958E+03  0.12500000000E+03 0.  0.
         25    1    1    2    0    0  0.10837161210E+03 -0.24109367630E+03 -0.64769158780E+02  0.29948390773E+03  0.12500000000E+03 0.  0.
         25    1    1    2    0    0 -0.13248425225E+03  0.17698099518E+02 -0.49237843625E+02  0.18951164889E+03  0.12500000000E+03 0.  0.
</event>
<event>
 5    0  0.5663008E-005  0.3331246E+03  0.7546771E-02  0.1069763E+00
         21   -1    0    0  502  501  0.00000000000E+00  0.00000000000E+00  0.42857356776E+03  0.42857356776E+03  0.00000000000E+00 0. -1.
         21   -1    0    0  501  502 -0.00000000000E+00 -0.00000000000E+00 -0.25893335692E+03  0.25893335692E+03  0.00000000000E+00 0. -1.
         25    1    1    2    0    0  0.23161048338E+01  0.23367162032E+03 -0.23783762858E+01  0.26502537078E+03  0.12500000000E+03 0.  0.
         25    1    1    2    0    0  0.73285181034E+02 -0.95758340924E+02  0.13072829267E+03  0.21738275948E+03  0.12500000000E+03 0.  0.
         25    1    1    2    0    0 -0.75601285868E+02 -0.13791327939E+03  0.41290294454E+02  0.20509879442E+03  0.12500000000E+03 0.  0.
</event>
<event>
 5    0  0.5663008E-005  0.3386940E+03  0.7546771E-02  0.1067354E+00
         21   -1    0    0  502  501  0.00000000000E+00  0.00000000000E+00  0.52514186213E+03  0.52514186213E+03  0.00000000000E+00 0. -1.
         21   -1    0    0  501  502 -0.00000000000E+00 -0.00000000000E+00 -0.21844317242E+03  0.21844317242E+03  0.00000000000E+00 0. -1.
         25    1    1    2    0    0 -0.25977700387E+02 -0.21019561491E+03  0.20451607334E+03  0.31985756471E+03  0.12500000000E+03 0.  0.
         25    1    1    2    0    0 -0.85343550333E+02  0.35005675847E+02  0.93405763966E+02  0.18126929047E+03  0.12500000000E+03 0.  0.
         25    1    1    2    0    0  0.11132125072E+03  0.17518993906E+03  0.87768523989E+01  0.24245817938E+03  0.12500000000E+03 0.  0.
</event>
<event>
 5    0  0.5663008E-005  0.2847077E+03  0.7546771E-02  0.1093145E+00
         21   -1    0    0  502  501  0.00000000000E+00  0.00000000000E+00  0.12081347658E+03  0.12081347658E+03  0.00000000000E+00 0.  1.
         21   -1    0    0  501  502 -0.00000000000E+00 -0.00000000000E+00 -0.67093916123E+03  0.67093916123E+03  0.00000000000E+00 0.  1.
         25    1    1    2    0    0  0.87411051569E+02  0.65516666810E+02 -0.26755295112E+03  0.31486934944E+03  0.12500000000E+03 0.  0.
         25    1    1    2    0    0  0.30288633071E+02  0.60809927643E+02 -0.20607421110E+03  0.25041331649E+03  0.12500000000E+03 0.  0.
         25    1    1    2    0    0 -0.11769968464E+03 -0.12632659445E+03 -0.76498522426E+02  0.22646997188E+03  0.12500000000E+03 0.  0.
</event>
<event>
 5    0  0.5663008E-005  0.3109023E+03  0.7546771E-02  0.1079914E+00
         21   -1    0    0  502  501  0.00000000000E+00  0.00000000000E+00  0.78555297156E+03  0.78555297156E+03  0.00000000000E+00 0.  1.
         21   -1    0    0  501  502 -0.00000000000E+00 -0.00000000000E+00 -0.12304739089E+03  0.12304739089E+03  0.00000000000E+00 0.  1.
         25    1    1    2    0    0 -0.20917191209E+02  0.58690728572E+02  0.40003200816E+03  0.42371303740E+03  0.12500000000E+03 0.  0.
         25    1    1    2    0    0 -0.10812425651E+03  0.29438184616E+02  0.17819723295E+02  0.16881944230E+03  0.12500000000E+03 0.  0.
         25    1    1    2    0    0  0.12904144772E+03 -0.88128913188E+02  0.24465384921E+03  0.31606788274E+03  0.12500000000E+03 0.  0.
</event>
<event>
 5    0  0.5663008E-005  0.2732944E+03  0.7546771E-02  0.1099409E+00
         21   -1    0    0  502  501  0.00000000000E+00  0.00000000000E+00  0.48392891715E+03  0.48392891715E+03  0.00000000000E+00 0. -1.
         21   -1    0    0  501  502 -0.00000000000E+00 -0.00000000000E+00 -0.15434051018E+03  0.15434051018E+03  0.00000000000E+00 0. -1.
         25    1    1    2    0    0 -0.69531758453E+02  0.58551867640E+02  0.35304269627E+02  0.15853825435E+03  0.12500000000E+03 0.  0.
         25    1    1    2    0    0  0.85474245196E+02 -0.18111570038E+02  0.31095689591E+03  0.34634241247E+03  0.12500000000E+03 0.  0.
         25    1    1    2    0    0 -0.15942486743E+02 -0.40440297602E+02 -0.16672758569E+02  0.13338876052E+03  0.12500000000E+03 0.  0.
</event>
<event>
 5    0  0.5663008E-005  0.3011836E+03  0.7546771E-02  0.1084650E+00
         21   -1    0    0  502  501  0.00000000000E+00  0.00000000000E+00  0.17556509040E+04  0.17556509040E+04  0.00000000000E+00 0.  1.
         21   -1    0    0  501  502 -0.00000000000E+00 -0.00000000000E+00 -0.51668341504E+02  0.51668341504E+02  0.00000000000E+00 0.  1.
         25    1    1    2    0    0 -0.15203491372E+02  0.16762929899E+03  0.49970555151E+03  0.54190531114E+03  0.12500000000E+03 0.  0.
         25    1    1    2    0    0 -0.24747819258E+02 -0.85211807483E+02  0.21487707295E+03  0.26395200923E+03  0.12500000000E+03 0.  0.
         25    1    1    2    0    0  0.39951310629E+02 -0.82417491507E+02  0.98939993799E+03  0.10014619251E+04  0.12500000000E+03 0.  0.
</event>
<event>
 5    0  0.5663008E-005  0.2457900E+03  0.7546771E-02  0.1115995E+00
         21   -1    0    0  502  501  0.00000000000E+00  0.00000000000E+00  0.98951976317E+03  0.98951976317E+03  0.00000000000E+00 0. -1.
         21   -1    0    0  501  502 -0.00000000000E+00 -0.00000000000E+00 -0.61052577732E+02  0.61052577732E+02  0.00000000000E+00 0. -1.
         25    1    1    2    0    0  0.30568987208E+02 -0.78366080590E+02  0.19332128623E+03  0.24509962316E+03  0.12500000000E+03 0.  0.
         25    1    1    2    0    0  0.13391469075E+02  0.13353199635E+03  0.45827065549E+03  0.49360623900E+03  0.12500000000E+03 0.  0.
         25    1    1    2    0    0 -0.43960456284E+02 -0.55165915758E+02  0.27687524373E+03  0.31186647875E+03  0.12500000000E+03 0.  0.
</event>
<event>
 5    0  0.5663008E-005  0.2773397E+03  0.7546771E-02  0.1097151E+00
         21   -1    0    0  502  501  0.00000000000E+00  0.00000000000E+00  0.42942466883E+02  0.42942466883E+02  0.00000000000E+00 0. -1.
         21   -1    0    0  501  502 -0.00000000000E+00 -0.00000000000E+00 -0.17911713515E+04  0.17911713515E+04  0.00000000000E+00 0. -1.
         25    1    1    2    0    0 -0.38642779301E+02 -0.12649040125E+02 -0.35118953751E+03  0.37498313810E+03  0.12500000000E+03 0.  0.
         25    1    1    2    0    0 -0.31851002871E+01  0.14947584959E+03 -0.40981948358E+03  0.45379531024E+03  0.12500000000E+03 0.  0.
         25    1    1    2    0    0  0.41827879588E+02 -0.13682680947E+03 -0.98721986351E+03  0.10053353700E+04  0.12500000000E+03 0.  0.
</event>
<event>
 5    0  0.5663008E-005  0.4565770E+03  0.7546771E-02  0.1025779E+00
         21   -1    0    0  502  501  0.00000000000E+00  0.00000000000E+00  0.14903687727E+04  0.14903687727E+04  0.00000000000E+00 0. -1.
         21   -1    0    0  501  502 -0.00000000000E+00 -0.00000000000E+00 -0.13987311218E+03  0.13987311218E+03  0.00000000000E+00 0. -1.
         25    1    1    2    0    0  0.13347858655E+03 -0.32411489380E+03  0.68016119340E+03  0.77531364392E+03  0.12500000000E+03 0.  0.
         25    1    1    2    0    0 -0.54604281612E+02 -0.36216126393E+02  0.18138429552E+03  0.22982275354E+03  0.12500000000E+03 0.  0.
         25    1    1    2    0    0 -0.78874304934E+02  0.36033102019E+03  0.48895017162E+03  0.62510548743E+03  0.12500000000E+03 0.  0.
</event>
<event>
 5    0  0.5663008E-005  0.2803963E+03  0.7546771E-02  0.1095473E+00
         21   -1    0    0  502  501  0.00000000000E+00  0.00000000000E+00  0.47713086472E+02  0.47713086472E+02  0.00000000000E+00 0.  1.
         21   -1    0    0  501  502 -0.00000000000E+00 -0.00000000000E+00 -0.16478098184E+04  0.16478098184E+04  0.00000000000E+00 0.  1.
         25    1    1    2    0    0  0.77233684621E+02  0.66317715681E+02 -0.17257859411E+03  0.23615980309E+03  0.12500000000E+03 0.  0.
         25    1    1    2    0    0 -0.95816294893E+02 -0.44500882226E+02 -0.59807021727E+03  0.62005973556E+03  0.12500000000E+03 0.  0.
         25    1    1    2    0    0  0.18582610272E+02 -0.21816833456E+02 -0.82944792057E+03  0.83930336623E+03  0.12500000000E+03 0.  0.
</event>
<event>
 5    0  0.5663008E-005  0.3181399E+03  0.7546771E-02  0.1076509E+00
         21   -1    0    0  502  501  0.00000000000E+00  0.00000000000E+00  0.50294148390E+03  0.50294148390E+03  0.00000000000E+00 0.  1.
         21   -1    0    0  501  502 -0.00000000000E+00 -0.00000000000E+00 -0.20124212533E+03  0.20124212533E+03  0.00000000000E+00 0.  1.
         25    1    1    2    0    0 -0.11753423944E+03  0.11981172696E+03  0.14102504788E+03  0.25235334650E+03  0.12500000000E+03 0.  0.
         25    1    1    2    0    0  0.13852868513E+03 -0.19900115390E+03  0.10055528816E+03  0.29073703210E+03  0.12500000000E+03 0.  0.
         25    1    1    2    0    0 -0.20994445686E+02  0.79189426936E+02  0.60119022532E+02  0.16109323064E+03  0.12500000000E+03 0.  0.
</event>
<event>
 5    0  0.5663008E-005  0.2596068E+03  0.7546771E-02  0.1107380E+00
         21   -1    0    0  502  501  0.00000000000E+00  0.00000000000E+00  0.18197555361E+04  0.18197555361E+04  0.00000000000E+00 0. -1.
         21   -1    0    0  501  502 -0.00000000000E+00 -0.00000000000E+00 -0.37035581966E+02  0.37035581966E+02  0.00000000000E+00 0. -1.
         25    1    1    2    0    0  0.21911633156E+02  0.39400495121E+02  0.15784985489E+03  0.20633491069E+03  0.12500000000E+03 0.  0.
         25    1    1    2    0    0 -0.10570783974E+02 -0.33505621362E+02  0.43486625797E+03  0.45383700870E+03  0.12500000000E+03 0.  0.
         25    1    1    2    0    0 -0.11340849182E+02 -0.58948737593E+01  0.11900038413E+04  0.11966191987E+04  0.12500000000E+03 0.  0.
</event>
<event>
 5    0  0.6693812E-005  0.5745481E+03  0.7546771E-02  0.9959664E-01
         21   -1    0    0  502  501  0.00000000000E+00  0.00000000000E+00  0.22319496924E+03  0.22319496924E+03  0.00000000000E+00 0. -1.
         21   -1    0    0  501  502 -0.00000000000E+00 -0.00000000000E+00 -0.14790008429E+04  0.14790008429E+04  0.00000000000E+00 0. -1.
         25    1    1    2    0    0  0.81171770442E+02 -0.89354540205E+02  0.84245533783E+02  0.19312017019E+03  0.12500000000E+03 0.  0.
         25    1    1    2    0    0 -0.27016656008E+01 -0.27120580271E+03 -0.67875052954E+03  0.74154377334E+03  0.12500000000E+03 0.  0.
         25    1    1    2    0    0 -0.78470104841E+02  0.36056034291E+03 -0.66130087788E+03  0.76753186860E+03  0.12500000000E+03 0.  0.
</event>
<event>
 5    0  0.6399550E-005  0.4749851E+03  0.7546771E-02  0.1020523E+00
         21   -1    0    0  502  501  0.00000000000E+00  0.00000000000E+00  0.80033991321E+03  0.80033991321E+03  0.00000000000E+00 0. -1.
         21   -1    0    0  501  502 -0.00000000000E+00 -0.00000000000E+00 -0.28189374435E+03  0.28189374435E+03  0.00000000000E+00 0. -1.
         25    1    1    2    0    0 -0.25727167137E+03 -0.97931286833E+02  0.21174240249E+03  0.36910580441E+03  0.12500000000E+03 0.  0.
         25    1    1    2    0    0  0.70586334908E+02 -0.61998520261E+02  0.39397313385E+03  0.42387035446E+03  0.12500000000E+03 0.  0.
         25    1    1    2    0    0  0.18668533647E+03  0.15992980709E+03 -0.87269367487E+02  0.28925749869E+03  0.12500000000E+03 0.  0.
</event>
<event>
 5    0  0.5663008E-005  0.4897204E+03  0.7546771E-02  0.1016497E+00
         21   -1    0    0  502  501  0.00000000000E+00  0.00000000000E+00  0.44376660930E+03  0.44376660930E+03  0.00000000000E+00 0.  1.
         21   -1    0    0  501  502 -0.00000000000E+00 -0.00000000000E+00 -0.54043289256E+03  0.54043289256E+03  0.00000000000E+00 0.  1.
         25    1    1    2    0    0 -0.26002074586E+03  0.12220378906E+03  0.20466077940E+02  0.31398792124E+03  0.12500000000E+03 0.  0.
         25    1    1    2    0    0  0.25714021350E+03  0.17546852631E+03 -0.36595662275E+02  0.33745301247E+03  0.12500000000E+03 0.  0.
         25    1    1    2    0    0  0.28805323532E+01 -0.29767231537E+03 -0.80536698926E+02  0.33275856815E+03  0.12500000000E+03 0.  0.
</event>
<event>
 5    0  0.5663008E-005  0.8457131E+03  0.7546771E-02  0.9496109E-01
         21   -1    0    0  502  501  0.00000000000E+00  0.00000000000E+00  0.39941184548E+03  0.39941184548E+03  0.00000000000E+00 0. -1.
         21   -1    0    0  501  502 -0.00000000000E+00 -0.00000000000E+00 -0.17907098136E+04  0.17907098136E+04  0.00000000000E+00 0. -1.
         25    1    1    2    0    0 -0.44453754427E+03 -0.47987685512E+03 -0.36850692132E+03  0.76112927641E+03  0.12500000000E+03 0.  0.
         25    1    1    2    0    0  0.29686051809E+03 -0.10989273310E+03 -0.18823226947E+03  0.38892025823E+03  0.12500000000E+03 0.  0.
         25    1    1    2    0    0  0.14767702618E+03  0.58976958822E+03 -0.83455877733E+03  0.10400721245E+04  0.12500000000E+03 0.  0.
</event>
<event>
 5    0  0.5663008E-005  0.4306330E+03  0.7546771E-02  0.1033660E+00
         21   -1    0    0  502  501  0.00000000000E+00  0.00000000000E+00  0.68889741672E+03  0.68889741672E+03  0.00000000000E+00 0.  1.
         21   -1    0    0  501  502 -0.00000000000E+00 -0.00000000000E+00 -0.26919065314E+03  0.26919065314E+03  0.00000000000E+00 0.  1.
         25    1    1    2    0    0 -0.16974455623E+03  0.17341936863E+03  0.11120181268E+02  0.27319617533E+03  0.12500000000E+03 0.  0.
         25    1    1    2    0    0  0.30231535191E+03 -0.16359140062E+03  0.29552450936E+03  0.47023021382E+03  0.12500000000E+03 0.  0.
         25    1    1    2    0    0 -0.13257079569E+03 -0.98279680096E+01  0.11306207295E+03  0.21466168071E+03  0.12500000000E+03 0.  0.
</event>
<event>
 5    0  0.5663008E-005  0.4262105E+03  0.7546771E-02  0.1035064E+00
         21   -1    0    0  502  501  0.00000000000E+00  0.00000000000E+00  0.10279493385E+04  0.10279493385E+04  0.00000000000E+00 0. -1.
         21   -1    0    0  501  502 -0.00000000000E+00 -0.00000000000E+00 -0.17671627628E+03  0.17671627628E+03  0.00000000000E+00 0. -1.
         25    1    1    2    0    0 -0.18569239216E+03 -0.85252785700E+02  0.18813759605E+03  0.30458243059E+03  0.12500000000E+03 0.  0.
         25    1    1    2    0    0 -0.16276199333E+03  0.61298454626E+02  0.12977904714E+03  0.25043276161E+03  0.12500000000E+03 0.  0.
         25    1    1    2    0    0  0.34845438549E+03  0.23954331074E+02  0.53331641899E+03  0.64965042255E+03  0.12500000000E+03 0.  0.
</event>
<event>
 5    0  0.5663008E-005  0.3340626E+03  0.7546771E-02  0.1069353E+00
         21   -1    0    0  502  501  0.00000000000E+00  0.00000000000E+00  0.41750183954E+03  0.41750183954E+03  0.00000000000E+00 0.  1.
         21   -1    0    0  501  502 -0.00000000000E+00 -0.00000000000E+00 -0.26729900242E+03  0.26729900242E+03  0.00000000000E+00 0.  1.
         25    1    1    2    0    0  0.19174475541E+02  0.18925230331E+03  0.22626443170E+03  0.32094343407E+03  0.12500000000E+03 0.  0.
         25    1    1    2    0    0 -0.59339810375E+02 -0.91336803508E+02 -0.10679258782E+03  0.19721379664E+03  0.12500000000E+03 0.  0.
         25    1    1    2    0    0  0.40165334834E+02 -0.97915499806E+02  0.30730993240E+02  0.16664361125E+03  0.12500000000E+03 0.  0.
</event>
<event>
 5    0  0.5663008E-005  0.4287157E+03  0.7546771E-02  0.1034266E+00
         21   -1    0    0  502  501  0.00000000000E+00  0.00000000000E+00  0.37727717441E+03  0.37727717441E+03  0.00000000000E+00 0.  1.
         21   -1    0    0  501  502 -0.00000000000E+00 -0.00000000000E+00 -0.48716735074E+03  0.48716735074E+03  0.00000000000E+00 0.  1.
         25    1    1    2    0    0  0.74485732963E+02 -0.46748174057E+02 -0.23314143570E+03  0.27877131351E+03  0.12500000000E+03 0.  0.
         25    1    1    2    0    0 -0.16544717991E+03 -0.12900732208E+03  0.22349101416E+03  0.33104213009E+03  0.12500000000E+03 0.  0.
         25    1    1    2    0    0  0.90961446942E+02  0.17575549614E+03 -0.10023975477E+03  0.25463108155E+03  0.12500000000E+03 0.  0.
</event>
<event>
 5    0  0.6032174E-005  0.2848279E+03  0.7546771E-02  0.1093081E+00
         21   -1    0    0  502  501  0.00000000000E+00  0.00000000000E+00  0.69259287283E+03  0.69259287283E+03  0.00000000000E+00 0. -1.
         21   -1    0    0  501  502 -0.00000000000E+00 -0.00000000000E+00 -0.11713508642E+03  0.11713508642E+03  0.00000000000E+00 0. -1.
         25    1    1    2    0    0  0.19936143119E+02 -0.83871704349E+02  0.14271998539E+03  0.20838883565E+03  0.12500000000E+03 0.  0.
         25    1    1    2    0    0  0.41279110416E+02  0.12886028546E+03  0.48925479577E+02  0.19059811300E+03  0.12500000000E+03 0.  0.
         25    1    1    2    0    0 -0.61215253535E+02 -0.44988581111E+02  0.38381232145E+03  0.41074101060E+03  0.12500000000E+03 0.  0.
</event>
<event>
 5    0  0.5663008E-005  0.3363401E+03  0.7546771E-02  0.1068366E+00
         21   -1    0    0  502  501  0.00000000000E+00  0.00000000000E+00  0.19393792618E+03  0.19393792618E+03  0.00000000000E+00 0.  1.
         21   -1    0    0  501  502 -0.00000000000E+00 -0.00000000000E+00 -0.58330354418E+03  0.58330354418E+03  0.00000000000E+00 0.  1.
         25    1    1    2    0    0 -0.89269857354E+01  0.50867456745E+02 -0.80855131609E+02  0.15757455866E+03  0.12500000000E+03 0.  0.
         25    1    1    2    0    0 -0.18803596921E+03 -0.15609596474E+03 -0.20932484313E+03  0.34520336886E+03  0.12500000000E+03 0.  0.
         25    1    1    2    0    0  0.19696295495E+03  0.10522850799E+03 -0.99185643266E+02  0.27446354284E+03  0.12500000000E+03 0.  0.
</event>
<event>
 5    0  0.5663008E-005  0.3780915E+03  0.7546771E-02  0.1051641E+00
         21   -1    0    0  502  501  0.00000000000E+00  0.00000000000E+00  0.51915951332E+03  0.51915951332E+03  0.00000000000E+00 0.  1.
         21   -1    0    0  501  502 -0.00000000000E+00 -0.00000000000E+00 -0.27535502769E+03  0.27535502769E+03  0.00000000000E+00 0.  1.
         25    1    1    2    0    0  0.10319662943E+03  0.11011427626E+03  0.57563206484E+02  0.20423814752E+03  0.12500000000E+03 0.  0.
         25    1    1    2    0    0 -0.15687648885E+03 -0.53777303242E+02 -0.12751015452E+03  0.24369257396E+03  0.12500000000E+03 0.  0.
         25    1    1    2    0    0  0.53679859422E+02 -0.56336973015E+02  0.31375143366E+03  0.34658381953E+03  0.12500000000E+03 0.  0.
</event>
<event>
 5    0  0.6222412E-005  0.3048293E+03  0.7546771E-02  0.1082851E+00
         21   -1    0    0  502  501  0.00000000000E+00  0.00000000000E+00  0.13550774896E+03  0.13550774896E+03  0.00000000000E+00 0.  1.
         21   -1    0    0  501  502 -0.00000000000E+00 -0.00000000000E+00 -0.68572370370E+03  0.68572370370E+03  0.00000000000E+00 0.  1.
         25    1    1    2    0    0 -0.10042019085E+03  0.41522439457E+02 -0.28573090933E+03  0.33026577215E+03  0.12500000000E+03 0.  0.
         25    1    1    2    0    0  0.54592612377E+01  0.12222082997E+03 -0.58138616916E+02  0.18431720915E+03  0.12500000000E+03 0.  0.
         25    1    1    2    0    0  0.94960929614E+02 -0.16374326943E+03 -0.20634642849E+03  0.30664847136E+03  0.12500000000E+03 0.  0.
</event>
<event>
 5    0  0.5663008E-005  0.3686983E+03  0.7546771E-02  0.1055192E+00
         21   -1    0    0  502  501  0.00000000000E+00  0.00000000000E+00  0.79152120966E+03  0.79152120966E+03  0.00000000000E+00 0. -1.
         21   -1    0    0  501  502 -0.00000000000E+00 -0.00000000000E+00 -0.17174325117E+03  0.17174325117E+03  0.00000000000E+00 0. -1.
         25    1    1    2    0    0  0.50233396061E+02 -0.14900994778E+03  0.25131633318E+03  0.32173320926E+03  0.12500000000E+03 0.  0.
         25    1    1    2    0    0 -0.73738653704E+01  0.78152486204E+00  0.41842752562E+03  0.43676261157E+03  0.12500000000E+03 0.  0.
         25    1    1    2    0    0 -0.42859530691E+02  0.14822842292E+03 -0.49965900314E+02  0.20476864000E+03  0.12500000000E+03 0.  0.
</event>
<event>
 5    0  0.5663008E-005  0.3871119E+03  0.7546771E-02  0.1048336E+00
         21   -1    0    0  502  501  0.00000000000E+00  0.00000000000E+00  0.85352549752E+03  0.85352549752E+03  0.00000000000E+00 0.  1.
         21   -1    0    0  501  502 -0.00000000000E+00 -0.00000000000E+00 -0.17557250865E+03  0.17557250865E+03  0.00000000000E+00 0.  1.
         25    1    1    2    0    0 -0.12029810796E+02 -0.19013799227E+03  0.34475714782E+02  0.23045769104E+03  0.12500000000E+03 0.  0.
         25    1    1    2    0    0  0.17350408796E+03  0.86380311319E+02  0.41699631743E+03  0.47652508378E+03  0.12500000000E+03 0.  0.
         25    1    1    2    0    0 -0.16147427716E+03  0.10375768095E+03  0.22648095665E+03  0.32211523135E+03  0.12500000000E+03 0.  0.
</event>
<event>
 5    0  0.5663008E-005  0.2520289E+03  0.7546771E-02  0.1112029E+00
         21   -1    0    0  502  501  0.00000000000E+00  0.00000000000E+00  0.16080799906E+03  0.16080799906E+03  0.00000000000E+00 0. -1.
         21   -1    0    0  501  502 -0.00000000000E+00 -0.00000000000E+00 -0.39499632086E+03  0.39499632086E+03  0.00000000000E+00 0. -1.
         25    1    1    2    0    0  0.13825810388E+03  0.49282615452E+02 -0.96426143237E+02  0.21556224292E+03  0.12500000000E+03 0.  0.
         25    1    1    2    0    0 -0.10629772446E+03 -0.18343428491E+02 -0.12472784468E+03  0.20692443750E+03  0.12500000000E+03 0.  0.
         25    1    1    2    0    0 -0.31960379422E+02 -0.30939186960E+02 -0.13034333875E+02  0.13331763950E+03  0.12500000000E+03 0.  0.
</event>
<event>
 5    0  0.5663008E-005  0.3822355E+03  0.7546771E-02  0.1050111E+00
         21   -1    0    0  502  501  0.00000000000E+00  0.00000000000E+00  0.48390593513E+02  0.48390593513E+02  0.00000000000E+00 0.  1.
         21   -1    0    0  501  502 -0.00000000000E+00 -0.00000000000E+00 -0.30192636338E+04  0.30192636338E+04  0.00000000000E+00 0.  1.
         25    1    1    2    0    0  0.28528875427E+01  0.38248418703E+02 -0.88350958624E+03  0.89313227994E+03  0.12500000000E+03 0.  0.
         25    1    1    2    0    0 -0.23036980577E+03  0.25481793188E+02 -0.15725911472E+04  0.15944865899E+04  0.12500000000E+03 0.  0.
         25    1    1    2    0    0  0.22751691823E+03 -0.63730211891E+02 -0.51477230683E+03  0.58003535743E+03  0.12500000000E+03 0.  0.
</event>
<event>
 5    0  0.5663008E-005  0.3896320E+03  0.7546771E-02  0.1047430E+00
         21   -1    0    0  502  501  0.00000000000E+00  0.00000000000E+00  0.10093432504E+04  0.10093432504E+04  0.00000000000E+00 0. -1.
         21   -1    0    0  501  502 -0.00000000000E+00 -0.00000000000E+00 -0.15040779758E+03  0.15040779758E+03  0.00000000000E+00 0. -1.
         25    1    1    2    0    0 -0.15034761182E+03  0.12737528129E+03  0.37498241807E+03  0.44166240561E+03  0.12500000000E+03 0.  0.
         25    1    1    2    0    0  0.25438091276E+03 -0.19856312699E+03  0.26305219481E+03  0.43469347979E+03  0.12500000000E+03 0.  0.
         25    1    1    2    0    0 -0.10403330094E+03  0.71187845701E+02  0.22090083989E+03  0.28339516253E+03  0.12500000000E+03 0.  0.
</event>
<event>
 5    0  0.5663008E-005  0.2914991E+03  0.7546771E-02  0.1089569E+00
         21   -1    0    0  502  501  0.00000000000E+00  0.00000000000E+00  0.90743192852E+03  0.90743192852E+03  0.00000000000E+00 0. -1.
         21   -1    0    0  501  502 -0.00000000000E+00 -0.00000000000E+00 -0.93639769926E+02  0.93639769926E+02  0.00000000000E+00 0. -1.
         25    1    1    2    0    0  0.11170353124E+03  0.14654579747E+02  0.35023290067E+02  0.17188387489E+03  0.12500000000E+03 0.  0.
         25    1    1    2    0    0 -0.78620029796E+02 -0.31091940893E+02  0.48160775618E+03  0.50469678886E+03  0.12500000000E+03 0.  0.
         25    1    1    2    0    0 -0.33083501442E+02  0.16437361146E+02  0.29716111235E+03  0.32449103470E+03  0.12500000000E+03 0.  0.
</event>
<event>
 5    0  0.5663008E-005  0.6239311E+03  0.7546771E-02  0.9856964E-01
         21   -1    0    0  502  501  0.00000000000E+00  0.00000000000E+00  0.12620444413E+04  0.12620444413E+04  0.00000000000E+00 0. -1.
         21   -1    0    0  501  502 -0.00000000000E+00 -0.00000000000E+00 -0.30845978459E+03  0.30845978459E+03  0.00000000000E+00 0. -1.
         25    1    1    2    0    0  0.12543177203E+03  0.43445524319E+03  0.63706572238E+03  0.79117774387E+03  0.12500000000E+03 0.  0.
         25    1    1    2    0    0 -0.49744269543E+02 -0.48770450067E+03  0.10486516003E+03  0.51667385662E+03  0.12500000000E+03 0.  0.
         25    1    1    2    0    0 -0.75687502482E+02  0.53249257481E+02  0.21165377433E+03  0.26265262543E+03  0.12500000000E+03 0.  0.
</event>
<event>
 5    0  0.5663008E-005  0.2686639E+03  0.7546771E-02  0.1102047E+00
         21   -1    0    0  502  501  0.00000000000E+00  0.00000000000E+00  0.49273639725E+03  0.49273639725E+03  0.00000000000E+00 0.  1.
         21   -1    0    0  501  502 -0.00000000000E+00 -0.00000000000E+00 -0.14648870678E+03  0.14648870678E+03  0.00000000000E+00 0.  1.
         25    1    1    2    0    0 -0.11630025281E+03  0.32520742701E+02  0.28903503651E+03  0.33726784584E+03  0.12500000000E+03 0.  0.
         25    1    1    2    0    0  0.49664769430E+02 -0.38527037192E+02 -0.18660235412E+02  0.14115284731E+03  0.12500000000E+03 0.  0.
         25    1    1    2    0    0  0.66635483383E+02  0.60062944914E+01  0.75872889371E+02  0.16080441089E+03  0.12500000000E+03 0.  0.
</event>
<event>
 5    0  0.5663008E-005  0.2853632E+03  0.7546771E-02  0.1092795E+00
         21   -1    0    0  502  501  0.00000000000E+00  0.00000000000E+00  0.17216797510E+03  0.17216797510E+03  0.00000000000E+00 0.  1.
         21   -1    0    0  501  502 -0.00000000000E+00 -0.00000000000E+00 -0.47298094410E+03  0.47298094410E+03  0.00000000000E+00 0.  1.
         25    1    1    2    0    0 -0.13966733025E+03  0.54200759958E+02 -0.21797914586E+03  0.29254844650E+03  0.12500000000E+03 0.  0.
         25    1    1    2    0    0  0.99421893272E+02 -0.11234791888E+03 -0.21565402902E+02  0.19646077049E+03  0.12500000000E+03 0.  0.
         25    1    1    2    0    0  0.40245436981E+02  0.58147158922E+02 -0.61268420237E+02  0.15613970221E+03  0.12500000000E+03 0.  0.
</event>
<event>
 5    0  0.5663008E-005  0.2820113E+03  0.7546771E-02  0.1094595E+00
         21   -1    0    0  502  501  0.00000000000E+00  0.00000000000E+00  0.53843831298E+03  0.53843831298E+03  0.00000000000E+00 0. -1.
         21   -1    0    0  501  502 -0.00000000000E+00 -0.00000000000E+00 -0.14770564458E+03  0.14770564458E+03  0.00000000000E+00 0. -1.
         25    1    1    2    0    0  0.11743049884E+03 -0.11141552063E+02  0.11692547737E+03  0.20787165151E+03  0.12500000000E+03 0.  0.
         25    1    1    2    0    0 -0.11469869805E+03  0.13449882527E+03  0.15014387474E+03  0.26346519402E+03  0.12500000000E+03 0.  0.
         25    1    1    2    0    0 -0.27318007880E+01 -0.12335727321E+03  0.12366331628E+03  0.21480711204E+03  0.12500000000E+03 0.  0.
</event>
<event>
 5    0  0.5663008E-005  0.2759522E+03  0.7546771E-02  0.1097921E+00
         21   -1    0    0  502  501  0.00000000000E+00  0.00000000000E+00  0.41716112695E+02  0.41716112695E+02  0.00000000000E+00 0.  1.
         21   -1    0    0  501  502 -0.00000000000E+00 -0.00000000000E+00 -0.18254243066E+04  0.18254243066E+04  0.00000000000E+00 0.  1.
         25    1    1    2    0    0 -0.16416491807E+02  0.15742380074E+03 -0.73059012371E+03  0.75791733263E+03  0.12500000000E+03 0.  0.
         25    1    1    2    0    0  0.45980603005E+02  0.18713462563E+01 -0.55394185510E+03  0.56973177603E+03  0.12500000000E+03 0.  0.
         25    1    1    2    0    0 -0.29564111197E+02 -0.15929514699E+03 -0.49917621508E+03  0.53949131061E+03  0.12500000000E+03 0.  0.
</event>
<event>
 5    0  0.5663008E-005  0.4303763E+03  0.7546771E-02  0.1033741E+00
         21   -1    0    0  502  501  0.00000000000E+00  0.00000000000E+00  0.23598973422E+03  0.23598973422E+03  0.00000000000E+00 0.  1.
         21   -1    0    0  501  502 -0.00000000000E+00 -0.00000000000E+00 -0.78488040668E+03  0.78488040668E+03  0.00000000000E+00 0.  1.
         25    1    1    2    0    0 -0.15264384248E+03  0.29915568169E+03 -0.26234403520E+03  0.44412121919E+03  0.12500000000E+03 0.  0.
         25    1    1    2    0    0 -0.62354633498E+02 -0.16689675073E+03 -0.10509423584E+03  0.24168662381E+03  0.12500000000E+03 0.  0.
         25    1    1    2    0    0  0.21499847598E+03 -0.13225893096E+03 -0.18145240142E+03  0.33506229790E+03  0.12500000000E+03 0.  0.
</event>
<event>
 5    0  0.5663008E-005  0.3411984E+03  0.7546771E-02  0.1066287E+00
         21   -1    0    0  502  501  0.00000000000E+00  0.00000000000E+00  0.14224882650E+04  0.14224882650E+04  0.00000000000E+00 0. -1.
         21   -1    0    0  501  502 -0.00000000000E+00 -0.00000000000E+00 -0.81839932887E+02  0.81839932887E+02  0.00000000000E+00 0. -1.
         25    1    1    2    0    0  0.16075713805E+03 -0.21424116506E+02  0.16977907333E+03  0.26599207496E+03  0.12500000000E+03 0.  0.
         25    1    1    2    0    0 -0.54927692446E+01 -0.87019821629E+02  0.68977544963E+03  0.70641191297E+03  0.12500000000E+03 0.  0.
         25    1    1    2    0    0 -0.15526436880E+03  0.10844393813E+03  0.48109380918E+03  0.53192420998E+03  0.12500000000E+03 0.  0.
</event>
<event>
 5    0  0.5663008E-005  0.2807639E+03  0.7546771E-02  0.1095272E+00
         21   -1    0    0  502  501  0.00000000000E+00  0.00000000000E+00  0.95392976145E+03  0.95392976145E+03  0.00000000000E+00 0.  1.
         21   -1    0    0  501  502 -0.00000000000E+00 -0.00000000000E+00 -0.82635407642E+02  0.82635407642E+02  0.00000000000E+00 0.  1.
         25    1    1    2    0    0  0.92158403922E+02  0.50842840318E+02  0.35259583687E+03  0.38862191138E+03  0.12500000000E+03 0.  0.
         25    1    1    2    0    0 -0.96752630201E+02  0.49629313649E+02  0.43813277907E+03  0.46841164836E+03  0.12500000000E+03 0.  0.
         25    1    1    2    0    0  0.45942262792E+01 -0.10047215397E+03  0.80565737863E+02  0.17953160935E+03  0.12500000000E+03 0.  0.
</event>
<event>
 5    0  0.5663008E-005  0.2973182E+03  0.7546771E-02  0.1086589E+00
         21   -1    0    0  502  501  0.00000000000E+00  0.00000000000E+00  0.59778564499E+02  0.59778564499E+02  0.00000000000E+00 0.  1.
         21   -1    0    0  501  502 -0.00000000000E+00 -0.00000000000E+00 -0.14787589540E+04  0.14787589540E+04  0.00000000000E+00 0.  1.
         25    1    1    2    0    0 -0.78653445500E+02  0.10747690387E+03 -0.66824952004E+03  0.69276263640E+03  0.12500000000E+03 0.  0.
         25    1    1    2    0    0  0.84205603074E+02 -0.18226433602E+03 -0.54019134271E+03  0.58969700569E+03  0.12500000000E+03 0.  0.
         25    1    1    2    0    0 -0.55521575739E+01  0.74787432152E+02 -0.21053952671E+03  0.25607787638E+03  0.12500000000E+03 0.  0.
</event>
<event>
 5    0  0.5663008E-005  0.2263383E+03  0.7546771E-02  0.1129244E+00
         21   -1    0    0  502  501  0.00000000000E+00  0.00000000000E+00  0.31925719561E+03  0.31925719561E+03  0.00000000000E+00 0. -1.
         21   -1    0    0  501  502 -0.00000000000E+00 -0.00000000000E+00 -0.16046313233E+03  0.16046313233E+03  0.00000000000E+00 0. -1.
         25    1    1    2    0    0 -0.44430661943E+02  0.51603404265E+02  0.39789107959E+02  0.14780111016E+03  0.12500000000E+03 0.  0.
         25    1    1    2    0    0 -0.22525936083E+02 -0.90005074453E+02  0.25419756012E+02  0.15773235312E+03  0.12500000000E+03 0.  0.
         25    1    1    2    0    0  0.66956598026E+02  0.38401670188E+02  0.93585199303E+02  0.17418686466E+03  0.12500000000E+03 0.  0.
</event>
<event>
 5    0  0.5792680E-005  0.4584798E+03  0.7546771E-02  0.1025223E+00
         21   -1    0    0  502  501  0.00000000000E+00  0.00000000000E+00  0.26854016184E+03  0.26854016184E+03  0.00000000000E+00 0. -1.
         21   -1    0    0  501  502 -0.00000000000E+00 -0.00000000000E+00 -0.78276462846E+03  0.78276462846E+03  0.00000000000E+00 0. -1.
         25    1    1    2    0    0 -0.27301326950E+02 -0.13885153327E+03 -0.50602203216E+03  0.54010036824E+03  0.12500000000E+03 0.  0.
         25    1    1    2    0    0  0.14671632002E+03  0.21626633627E+03 -0.92184876456E+02  0.30400634568E+03  0.12500000000E+03 0.  0.
         25    1    1    2    0    0 -0.11941499307E+03 -0.77414802995E+02  0.83982441997E+02  0.20719807638E+03  0.12500000000E+03 0.  0.
</event>
<event>
 5    0  0.5663008E-005  0.3624940E+03  0.7546771E-02  0.1057601E+00
         21   -1    0    0  502  501  0.00000000000E+00  0.00000000000E+00  0.18770322574E+03  0.18770322574E+03  0.00000000000E+00 0. -1.
         21   -1    0    0  501  502 -0.00000000000E+00 -0.00000000000E+00 -0.70005132144E+03  0.70005132144E+03  0.00000000000E+00 0. -1.
         25    1    1    2    0    0 -0.10439133875E+03 -0.24157455949E+03 -0.14814204481E+03  0.32684382331E+03  0.12500000000E+03 0.  0.
         25    1    1    2    0    0 -0.61015836733E+01  0.22362513530E+03 -0.18983408869E+03  0.31891599472E+03  0.12500000000E+03 0.  0.
         25    1    1    2    0    0  0.11049292242E+03  0.17949424188E+02 -0.17437196219E+03  0.24199472914E+03  0.12500000000E+03 0.  0.
</event>
<event>
 5    0  0.6215327E-005  0.3120616E+03  0.7546771E-02  0.1079362E+00
         21   -1    0    0  502  501  0.00000000000E+00  0.00000000000E+00  0.33691533746E+03  0.33691533746E+03  0.00000000000E+00 0.  1.
         21   -1    0    0  501  502 -0.00000000000E+00 -0.00000000000E+00 -0.28904137479E+03  0.28904137479E+03  0.00000000000E+00 0.  1.
         25    1    1    2    0    0  0.44007883637E+02 -0.24911265474E+02  0.14746198715E+03  0.19981817391E+03  0.12500000000E+03 0.  0.
         25    1    1    2    0    0 -0.12574888782E+03  0.13950622605E+03 -0.64459629983E+02  0.23463762228E+03  0.12500000000E+03 0.  0.
         25    1    1    2    0    0  0.81741004179E+02 -0.11459496057E+03 -0.35128394488E+02  0.19150091606E+03  0.12500000000E+03 0.  0.
</event>
<event>
 5    0  0.5663008E-005  0.2947241E+03  0.7546771E-02  0.1087908E+00
         21   -1    0    0  502  501  0.00000000000E+00  0.00000000000E+00  0.49954118150E+02  0.49954118150E+02  0.00000000000E+00 0.  1.
         21   -1    0    0  501  502 -0.00000000000E+00 -0.00000000000E+00 -0.17388410290E+04  0.17388410290E+04  0.00000000000E+00 0.  1.
         25    1    1    2    0    0 -0.58836932774E+02 -0.14130110198E+03 -0.10027698012E+04  0.10220567794E+04  0.12500000000E+03 0.  0.
         25    1    1    2    0    0 -0.29002509883E+02 -0.54914184255E+01 -0.29939627012E+03  0.32578279239E+03  0.12500000000E+03 0.  0.
         25    1    1    2    0    0  0.87839442656E+02  0.14679252041E+03 -0.38672083957E+03  0.44095557542E+03  0.12500000000E+03 0.  0.
</event>
<event>
 5    0  0.5663008E-005  0.2760457E+03  0.7546771E-02  0.1097869E+00
         21   -1    0    0  502  501  0.00000000000E+00  0.00000000000E+00  0.18188161629E+04  0.18188161629E+04  0.00000000000E+00 0. -1.
         21   -1    0    0  501  502 -0.00000000000E+00 -0.00000000000E+00 -0.41896056299E+02  0.41896056299E+02  0.00000000000E+00 0. -1.
         25    1    1    2    0    0 -0.58573426469E+02  0.80131369687E+02  0.20247307275E+03  0.25782208572E+03  0.12500000000E+03 0.  0.
         25    1    1    2    0    0  0.70684563981E+02 -0.32822994437E+02  0.11003223000E+04  0.11101386492E+04  0.12500000000E+03 0.  0.
         25    1    1    2    0    0 -0.12111137512E+02 -0.47308375249E+02  0.47412473387E+03  0.49275148431E+03  0.12500000000E+03 0.  0.
</event>
<event>
 5    0  0.5663008E-005  0.4122887E+03  0.7546771E-02  0.1039606E+00
         21   -1    0    0  502  501  0.00000000000E+00  0.00000000000E+00  0.22435384389E+04  0.22435384389E+04  0.00000000000E+00 0. -1.
         21   -1    0    0  501  502 -0.00000000000E+00 -0.00000000000E+00 -0.75765109984E+02  0.75765109984E+02  0.00000000000E+00 0.  1.
         25    1    1    2    0    0  0.10805044189E+02  0.80926255058E+02  0.60522101795E+03  0.62336449073E+03  0.12500000000E+03 0.  0.
         25    1    1    2    0    0  0.29133136127E+03  0.12507936049E+02  0.81945145954E+03  0.87872413479E+03  0.12500000000E+03 0.  0.
         25    1    1    2    0    0 -0.30213640546E+03 -0.93434191108E+02  0.74310085141E+03  0.81721492334E+03  0.12500000000E+03 0.  0.
</event>
<event>
 5    0  0.5663008E-005  0.2965782E+03  0.7546771E-02  0.1086964E+00
         21   -1    0    0  502  501  0.00000000000E+00  0.00000000000E+00  0.19683832567E+03  0.19683832567E+03  0.00000000000E+00 0. -1.
         21   -1    0    0  501  502 -0.00000000000E+00 -0.00000000000E+00 -0.44685728451E+03  0.44685728451E+03  0.00000000000E+00 0. -1.
         25    1    1    2    0    0  0.64792767788E+02 -0.13728380693E+03 -0.69404419101E+02  0.20853517639E+03  0.12500000000E+03 0.  0.
         25    1    1    2    0    0 -0.72106282427E+02  0.14211336120E+03  0.14740807612E+02  0.20307096002E+03  0.12500000000E+03 0.  0.
         25    1    1    2    0    0  0.73135146386E+01 -0.48295542668E+01 -0.19535534735E+03  0.23208947376E+03  0.12500000000E+03 0.  0.
</event>
<event>
 5    0  0.5663008E-005  0.2772294E+03  0.7546771E-02  0.1097212E+00
         21   -1    0    0  502  501  0.00000000000E+00  0.00000000000E+00  0.90887525202E+03  0.90887525202E+03  0.00000000000E+00 0.  1.
         21   -1    0    0  501  502 -0.00000000000E+00 -0.00000000000E+00 -0.84561826166E+02  0.84561826166E+02  0.00000000000E+00 0.  1.
         25    1    1    2    0    0  0.14480325005E+03 -0.44389038669E+02  0.53160403896E+03  0.56671529203E+03  0.12500000000E+03 0.  0.
         25    1    1    2    0    0 -0.90675866219E+02 -0.88007464259E+01  0.97598137839E+02  0.18289330869E+03  0.12500000000E+03 0.  0.
         25    1    1    2    0    0 -0.54127383835E+02  0.53189785095E+02  0.19511124906E+03  0.24382847748E+03  0.12500000000E+03 0.  0.
</event>
<event>
 5    0  0.6344738E-005  0.3371821E+03  0.7546771E-02  0.1068002E+00
         21   -1    0    0  502  501  0.00000000000E+00  0.00000000000E+00  0.27652122689E+03  0.27652122689E+03  0.00000000000E+00 0.  1.
         21   -1    0    0  501  502 -0.00000000000E+00 -0.00000000000E+00 -0.41115021483E+03  0.41115021483E+03  0.00000000000E+00 0.  1.
         25    1    1    2    0    0 -0.86125216394E+02  0.14471084221E+03 -0.22027672405E+03  0.30414735888E+03  0.12500000000E+03 0.  0.
         25    1    1    2    0    0  0.15664582874E+03 -0.79339394548E+02  0.60085225975E+02  0.22375855195E+03  0.12500000000E+03 0.  0.
         25    1    1    2    0    0 -0.70520612351E+02 -0.65371447667E+02  0.25562510139E+02  0.15976553089E+03  0.12500000000E+03 0.  0.
</event>
<event>
 5    0  0.5663008E-005  0.3266489E+03  0.7546771E-02  0.1072629E+00
         21   -1    0    0  502  501  0.00000000000E+00  0.00000000000E+00  0.16252881827E+03  0.16252881827E+03  0.00000000000E+00 0.  1.
         21   -1    0    0  501  502 -0.00000000000E+00 -0.00000000000E+00 -0.65649605284E+03  0.65649605284E+03  0.00000000000E+00 0.  1.
         25    1    1    2    0    0 -0.58867909561E+02 -0.18902084730E+03 -0.29394828219E+03  0.37579902088E+03  0.12500000000E+03 0.  0.
         25    1    1    2    0    0  0.30854413505E+01  0.20801385084E+03 -0.18305371105E+03  0.30399497236E+03  0.12500000000E+03 0.  0.
         25    1    1    2    0    0  0.55782468211E+02 -0.18993003542E+02 -0.16965241329E+02  0.13923087788E+03  0.12500000000E+03 0.  0.
</event>
<event>
 5    0  0.5663008E-005  0.4534867E+03  0.7546771E-02  0.1026687E+00
         21   -1    0    0  502  501  0.00000000000E+00  0.00000000000E+00  0.18366882542E+03  0.18366882542E+03  0.00000000000E+00 0.  1.
         21   -1    0    0  501  502 -0.00000000000E+00 -0.00000000000E+00 -0.11196792721E+04  0.11196792721E+04  0.00000000000E+00 0.  1.
         25    1    1    2    0    0  0.65280870090E+02  0.57317869219E+02 -0.22204914546E+03  0.26921692579E+03  0.12500000000E+03 0.  0.
         25    1    1    2    0    0  0.25529146836E+03  0.35725581069E+02 -0.65064833487E+02  0.29378305519E+03  0.12500000000E+03 0.  0.
         25    1    1    2    0    0 -0.32057233845E+03 -0.93043450288E+02 -0.64889646777E+03  0.74034811657E+03  0.12500000000E+03 0.  0.
</event>
<event>
 5    0  0.5663008E-005  0.5273249E+03  0.7546771E-02  0.1006883E+00
         21   -1    0    0  502  501  0.00000000000E+00  0.00000000000E+00  0.12771329786E+04  0.12771329786E+04  0.00000000000E+00 0. -1.
         21   -1    0    0  501  502 -0.00000000000E+00 -0.00000000000E+00 -0.21773104591E+03  0.21773104591E+03  0.00000000000E+00 0. -1.
         25    1    1    2    0    0 -0.29748424884E+03  0.21778245961E+02  0.18296000307E+03  0.37157843456E+03  0.12500000000E+03 0.  0.
         25    1    1    2    0    0 -0.39012568942E+02  0.15346406465E+03  0.53799830615E+02  0.20878846100E+03  0.12500000000E+03 0.  0.
         25    1    1    2    0    0  0.33649681778E+03 -0.17524231061E+03  0.82264209897E+03  0.91449712892E+03  0.12500000000E+03 0.  0.
</event>
<event>
 5    0  0.5663008E-005  0.3538331E+03  0.7546771E-02  0.1061053E+00
         21   -1    0    0  502  501  0.00000000000E+00  0.00000000000E+00  0.50664453741E+03  0.50664453741E+03  0.00000000000E+00 0. -1.
         21   -1    0    0  501  502 -0.00000000000E+00 -0.00000000000E+00 -0.24711188190E+03  0.24711188190E+03  0.00000000000E+00 0. -1.
         25    1    1    2    0    0 -0.41858057511E+02 -0.57461425107E+02  0.29582932506E+03  0.32892841458E+03  0.12500000000E+03 0.  0.
         25    1    1    2    0    0 -0.63650798931E+02  0.75962083632E+02  0.11861089446E+03  0.19878432191E+03  0.12500000000E+03 0.  0.
         25    1    1    2    0    0  0.10550885644E+03 -0.18500658525E+02 -0.15490756401E+03  0.22604368282E+03  0.12500000000E+03 0.  0.
</event>
<event>
 5    0  0.5663008E-005  0.2962907E+03  0.7546771E-02  0.1087110E+00
         21   -1    0    0  502  501  0.00000000000E+00  0.00000000000E+00  0.26476038414E+03  0.26476038414E+03  0.00000000000E+00 0. -1.
         21   -1    0    0  501  502 -0.00000000000E+00 -0.00000000000E+00 -0.33157604115E+03  0.33157604115E+03  0.00000000000E+00 0. -1.
         25    1    1    2    0    0 -0.12360855499E+03  0.23903700998E+02 -0.43990096869E+01  0.17746778038E+03  0.12500000000E+03 0.  0.
         25    1    1    2    0    0  0.21793619781E+03  0.18436991221E+02 -0.41354259956E+02  0.25528666980E+03  0.12500000000E+03 0.  0.
         25    1    1    2    0    0 -0.94327642820E+02 -0.42340692219E+02 -0.21062387363E+02  0.16358197510E+03  0.12500000000E+03 0.  0.
</event>
<event>
 5    0  0.5663008E-005  0.3897268E+03  0.7546771E-02  0.1047396E+00
         21   -1    0    0  502  501  0.00000000000E+00  0.00000000000E+00  0.37329958736E+03  0.37329958736E+03  0.00000000000E+00 0.  1.
         21   -1    0    0  501  502 -0.00000000000E+00 -0.00000000000E+00 -0.40687690565E+03  0.40687690565E+03  0.00000000000E+00 0.  1.
         25    1    1    2    0    0  0.16544722157E+03  0.44209619655E+02 -0.16595535487E+03  0.26924608336E+03  0.12500000000E+03 0.  0.
         25    1    1    2    0    0 -0.26116675821E+03 -0.12180707276E+03  0.11516794290E+03  0.33456493188E+03  0.12500000000E+03 0.  0.
         25    1    1    2    0    0  0.95719536643E+02  0.77597453101E+02  0.17210093682E+02  0.17636547777E+03  0.12500000000E+03 0.  0.
</event>
<event>
 5    0  0.6535740E-005  0.5824780E+03  0.7546771E-02  0.9942440E-01
         21   -1    0    0  502  501  0.00000000000E+00  0.00000000000E+00  0.77417264224E+03  0.77417264224E+03  0.00000000000E+00 0.  1.
         21   -1    0    0  501  502 -0.00000000000E+00 -0.00000000000E+00 -0.43824935775E+03  0.43824935775E+03  0.00000000000E+00 0.  1.
         25    1    1    2    0    0 -0.24982694793E+02  0.20706201665E+03  0.44387359747E+03  0.50611024917E+03  0.12500000000E+03 0.  0.
         25    1    1    2    0    0  0.19341731170E+03 -0.35423069746E+03  0.13565532612E+02  0.42272765129E+03  0.12500000000E+03 0.  0.
         25    1    1    2    0    0 -0.16843461690E+03  0.14716868081E+03 -0.12151584559E+03  0.28358409954E+03  0.12500000000E+03 0.  0.
</event>
<event>
 5    0  0.5663008E-005  0.2591130E+03  0.7546771E-02  0.1107677E+00
         21   -1    0    0  502  501  0.00000000000E+00  0.00000000000E+00  0.18690418416E+03  0.18690418416E+03  0.00000000000E+00 0.  1.
         21   -1    0    0  501  502 -0.00000000000E+00 -0.00000000000E+00 -0.35921897051E+03  0.35921897051E+03  0.00000000000E+00 0.  1.
         25    1    1    2    0    0  0.71511306887E+02 -0.30895414611E+02 -0.96666468791E+02  0.17617548026E+03  0.12500000000E+03 0.  0.
         25    1    1    2    0    0 -0.91590044989E+02 -0.60812212893E+02  0.45038676294E+02  0.17245388932E+03  0.12500000000E+03 0.  0.
         25    1    1    2    0    0  0.20078738102E+02  0.91707627503E+02 -0.12068699385E+03  0.19749378509E+03  0.12500000000E+03 0.  0.
</event>
<event>
 5    0  0.5663008E-005  0.4774935E+03  0.7546771E-02  0.1019826E+00
         21   -1    0    0  502  501  0.00000000000E+00  0.00000000000E+00  0.40039366160E+03  0.40039366160E+03  0.00000000000E+00 0. -1.
         21   -1    0    0  501  502 -0.00000000000E+00 -0.00000000000E+00 -0.56943971627E+03  0.56943971627E+03  0.00000000000E+00 0. -1.
         25    1    1    2    0    0 -0.13649391925E+02 -0.82708037016E+02  0.28520997864E+03  0.32248512710E+03  0.12500000000E+03 0.  0.
         25    1    1    2    0    0  0.15501654369E+03  0.51541685277E+02 -0.39795355179E+03  0.44797176644E+03  0.12500000000E+03 0.  0.
         25    1    1    2    0    0 -0.14136715177E+03  0.31166351739E+02 -0.56302481507E+02  0.19937648433E+03  0.12500000000E+03 0.  0.
</event>
<event>
 5    0  0.5663008E-005  0.2554822E+03  0.7546771E-02  0.1109888E+00
         21   -1    0    0  502  501  0.00000000000E+00  0.00000000000E+00  0.27479080616E+03  0.27479080616E+03  0.00000000000E+00 0. -1.
         21   -1    0    0  501  502 -0.00000000000E+00 -0.00000000000E+00 -0.23753037609E+03  0.23753037609E+03  0.00000000000E+00 0. -1.
         25    1    1    2    0    0  0.24719112557E+02 -0.47550967983E+02  0.11995455038E+03  0.18134559063E+03  0.12500000000E+03 0.  0.
         25    1    1    2    0    0 -0.72706179304E+02  0.33829373715E+02  0.34548182294E+02  0.15247685705E+03  0.12500000000E+03 0.  0.
         25    1    1    2    0    0  0.47987066746E+02  0.13721594268E+02 -0.11724230261E+03  0.17849873458E+03  0.12500000000E+03 0.  0.
</event>
<event>
 5    0  0.5663008E-005  0.3316155E+03  0.7546771E-02  0.1070424E+00
         21   -1    0    0  502  501  0.00000000000E+00  0.00000000000E+00  0.21197604697E+03  0.21197604697E+03  0.00000000000E+00 0.  1.
         21   -1    0    0  501  502 -0.00000000000E+00 -0.00000000000E+00 -0.51877953675E+03  0.51877953675E+03  0.00000000000E+00 0.  1.
         25    1    1    2    0    0  0.35577089648E+02  0.16303890660E+03 -0.72397522690E+02  0.22071206507E+03  0.12500000000E+03 0.  0.
         25    1    1    2    0    0  0.10971925227E+03  0.38070351289E+02 -0.54720364814E+02  0.17918421887E+03  0.12500000000E+03 0.  0.
         25    1    1    2    0    0 -0.14529634192E+03 -0.20110925789E+03 -0.17968560227E+03  0.33085929978E+03  0.12500000000E+03 0.  0.
</event>
<event>
 5    0  0.5663008E-005  0.2813116E+03  0.7546771E-02  0.1094975E+00
         21   -1    0    0  502  501  0.00000000000E+00  0.00000000000E+00  0.75367157315E+03  0.75367157315E+03  0.00000000000E+00 0. -1.
         21   -1    0    0  501  502 -0.00000000000E+00 -0.00000000000E+00 -0.10500093928E+03  0.10500093928E+03  0.00000000000E+00 0. -1.
         25    1    1    2    0    0 -0.14348002434E+03 -0.36313658481E+02  0.17803327075E+03  0.26310842759E+03  0.12500000000E+03 0.  0.
         25    1    1    2    0    0 -0.42623991749E+02 -0.19600360728E+02  0.15917392862E+03  0.20775542921E+03  0.12500000000E+03 0.  0.
         25    1    1    2    0    0  0.18610401608E+03  0.55914019209E+02  0.31146343451E+03  0.38780865563E+03  0.12500000000E+03 0.  0.
</event>
<event>
 5    0  0.5663008E-005  0.3409039E+03  0.7546771E-02  0.1066412E+00
         21   -1    0    0  502  501  0.00000000000E+00  0.00000000000E+00  0.15140901520E+04  0.15140901520E+04  0.00000000000E+00 0.  1.
         21   -1    0    0  501  502 -0.00000000000E+00 -0.00000000000E+00 -0.76755984166E+02  0.76755984166E+02  0.00000000000E+00 0.  1.
         25    1    1    2    0    0 -0.18901653122E+02  0.53953049282E+02  0.38601886699E+03  0.40976062486E+03  0.12500000000E+03 0.  0.
         25    1    1    2    0    0  0.19547439105E+03 -0.13618412837E+03  0.77655569940E+03  0.82183946647E+03  0.12500000000E+03 0.  0.
         25    1    1    2    0    0 -0.17657273793E+03  0.82231079084E+02  0.27475960148E+03  0.35924604487E+03  0.12500000000E+03 0.  0.
</event>
<event>
 5    0  0.5663008E-005  0.4328995E+03  0.7546771E-02  0.1032948E+00
         21   -1    0    0  502  501  0.00000000000E+00  0.00000000000E+00  0.70492799219E+03  0.70492799219E+03  0.00000000000E+00 0. -1.
         21   -1    0    0  501  502 -0.00000000000E+00 -0.00000000000E+00 -0.26584560584E+03  0.26584560584E+03  0.00000000000E+00 0. -1.
         25    1    1    2    0    0 -0.24346532252E+03 -0.10493706770E+03 -0.14288696935E+02  0.29345582003E+03  0.12500000000E+03 0.  0.
         25    1    1    2    0    0  0.29347600860E+03 -0.19842474275E+02  0.28413132976E+03  0.42764179398E+03  0.12500000000E+03 0.  0.
         25    1    1    2    0    0 -0.50010686077E+02  0.12477954198E+03  0.16923975353E+03  0.24967598401E+03  0.12500000000E+03 0.  0.
</event>
<event>
 5    0  0.5663008E-005  0.3711207E+03  0.7546771E-02  0.1054265E+00
         21   -1    0    0  502  501  0.00000000000E+00  0.00000000000E+00  0.20799978667E+03  0.20799978667E+03  0.00000000000E+00 0.  1.
         21   -1    0    0  501  502 -0.00000000000E+00 -0.00000000000E+00 -0.66216689663E+03  0.66216689663E+03  0.00000000000E+00 0.  1.
         25    1    1    2    0    0 -0.39563152762E+02  0.78473490421E+02 -0.27212258553E+01  0.15282583821E+03  0.12500000000E+03 0.  0.
         25    1    1    2    0    0  0.98460325965E+02  0.19362652448E+03 -0.23135030785E+03  0.34107716387E+03  0.12500000000E+03 0.  0.
         25    1    1    2    0    0 -0.58897173202E+02 -0.27210001490E+03 -0.22009557625E+03  0.37626368122E+03  0.12500000000E+03 0.  0.
</event>
<event>
 5    0  0.5663008E-005  0.5601526E+03  0.7546771E-02  0.9991709E-01
         21   -1    0    0  502  501  0.00000000000E+00  0.00000000000E+00  0.54102173986E+03  0.54102173986E+03  0.00000000000E+00 0. -1.
         21   -1    0    0  501  502 -0.00000000000E+00 -0.00000000000E+00 -0.57995997879E+03  0.57995997879E+03  0.00000000000E+00 0. -1.
         25    1    1    2    0    0 -0.26713327723E+03 -0.16147639398E+03 -0.18368221759E+03  0.38314353795E+03  0.12500000000E+03 0.  0.
         25    1    1    2    0    0 -0.17062142082E+03 -0.53187633507E+02  0.18218299109E+02  0.21885497486E+03  0.12500000000E+03 0.  0.
         25    1    1    2    0    0  0.43775469805E+03  0.21466402749E+03  0.12652567955E+03  0.51898320584E+03  0.12500000000E+03 0.  0.
</event>
<event>
 5    0  0.6356183E-005  0.3351790E+03  0.7546771E-02  0.1068868E+00
         21   -1    0    0  502  501  0.00000000000E+00  0.00000000000E+00  0.21988093377E+03  0.21988093377E+03  0.00000000000E+00 0.  1.
         21   -1    0    0  501  502 -0.00000000000E+00 -0.00000000000E+00 -0.51093544661E+03  0.51093544661E+03  0.00000000000E+00 0.  1.
         25    1    1    2    0    0  0.15566737836E+03 -0.84809080244E+02 -0.19193122114E+03  0.28963340006E+03  0.12500000000E+03 0.  0.
         25    1    1    2    0    0 -0.83887276421E+02 -0.33997439402E+02 -0.18045588580E+03  0.23744942146E+03  0.12500000000E+03 0.  0.
         25    1    1    2    0    0 -0.71780101943E+02  0.11880651965E+03  0.81332594096E+02  0.20373355887E+03  0.12500000000E+03 0.  0.
</event>
<event>
 5    0  0.5663008E-005  0.4021734E+03  0.7546771E-02  0.1043030E+00
         21   -1    0    0  502  501  0.00000000000E+00  0.00000000000E+00  0.65196628298E+02  0.65196628298E+02  0.00000000000E+00 0.  1.
         21   -1    0    0  501  502 -0.00000000000E+00 -0.00000000000E+00 -0.24808560396E+04  0.24808560396E+04  0.00000000000E+00 0.  1.
         25    1    1    2    0    0  0.18027291837E+03  0.83272048632E+01 -0.12605317140E+04  0.12795049314E+04  0.12500000000E+03 0.  0.
         25    1    1    2    0    0 -0.59964107022E+02  0.18696595761E+03 -0.74300102412E+03  0.77860611691E+03  0.12500000000E+03 0.  0.
         25    1    1    2    0    0 -0.12030881135E+03 -0.19529316247E+03 -0.41212667315E+03  0.48794161958E+03  0.12500000000E+03 0.  0.
</event>
<event>
 5    0  0.5846399E-005  0.3332664E+03  0.7546771E-02  0.1069701E+00
         21   -1    0    0  502  501  0.00000000000E+00  0.00000000000E+00  0.30541982266E+03  0.30541982266E+03  0.00000000000E+00 0. -1.
         21   -1    0    0  501  502 -0.00000000000E+00 -0.00000000000E+00 -0.36365189168E+03  0.36365189168E+03  0.00000000000E+00 0. -1.
         25    1    1    2    0    0 -0.18878162460E+03 -0.13742097984E+03 -0.75839998003E+02  0.27549906131E+03  0.12500000000E+03 0.  0.
         25    1    1    2    0    0  0.16081736819E+03  0.61015542986E+02 -0.65943288910E+02  0.22261769865E+03  0.12500000000E+03 0.  0.
         25    1    1    2    0    0  0.27964256402E+02  0.76405436854E+02  0.83551217889E+02  0.17095495438E+03  0.12500000000E+03 0.  0.
</event>
<event>
 5    0  0.5663008E-005  0.7612862E+03  0.7546771E-02  0.9617809E-01
         21   -1    0    0  502  501  0.00000000000E+00  0.00000000000E+00  0.18518886385E+04  0.18518886385E+04  0.00000000000E+00 0.  1.
         21   -1    0    0  501  502 -0.00000000000E+00 -0.00000000000E+00 -0.31295437654E+03  0.31295437654E+03  0.00000000000E+00 0.  1.
         25    1    1    2    0    0  0.21748292040E+03  0.26311249910E+03  0.34369962813E+03  0.50028136306E+03  0.12500000000E+03 0.  0.
         25    1    1    2    0    0  0.14454098584E+03 -0.57961047827E+03  0.89747204495E+03  0.10853209086E+04  0.12500000000E+03 0.  0.
         25    1    1    2    0    0 -0.36202390624E+03  0.31649797917E+03  0.29776258890E+03  0.57924074344E+03  0.12500000000E+03 0.  0.
</event>
<event>
 5    0  0.5663008E-005  0.3376637E+03  0.7546771E-02  0.1067795E+00
         21   -1    0    0  502  501  0.00000000000E+00  0.00000000000E+00  0.13121116684E+03  0.13121116684E+03  0.00000000000E+00 0.  1.
         21   -1    0    0  501  502 -0.00000000000E+00 -0.00000000000E+00 -0.86895658630E+03  0.86895658630E+03  0.00000000000E+00 0.  1.
         25    1    1    2    0    0  0.35429599217E+02 -0.15489201480E+01 -0.21938807924E+03  0.25497800879E+03  0.12500000000E+03 0.  0.
         25    1    1    2    0    0  0.15919994068E+03 -0.26047246015E+00 -0.29740072884E+02  0.20458289492E+03  0.12500000000E+03 0.  0.
         25    1    1    2    0    0 -0.19462953990E+03  0.18093926082E+01 -0.48861726733E+03  0.54060684942E+03  0.12500000000E+03 0.  0.
</event>
<event>
 5    0  0.5663008E-005  0.3583933E+03  0.7546771E-02  0.1059222E+00
         21   -1    0    0  502  501  0.00000000000E+00  0.00000000000E+00  0.79169536009E+03  0.79169536009E+03  0.00000000000E+00 0.  1.
         21   -1    0    0  501  502 -0.00000000000E+00 -0.00000000000E+00 -0.16224135883E+03  0.16224135883E+03  0.00000000000E+00 0.  1.
         25    1    1    2    0    0  0.14237755830E+03 -0.12884646306E+03  0.15911328817E+03  0.27895307602E+03  0.12500000000E+03 0.  0.
         25    1    1    2    0    0 -0.55485029660E+02 -0.83247304438E+01  0.44843363815E+03  0.46889830185E+03  0.12500000000E+03 0.  0.
         25    1    1    2    0    0 -0.86892528638E+02  0.13717119350E+03  0.21907074944E+02  0.20608534104E+03  0.12500000000E+03 0.  0.
</event>
<event>
 5    0  0.5663008E-005  0.5900077E+03  0.7546771E-02  0.9926357E-01
         21   -1    0    0  502  501  0.00000000000E+00  0.00000000000E+00  0.24162472627E+03  0.24162472627E+03  0.00000000000E+00 0.  1.
         21   -1    0    0  501  502 -0.00000000000E+00 -0.00000000000E+00 -0.14407012714E+04  0.14407012714E+04  0.00000000000E+00 0.  1.
         25    1    1    2    0    0 -0.28899360328E+03  0.24521408748E+03 -0.10085142854E+03  0.41163486499E+03  0.12500000000E+03 0.  0.
         25    1    1    2    0    0  0.88367758991E+02  0.11654338112E+03 -0.47324709694E+03  0.51086107238E+03  0.12500000000E+03 0.  0.
         25    1    1    2    0    0  0.20062584429E+03 -0.36175746860E+03 -0.62497801967E+03  0.75983006032E+03  0.12500000000E+03 0.  0.
</event>
<event>
 5    0  0.5663008E-005  0.4106975E+03  0.7546771E-02  0.1040137E+00
         21   -1    0    0  502  501  0.00000000000E+00  0.00000000000E+00  0.23226515393E+03  0.23226515393E+03  0.00000000000E+00 0. -1.
         21   -1    0    0  501  502 -0.00000000000E+00 -0.00000000000E+00 -0.72620632804E+03  0.72620632804E+03  0.00000000000E+00 0. -1.
         25    1    1    2    0    0  0.10136638903E+03 -0.26695956743E+03 -0.29268857899E+03  0.42759111279E+03  0.12500000000E+03 0.  0.
         25    1    1    2    0    0 -0.62072468793E+02 -0.27755226675E+02  0.14205648192E+02  0.14300400145E+03  0.12500000000E+03 0.  0.
         25    1    1    2    0    0 -0.39293920234E+02  0.29471479410E+03 -0.21545824331E+03  0.38787636772E+03  0.12500000000E+03 0.  0.
</event>
<event>
 5    0  0.5663008E-005  0.2386530E+03  0.7546771E-02  0.1120693E+00
         21   -1    0    0  502  501  0.00000000000E+00  0.00000000000E+00  0.29512804856E+03  0.29512804856E+03  0.00000000000E+00 0.  1.
         21   -1    0    0  501  502 -0.00000000000E+00 -0.00000000000E+00 -0.19298489164E+03  0.19298489164E+03  0.00000000000E+00 0.  1.
         25    1    1    2    0    0  0.52399202056E+02 -0.38327085414E+02  0.10712022486E+03  0.17695870825E+03  0.12500000000E+03 0.  0.
         25    1    1    2    0    0 -0.60088672492E+02  0.99947778001E+02  0.67517743401E+01  0.17108709287E+03  0.12500000000E+03 0.  0.
         25    1    1    2    0    0  0.76894704363E+01 -0.61620692587E+02 -0.11728842275E+02  0.14006713909E+03  0.12500000000E+03 0.  0.
</event>
<event>
 5    0  0.5663008E-005  0.2907770E+03  0.7546771E-02  0.1089944E+00
         21   -1    0    0  502  501  0.00000000000E+00  0.00000000000E+00  0.12277469354E+03  0.12277469354E+03  0.00000000000E+00 0. -1.
         21   -1    0    0  501  502 -0.00000000000E+00 -0.00000000000E+00 -0.68867024589E+03  0.68867024589E+03  0.00000000000E+00 0. -1.
         25    1    1    2    0    0  0.47598117838E+02  0.12971948683E+03 -0.16957558960E+03  0.25193968857E+03  0.12500000000E+03 0.  0.
         25    1    1    2    0    0 -0.53103000022E+02 -0.18984329021E+03 -0.33365586298E+03  0.40719975240E+03  0.12500000000E+03 0.  0.
         25    1    1    2    0    0  0.55048821836E+01  0.60123803384E+02 -0.62664099762E+02  0.15230549846E+03  0.12500000000E+03 0.  0.
</event>
<event>
 5    0  0.5663008E-005  0.4626511E+03  0.7546771E-02  0.1024015E+00
         21   -1    0    0  502  501  0.00000000000E+00  0.00000000000E+00  0.29174794648E+03  0.29174794648E+03  0.00000000000E+00 0. -1.
         21   -1    0    0  501  502 -0.00000000000E+00 -0.00000000000E+00 -0.73366783557E+03  0.73366783557E+03  0.00000000000E+00 0. -1.
         25    1    1    2    0    0  0.21324318720E+02 -0.22227932445E+02 -0.20843106626E+02  0.13041565337E+03  0.12500000000E+03 0.  0.
         25    1    1    2    0    0 -0.16711497122E+03  0.25645311786E+03 -0.48350474654E+03  0.58574521354E+03  0.12500000000E+03 0.  0.
         25    1    1    2    0    0  0.14579065250E+03 -0.23422518542E+03  0.62427964068E+02  0.30925491514E+03  0.12500000000E+03 0.  0.
</event>
<event>
 5    0  0.5663008E-005  0.3499250E+03  0.7546771E-02  0.1062646E+00
         21   -1    0    0  502  501  0.00000000000E+00  0.00000000000E+00  0.47599997156E+03  0.47599997156E+03  0.00000000000E+00 0. -1.
         21   -1    0    0  501  502 -0.00000000000E+00 -0.00000000000E+00 -0.25724266626E+03  0.25724266626E+03  0.00000000000E+00 0. -1.
         25    1    1    2    0    0  0.19621592183E+03  0.16378978427E+03 -0.29585142445E+02  0.28605604707E+03  0.12500000000E+03 0.  0.
         25    1    1    2    0    0 -0.49869732491E+02 -0.94405377725E+02  0.13860920785E+03  0.21502762163E+03  0.12500000000E+03 0.  0.
         25    1    1    2    0    0 -0.14634618933E+03 -0.69384406550E+02  0.10973323990E+03  0.23215896912E+03  0.12500000000E+03 0.  0.
</event>
<event>
 5    0  0.5663008E-005  0.4455014E+03  0.7546771E-02  0.1029072E+00
         21   -1    0    0  502  501  0.00000000000E+00  0.00000000000E+00  0.17689486096E+04  0.17689486096E+04  0.00000000000E+00 0. -1.
         21   -1    0    0  501  502 -0.00000000000E+00 -0.00000000000E+00 -0.11219744483E+03  0.11219744483E+03  0.00000000000E+00 0. -1.
         25    1    1    2    0    0  0.20735925780E+03  0.18914608392E+03  0.36333569515E+03  0.47582762659E+03  0.12500000000E+03 0.  0.
         25    1    1    2    0    0 -0.12066324776E+03  0.52624386402E+02  0.90585362998E+03  0.92386402914E+03  0.12500000000E+03 0.  0.
         25    1    1    2    0    0 -0.86696010047E+02 -0.24177047032E+03  0.38756183963E+03  0.48145439868E+03  0.12500000000E+03 0.  0.
</event>
<event>
 5    0  0.5663008E-005  0.2164982E+03  0.7546771E-02  0.1136521E+00
         21   -1    0    0  502  501  0.00000000000E+00  0.00000000000E+00  0.33811610913E+03  0.33811610913E+03  0.00000000000E+00 0.  1.
         21   -1    0    0  501  502 -0.00000000000E+00 -0.00000000000E+00 -0.13862533027E+03  0.13862533027E+03  0.00000000000E+00 0.  1.
         25    1    1    2    0    0 -0.89465098051E+02 -0.17545381869E+02  0.85350395738E+02  0.17669616365E+03  0.12500000000E+03 0.  0.
         25    1    1    2    0    0  0.70650822918E+02  0.13662536791E+02  0.27726179380E+02  0.14687390753E+03  0.12500000000E+03 0.  0.
         25    1    1    2    0    0  0.18814275133E+02  0.38828450785E+01  0.86414203742E+02  0.15317136822E+03  0.12500000000E+03 0.  0.
</event>
<event>
 5    0  0.5663008E-005  0.3605712E+03  0.7546771E-02  0.1058358E+00
         21   -1    0    0  502  501  0.00000000000E+00  0.00000000000E+00  0.52663943051E+03  0.52663943051E+03  0.00000000000E+00 0.  1.
         21   -1    0    0  501  502 -0.00000000000E+00 -0.00000000000E+00 -0.24687024335E+03  0.24687024335E+03  0.00000000000E+00 0.  1.
         25    1    1    2    0    0  0.73859779912E+01 -0.15038258167E+03  0.48217199824E+02  0.20154248162E+03  0.12500000000E+03 0.  0.
         25    1    1    2    0    0 -0.53521753210E+02  0.29115263410E+03  0.95761217822E+02  0.33530530155E+03  0.12500000000E+03 0.  0.
         25    1    1    2    0    0  0.46135775218E+02 -0.14077005243E+03  0.13579076951E+03  0.23666189068E+03  0.12500000000E+03 0.  0.
</event>
<event>
 5    0  0.6722846E-005  0.2882253E+03  0.7546771E-02  0.1091279E+00
         21   -1    0    0  502  501  0.00000000000E+00  0.00000000000E+00  0.50106386138E+03  0.50106386138E+03  0.00000000000E+00 0.  1.
         21   -1    0    0  501  502 -0.00000000000E+00 -0.00000000000E+00 -0.16579486438E+03  0.16579486438E+03  0.00000000000E+00 0.  1.
         25    1    1    2    0    0  0.14965048208E+03 -0.93487539655E+02  0.27779448409E+03  0.35203687626E+03  0.12500000000E+03 0.  0.
         25    1    1    2    0    0 -0.86242100710E+02  0.27511440378E+02  0.35386306540E+02  0.15834067695E+03  0.12500000000E+03 0.  0.
         25    1    1    2    0    0 -0.63408381370E+02  0.65976099277E+02  0.22088206371E+02  0.15648117256E+03  0.12500000000E+03 0.  0.
</event>
<event>
 5    0  0.5663008E-005  0.3107610E+03  0.7546771E-02  0.1079982E+00
         21   -1    0    0  502  501  0.00000000000E+00  0.00000000000E+00  0.31597496079E+03  0.31597496079E+03  0.00000000000E+00 0. -1.
         21   -1    0    0  501  502 -0.00000000000E+00 -0.00000000000E+00 -0.30563302829E+03  0.30563302829E+03  0.00000000000E+00 0.  1.
         25    1    1    2    0    0  0.20207810283E+02  0.46100431071E+02 -0.11348520978E+03  0.17617462411E+03  0.12500000000E+03 0.  0.
         25    1    1    2    0    0  0.93472736271E+02  0.71754929208E+02  0.16176536822E+03  0.23596388844E+03  0.12500000000E+03 0.  0.
         25    1    1    2    0    0 -0.11368054655E+03 -0.11785536028E+03 -0.37938225940E+02  0.20946947653E+03  0.12500000000E+03 0.  0.
</event>
<event>
 5    0  0.5663008E-005  0.2777517E+03  0.7546771E-02  0.1096923E+00
         21   -1    0    0  502  501  0.00000000000E+00  0.00000000000E+00  0.16572935797E+03  0.16572935797E+03  0.00000000000E+00 0.  1.
         21   -1    0    0  501  502 -0.00000000000E+00 -0.00000000000E+00 -0.46549383371E+03  0.46549383371E+03  0.00000000000E+00 0.  1.
         25    1    1    2    0    0 -0.15166008767E+02 -0.12607034646E+03 -0.27927774786E+03  0.33127752795E+03  0.12500000000E+03 0.  0.
         25    1    1    2    0    0  0.14061674656E+02  0.12004093982E+03 -0.62385405929E+01  0.17398700329E+03  0.12500000000E+03 0.  0.
         25    1    1    2    0    0  0.11043341109E+01  0.60294066456E+01 -0.14248187290E+02  0.12595866044E+03  0.12500000000E+03 0.  0.
</event>
<event>
 5    0  0.5663008E-005  0.3535767E+03  0.7546771E-02  0.1061157E+00
         21   -1    0    0  502  501  0.00000000000E+00  0.00000000000E+00  0.17397923635E+03  0.17397923635E+03  0.00000000000E+00 0.  1.
         21   -1    0    0  501  502 -0.00000000000E+00 -0.00000000000E+00 -0.71857117514E+03  0.71857117514E+03  0.00000000000E+00 0. -1.
         25    1    1    2    0    0 -0.30146891865E+02 -0.16467882642E+03 -0.49542483066E+03  0.53767900628E+03  0.12500000000E+03 0.  0.
         25    1    1    2    0    0  0.74049361896E+02  0.16027699842E+03 -0.96229514830E+01  0.21654012426E+03  0.12500000000E+03 0.  0.
         25    1    1    2    0    0 -0.43902470031E+02  0.44018280019E+01 -0.39544156649E+02  0.13833128095E+03  0.12500000000E+03 0.  0.
</event>
<event>
 5    0  0.5663008E-005  0.2635483E+03  0.7546771E-02  0.1105030E+00
         21   -1    0    0  502  501  0.00000000000E+00  0.00000000000E+00  0.45911569933E+03  0.45911569933E+03  0.00000000000E+00 0.  1.
         21   -1    0    0  501  502 -0.00000000000E+00 -0.00000000000E+00 -0.15128578959E+03  0.15128578959E+03  0.00000000000E+00 0.  1.
         25    1    1    2    0    0  0.36922915972E+02  0.11611651759E+03  0.15897825222E+03  0.23610470571E+03  0.12500000000E+03 0.  0.
         25    1    1    2    0    0 -0.10150284353E+03 -0.12256236325E+03  0.94367794107E+02  0.22328152788E+03  0.12500000000E+03 0.  0.
         25    1    1    2    0    0  0.64579927561E+02  0.64458456608E+01  0.54483863408E+02  0.15101525533E+03  0.12500000000E+03 0.  0.
</event>
<event>
 5    0  0.5663008E-005  0.3007917E+03  0.7546771E-02  0.1084846E+00
         21   -1    0    0  502  501  0.00000000000E+00  0.00000000000E+00  0.32567777651E+02  0.32567777651E+02  0.00000000000E+00 0. -1.
         21   -1    0    0  501  502 -0.00000000000E+00 -0.00000000000E+00 -0.27780716048E+04  0.27780716048E+04  0.00000000000E+00 0. -1.
         25    1    1    2    0    0 -0.58430728517E+02 -0.20852158103E+03 -0.13466952074E+04  0.13697110577E+04  0.12500000000E+03 0.  0.
         25    1    1    2    0    0  0.55124186741E+02  0.71314034723E+02 -0.50262956587E+03  0.52572411777E+03  0.12500000000E+03 0.  0.
         25    1    1    2    0    0  0.33065417763E+01  0.13720754631E+03 -0.89617905388E+03  0.91520420705E+03  0.12500000000E+03 0.  0.
</event>
<event>
 5    0  0.5663008E-005  0.4027189E+03  0.7546771E-02  0.1042842E+00
         21   -1    0    0  502  501  0.00000000000E+00  0.00000000000E+00  0.97580200265E+03  0.97580200265E+03  0.00000000000E+00 0. -1.
         21   -1    0    0  501  502 -0.00000000000E+00 -0.00000000000E+00 -0.16620432899E+03  0.16620432899E+03  0.00000000000E+00 0. -1.
         25    1    1    2    0    0 -0.93804956023E+02  0.37878150351E+02  0.36400851422E+03  0.39794638141E+03  0.12500000000E+03 0.  0.
         25    1    1    2    0    0 -0.15911289828E+03 -0.10427763668E+03  0.38607197058E+03  0.44818222452E+03  0.12500000000E+03 0.  0.
         25    1    1    2    0    0  0.25291785430E+03  0.66399486330E+02  0.59517188857E+02  0.29587772572E+03  0.12500000000E+03 0.  0.
</event>
<event>
 5    0  0.5663008E-005  0.2229262E+03  0.7546771E-02  0.1131720E+00
         21   -1    0    0  502  501  0.00000000000E+00  0.00000000000E+00  0.11805387008E+03  0.11805387008E+03  0.00000000000E+00 0. -1.
         21   -1    0    0  501  502 -0.00000000000E+00 -0.00000000000E+00 -0.42096101535E+03  0.42096101535E+03  0.00000000000E+00 0. -1.
         25    1    1    2    0    0 -0.25110706828E+02 -0.33370428877E+02 -0.70702015322E+02  0.14955904550E+03  0.12500000000E+03 0.  0.
         25    1    1    2    0    0  0.86553754881E+02  0.52404757757E+02 -0.71663596139E+02  0.17606385811E+03  0.12500000000E+03 0.  0.
         25    1    1    2    0    0 -0.61443048053E+02 -0.19034328879E+02 -0.16054153381E+03  0.21339198182E+03  0.12500000000E+03 0.  0.
</event>
<event>
 5    0  0.5730625E-005  0.3221338E+03  0.7546771E-02  0.1074671E+00
         21   -1    0    0  502  501  0.00000000000E+00  0.00000000000E+00  0.18875540985E+03  0.18875540985E+03  0.00000000000E+00 0.  1.
         21   -1    0    0  501  502 -0.00000000000E+00 -0.00000000000E+00 -0.54976004366E+03  0.54976004366E+03  0.00000000000E+00 0.  1.
         25    1    1    2    0    0  0.98761766922E+02  0.11569039817E+03 -0.55259973404E+02  0.20449161229E+03  0.12500000000E+03 0.  0.
         25    1    1    2    0    0 -0.20770374081E+03 -0.29207724046E+02 -0.21851715714E+03  0.32767160856E+03  0.12500000000E+03 0.  0.
         25    1    1    2    0    0  0.10894197389E+03 -0.86482674128E+02 -0.87227503259E+02  0.20635223266E+03  0.12500000000E+03 0.  0.
</event>
<event>
 5    0  0.5663008E-005  0.4344734E+03  0.7546771E-02  0.1032456E+00
         21   -1    0    0  502  501  0.00000000000E+00  0.00000000000E+00  0.25357657524E+03  0.25357657524E+03  0.00000000000E+00 0.  1.
         21   -1    0    0  501  502 -0.00000000000E+00 -0.00000000000E+00 -0.74441870944E+03  0.74441870944E+03  0.00000000000E+00 0.  1.
         25    1    1    2    0    0 -0.29407534723E+02 -0.25759476936E+03 -0.43728529853E+03  0.52351055444E+03  0.12500000000E+03 0.  0.
         25    1    1    2    0    0  0.10538913050E+03  0.26881211911E+03 -0.81779347207E+02  0.32508412117E+03  0.12500000000E+03 0.  0.
         25    1    1    2    0    0 -0.75981595777E+02 -0.11217349755E+02  0.28222511546E+02  0.14940060907E+03  0.12500000000E+03 0.  0.
</event>
<event>
 5    0  0.5663008E-005  0.3127783E+03  0.7546771E-02  0.1079022E+00
         21   -1    0    0  502  501  0.00000000000E+00  0.00000000000E+00  0.76858169385E+03  0.76858169385E+03  0.00000000000E+00 0. -1.
         21   -1    0    0  501  502 -0.00000000000E+00 -0.00000000000E+00 -0.12728672233E+03  0.12728672233E+03  0.00000000000E+00 0. -1.
         25    1    1    2    0    0 -0.74491256862E+02 -0.14179644349E+03  0.45561760871E+03  0.49886629882E+03  0.12500000000E+03 0.  0.
         25    1    1    2    0    0 -0.58749637938E+02  0.65838324169E+02  0.83955093566E+02  0.17452696818E+03  0.12500000000E+03 0.  0.
         25    1    1    2    0    0  0.13324089480E+03  0.75958119319E+02  0.10172226924E+03  0.22247514917E+03  0.12500000000E+03 0.  0.
</event>
<event>
 5    0  0.5663008E-005  0.3033511E+03  0.7546771E-02  0.1083577E+00
         21   -1    0    0  502  501  0.00000000000E+00  0.00000000000E+00  0.10545980544E+04  0.10545980544E+04  0.00000000000E+00 0. -1.
         21   -1    0    0  501  502 -0.00000000000E+00 -0.00000000000E+00 -0.87257811277E+02  0.87257811277E+02  0.00000000000E+00 0. -1.
         25    1    1    2    0    0  0.53711631416E+02 -0.16281757183E+03  0.38151334390E+03  0.43654545310E+03  0.12500000000E+03 0.  0.
         25    1    1    2    0    0 -0.12638164573E+03  0.51392813444E+01  0.29116974748E+03  0.34117965126E+03  0.12500000000E+03 0.  0.
         25    1    1    2    0    0  0.72670014310E+02  0.15767829049E+03  0.29465715180E+03  0.36413076137E+03  0.12500000000E+03 0.  0.
</event>
<event>
 5    0  0.5663008E-005  0.3635944E+03  0.7546771E-02  0.1057170E+00
         21   -1    0    0  502  501  0.00000000000E+00  0.00000000000E+00  0.30827558404E+03  0.30827558404E+03  0.00000000000E+00 0.  1.
         21   -1    0    0  501  502 -0.00000000000E+00 -0.00000000000E+00 -0.42884006900E+03  0.42884006900E+03  0.00000000000E+00 0.  1.
         25    1    1    2    0    0  0.18077729709E+02  0.28739823011E+03 -0.47237420068E+02  0.31746010904E+03  0.12500000000E+03 0.  0.
         25    1    1    2    0    0 -0.15641860858E+02 -0.12862182574E+03 -0.11456842677E+03  0.21339907751E+03  0.12500000000E+03 0.  0.
         25    1    1    2    0    0 -0.24358688511E+01 -0.15877640436E+03  0.41241361879E+02  0.20625646649E+03  0.12500000000E+03 0.  0.
</event>
<event>
 5    0  0.5663008E-005  0.3216428E+03  0.7546771E-02  0.1074896E+00
         21   -1    0    0  502  501  0.00000000000E+00  0.00000000000E+00  0.12269847840E+03  0.12269847840E+03  0.00000000000E+00 0.  1.
         21   -1    0    0  501  502 -0.00000000000E+00 -0.00000000000E+00 -0.84315692435E+03  0.84315692435E+03  0.00000000000E+00 0.  1.
         25    1    1    2    0    0  0.16099265379E+03 -0.10249717730E+03 -0.24424697921E+03  0.33422431506E+03  0.12500000000E+03 0.  0.
         25    1    1    2    0    0  0.38677429667E+02 -0.33001630416E+02 -0.10202571128E+03  0.16917238822E+03  0.12500000000E+03 0.  0.
         25    1    1    2    0    0 -0.19967008345E+03  0.13549880771E+03 -0.37418575547E+03  0.46245869947E+03  0.12500000000E+03 0.  0.
</event>
<event>
 5    0  0.5663008E-005  0.3349993E+03  0.7546771E-02  0.1068946E+00
         21   -1    0    0  502  501  0.00000000000E+00  0.00000000000E+00  0.67498322069E+03  0.67498322069E+03  0.00000000000E+00 0.  1.
         21   -1    0    0  501  502 -0.00000000000E+00 -0.00000000000E+00 -0.16626271433E+03  0.16626271433E+03  0.00000000000E+00 0.  1.
         25    1    1    2    0    0 -0.13458761463E+03 -0.93196091143E+02  0.37151517447E+03  0.42479155156E+03  0.12500000000E+03 0.  0.
         25    1    1    2    0    0  0.11190852632E+03  0.16325275099E+03  0.29878620925E+02  0.23599303158E+03  0.12500000000E+03 0.  0.
         25    1    1    2    0    0  0.22679088312E+02 -0.70056659842E+02  0.10732671097E+03  0.18046135188E+03  0.12500000000E+03 0.  0.
</event>
<event>
 5    0  0.6221222E-005  0.2547091E+03  0.7546771E-02  0.1110364E+00
         21   -1    0    0  502  501  0.00000000000E+00  0.00000000000E+00  0.16838009298E+03  0.16838009298E+03  0.00000000000E+00 0. -1.
         21   -1    0    0  501  502 -0.00000000000E+00 -0.00000000000E+00 -0.38529922243E+03  0.38529922243E+03  0.00000000000E+00 0. -1.
         25    1    1    2    0    0 -0.68492955577E+02 -0.33648543254E+02 -0.16988228203E+02  0.14743510208E+03  0.12500000000E+03 0.  0.
         25    1    1    2    0    0  0.13898167541E+03  0.73339819207E+02 -0.14442304721E+03  0.24734116468E+03  0.12500000000E+03 0.  0.
         25    1    1    2    0    0 -0.70488719834E+02 -0.39691275953E+02 -0.55507854040E+02  0.15890304865E+03  0.12500000000E+03 0.  0.
</event>
<event>
 5    0  0.5663008E-005  0.5720732E+03  0.7546771E-02  0.9965101E-01
         21   -1    0    0  502  501  0.00000000000E+00  0.00000000000E+00  0.24612780378E+03  0.24612780378E+03  0.00000000000E+00 0. -1.
         21   -1    0    0  501  502 -0.00000000000E+00 -0.00000000000E+00 -0.13296660103E+04  0.13296660103E+04  0.00000000000E+00 0. -1.
         25    1    1    2    0    0 -0.48161074095E+03 -0.12553568893E+03 -0.35798098023E+03  0.62568642082E+03  0.12500000000E+03 0.  0.
         25    1    1    2    0    0  0.21706368066E+03  0.18810925463E+03 -0.39747899718E+03  0.50607932811E+03  0.12500000000E+03 0.  0.
         25    1    1    2    0    0  0.26454706029E+03 -0.62573565697E+02 -0.32807822915E+03  0.44402806519E+03  0.12500000000E+03 0.  0.
</event>
<event>
 5    0  0.5663008E-005  0.2529030E+03  0.7546771E-02  0.1111484E+00
         21   -1    0    0  502  501  0.00000000000E+00  0.00000000000E+00  0.37679300429E+03  0.37679300429E+03  0.00000000000E+00 0.  1.
         21   -1    0    0  501  502 -0.00000000000E+00 -0.00000000000E+00 -0.16974812636E+03  0.16974812636E+03  0.00000000000E+00 0.  1.
         25    1    1    2    0    0 -0.13576256815E+02  0.46648949604E+02 -0.35963590888E+02  0.13884818730E+03  0.12500000000E+03 0.  0.
         25    1    1    2    0    0  0.42400143197E+02  0.36336587379E+02  0.21111061152E+03  0.25161639458E+03  0.12500000000E+03 0.  0.
         25    1    1    2    0    0 -0.28823886381E+02 -0.82985536983E+02  0.31897857295E+02  0.15607654877E+03  0.12500000000E+03 0.  0.
</event>
<event>
 5    0  0.7368616E-005  0.3388813E+03  0.7546771E-02  0.1067273E+00
         21   -1    0    0  502  501  0.00000000000E+00  0.00000000000E+00  0.81238437304E+03  0.81238437304E+03  0.00000000000E+00 0. -1.
         21   -1    0    0  501  502 -0.00000000000E+00 -0.00000000000E+00 -0.14136233139E+03  0.14136233139E+03  0.00000000000E+00 0. -1.
         25    1    1    2    0    0 -0.12257380140E+03  0.18446479118E+03  0.12680722365E+03  0.28417717703E+03  0.12500000000E+03 0.  0.
         25    1    1    2    0    0  0.14884713285E+03 -0.10452300168E+03  0.21787784308E+03  0.31012301002E+03  0.12500000000E+03 0.  0.
         25    1    1    2    0    0 -0.26273331442E+02 -0.79941789503E+02  0.32633697492E+03  0.35944651738E+03  0.12500000000E+03 0.  0.
</event>
<event>
 5    0  0.5938021E-005  0.2874175E+03  0.7546771E-02  0.1091705E+00
         21   -1    0    0  502  501  0.00000000000E+00  0.00000000000E+00  0.17467083721E+03  0.17467083721E+03  0.00000000000E+00 0. -1.
         21   -1    0    0  501  502 -0.00000000000E+00 -0.00000000000E+00 -0.47293999373E+03  0.47293999373E+03  0.00000000000E+00 0. -1.
         25    1    1    2    0    0 -0.79315538611E+02 -0.87246321599E+01  0.38915693103E+02  0.15331831280E+03  0.12500000000E+03 0.  0.
         25    1    1    2    0    0  0.10408340161E+03 -0.33930256236E+02 -0.31767142684E+03  0.35850348982E+03  0.12500000000E+03 0.  0.
         25    1    1    2    0    0 -0.24767863003E+02  0.42654888396E+02 -0.19513422784E+02  0.13578902831E+03  0.12500000000E+03 0.  0.
</event>
<event>
 5    0  0.5663008E-005  0.3632272E+03  0.7546771E-02  0.1057313E+00
         21   -1    0    0  502  501  0.00000000000E+00  0.00000000000E+00  0.29422165548E+03  0.29422165548E+03  0.00000000000E+00 0.  1.
         21   -1    0    0  501  502 -0.00000000000E+00 -0.00000000000E+00 -0.44841696050E+03  0.44841696050E+03  0.00000000000E+00 0.  1.
         25    1    1    2    0    0 -0.63333104385E+02 -0.67585148571E+02  0.57722364489E+02  0.16593886157E+03  0.12500000000E+03 0.  0.
         25    1    1    2    0    0 -0.94520142370E+02  0.10473750337E+03  0.92394179448E+02  0.20991828487E+03  0.12500000000E+03 0.  0.
         25    1    1    2    0    0  0.15785324675E+03 -0.37152354804E+02 -0.30431184896E+03  0.36678146954E+03  0.12500000000E+03 0.  0.
</event>
<event>
 5    0  0.5663008E-005  0.2648046E+03  0.7546771E-02  0.1104290E+00
         21   -1    0    0  502  501  0.00000000000E+00  0.00000000000E+00  0.12477761107E+03  0.12477761107E+03  0.00000000000E+00 0.  1.
         21   -1    0    0  501  502 -0.00000000000E+00 -0.00000000000E+00 -0.56197145092E+03  0.56197145092E+03  0.00000000000E+00 0.  1.
         25    1    1    2    0    0  0.31606945573E+02  0.80705502505E+02 -0.90052405392E+00  0.15211241924E+03  0.12500000000E+03 0.  0.
         25    1    1    2    0    0  0.84691009289E+00  0.11405123125E+02 -0.92217813380E+02  0.15575596038E+03  0.12500000000E+03 0.  0.
         25    1    1    2    0    0 -0.32453855666E+02 -0.92110625631E+02 -0.34407550242E+03  0.37888068236E+03  0.12500000000E+03 0.  0.
</event>
<event>
 5    0  0.5663008E-005  0.2903146E+03  0.7546771E-02  0.1090185E+00
         21   -1    0    0  502  501  0.00000000000E+00  0.00000000000E+00  0.31378947759E+03  0.31378947759E+03  0.00000000000E+00 0. -1.
         21   -1    0    0  501  502 -0.00000000000E+00 -0.00000000000E+00 -0.26859591148E+03  0.26859591148E+03  0.00000000000E+00 0. -1.
         25    1    1    2    0    0  0.57698639886E+02  0.13377695644E+03 -0.84416419657E+02  0.20970583928E+03  0.12500000000E+03 0.  0.
         25    1    1    2    0    0 -0.51643150805E+02 -0.39229763068E+02  0.15975585411E+03  0.21296225548E+03  0.12500000000E+03 0.  0.
         25    1    1    2    0    0 -0.60554890812E+01 -0.94547193377E+02 -0.30145868355E+02  0.15971729431E+03  0.12500000000E+03 0.  0.
</event>
<event>
 5    0  0.5663008E-005  0.2092496E+03  0.7546771E-02  0.1142162E+00
         21   -1    0    0  502  501  0.00000000000E+00  0.00000000000E+00  0.93978229773E+02  0.93978229773E+02  0.00000000000E+00 0. -1.
         21   -1    0    0  501  502 -0.00000000000E+00 -0.00000000000E+00 -0.46591010893E+03  0.46591010893E+03  0.00000000000E+00 0. -1.
         25    1    1    2    0    0 -0.97860383963E+01 -0.32616350270E+02 -0.77440233971E+02  0.15093569058E+03  0.12500000000E+03 0.  0.
         25    1    1    2    0    0 -0.40976366495E+02 -0.28133292221E+02 -0.12096367341E+03  0.18090813975E+03  0.12500000000E+03 0.  0.
         25    1    1    2    0    0  0.50762404891E+02  0.60749642490E+02 -0.17352797178E+03  0.22804450838E+03  0.12500000000E+03 0.  0.
</event>
<event>
 5    0  0.5663008E-005  0.2388744E+03  0.7546771E-02  0.1120545E+00
         21   -1    0    0  502  501  0.00000000000E+00  0.00000000000E+00  0.16190020100E+03  0.16190020100E+03  0.00000000000E+00 0. -1.
         21   -1    0    0  501  502 -0.00000000000E+00 -0.00000000000E+00 -0.35244552111E+03  0.35244552111E+03  0.00000000000E+00 0. -1.
         25    1    1    2    0    0  0.66155206331E+01 -0.82646346866E+01 -0.14475584668E+03  0.19154979626E+03  0.12500000000E+03 0.  0.
         25    1    1    2    0    0  0.46226577093E+02  0.60505996259E+02 -0.88742317696E+02  0.17116679282E+03  0.12500000000E+03 0.  0.
         25    1    1    2    0    0 -0.52842097726E+02 -0.52241361572E+02  0.42952844270E+02  0.15162913303E+03  0.12500000000E+03 0.  0.
</event>
<event>
 5    0  0.5663008E-005  0.2897272E+03  0.7546771E-02  0.1090492E+00
         21   -1    0    0  502  501  0.00000000000E+00  0.00000000000E+00  0.11464220410E+03  0.11464220410E+03  0.00000000000E+00 0. -1.
         21   -1    0    0  501  502 -0.00000000000E+00 -0.00000000000E+00 -0.73220737521E+03  0.73220737521E+03  0.00000000000E+00 0. -1.
         25    1    1    2    0    0 -0.15458411360E+03 -0.79968969725E+02 -0.20752105084E+03  0.29829728601E+03  0.12500000000E+03 0.  0.
         25    1    1    2    0    0  0.16757877091E+03  0.15291815653E+02 -0.31446736491E+03  0.37793016244E+03  0.12500000000E+03 0.  0.
         25    1    1    2    0    0 -0.12994657308E+02  0.64677154072E+02 -0.95576755358E+02  0.17062213087E+03  0.12500000000E+03 0.  0.
</event>
<event>
 5    0  0.5663008E-005  0.4137965E+03  0.7546771E-02  0.1039104E+00
         21   -1    0    0  502  501  0.00000000000E+00  0.00000000000E+00  0.13903473647E+04  0.13903473647E+04  0.00000000000E+00 0.  1.
         21   -1    0    0  501  502 -0.00000000000E+00 -0.00000000000E+00 -0.12315453537E+03  0.12315453537E+03  0.00000000000E+00 0.  1.
         25    1    1    2    0    0  0.67077428961E+02  0.15605168358E+03  0.20877168828E+03  0.29675263647E+03  0.12500000000E+03 0.  0.
         25    1    1    2    0    0 -0.10224695587E+03 -0.12499286055E+02  0.23248687910E+02  0.16363426788E+03  0.12500000000E+03 0.  0.
         25    1    1    2    0    0  0.35169526904E+02 -0.14355239752E+03  0.10351724531E+04  0.10531149957E+04  0.12500000000E+03 0.  0.
</event>
<event>
 5    0  0.5663008E-005  0.2609288E+03  0.7546771E-02  0.1106586E+00
         21   -1    0    0  502  501  0.00000000000E+00  0.00000000000E+00  0.73175614718E+03  0.73175614718E+03  0.00000000000E+00 0. -1.
         21   -1    0    0  501  502 -0.00000000000E+00 -0.00000000000E+00 -0.93041674822E+02  0.93041674822E+02  0.00000000000E+00 0. -1.
         25    1    1    2    0    0  0.15963249996E+01  0.78451613446E+02  0.18483136285E+03  0.23652660865E+03  0.12500000000E+03 0.  0.
         25    1    1    2    0    0  0.11079586151E+03 -0.28120595816E+01  0.31819392837E+03  0.35938281353E+03  0.12500000000E+03 0.  0.
         25    1    1    2    0    0 -0.11239218651E+03 -0.75639553865E+02  0.13568918113E+03  0.22888839982E+03  0.12500000000E+03 0.  0.
</event>
<event>
 5    0  0.5663008E-005  0.3601452E+03  0.7546771E-02  0.1058526E+00
         21   -1    0    0  502  501  0.00000000000E+00  0.00000000000E+00  0.37414911623E+03  0.37414911623E+03  0.00000000000E+00 0. -1.
         21   -1    0    0  501  502 -0.00000000000E+00 -0.00000000000E+00 -0.34666536664E+03  0.34666536664E+03  0.00000000000E+00 0. -1.
         25    1    1    2    0    0  0.19944975708E+02  0.15061023542E+03  0.19652810774E+03  0.27808189837E+03  0.12500000000E+03 0.  0.
         25    1    1    2    0    0  0.25078026718E+02  0.26877976484E+02 -0.17829897404E+03  0.22083219237E+03  0.12500000000E+03 0.  0.
         25    1    1    2    0    0 -0.45023002426E+02 -0.17748821190E+03  0.92546158917E+01  0.22190039213E+03  0.12500000000E+03 0.  0.
</event>
<event>
 5    0  0.5663008E-005  0.4084484E+03  0.7546771E-02  0.1040893E+00
         21   -1    0    0  502  501  0.00000000000E+00  0.00000000000E+00  0.35029896415E+03  0.35029896415E+03  0.00000000000E+00 0. -1.
         21   -1    0    0  501  502 -0.00000000000E+00 -0.00000000000E+00 -0.47625070172E+03  0.47625070172E+03  0.00000000000E+00 0. -1.
         25    1    1    2    0    0 -0.36608991045E+02  0.24375457889E+03 -0.20559156742E+03  0.34445523011E+03  0.12500000000E+03 0.  0.
         25    1    1    2    0    0 -0.70188554038E+02 -0.26784450931E+03  0.86233614408E+02  0.31579795842E+03  0.12500000000E+03 0.  0.
         25    1    1    2    0    0  0.10679754508E+03  0.24089930423E+02 -0.65937845512E+01  0.16629647735E+03  0.12500000000E+03 0.  0.
</event>
<event>
 5    0  0.5663008E-005  0.2815946E+03  0.7546771E-02  0.1094821E+00
         21   -1    0    0  502  501  0.00000000000E+00  0.00000000000E+00  0.67457909586E+03  0.67457909586E+03  0.00000000000E+00 0.  1.
         21   -1    0    0  501  502 -0.00000000000E+00 -0.00000000000E+00 -0.11754814085E+03  0.11754814085E+03  0.00000000000E+00 0.  1.
         25    1    1    2    0    0 -0.14351850896E+03 -0.80601510896E+02  0.32516886716E+03  0.38529723350E+03  0.12500000000E+03 0.  0.
         25    1    1    2    0    0  0.11656125020E+03 -0.14952621168E+02  0.92442891459E+02  0.19488661860E+03  0.12500000000E+03 0.  0.
         25    1    1    2    0    0  0.26957258756E+02  0.95554132064E+02  0.13941919640E+03  0.21194338461E+03  0.12500000000E+03 0.  0.
</event>
<event>
 5    0  0.5663008E-005  0.3245842E+03  0.7546771E-02  0.1073559E+00
         21   -1    0    0  502  501  0.00000000000E+00  0.00000000000E+00  0.36581990874E+03  0.36581990874E+03  0.00000000000E+00 0. -1.
         21   -1    0    0  501  502 -0.00000000000E+00 -0.00000000000E+00 -0.28799665603E+03  0.28799665603E+03  0.00000000000E+00 0. -1.
         25    1    1    2    0    0  0.68032982777E+02 -0.29651249556E+02  0.68439333089E+02  0.16067552912E+03  0.12500000000E+03 0.  0.
         25    1    1    2    0    0 -0.15517657607E+03 -0.13234547995E+03 -0.81752744824E+02  0.25279162784E+03  0.12500000000E+03 0.  0.
         25    1    1    2    0    0  0.87143593289E+02  0.16199672950E+03  0.91136664445E+02  0.24034940779E+03  0.12500000000E+03 0.  0.
</event>
<event>
 5    0  0.5663008E-005  0.2832005E+03  0.7546771E-02  0.1093954E+00
         21   -1    0    0  502  501  0.00000000000E+00  0.00000000000E+00  0.53955810607E+03  0.53955810607E+03  0.00000000000E+00 0.  1.
         21   -1    0    0  501  502 -0.00000000000E+00 -0.00000000000E+00 -0.14864482172E+03  0.14864482172E+03  0.00000000000E+00 0.  1.
         25    1    1    2    0    0  0.12848786631E+03  0.38264407317E+02  0.14352375961E+03  0.23280327796E+03  0.12500000000E+03 0.  0.
         25    1    1    2    0    0 -0.71353887268E+02 -0.34861191594E+02 -0.25087725752E+02  0.15020344168E+03  0.12500000000E+03 0.  0.
         25    1    1    2    0    0 -0.57133979044E+02 -0.34032157227E+01  0.27247725048E+03  0.30519620815E+03  0.12500000000E+03 0.  0.
</event>
<event>
 5    0  0.5663008E-005  0.3703908E+03  0.7546771E-02  0.1054544E+00
         21   -1    0    0  502  501  0.00000000000E+00  0.00000000000E+00  0.82720729686E+03  0.82720729686E+03  0.00000000000E+00 0.  1.
         21   -1    0    0  501  502 -0.00000000000E+00 -0.00000000000E+00 -0.16584640727E+03  0.16584640727E+03  0.00000000000E+00 0.  1.
         25    1    1    2    0    0 -0.87852742585E+02 -0.15982765679E+03 -0.35410860360E+02  0.22392390066E+03  0.12500000000E+03 0.  0.
         25    1    1    2    0    0  0.34907292609E+02  0.73608883289E+02  0.21880951363E+03  0.26483842250E+03  0.12500000000E+03 0.  0.
         25    1    1    2    0    0  0.52945449976E+02  0.86218773504E+02  0.47796223631E+03  0.50429138097E+03  0.12500000000E+03 0.  0.
</event>
<event>
 5    0  0.5663008E-005  0.2743968E+03  0.7546771E-02  0.1098789E+00
         21   -1    0    0  502  501  0.00000000000E+00  0.00000000000E+00  0.77141218731E+03  0.77141218731E+03  0.00000000000E+00 0. -1.
         21   -1    0    0  501  502 -0.00000000000E+00 -0.00000000000E+00 -0.97604874083E+02  0.97604874083E+02  0.00000000000E+00 0. -1.
         25    1    1    2    0    0 -0.14767381822E+02  0.61188440397E+02  0.16051270831E+03  0.21295875265E+03  0.12500000000E+03 0.  0.
         25    1    1    2    0    0 -0.12300448968E+03 -0.47411067018E+02  0.39607066807E+03  0.43574635725E+03  0.12500000000E+03 0.  0.
         25    1    1    2    0    0  0.13777187151E+03 -0.13777373379E+02  0.11722393686E+03  0.22031195149E+03  0.12500000000E+03 0.  0.
</event>
<event>
 5    0  0.6802473E-005  0.5718092E+03  0.7546771E-02  0.9965683E-01
         21   -1    0    0  502  501  0.00000000000E+00  0.00000000000E+00  0.12172987865E+04  0.12172987865E+04  0.00000000000E+00 0. -1.
         21   -1    0    0  501  502 -0.00000000000E+00 -0.00000000000E+00 -0.26859940376E+03  0.26859940376E+03  0.00000000000E+00 0. -1.
         25    1    1    2    0    0  0.33443875548E+03 -0.75856530416E+02  0.34438590269E+03  0.50182680713E+03  0.12500000000E+03 0.  0.
         25    1    1    2    0    0 -0.71141642524E+02 -0.77795134075E+02 -0.11024337437E+03  0.19721008539E+03  0.12500000000E+03 0.  0.
         25    1    1    2    0    0 -0.26329711296E+03  0.15365166449E+03  0.71455685437E+03  0.78686129770E+03  0.12500000000E+03 0.  0.
</event>
<event>
 5    0  0.7038287E-005  0.2986119E+03  0.7546771E-02  0.1085937E+00
         21   -1    0    0  502  501  0.00000000000E+00  0.00000000000E+00  0.44540157227E+03  0.44540157227E+03  0.00000000000E+00 0. -1.
         21   -1    0    0  501  502 -0.00000000000E+00 -0.00000000000E+00 -0.20019924010E+03  0.20019924010E+03  0.00000000000E+00 0. -1.
         25    1    1    2    0    0  0.32066978509E+02  0.12348508711E+03  0.42057307936E+02  0.18349570840E+03  0.12500000000E+03 0.  0.
         25    1    1    2    0    0 -0.72906103876E+01 -0.18055181514E+03  0.50888661473E+01  0.21977945197E+03  0.12500000000E+03 0.  0.
         25    1    1    2    0    0 -0.24776368121E+02  0.57066728025E+02  0.19805615808E+03  0.24232565200E+03  0.12500000000E+03 0.  0.
</event>
<event>
 5    0  0.5663008E-005  0.3132278E+03  0.7546771E-02  0.1078809E+00
         21   -1    0    0  502  501  0.00000000000E+00  0.00000000000E+00  0.29703753146E+03  0.29703753146E+03  0.00000000000E+00 0. -1.
         21   -1    0    0  501  502 -0.00000000000E+00 -0.00000000000E+00 -0.33030048495E+03  0.33030048495E+03  0.00000000000E+00 0. -1.
         25    1    1    2    0    0 -0.15863981557E+03  0.15255167097E+03 -0.76825447401E+01  0.25322445556E+03  0.12500000000E+03 0.  0.
         25    1    1    2    0    0  0.10052378824E+03 -0.15244093324E+03 -0.65182713979E+02  0.23068822322E+03  0.12500000000E+03 0.  0.
         25    1    1    2    0    0  0.58116027330E+02 -0.11073772717E+00  0.39602305234E+02  0.14342533763E+03  0.12500000000E+03 0.  0.
</event>
<event>
 5    0  0.5663008E-005  0.4637130E+03  0.7546771E-02  0.1023710E+00
         21   -1    0    0  502  501  0.00000000000E+00  0.00000000000E+00  0.13331063899E+04  0.13331063899E+04  0.00000000000E+00 0. -1.
         21   -1    0    0  501  502 -0.00000000000E+00 -0.00000000000E+00 -0.16129979495E+03  0.16129979495E+03  0.00000000000E+00 0. -1.
         25    1    1    2    0    0  0.28619712609E+02  0.12349986663E+03  0.75027101329E+03  0.77110498532E+03  0.12500000000E+03 0.  0.
         25    1    1    2    0    0  0.23856079878E+02  0.15898458361E+02  0.49808225551E+03  0.51432752870E+03  0.12500000000E+03 0.  0.
         25    1    1    2    0    0 -0.52475792487E+02 -0.13939832499E+03 -0.76546673871E+02  0.20897367080E+03  0.12500000000E+03 0.  0.
</event>
<event>
 5    0  0.5663008E-005  0.7318113E+03  0.7546771E-02  0.9664326E-01
         21   -1    0    0  502  501  0.00000000000E+00  0.00000000000E+00  0.52341698282E+03  0.52341698282E+03  0.00000000000E+00 0.  1.
         21   -1    0    0  501  502 -0.00000000000E+00 -0.00000000000E+00 -0.10231761371E+04  0.10231761371E+04  0.00000000000E+00 0.  1.
         25    1    1    2    0    0  0.97196405415E+02  0.62417546505E+02 -0.44703477068E+03  0.47833897765E+03  0.12500000000E+03 0.  0.
         25    1    1    2    0    0 -0.37809334866E+03  0.17780631592E+02  0.36699300401E+03  0.54182985905E+03  0.12500000000E+03 0.  0.
         25    1    1    2    0    0  0.28089694324E+03 -0.80198178096E+02 -0.41971738757E+03  0.52642428318E+03  0.12500000000E+03 0.  0.
</event>
<event>
 5    0  0.5663008E-005  0.2756305E+03  0.7546771E-02  0.1098100E+00
         21   -1    0    0  502  501  0.00000000000E+00  0.00000000000E+00  0.19038251757E+03  0.19038251757E+03  0.00000000000E+00 0.  1.
         21   -1    0    0  501  502 -0.00000000000E+00 -0.00000000000E+00 -0.39905000796E+03  0.39905000796E+03  0.00000000000E+00 0.  1.
         25    1    1    2    0    0 -0.78608147957E+02 -0.41141715471E+02 -0.82696499830E+02  0.17417115938E+03  0.12500000000E+03 0.  0.
         25    1    1    2    0    0 -0.19472062496E+01  0.36066462112E+02 -0.20800729115E+03  0.24534998364E+03  0.12500000000E+03 0.  0.
         25    1    1    2    0    0  0.80555354207E+02  0.50752533593E+01  0.82036300590E+02  0.16991138250E+03  0.12500000000E+03 0.  0.
</event>
<event>
 5    0  0.6521985E-005  0.3060935E+03  0.7546771E-02  0.1082234E+00
         21   -1    0    0  502  501  0.00000000000E+00  0.00000000000E+00  0.40834159358E+03  0.40834159358E+03  0.00000000000E+00 0. -1.
         21   -1    0    0  501  502 -0.00000000000E+00 -0.00000000000E+00 -0.22944818972E+03  0.22944818972E+03  0.00000000000E+00 0. -1.
         25    1    1    2    0    0 -0.25409526977E+02 -0.40894017297E+02  0.19967445895E+03  0.24044303747E+03  0.12500000000E+03 0.  0.
         25    1    1    2    0    0  0.16152323678E+03  0.54477065800E+02 -0.62055779916E+01  0.21147344022E+03  0.12500000000E+03 0.  0.
         25    1    1    2    0    0 -0.13611370981E+03 -0.13583048502E+02 -0.14575477097E+02  0.18587330560E+03  0.12500000000E+03 0.  0.
</event>
<event>
 5    0  0.5663008E-005  0.3122549E+03  0.7546771E-02  0.1079270E+00
         21   -1    0    0  502  501  0.00000000000E+00  0.00000000000E+00  0.32059282833E+03  0.32059282833E+03  0.00000000000E+00 0.  1.
         21   -1    0    0  501  502 -0.00000000000E+00 -0.00000000000E+00 -0.30413386327E+03  0.30413386327E+03  0.00000000000E+00 0.  1.
         25    1    1    2    0    0  0.60103356915E+01 -0.89274283871E+02  0.10235505485E+03  0.18468237368E+03  0.12500000000E+03 0.  0.
         25    1    1    2    0    0  0.13360017309E+03 -0.10367833437E+01 -0.13369440325E+03  0.22660378336E+03  0.12500000000E+03 0.  0.
         25    1    1    2    0    0 -0.13961050878E+03  0.90311067214E+02  0.47798313466E+02  0.21344053456E+03  0.12500000000E+03 0.  0.
</event>
<event>
 5    0  0.5663008E-005  0.3544914E+03  0.7546771E-02  0.1060787E+00
         21   -1    0    0  502  501  0.00000000000E+00  0.00000000000E+00  0.21182590634E+03  0.21182590634E+03  0.00000000000E+00 0. -1.
         21   -1    0    0  501  502 -0.00000000000E+00 -0.00000000000E+00 -0.59324256383E+03  0.59324256383E+03  0.00000000000E+00 0. -1.
         25    1    1    2    0    0  0.47140089164E+02 -0.46157436252E+02 -0.12009464179E+03  0.18547350192E+03  0.12500000000E+03 0.  0.
         25    1    1    2    0    0 -0.18563283118E+03 -0.16449402651E+03 -0.15990915716E+03  0.32048989268E+03  0.12500000000E+03 0.  0.
         25    1    1    2    0    0  0.13849274201E+03  0.21065146276E+03 -0.10141285854E+03  0.29910507557E+03  0.12500000000E+03 0.  0.
</event>
<event>
 5    0  0.5663008E-005  0.3888744E+03  0.7546771E-02  0.1047702E+00
         21   -1    0    0  502  501  0.00000000000E+00  0.00000000000E+00  0.71898125592E+03  0.71898125592E+03  0.00000000000E+00 0. -1.
         21   -1    0    0  501  502 -0.00000000000E+00 -0.00000000000E+00 -0.21032997313E+03  0.21032997313E+03  0.00000000000E+00 0. -1.
         25    1    1    2    0    0 -0.83570445671E+02 -0.82799776862E+02 -0.72356075356E+02  0.18627996156E+03  0.12500000000E+03 0.  0.
         25    1    1    2    0    0 -0.61904699309E+02  0.24600718499E+01  0.15339211447E+02  0.14035147010E+03  0.12500000000E+03 0.  0.
         25    1    1    2    0    0  0.14547514498E+03  0.80339705012E+02  0.56566814670E+03  0.60267979740E+03  0.12500000000E+03 0.  0.
</event>
<event>
 5    0  0.5663008E-005  0.2319140E+03  0.7546771E-02  0.1125300E+00
         21   -1    0    0  502  501  0.00000000000E+00  0.00000000000E+00  0.69475006789E+03  0.69475006789E+03  0.00000000000E+00 0.  1.
         21   -1    0    0  501  502 -0.00000000000E+00 -0.00000000000E+00 -0.77415037555E+02  0.77415037555E+02  0.00000000000E+00 0.  1.
         25    1    1    2    0    0 -0.46149272648E+02 -0.12267217174E+02  0.93846456500E+02  0.16343927735E+03  0.12500000000E+03 0.  0.
         25    1    1    2    0    0 -0.10771390175E+02 -0.21188883795E+00  0.91578632622E+02  0.15533098112E+03  0.12500000000E+03 0.  0.
         25    1    1    2    0    0  0.56920662823E+02  0.12479106012E+02  0.43190994121E+03  0.45339484697E+03  0.12500000000E+03 0.  0.
</event>
<event>
 5    0  0.5663008E-005  0.4117811E+03  0.7546771E-02  0.1039775E+00
         21   -1    0    0  502  501  0.00000000000E+00  0.00000000000E+00  0.16710285377E+03  0.16710285377E+03  0.00000000000E+00 0.  1.
         21   -1    0    0  501  502 -0.00000000000E+00 -0.00000000000E+00 -0.10147261718E+04  0.10147261718E+04  0.00000000000E+00 0.  1.
         25    1    1    2    0    0  0.14299143491E+03  0.37123227389E+02 -0.11339731898E+03  0.22429586804E+03  0.12500000000E+03 0.  0.
         25    1    1    2    0    0 -0.69731817836E+02  0.24361018771E+03 -0.23875542496E+03  0.36991567001E+03  0.12500000000E+03 0.  0.
         25    1    1    2    0    0 -0.73259617073E+02 -0.28073341510E+03 -0.49547057412E+03  0.58761748754E+03  0.12500000000E+03 0.  0.
</event>
<event>
 5    0  0.5663008E-005  0.3296722E+03  0.7546771E-02  0.1071282E+00
         21   -1    0    0  502  501  0.00000000000E+00  0.00000000000E+00  0.14701000719E+04  0.14701000719E+04  0.00000000000E+00 0.  1.
         21   -1    0    0  501  502 -0.00000000000E+00 -0.00000000000E+00 -0.73929475570E+02  0.73929475570E+02  0.00000000000E+00 0.  1.
         25    1    1    2    0    0 -0.44433974500E+02  0.53413112853E+02  0.10850366082E+04  0.10944207508E+04  0.12500000000E+03 0.  0.
         25    1    1    2    0    0  0.19515639344E+02 -0.12109845740E+03  0.13051042579E+03  0.21841169337E+03  0.12500000000E+03 0.  0.
         25    1    1    2    0    0  0.24918335156E+02  0.67685344544E+02  0.18062356242E+03  0.23119710334E+03  0.12500000000E+03 0.  0.
</event>
<event>
 5    0  0.5663008E-005  0.2252565E+03  0.7546771E-02  0.1130024E+00
         21   -1    0    0  502  501  0.00000000000E+00  0.00000000000E+00  0.37128634432E+02  0.37128634432E+02  0.00000000000E+00 0.  1.
         21   -1    0    0  501  502 -0.00000000000E+00 -0.00000000000E+00 -0.13666139617E+04  0.13666139617E+04  0.00000000000E+00 0.  1.
         25    1    1    2    0    0 -0.53729715256E+02 -0.97924816128E+02 -0.61612668558E+03  0.63852427096E+03  0.12500000000E+03 0.  0.
         25    1    1    2    0    0  0.26022391206E+02  0.33171410030E+02 -0.30196334615E+03  0.32952142526E+03  0.12500000000E+03 0.  0.
         25    1    1    2    0    0  0.27707324050E+02  0.64753406098E+02 -0.41139529556E+03  0.43569689994E+03  0.12500000000E+03 0.  0.
</event>
<event>
 5    0  0.5663008E-005  0.3207672E+03  0.7546771E-02  0.1075297E+00
         21   -1    0    0  502  501  0.00000000000E+00  0.00000000000E+00  0.22053387961E+04  0.22053387961E+04  0.00000000000E+00 0.  1.
         21   -1    0    0  501  502 -0.00000000000E+00 -0.00000000000E+00 -0.46655700519E+02  0.46655700519E+02  0.00000000000E+00 0.  1.
         25    1    1    2    0    0  0.22679605103E+03 -0.30358971486E+02  0.68776336522E+03  0.73552808406E+03  0.12500000000E+03 0.  0.
         25    1    1    2    0    0 -0.18944393627E+03 -0.45050688089E+01  0.10559849572E+04  0.10801104251E+04  0.12500000000E+03 0.  0.
         25    1    1    2    0    0 -0.37352114762E+02  0.34864040295E+02  0.41493477314E+03  0.43635598741E+03  0.12500000000E+03 0.  0.
</event>
<event>
 5    0  0.5663008E-005  0.2517553E+03  0.7546771E-02  0.1112200E+00
         21   -1    0    0  502  501  0.00000000000E+00  0.00000000000E+00  0.94456713012E+03  0.94456713012E+03  0.00000000000E+00 0.  1.
         21   -1    0    0  501  502 -0.00000000000E+00 -0.00000000000E+00 -0.67100309488E+02  0.67100309488E+02  0.00000000000E+00 0.  1.
         25    1    1    2    0    0 -0.56891933738E+02 -0.10724246318E+02  0.18675421562E+03  0.23206429849E+03  0.12500000000E+03 0.  0.
         25    1    1    2    0    0  0.10117964043E+03 -0.96211482770E+02  0.30543777583E+03  0.35834509060E+03  0.12500000000E+03 0.  0.
         25    1    1    2    0    0 -0.44287706697E+02  0.10693572909E+03  0.38527482919E+03  0.42125805052E+03  0.12500000000E+03 0.  0.
</event>
<event>
 5    0  0.5663008E-005  0.2470371E+03  0.7546771E-02  0.1115192E+00
         21   -1    0    0  502  501  0.00000000000E+00  0.00000000000E+00  0.22189388520E+04  0.22189388520E+04  0.00000000000E+00 0.  1.
         21   -1    0    0  501  502 -0.00000000000E+00 -0.00000000000E+00 -0.27502928712E+02  0.27502928712E+02  0.00000000000E+00 0.  1.
         25    1    1    2    0    0  0.71144503096E+02  0.23728611816E+02  0.35094032412E+03  0.38001144513E+03  0.12500000000E+03 0.  0.
         25    1    1    2    0    0 -0.75346612359E+02  0.26714101315E+02  0.13362333247E+04  0.13444460768E+04  0.12500000000E+03 0.  0.
         25    1    1    2    0    0  0.42021092628E+01 -0.50442713131E+02  0.50426227445E+03  0.52198425883E+03  0.12500000000E+03 0.  0.
</event>
<event>
 5    0  0.5663008E-005  0.3238652E+03  0.7546771E-02  0.1073884E+00
         21   -1    0    0  502  501  0.00000000000E+00  0.00000000000E+00  0.17285028590E+03  0.17285028590E+03  0.00000000000E+00 0. -1.
         21   -1    0    0  501  502 -0.00000000000E+00 -0.00000000000E+00 -0.60681811399E+03  0.60681811399E+03  0.00000000000E+00 0. -1.
         25    1    1    2    0    0  0.11141354966E+03 -0.14233848302E+03 -0.27821483611E+03  0.35454438062E+03  0.12500000000E+03 0.  0.
         25    1    1    2    0    0  0.26337691205E+02  0.12424518863E+03 -0.15809194137E+03  0.23821965243E+03  0.12500000000E+03 0.  0.
         25    1    1    2    0    0 -0.13775124087E+03  0.18093294387E+02  0.23389493852E+01  0.18690436685E+03  0.12500000000E+03 0.  0.
</event>
<event>
 5    0  0.5663008E-005  0.7284758E+03  0.7546771E-02  0.9669737E-01
         21   -1    0    0  502  501  0.00000000000E+00  0.00000000000E+00  0.32040352078E+03  0.32040352078E+03  0.00000000000E+00 0.  1.
         21   -1    0    0  501  502 -0.00000000000E+00 -0.00000000000E+00 -0.16562768196E+04  0.16562768196E+04  0.00000000000E+00 0.  1.
         25    1    1    2    0    0  0.26698464039E+02 -0.32557590684E+03  0.14381029037E+03  0.37817836891E+03  0.12500000000E+03 0.  0.
         25    1    1    2    0    0 -0.53881129526E+02  0.23274559457E+03 -0.28097085956E+03  0.38941406219E+03  0.12500000000E+03 0.  0.
         25    1    1    2    0    0  0.27182665487E+02  0.92830312269E+02 -0.11987127296E+04  0.12090879093E+04  0.12500000000E+03 0.  0.
</event>
<event>
 5    0  0.5663008E-005  0.3009806E+03  0.7546771E-02  0.1084751E+00
         21   -1    0    0  502  501  0.00000000000E+00  0.00000000000E+00  0.38039325457E+03  0.38039325457E+03  0.00000000000E+00 0. -1.
         21   -1    0    0  501  502 -0.00000000000E+00 -0.00000000000E+00 -0.23814652076E+03  0.23814652076E+03  0.00000000000E+00 0. -1.
         25    1    1    2    0    0  0.36200692797E+02  0.10791115938E+03  0.82533711914E+02  0.18812794072E+03  0.12500000000E+03 0.  0.
         25    1    1    2    0    0  0.60864331139E+02  0.54729985422E+02  0.12441782915E+03  0.19443413877E+03  0.12500000000E+03 0.  0.
         25    1    1    2    0    0 -0.97065023936E+02 -0.16264114480E+03 -0.64704807254E+02  0.23597769584E+03  0.12500000000E+03 0.  0.
</event>
<event>
 5    0  0.5663008E-005  0.2248997E+03  0.7546771E-02  0.1130282E+00
         21   -1    0    0  502  501  0.00000000000E+00  0.00000000000E+00  0.47448135951E+02  0.47448135951E+02  0.00000000000E+00 0.  1.
         21   -1    0    0  501  502 -0.00000000000E+00 -0.00000000000E+00 -0.10660035478E+04  0.10660035478E+04  0.00000000000E+00 0.  1.
         25    1    1    2    0    0 -0.40703884749E+02  0.54078397377E+01 -0.22951395089E+03  0.26455189400E+03  0.12500000000E+03 0.  0.
         25    1    1    2    0    0 -0.69139003827E+02  0.78068865655E+01 -0.30503765853E+03  0.33691856947E+03  0.12500000000E+03 0.  0.
         25    1    1    2    0    0  0.10984288858E+03 -0.13214726303E+02 -0.48400380238E+03  0.51198122024E+03  0.12500000000E+03 0.  0.
</event>
<event>
 5    0  0.5663008E-005  0.2369159E+03  0.7546771E-02  0.1121865E+00
         21   -1    0    0  502  501  0.00000000000E+00  0.00000000000E+00  0.11418631854E+04  0.11418631854E+04  0.00000000000E+00 0. -1.
         21   -1    0    0  501  502 -0.00000000000E+00 -0.00000000000E+00 -0.49155758952E+02  0.49155758952E+02  0.00000000000E+00 0. -1.
         25    1    1    2    0    0 -0.85672083698E+01 -0.49603474407E+02  0.11277200776E+03  0.17571689579E+03  0.12500000000E+03 0.  0.
         25    1    1    2    0    0 -0.19495259632E+02  0.13042162292E+02  0.37880114005E+03  0.39958161475E+03  0.12500000000E+03 0.  0.
         25    1    1    2    0    0  0.28062468002E+02  0.36561312115E+02  0.60113427864E+03  0.61572043381E+03  0.12500000000E+03 0.  0.
</event>
<event>
 5    0  0.5663008E-005  0.2973829E+03  0.7546771E-02  0.1086556E+00
         21   -1    0    0  502  501  0.00000000000E+00  0.00000000000E+00  0.14919300972E+03  0.14919300972E+03  0.00000000000E+00 0. -1.
         21   -1    0    0  501  502 -0.00000000000E+00 -0.00000000000E+00 -0.59276625423E+03  0.59276625423E+03  0.00000000000E+00 0. -1.
         25    1    1    2    0    0 -0.11042371394E+03 -0.12858998323E+03 -0.26625290398E+03  0.33947664023E+03  0.12500000000E+03 0.  0.
         25    1    1    2    0    0  0.72683578808E+02  0.13901248831E+03 -0.18279674029E+03  0.27137984965E+03  0.12500000000E+03 0.  0.
         25    1    1    2    0    0  0.37740135137E+02 -0.10422505085E+02  0.54763997571E+01  0.13110277406E+03  0.12500000000E+03 0.  0.
</event>
<event>
 5    0  0.5663008E-005  0.2964837E+03  0.7546771E-02  0.1087012E+00
         21   -1    0    0  502  501  0.00000000000E+00  0.00000000000E+00  0.13329966898E+03  0.13329966898E+03  0.00000000000E+00 0. -1.
         21   -1    0    0  501  502 -0.00000000000E+00 -0.00000000000E+00 -0.65943603131E+03  0.65943603131E+03  0.00000000000E+00 0. -1.
         25    1    1    2    0    0  0.46848120364E+02 -0.16548907951E+03 -0.37609637492E+03  0.43203572195E+03  0.12500000000E+03 0.  0.
         25    1    1    2    0    0 -0.65678165562E+01  0.13964321786E+03 -0.51453933162E+02  0.19446303439E+03  0.12500000000E+03 0.  0.
         25    1    1    2    0    0 -0.40280303808E+02  0.25845861652E+02 -0.98586054249E+02  0.16623694394E+03  0.12500000000E+03 0.  0.
</event>
<event>
 5    0  0.6173874E-005  0.3949953E+03  0.7546771E-02  0.1045527E+00
         21   -1    0    0  502  501  0.00000000000E+00  0.00000000000E+00  0.68446327375E+03  0.68446327375E+03  0.00000000000E+00 0. -1.
         21   -1    0    0  501  502 -0.00000000000E+00 -0.00000000000E+00 -0.22794690576E+03  0.22794690576E+03  0.00000000000E+00 0. -1.
         25    1    1    2    0    0 -0.19208991183E+03  0.86868785163E+02  0.25217838335E+03  0.35165843811E+03  0.12500000000E+03 0.  0.
         25    1    1    2    0    0  0.22677983039E+02 -0.22389652162E+03  0.16684675383E+03  0.30676828808E+03  0.12500000000E+03 0.  0.
         25    1    1    2    0    0  0.16941192879E+03  0.13702773646E+03  0.37491230805E+02  0.25398345333E+03  0.12500000000E+03 0.  0.
</event>
<event>
 5    0  0.5663008E-005  0.3951272E+03  0.7546771E-02  0.1045480E+00
         21   -1    0    0  502  501  0.00000000000E+00  0.00000000000E+00  0.12853676079E+04  0.12853676079E+04  0.00000000000E+00 0.  1.
         21   -1    0    0  501  502 -0.00000000000E+00 -0.00000000000E+00 -0.12146367230E+03  0.12146367230E+03  0.00000000000E+00 0.  1.
         25    1    1    2    0    0 -0.71276641670E+02  0.67160612588E+02  0.25546088427E+02  0.16083690548E+03  0.12500000000E+03 0.  0.
         25    1    1    2    0    0 -0.10102226422E+02 -0.23809150756E+03  0.48906201344E+03  0.55820809197E+03  0.12500000000E+03 0.  0.
         25    1    1    2    0    0  0.81378868092E+02  0.17093089498E+03  0.64929583370E+03  0.68778628272E+03  0.12500000000E+03 0.  0.
</event>
<event>
 5    0  0.5735653E-005  0.4317903E+03  0.7546771E-02  0.1033296E+00
         21   -1    0    0  502  501  0.00000000000E+00  0.00000000000E+00  0.61341981461E+03  0.61341981461E+03  0.00000000000E+00 0.  1.
         21   -1    0    0  501  502 -0.00000000000E+00 -0.00000000000E+00 -0.30394004251E+03  0.30394004251E+03  0.00000000000E+00 0.  1.
         25    1    1    2    0    0  0.17499902336E+02 -0.22194366453E+03  0.21596451906E+02  0.25623552358E+03  0.12500000000E+03 0.  0.
         25    1    1    2    0    0 -0.22218538593E+03  0.24283257306E+03  0.14204182228E+03  0.37965100228E+03  0.12500000000E+03 0.  0.
         25    1    1    2    0    0  0.20468548360E+03 -0.20888908522E+02  0.14584149792E+03  0.28147333126E+03  0.12500000000E+03 0.  0.
</event>
<event>
 5    0  0.5663008E-005  0.3624531E+03  0.7546771E-02  0.1057617E+00
         21   -1    0    0  502  501  0.00000000000E+00  0.00000000000E+00  0.10854579993E+04  0.10854579993E+04  0.00000000000E+00 0.  1.
         21   -1    0    0  501  502 -0.00000000000E+00 -0.00000000000E+00 -0.12102934763E+03  0.12102934763E+03  0.00000000000E+00 0.  1.
         25    1    1    2    0    0  0.14249083303E+03  0.20485433628E+03  0.23656955429E+03  0.36586758617E+03  0.12500000000E+03 0.  0.
         25    1    1    2    0    0  0.43434558182E+02 -0.12531718950E+03  0.33747041382E+03  0.38353909714E+03  0.12500000000E+03 0.  0.
         25    1    1    2    0    0 -0.18592539121E+03 -0.79537146785E+02  0.39038868354E+03  0.45708066362E+03  0.12500000000E+03 0.  0.
</event>
<event>
 5    0  0.5663008E-005  0.8103925E+03  0.7546771E-02  0.9545095E-01
         21   -1    0    0  502  501  0.00000000000E+00  0.00000000000E+00  0.20448437431E+04  0.20448437431E+04  0.00000000000E+00 0.  1.
         21   -1    0    0  501  502 -0.00000000000E+00 -0.00000000000E+00 -0.32116684679E+03  0.32116684679E+03  0.00000000000E+00 0.  1.
         25    1    1    2    0    0  0.43311869149E+03 -0.19459716747E+03  0.11218426268E+04  0.12245879870E+04  0.12500000000E+03 0.  0.
         25    1    1    2    0    0  0.18276464766E+03  0.10675633117E+03  0.41082038774E+03  0.47874651086E+03  0.12500000000E+03 0.  0.
         25    1    1    2    0    0 -0.61588333915E+03  0.87840836301E+02  0.19101388177E+03  0.66267609206E+03  0.12500000000E+03 0.  0.
</event>
<event>
 5    0  0.5663008E-005  0.3400039E+03  0.7546771E-02  0.1066794E+00
         21   -1    0    0  502  501  0.00000000000E+00  0.00000000000E+00  0.10323432066E+03  0.10323432066E+03  0.00000000000E+00 0.  1.
         21   -1    0    0  501  502 -0.00000000000E+00 -0.00000000000E+00 -0.11198080460E+04  0.11198080460E+04  0.00000000000E+00 0.  1.
         25    1    1    2    0    0  0.44784842151E+02  0.56547982565E+02 -0.24433269498E+03  0.28377248326E+03  0.12500000000E+03 0.  0.
         25    1    1    2    0    0 -0.17050763450E+03 -0.20131536864E+03 -0.53592922877E+03  0.61028343360E+03  0.12500000000E+03 0.  0.
         25    1    1    2    0    0  0.12572279235E+03  0.14476738608E+03 -0.23631180164E+03  0.32898644985E+03  0.12500000000E+03 0.  0.
</event>
<event>
 5    0  0.5663008E-005  0.3698424E+03  0.7546771E-02  0.1054753E+00
         21   -1    0    0  502  501  0.00000000000E+00  0.00000000000E+00  0.29967921582E+03  0.29967921582E+03  0.00000000000E+00 0.  1.
         21   -1    0    0  501  502 -0.00000000000E+00 -0.00000000000E+00 -0.45643283748E+03  0.45643283748E+03  0.00000000000E+00 0.  1.
         25    1    1    2    0    0 -0.45689907599E+02  0.41830827871E+02 -0.21704626370E+02  0.14118596468E+03  0.12500000000E+03 0.  0.
         25    1    1    2    0    0  0.24984509803E+02 -0.10569803702E+03  0.19490782292E+03  0.25575449204E+03  0.12500000000E+03 0.  0.
         25    1    1    2    0    0  0.20705397796E+02  0.63867209153E+02 -0.32995681822E+03  0.35917159658E+03  0.12500000000E+03 0.  0.
</event>
<event>
 5    0  0.5663008E-005  0.2606894E+03  0.7546771E-02  0.1106730E+00
         21   -1    0    0  502  501  0.00000000000E+00  0.00000000000E+00  0.29757828071E+02  0.29757828071E+02  0.00000000000E+00 0.  1.
         21   -1    0    0  501  502 -0.00000000000E+00 -0.00000000000E+00 -0.22837335492E+04  0.22837335492E+04  0.00000000000E+00 0.  1.
         25    1    1    2    0    0  0.38898456810E+02  0.13088030517E+02 -0.10059621267E+04  0.10145290468E+04  0.12500000000E+03 0.  0.
         25    1    1    2    0    0  0.59249514944E+02  0.60895171069E+02 -0.31208412266E+03  0.34675672524E+03  0.12500000000E+03 0.  0.
         25    1    1    2    0    0 -0.98147971753E+02 -0.73983201586E+02 -0.93592947178E+03  0.95220560523E+03  0.12500000000E+03 0.  0.
</event>
<event>
 5    0  0.5663008E-005  0.4428146E+03  0.7546771E-02  0.1029887E+00
         21   -1    0    0  502  501  0.00000000000E+00  0.00000000000E+00  0.71881667195E+03  0.71881667195E+03  0.00000000000E+00 0.  1.
         21   -1    0    0  501  502 -0.00000000000E+00 -0.00000000000E+00 -0.27278825690E+03  0.27278825690E+03  0.00000000000E+00 0.  1.
         25    1    1    2    0    0  0.16210818502E+02  0.79828056368E+02  0.22759586959E+03  0.27214001740E+03  0.12500000000E+03 0.  0.
         25    1    1    2    0    0 -0.22613881406E+03 -0.21505932416E+03 -0.40540427384E+02  0.33861158040E+03  0.12500000000E+03 0.  0.
         25    1    1    2    0    0  0.20992799555E+03  0.13523126779E+03  0.25897297284E+03  0.38085333104E+03  0.12500000000E+03 0.  0.
</event>
<event>
 5    0  0.5663008E-005  0.2934594E+03  0.7546771E-02  0.1088557E+00
         21   -1    0    0  502  501  0.00000000000E+00  0.00000000000E+00  0.49047828790E+03  0.49047828790E+03  0.00000000000E+00 0. -1.
         21   -1    0    0  501  502 -0.00000000000E+00 -0.00000000000E+00 -0.17558046520E+03  0.17558046520E+03  0.00000000000E+00 0. -1.
         25    1    1    2    0    0 -0.15334305577E+03 -0.68669096791E+02  0.15189408024E+03  0.25870127410E+03  0.12500000000E+03 0.  0.
         25    1    1    2    0    0  0.16036263240E+03  0.92738513663E+02  0.16829434959E+03  0.27975809888E+03  0.12500000000E+03 0.  0.
         25    1    1    2    0    0 -0.70195766207E+01 -0.24069416872E+02 -0.52906071262E+01  0.12759938012E+03  0.12500000000E+03 0.  0.
</event>
<event>
 5    0  0.5663008E-005  0.2957350E+03  0.7546771E-02  0.1087392E+00
         21   -1    0    0  502  501  0.00000000000E+00  0.00000000000E+00  0.40801122551E+03  0.40801122551E+03  0.00000000000E+00 0. -1.
         21   -1    0    0  501  502 -0.00000000000E+00 -0.00000000000E+00 -0.21435481467E+03  0.21435481467E+03  0.00000000000E+00 0. -1.
         25    1    1    2    0    0  0.17330092402E+03  0.55435913716E+02  0.22434835465E+02  0.22188887452E+03  0.12500000000E+03 0.  0.
         25    1    1    2    0    0  0.17545126307E+02 -0.43506491108E+02  0.59469501554E+02  0.14615836562E+03  0.12500000000E+03 0.  0.
         25    1    1    2    0    0 -0.19084605032E+03 -0.11929422608E+02  0.11175207382E+03  0.25431880003E+03  0.12500000000E+03 0.  0.
</event>
<event>
 5    0  0.5663008E-005  0.3179483E+03  0.7546771E-02  0.1076597E+00
         21   -1    0    0  502  501  0.00000000000E+00  0.00000000000E+00  0.71162213626E+03  0.71162213626E+03  0.00000000000E+00 0.  1.
         21   -1    0    0  501  502 -0.00000000000E+00 -0.00000000000E+00 -0.14205731824E+03  0.14205731824E+03  0.00000000000E+00 0.  1.
         25    1    1    2    0    0 -0.50183276588E+02  0.14236127380E+03  0.38928347725E+03  0.43583450895E+03  0.12500000000E+03 0.  0.
         25    1    1    2    0    0  0.97619714588E+02 -0.54939464178E+02  0.19515968981E+03  0.25741067951E+03  0.12500000000E+03 0.  0.
         25    1    1    2    0    0 -0.47436437999E+02 -0.87421809624E+02 -0.14878349045E+02  0.16043426604E+03  0.12500000000E+03 0.  0.
</event>
<event>
 5    0  0.5663008E-005  0.2172048E+03  0.7546771E-02  0.1135984E+00
         21   -1    0    0  502  501  0.00000000000E+00  0.00000000000E+00  0.61252638127E+02  0.61252638127E+02  0.00000000000E+00 0. -1.
         21   -1    0    0  501  502 -0.00000000000E+00 -0.00000000000E+00 -0.77021850078E+03  0.77021850078E+03  0.00000000000E+00 0. -1.
         25    1    1    2    0    0 -0.43122285998E+01 -0.11335962763E+02 -0.10668001784E+03  0.16478084104E+03  0.12500000000E+03 0.  0.
         25    1    1    2    0    0  0.69129723227E+02 -0.29283113427E+01 -0.26865865226E+03  0.30428599224E+03  0.12500000000E+03 0.  0.
         25    1    1    2    0    0 -0.64817494627E+02  0.14264274106E+02 -0.33362719255E+03  0.36240430562E+03  0.12500000000E+03 0.  0.
</event>
<event>
 5    0  0.5663008E-005  0.3140730E+03  0.7546771E-02  0.1078410E+00
         21   -1    0    0  502  501  0.00000000000E+00  0.00000000000E+00  0.18064704244E+04  0.18064704244E+04  0.00000000000E+00 0.  1.
         21   -1    0    0  501  502 -0.00000000000E+00 -0.00000000000E+00 -0.54604747718E+02  0.54604747718E+02  0.00000000000E+00 0.  1.
         25    1    1    2    0    0  0.57706223346E+01  0.17743031097E+03  0.10849109191E+04  0.11064228476E+04  0.12500000000E+03 0.  0.
         25    1    1    2    0    0 -0.30284002637E+02 -0.15956326894E+03  0.28078975871E+03  0.34762831618E+03  0.12500000000E+03 0.  0.
         25    1    1    2    0    0  0.24513380302E+02 -0.17867042030E+02  0.38616499887E+03  0.40702400833E+03  0.12500000000E+03 0.  0.
</event>
<event>
 5    0  0.5663008E-005  0.3096149E+03  0.7546771E-02  0.1080531E+00
         21   -1    0    0  502  501  0.00000000000E+00  0.00000000000E+00  0.13204890114E+03  0.13204890114E+03  0.00000000000E+00 0. -1.
         21   -1    0    0  501  502 -0.00000000000E+00 -0.00000000000E+00 -0.72595389488E+03  0.72595389488E+03  0.00000000000E+00 0. -1.
         25    1    1    2    0    0 -0.18404437438E+03  0.69706718847E+02 -0.24153804332E+03  0.33570371574E+03  0.12500000000E+03 0.  0.
         25    1    1    2    0    0  0.14269479260E+03 -0.13719466019E+03 -0.24926183150E+03  0.34196584517E+03  0.12500000000E+03 0.  0.
         25    1    1    2    0    0  0.41349581775E+02  0.67487941342E+02 -0.10310511892E+03  0.18033323512E+03  0.12500000000E+03 0.  0.
</event>
<event>
 5    0  0.5663008E-005  0.2390085E+03  0.7546771E-02  0.1120455E+00
         21   -1    0    0  502  501  0.00000000000E+00  0.00000000000E+00  0.45200178884E+03  0.45200178884E+03  0.00000000000E+00 0. -1.
         21   -1    0    0  501  502 -0.00000000000E+00 -0.00000000000E+00 -0.12638240695E+03  0.12638240695E+03  0.00000000000E+00 0. -1.
         25    1    1    2    0    0 -0.32072789960E+02  0.56388001251E+02  0.18694698283E+03  0.23405649944E+03  0.12500000000E+03 0.  0.
         25    1    1    2    0    0  0.61291472826E+02 -0.37113098338E+02 -0.13030454856E+02  0.14466796281E+03  0.12500000000E+03 0.  0.
         25    1    1    2    0    0 -0.29218682866E+02 -0.19274902913E+02  0.15170285392E+03  0.19965973354E+03  0.12500000000E+03 0.  0.
</event>
<event>
 5    0  0.5663008E-005  0.3322740E+03  0.7546771E-02  0.1070135E+00
         21   -1    0    0  502  501  0.00000000000E+00  0.00000000000E+00  0.83160613848E+02  0.83160613848E+02  0.00000000000E+00 0. -1.
         21   -1    0    0  501  502 -0.00000000000E+00 -0.00000000000E+00 -0.13276237669E+04  0.13276237669E+04  0.00000000000E+00 0. -1.
         25    1    1    2    0    0  0.75884400550E+02 -0.85949734728E+02 -0.16110454514E+03  0.23393476358E+03  0.12500000000E+03 0.  0.
         25    1    1    2    0    0 -0.16076885752E+02  0.28832573945E+02 -0.59923456461E+02  0.14249773405E+03  0.12500000000E+03 0.  0.
         25    1    1    2    0    0 -0.59807514798E+02  0.57117160782E+02 -0.10234351515E+04  0.10343518831E+04  0.12500000000E+03 0.  0.
</event>
<event>
 5    0  0.5663008E-005  0.5503630E+03  0.7546771E-02  0.1001410E+00
         21   -1    0    0  502  501  0.00000000000E+00  0.00000000000E+00  0.11141178734E+04  0.11141178734E+04  0.00000000000E+00 0.  1.
         21   -1    0    0  501  502 -0.00000000000E+00 -0.00000000000E+00 -0.27187382145E+03  0.27187382145E+03  0.00000000000E+00 0.  1.
         25    1    1    2    0    0  0.15243640042E+03  0.35205302736E+03  0.67867075485E+02  0.40915660839E+03  0.12500000000E+03 0.  0.
         25    1    1    2    0    0  0.73699923690E+02 -0.31917505516E+02  0.77478850323E+02  0.16756604118E+03  0.12500000000E+03 0.  0.
         25    1    1    2    0    0 -0.22613632411E+03 -0.32013552185E+03  0.69689812618E+03  0.80926904532E+03  0.12500000000E+03 0.  0.
</event>
<event>
 5    0  0.5663008E-005  0.3201209E+03  0.7546771E-02  0.1075594E+00
         21   -1    0    0  502  501  0.00000000000E+00  0.00000000000E+00  0.38179267430E+03  0.38179267430E+03  0.00000000000E+00 0. -1.
         21   -1    0    0  501  502 -0.00000000000E+00 -0.00000000000E+00 -0.26841111003E+03  0.26841111003E+03  0.00000000000E+00 0. -1.
         25    1    1    2    0    0  0.45397605719E+02  0.13374640711E+03  0.14844772220E+02  0.18919411006E+03  0.12500000000E+03 0.  0.
         25    1    1    2    0    0  0.14890733074E+03 -0.47449497880E+02  0.73156395014E+02  0.21307676112E+03  0.12500000000E+03 0.  0.
         25    1    1    2    0    0 -0.19430493646E+03 -0.86296909227E+02  0.25380397034E+02  0.24793291316E+03  0.12500000000E+03 0.  0.
</event>
<event>
 5    0  0.5663008E-005  0.3351850E+03  0.7546771E-02  0.1068865E+00
         21   -1    0    0  502  501  0.00000000000E+00  0.00000000000E+00  0.41841345150E+03  0.41841345150E+03  0.00000000000E+00 0. -1.
         21   -1    0    0  501  502 -0.00000000000E+00 -0.00000000000E+00 -0.26851181005E+03  0.26851181005E+03  0.00000000000E+00 0. -1.
         25    1    1    2    0    0  0.17620591491E+02 -0.15385555880E+02  0.12681606616E+03  0.17959542090E+03  0.12500000000E+03 0.  0.
         25    1    1    2    0    0 -0.99675444912E+02  0.10164084803E+03 -0.16557966287E+03  0.25161017679E+03  0.12500000000E+03 0.  0.
         25    1    1    2    0    0  0.82054853422E+02 -0.86255292147E+02  0.18866523816E+03  0.25571966386E+03  0.12500000000E+03 0.  0.
</event>
<event>
 5    0  0.5663008E-005  0.2347698E+03  0.7546771E-02  0.1123327E+00
         21   -1    0    0  502  501  0.00000000000E+00  0.00000000000E+00  0.80297807442E+02  0.80297807442E+02  0.00000000000E+00 0.  1.
         21   -1    0    0  501  502 -0.00000000000E+00 -0.00000000000E+00 -0.68640557821E+03  0.68640557821E+03  0.00000000000E+00 0.  1.
         25    1    1    2    0    0 -0.74490119376E+02 -0.57831855182E+02 -0.33026985548E+03  0.36550852082E+03  0.12500000000E+03 0.  0.
         25    1    1    2    0    0  0.72993599099E+02 -0.16795809289E+02 -0.13610908864E+03  0.19940122550E+03  0.12500000000E+03 0.  0.
         25    1    1    2    0    0  0.14965202766E+01  0.74627664471E+02 -0.13972882665E+03  0.20179363933E+03  0.12500000000E+03 0.  0.
</event>
<event>
 5    0  0.7059812E-005  0.2987257E+03  0.7546771E-02  0.1085879E+00
         21   -1    0    0  502  501  0.00000000000E+00  0.00000000000E+00  0.16530263119E+03  0.16530263119E+03  0.00000000000E+00 0.  1.
         21   -1    0    0  501  502 -0.00000000000E+00 -0.00000000000E+00 -0.53984043514E+03  0.53984043514E+03  0.00000000000E+00 0.  1.
         25    1    1    2    0    0 -0.12503972192E+03  0.48931820414E+02 -0.27628456722E+03  0.33164350920E+03  0.12500000000E+03 0.  0.
         25    1    1    2    0    0  0.12298495238E+03 -0.98701325830E+02 -0.12418844958E+03  0.23646357276E+03  0.12500000000E+03 0.  0.
         25    1    1    2    0    0  0.20547695455E+01  0.49769505416E+02  0.25935212865E+02  0.13703598437E+03  0.12500000000E+03 0.  0.
</event>
<event>
 5    0  0.5663008E-005  0.3717788E+03  0.7546771E-02  0.1054015E+00
         21   -1    0    0  502  501  0.00000000000E+00  0.00000000000E+00  0.21803087997E+03  0.21803087997E+03  0.00000000000E+00 0.  1.
         21   -1    0    0  501  502 -0.00000000000E+00 -0.00000000000E+00 -0.63394458838E+03  0.63394458838E+03  0.00000000000E+00 0.  1.
         25    1    1    2    0    0  0.17680833058E+03  0.12211033199E+03 -0.44815599244E+02  0.25259761851E+03  0.12500000000E+03 0.  0.
         25    1    1    2    0    0  0.60442955357E+02 -0.13632358328E+03 -0.10404606100E+03  0.22065369478E+03  0.12500000000E+03 0.  0.
         25    1    1    2    0    0 -0.23725128594E+03  0.14213251292E+02 -0.26705204816E+03  0.37872415505E+03  0.12500000000E+03 0.  0.
</event>
<event>
 5    0  0.5663008E-005  0.3033893E+03  0.7546771E-02  0.1083559E+00
         21   -1    0    0  502  501  0.00000000000E+00  0.00000000000E+00  0.58629835392E+03  0.58629835392E+03  0.00000000000E+00 0. -1.
         21   -1    0    0  501  502 -0.00000000000E+00 -0.00000000000E+00 -0.15699353263E+03  0.15699353263E+03  0.00000000000E+00 0. -1.
         25    1    1    2    0    0  0.11619477487E+02  0.21481446339E+03  0.12532823579E+03  0.27859007991E+03  0.12500000000E+03 0.  0.
         25    1    1    2    0    0  0.42203660717E+02 -0.13522541384E+03  0.12677602465E+03  0.22751752010E+03  0.12500000000E+03 0.  0.
         25    1    1    2    0    0 -0.53823138204E+02 -0.79589049544E+02  0.17720056086E+03  0.23718428654E+03  0.12500000000E+03 0.  0.
</event>
<event>
 5    0  0.5663008E-005  0.3244629E+03  0.7546771E-02  0.1073613E+00
         21   -1    0    0  502  501  0.00000000000E+00  0.00000000000E+00  0.68469967626E+02  0.68469967626E+02  0.00000000000E+00 0. -1.
         21   -1    0    0  501  502 -0.00000000000E+00 -0.00000000000E+00 -0.15375522367E+04  0.15375522367E+04  0.00000000000E+00 0. -1.
         25    1    1    2    0    0 -0.40525919496E+02 -0.13163158669E+03 -0.15743579213E+03  0.24368063815E+03  0.12500000000E+03 0.  0.
         25    1    1    2    0    0 -0.23175784256E+02 -0.45201128606E+02 -0.63020147106E+03  0.64448363295E+03  0.12500000000E+03 0.  0.
         25    1    1    2    0    0  0.63701703752E+02  0.17683271530E+03 -0.68144500583E+03  0.71785793318E+03  0.12500000000E+03 0.  0.
</event>
<event>
 5    0  0.5663008E-005  0.2856777E+03  0.7546771E-02  0.1092628E+00
         21   -1    0    0  502  501  0.00000000000E+00  0.00000000000E+00  0.14600351258E+04  0.14600351258E+04  0.00000000000E+00 0.  1.
         21   -1    0    0  501  502 -0.00000000000E+00 -0.00000000000E+00 -0.55897119822E+02  0.55897119822E+02  0.00000000000E+00 0.  1.
         25    1    1    2    0    0 -0.66153168917E+01  0.97388870734E+02  0.12101412759E+03  0.19949379348E+03  0.12500000000E+03 0.  0.
         25    1    1    2    0    0 -0.48915918599E+02 -0.22713392063E+02  0.68106406235E+03  0.69453720008E+03  0.12500000000E+03 0.  0.
         25    1    1    2    0    0  0.55531235490E+02 -0.74675478671E+02  0.60205981599E+03  0.62190125201E+03  0.12500000000E+03 0.  0.
</event>
<event>
 5    0  0.5663008E-005  0.2940788E+03  0.7546771E-02  0.1088239E+00
         21   -1    0    0  502  501  0.00000000000E+00  0.00000000000E+00  0.34237755514E+03  0.34237755514E+03  0.00000000000E+00 0.  1.
         21   -1    0    0  501  502 -0.00000000000E+00 -0.00000000000E+00 -0.25259356001E+03  0.25259356001E+03  0.00000000000E+00 0.  1.
         25    1    1    2    0    0  0.84868248369E+02  0.69019085058E+02  0.12094089631E+03  0.20547008075E+03  0.12500000000E+03 0.  0.
         25    1    1    2    0    0  0.63530245722E+02  0.55191534677E+02 -0.48933844654E+02  0.15843521949E+03  0.12500000000E+03 0.  0.
         25    1    1    2    0    0 -0.14839849409E+03 -0.12421061974E+03  0.17776943476E+02  0.23106581492E+03  0.12500000000E+03 0.  0.
</event>
<event>
 5    0  0.5663008E-005  0.3672699E+03  0.7546771E-02  0.1055742E+00
         21   -1    0    0  502  501  0.00000000000E+00  0.00000000000E+00  0.86034482117E+02  0.86034482117E+02  0.00000000000E+00 0. -1.
         21   -1    0    0  501  502 -0.00000000000E+00 -0.00000000000E+00 -0.15678271987E+04  0.15678271987E+04  0.00000000000E+00 0. -1.
         25    1    1    2    0    0 -0.11965004239E+03  0.22760452970E+03 -0.67184832389E+03  0.73015417886E+03  0.12500000000E+03 0.  0.
         25    1    1    2    0    0  0.18996778140E+01 -0.11459403329E+03 -0.62358551695E+03  0.64623470829E+03  0.12500000000E+03 0.  0.
         25    1    1    2    0    0  0.11775036457E+03 -0.11301049642E+03 -0.18635887570E+03  0.27747279364E+03  0.12500000000E+03 0.  0.
</event>
<event>
 5    0  0.5663008E-005  0.2475477E+03  0.7546771E-02  0.1114864E+00
         21   -1    0    0  502  501  0.00000000000E+00  0.00000000000E+00  0.18434718743E+02  0.18434718743E+02  0.00000000000E+00 0.  1.
         21   -1    0    0  501  502 -0.00000000000E+00 -0.00000000000E+00 -0.33241552736E+04  0.33241552736E+04  0.00000000000E+00 0.  1.
         25    1    1    2    0    0 -0.14450758492E+01  0.57708511407E+02 -0.12460695653E+04  0.12536533500E+04  0.12500000000E+03 0.  0.
         25    1    1    2    0    0  0.75513678582E+02 -0.98390918850E+02 -0.73880002922E+03  0.75949560350E+03  0.12500000000E+03 0.  0.
         25    1    1    2    0    0 -0.74068602733E+02  0.40682407443E+02 -0.13208509604E+04  0.13294410388E+04  0.12500000000E+03 0.  0.
</event>
<event>
 5    0  0.5663008E-005  0.2386234E+03  0.7546771E-02  0.1120713E+00
         21   -1    0    0  502  501  0.00000000000E+00  0.00000000000E+00  0.13549068217E+03  0.13549068217E+03  0.00000000000E+00 0. -1.
         21   -1    0    0  501  502 -0.00000000000E+00 -0.00000000000E+00 -0.42025874185E+03  0.42025874185E+03  0.00000000000E+00 0. -1.
         25    1    1    2    0    0  0.43533674853E+02  0.12571882286E+03 -0.13931998544E+03  0.22964202928E+03  0.12500000000E+03 0.  0.
         25    1    1    2    0    0 -0.41258272250E+02 -0.96205125714E+02 -0.73117779814E+02  0.17868654389E+03  0.12500000000E+03 0.  0.
         25    1    1    2    0    0 -0.22754026031E+01 -0.29513697141E+02 -0.72330294421E+02  0.14742085086E+03  0.12500000000E+03 0.  0.
</event>
<event>
 5    0  0.5663008E-005  0.2464977E+03  0.7546771E-02  0.1115538E+00
         21   -1    0    0  502  501  0.00000000000E+00  0.00000000000E+00  0.50757564464E+02  0.50757564464E+02  0.00000000000E+00 0. -1.
         21   -1    0    0  501  502 -0.00000000000E+00 -0.00000000000E+00 -0.11970848837E+04  0.11970848837E+04  0.00000000000E+00 0. -1.
         25    1    1    2    0    0  0.83362061361E+02 -0.38094577808E+02 -0.21936110072E+03  0.26859769664E+03  0.12500000000E+03 0.  0.
         25    1    1    2    0    0  0.28205008899E+02  0.67013621827E+02 -0.46601225384E+03  0.48793316014E+03  0.12500000000E+03 0.  0.
         25    1    1    2    0    0 -0.11156707026E+03 -0.28919044018E+02 -0.46095396468E+03  0.49131159139E+03  0.12500000000E+03 0.  0.
</event>
<event>
 5    0  0.5663008E-005  0.2906873E+03  0.7546771E-02  0.1089991E+00
         21   -1    0    0  502  501  0.00000000000E+00  0.00000000000E+00  0.79368249157E+03  0.79368249157E+03  0.00000000000E+00 0.  1.
         21   -1    0    0  501  502 -0.00000000000E+00 -0.00000000000E+00 -0.10646464445E+03  0.10646464445E+03  0.00000000000E+00 0.  1.
         25    1    1    2    0    0  0.11516691381E+03 -0.12960865764E+03  0.16550014094E+03  0.27032779884E+03  0.12500000000E+03 0.  0.
         25    1    1    2    0    0 -0.82354875964E+02  0.16098985205E+03  0.32412713072E+03  0.39164199842E+03  0.12500000000E+03 0.  0.
         25    1    1    2    0    0 -0.32812037843E+02 -0.31381194413E+02  0.19759057546E+03  0.23817733876E+03  0.12500000000E+03 0.  0.
</event>
<event>
 5    0  0.5663008E-005  0.2794136E+03  0.7546771E-02  0.1096010E+00
         21   -1    0    0  502  501  0.00000000000E+00  0.00000000000E+00  0.82014458913E+03  0.82014458913E+03  0.00000000000E+00 0. -1.
         21   -1    0    0  501  502 -0.00000000000E+00 -0.00000000000E+00 -0.95192893648E+02  0.95192893648E+02  0.00000000000E+00 0. -1.
         25    1    1    2    0    0  0.31082407230E+02  0.13519758421E+03  0.20168880722E+03  0.27485974200E+03  0.12500000000E+03 0.  0.
         25    1    1    2    0    0 -0.86454180184E+02 -0.94632460153E+01  0.36844888202E+03  0.39867713373E+03  0.12500000000E+03 0.  0.
         25    1    1    2    0    0  0.55371772954E+02 -0.12573433819E+03  0.15481400624E+03  0.24180060705E+03  0.12500000000E+03 0.  0.
</event>
<event>
 5    0  0.5663008E-005  0.2370536E+03  0.7546771E-02  0.1121771E+00
         21   -1    0    0  502  501  0.00000000000E+00  0.00000000000E+00  0.18472878459E+03  0.18472878459E+03  0.00000000000E+00 0.  1.
         21   -1    0    0  501  502 -0.00000000000E+00 -0.00000000000E+00 -0.30419956125E+03  0.30419956125E+03  0.00000000000E+00 0.  1.
         25    1    1    2    0    0  0.65905368659E+02  0.14184711712E+02 -0.38950081102E+02  0.14726449838E+03  0.12500000000E+03 0.  0.
         25    1    1    2    0    0 -0.12484441898E+03 -0.20293633475E+02 -0.96645275745E+02  0.20239384831E+03  0.12500000000E+03 0.  0.
         25    1    1    2    0    0  0.58939050319E+02  0.61089217634E+01  0.16124580180E+02  0.13926999915E+03  0.12500000000E+03 0.  0.
</event>
<event>
 5    0  0.5663008E-005  0.2074231E+03  0.7546771E-02  0.1143623E+00
         21   -1    0    0  502  501  0.00000000000E+00  0.00000000000E+00  0.91653242559E+02  0.91653242559E+02  0.00000000000E+00 0.  1.
         21   -1    0    0  501  502 -0.00000000000E+00 -0.00000000000E+00 -0.46942498699E+03  0.46942498699E+03  0.00000000000E+00 0.  1.
         25    1    1    2    0    0 -0.53058424920E+02 -0.19478057237E+01 -0.22125286229E+03  0.25960897417E+03  0.12500000000E+03 0.  0.
         25    1    1    2    0    0  0.29572377584E+02 -0.14658090668E+02 -0.82832028945E+02  0.15354325175E+03  0.12500000000E+03 0.  0.
         25    1    1    2    0    0  0.23486047336E+02  0.16605896392E+02 -0.73686853201E+02  0.14792600363E+03  0.12500000000E+03 0.  0.
</event>
<event>
 5    0  0.5663008E-005  0.3057665E+03  0.7546771E-02  0.1082393E+00
         21   -1    0    0  502  501  0.00000000000E+00  0.00000000000E+00  0.20636032635E+03  0.20636032635E+03  0.00000000000E+00 0. -1.
         21   -1    0    0  501  502 -0.00000000000E+00 -0.00000000000E+00 -0.45305776183E+03  0.45305776183E+03  0.00000000000E+00 0. -1.
         25    1    1    2    0    0  0.19152579904E+03 -0.11317136742E+03 -0.10585542229E+03  0.27626121793E+03  0.12500000000E+03 0.  0.
         25    1    1    2    0    0 -0.89861150812E+02  0.85288240370E+02 -0.14641861904E+02  0.17660264576E+03  0.12500000000E+03 0.  0.
         25    1    1    2    0    0 -0.10166464823E+03  0.27883127050E+02 -0.12620015128E+03  0.20655422450E+03  0.12500000000E+03 0.  0.
</event>
<event>
 5    0  0.5663008E-005  0.3917777E+03  0.7546771E-02  0.1046665E+00
         21   -1    0    0  502  501  0.00000000000E+00  0.00000000000E+00  0.53435131392E+03  0.53435131392E+03  0.00000000000E+00 0. -1.
         21   -1    0    0  501  502 -0.00000000000E+00 -0.00000000000E+00 -0.28724505997E+03  0.28724505997E+03  0.00000000000E+00 0. -1.
         25    1    1    2    0    0  0.14376350505E+03  0.11151144673E+03  0.14416519826E+03  0.26365005694E+03  0.12500000000E+03 0.  0.
         25    1    1    2    0    0  0.75665277611E+02 -0.21836538312E+03  0.10702663578E+03  0.28370473304E+03  0.12500000000E+03 0.  0.
         25    1    1    2    0    0 -0.21942878266E+03  0.10685393640E+03 -0.40855800963E+01  0.27424158391E+03  0.12500000000E+03 0.  0.
</event>
<event>
 5    0  0.5663008E-005  0.2990076E+03  0.7546771E-02  0.1085738E+00
         21   -1    0    0  502  501  0.00000000000E+00  0.00000000000E+00  0.72892391894E+03  0.72892391894E+03  0.00000000000E+00 0. -1.
         21   -1    0    0  501  502 -0.00000000000E+00 -0.00000000000E+00 -0.12265416821E+03  0.12265416821E+03  0.00000000000E+00 0. -1.
         25    1    1    2    0    0 -0.89634780458E+02 -0.32853256497E+00  0.18247173281E+03  0.23865337851E+03  0.12500000000E+03 0.  0.
         25    1    1    2    0    0 -0.15981696603E+02  0.50824170762E+02  0.42020444626E+03  0.44162799687E+03  0.12500000000E+03 0.  0.
         25    1    1    2    0    0  0.10561647706E+03 -0.50495638197E+02  0.35935716554E+01  0.17129671176E+03  0.12500000000E+03 0.  0.
</event>
<event>
 5    0  0.5663008E-005  0.2504976E+03  0.7546771E-02  0.1112991E+00
         21   -1    0    0  502  501  0.00000000000E+00  0.00000000000E+00  0.19702341467E+03  0.19702341467E+03  0.00000000000E+00 0.  1.
         21   -1    0    0  501  502 -0.00000000000E+00 -0.00000000000E+00 -0.31848531621E+03  0.31848531621E+03  0.00000000000E+00 0.  1.
         25    1    1    2    0    0 -0.17187198779E+02 -0.31700098816E+02 -0.92459232405E+02  0.15960578224E+03  0.12500000000E+03 0.  0.
         25    1    1    2    0    0  0.26687707469E+02 -0.95752897548E+02 -0.66910773157E+02  0.17315571802E+03  0.12500000000E+03 0.  0.
         25    1    1    2    0    0 -0.95005086902E+01  0.12745299636E+03  0.37908104021E+02  0.18274723062E+03  0.12500000000E+03 0.  0.
</event>
<event>
 5    0  0.5663008E-005  0.2789236E+03  0.7546771E-02  0.1096278E+00
         21   -1    0    0  502  501  0.00000000000E+00  0.00000000000E+00  0.24728380115E+04  0.24728380115E+04  0.00000000000E+00 0.  1.
         21   -1    0    0  501  502 -0.00000000000E+00 -0.00000000000E+00 -0.31461173835E+02  0.31461173835E+02  0.00000000000E+00 0.  1.
         25    1    1    2    0    0 -0.16704596506E+02  0.18063394472E+03  0.10456168643E+04  0.10685725490E+04  0.12500000000E+03 0.  0.
         25    1    1    2    0    0 -0.10153222634E+02 -0.15904528575E+03  0.73685792891E+03  0.76418786842E+03  0.12500000000E+03 0.  0.
         25    1    1    2    0    0  0.26857819140E+02 -0.21588658971E+02  0.65890204446E+03  0.67153876793E+03  0.12500000000E+03 0.  0.
</event>
<event>
 5    0  0.5663008E-005  0.4101876E+03  0.7546771E-02  0.1040308E+00
         21   -1    0    0  502  501  0.00000000000E+00  0.00000000000E+00  0.45397684064E+03  0.45397684064E+03  0.00000000000E+00 0. -1.
         21   -1    0    0  501  502 -0.00000000000E+00 -0.00000000000E+00 -0.37062213728E+03  0.37062213728E+03  0.00000000000E+00 0. -1.
         25    1    1    2    0    0 -0.25682387978E+02 -0.99256060048E+02 -0.11077683856E+03  0.19597922969E+03  0.12500000000E+03 0.  0.
         25    1    1    2    0    0  0.16652467761E+03  0.15373012794E+03 -0.98048161247E+02  0.27677041463E+03  0.12500000000E+03 0.  0.
         25    1    1    2    0    0 -0.14084228963E+03 -0.54474067890E+02  0.29217970316E+03  0.35184933361E+03  0.12500000000E+03 0.  0.
</event>
<event>
 5    0  0.5663008E-005  0.2806011E+03  0.7546771E-02  0.1095361E+00
         21   -1    0    0  502  501  0.00000000000E+00  0.00000000000E+00  0.72721580481E+03  0.72721580481E+03  0.00000000000E+00 0. -1.
         21   -1    0    0  501  502 -0.00000000000E+00 -0.00000000000E+00 -0.10827184438E+03  0.10827184438E+03  0.00000000000E+00 0. -1.
         25    1    1    2    0    0 -0.44779744157E+01 -0.53961368269E+02  0.33014087225E+03  0.35714125644E+03  0.12500000000E+03 0.  0.
         25    1    1    2    0    0  0.16387390521E+02 -0.93011829451E+02  0.37139144157E+02  0.16100951219E+03  0.12500000000E+03 0.  0.
         25    1    1    2    0    0 -0.11909416106E+02  0.14697319772E+03  0.25166394402E+03  0.31733688055E+03  0.12500000000E+03 0.  0.
</event>
<event>
 5    0  0.5663008E-005  0.2827278E+03  0.7546771E-02  0.1094208E+00
         21   -1    0    0  502  501  0.00000000000E+00  0.00000000000E+00  0.10801112039E+03  0.10801112039E+03  0.00000000000E+00 0.  1.
         21   -1    0    0  501  502 -0.00000000000E+00 -0.00000000000E+00 -0.74006290182E+03  0.74006290182E+03  0.00000000000E+00 0.  1.
         25    1    1    2    0    0 -0.25330852386E+02  0.36069519679E+02  0.19252235359E+02  0.13393397963E+03  0.12500000000E+03 0.  0.
         25    1    1    2    0    0 -0.90780963436E+01 -0.83951673255E+02 -0.39722336111E+03  0.42490198151E+03  0.12500000000E+03 0.  0.
         25    1    1    2    0    0  0.34408948730E+02  0.47882153576E+02 -0.25408065568E+03  0.28923806107E+03  0.12500000000E+03 0.  0.
</event>
<event>
 5    0  0.5663008E-005  0.2541994E+03  0.7546771E-02  0.1110679E+00
         21   -1    0    0  502  501  0.00000000000E+00  0.00000000000E+00  0.53262472214E+03  0.53262472214E+03  0.00000000000E+00 0.  1.
         21   -1    0    0  501  502 -0.00000000000E+00 -0.00000000000E+00 -0.12131866607E+03  0.12131866607E+03  0.00000000000E+00 0.  1.
         25    1    1    2    0    0  0.91687922064E+02  0.89249100731E+02  0.72046166005E+02  0.19284119651E+03  0.12500000000E+03 0.  0.
         25    1    1    2    0    0  0.18347363488E+02 -0.19983728807E+02  0.17779363773E+03  0.21902409179E+03  0.12500000000E+03 0.  0.
         25    1    1    2    0    0 -0.11003528555E+03 -0.69265371924E+02  0.16146625233E+03  0.24207809991E+03  0.12500000000E+03 0.  0.
</event>
<event>
 5    0  0.5663008E-005  0.3284830E+03  0.7546771E-02  0.1071810E+00
         21   -1    0    0  502  501  0.00000000000E+00  0.00000000000E+00  0.14463824052E+03  0.14463824052E+03  0.00000000000E+00 0.  1.
         21   -1    0    0  501  502 -0.00000000000E+00 -0.00000000000E+00 -0.74600672850E+03  0.74600672850E+03  0.00000000000E+00 0.  1.
         25    1    1    2    0    0 -0.71018175166E+02  0.21496069480E+03 -0.42576312885E+03  0.49814749161E+03  0.12500000000E+03 0.  0.
         25    1    1    2    0    0  0.27351322415E+02 -0.14318727367E+03 -0.55581179896E+02  0.19991237515E+03  0.12500000000E+03 0.  0.
         25    1    1    2    0    0  0.43666852751E+02 -0.71773421125E+02 -0.12002417923E+03  0.19258510225E+03  0.12500000000E+03 0.  0.
</event>
<event>
 5    0  0.5663008E-005  0.2148730E+03  0.7546771E-02  0.1137764E+00
         21   -1    0    0  502  501  0.00000000000E+00  0.00000000000E+00  0.78565080040E+02  0.78565080040E+02  0.00000000000E+00 0. -1.
         21   -1    0    0  501  502 -0.00000000000E+00 -0.00000000000E+00 -0.58767109519E+03  0.58767109519E+03  0.00000000000E+00 0. -1.
         25    1    1    2    0    0 -0.38137763877E+02  0.51532207680E+02 -0.14739505591E+03  0.20361817200E+03  0.12500000000E+03 0.  0.
         25    1    1    2    0    0  0.42769696384E+02  0.20628320069E+02 -0.11320400105E+03  0.17519965859E+03  0.12500000000E+03 0.  0.
         25    1    1    2    0    0 -0.46319325074E+01 -0.72160527749E+02 -0.24850695820E+03  0.28741834464E+03  0.12500000000E+03 0.  0.
</event>
<event>
 5    0  0.5663008E-005  0.6653162E+03  0.7546771E-02  0.9778456E-01
         21   -1    0    0  502  501  0.00000000000E+00  0.00000000000E+00  0.39560248778E+03  0.39560248778E+03  0.00000000000E+00 0.  1.
         21   -1    0    0  501  502 -0.00000000000E+00 -0.00000000000E+00 -0.11189152362E+04  0.11189152362E+04  0.00000000000E+00 0.  1.
         25    1    1    2    0    0 -0.43915846768E+03  0.30901581245E+03 -0.58952039667E+03  0.80716183642E+03  0.12500000000E+03 0.  0.
         25    1    1    2    0    0  0.16690090498E+03  0.60985751352E+02 -0.22304615950E+02  0.21839796209E+03  0.12500000000E+03 0.  0.
         25    1    1    2    0    0  0.27225756270E+03 -0.37000156380E+03 -0.11148773580E+03  0.48895792549E+03  0.12500000000E+03 0.  0.
</event>
<event>
 5    0  0.5663008E-005  0.3414143E+03  0.7546771E-02  0.1066195E+00
         21   -1    0    0  502  501  0.00000000000E+00  0.00000000000E+00  0.39594915165E+03  0.39594915165E+03  0.00000000000E+00 0.  1.
         21   -1    0    0  501  502 -0.00000000000E+00 -0.00000000000E+00 -0.29439070355E+03  0.29439070355E+03  0.00000000000E+00 0.  1.
         25    1    1    2    0    0  0.18213018852E+03 -0.10285182504E+03  0.13770567453E+03  0.27988882843E+03  0.12500000000E+03 0.  0.
         25    1    1    2    0    0 -0.99016038618E+01  0.12387450281E+03 -0.77665080877E+02  0.19261308106E+03  0.12500000000E+03 0.  0.
         25    1    1    2    0    0 -0.17222858466E+03 -0.21022677774E+02  0.41517854452E+02  0.21783794571E+03  0.12500000000E+03 0.  0.
</event>
<event>
 5    0  0.5663008E-005  0.3213103E+03  0.7546771E-02  0.1075048E+00
         21   -1    0    0  502  501  0.00000000000E+00  0.00000000000E+00  0.70607144845E+03  0.70607144845E+03  0.00000000000E+00 0.  1.
         21   -1    0    0  501  502 -0.00000000000E+00 -0.00000000000E+00 -0.14621792618E+03  0.14621792618E+03  0.00000000000E+00 0.  1.
         25    1    1    2    0    0  0.51293040419E+01 -0.15681039345E+03  0.79886486984E+02  0.21592281041E+03  0.12500000000E+03 0.  0.
         25    1    1    2    0    0  0.71075238822E+02  0.21108529238E+03  0.34961490084E+03  0.43297144146E+03  0.12500000000E+03 0.  0.
         25    1    1    2    0    0 -0.76204542864E+02 -0.54274898926E+02  0.13035213445E+03  0.20339512276E+03  0.12500000000E+03 0.  0.
</event>
<event>
 5    0  0.5663008E-005  0.2528698E+03  0.7546771E-02  0.1111505E+00
         21   -1    0    0  502  501  0.00000000000E+00  0.00000000000E+00  0.12546696806E+03  0.12546696806E+03  0.00000000000E+00 0. -1.
         21   -1    0    0  501  502 -0.00000000000E+00 -0.00000000000E+00 -0.50964110834E+03  0.50964110834E+03  0.00000000000E+00 0. -1.
         25    1    1    2    0    0  0.13743254675E+03 -0.39900966581E+02 -0.23791792801E+03  0.30448272941E+03  0.12500000000E+03 0.  0.
         25    1    1    2    0    0 -0.38298517944E+02  0.24449873336E+02 -0.90702197184E+02  0.16098590422E+03  0.12500000000E+03 0.  0.
         25    1    1    2    0    0 -0.99134028811E+02  0.15451093246E+02 -0.55554015089E+02  0.16963944277E+03  0.12500000000E+03 0.  0.
</event>
<event>
 5    0  0.5663008E-005  0.4741995E+03  0.7546771E-02  0.1020742E+00
         21   -1    0    0  502  501  0.00000000000E+00  0.00000000000E+00  0.19025983810E+03  0.19025983810E+03  0.00000000000E+00 0.  1.
         21   -1    0    0  501  502 -0.00000000000E+00 -0.00000000000E+00 -0.11818847221E+04  0.11818847221E+04  0.00000000000E+00 0. -1.
         25    1    1    2    0    0 -0.13838606813E+02 -0.11446896361E+03 -0.46054924921E+03  0.49094323666E+03  0.12500000000E+03 0.  0.
         25    1    1    2    0    0  0.24737770755E+02  0.32096292325E+03 -0.53820697302E+03  0.63946923398E+03  0.12500000000E+03 0.  0.
         25    1    1    2    0    0 -0.10899163942E+02 -0.20649395964E+03  0.71313382192E+01  0.24173208957E+03  0.12500000000E+03 0.  0.
</event>
<event>
 5    0  0.5663008E-005  0.3415883E+03  0.7546771E-02  0.1066121E+00
         21   -1    0    0  502  501  0.00000000000E+00  0.00000000000E+00  0.14512500156E+04  0.14512500156E+04  0.00000000000E+00 0.  1.
         21   -1    0    0  501  502 -0.00000000000E+00 -0.00000000000E+00 -0.80401402482E+02  0.80401402482E+02  0.00000000000E+00 0.  1.
         25    1    1    2    0    0  0.98663018981E+01 -0.45937678976E+02  0.16636164050E+03  0.21332793931E+03  0.12500000000E+03 0.  0.
         25    1    1    2    0    0 -0.11755136694E+03 -0.96231812127E+02  0.16649625210E+03  0.25773026112E+03  0.12500000000E+03 0.  0.
         25    1    1    2    0    0  0.10768506504E+03  0.14216949110E+03  0.10379907205E+04  0.10605932176E+04  0.12500000000E+03 0.  0.
</event>
<event>
 5    0  0.5663008E-005  0.2432495E+03  0.7546771E-02  0.1117647E+00
         21   -1    0    0  502  501  0.00000000000E+00  0.00000000000E+00  0.25488421410E+03  0.25488421410E+03  0.00000000000E+00 0. -1.
         21   -1    0    0  501  502 -0.00000000000E+00 -0.00000000000E+00 -0.23214580855E+03  0.23214580855E+03  0.00000000000E+00 0. -1.
         25    1    1    2    0    0 -0.86796327161E+02  0.13407980487E+02 -0.16746793991E+02  0.15368419391E+03  0.12500000000E+03 0.  0.
         25    1    1    2    0    0  0.91896572208E+02 -0.68625925090E+02  0.84307562653E+02  0.18943933778E+03  0.12500000000E+03 0.  0.
         25    1    1    2    0    0 -0.51002450468E+01  0.55217944603E+02 -0.44822363110E+02  0.14390649096E+03  0.12500000000E+03 0.  0.
</event>
<event>
 5    0  0.5663008E-005  0.3231107E+03  0.7546771E-02  0.1074226E+00
         21   -1    0    0  502  501  0.00000000000E+00  0.00000000000E+00  0.99671115167E+03  0.99671115167E+03  0.00000000000E+00 0.  1.
         21   -1    0    0  501  502 -0.00000000000E+00 -0.00000000000E+00 -0.10474504069E+03  0.10474504069E+03  0.00000000000E+00 0.  1.
         25    1    1    2    0    0 -0.28389334959E+01 -0.21095138141E+03  0.43942874352E+03  0.50322079199E+03  0.12500000000E+03 0.  0.
         25    1    1    2    0    0 -0.10359035689E+03  0.78485172945E+02  0.20727891992E+03  0.27473702892E+03  0.12500000000E+03 0.  0.
         25    1    1    2    0    0  0.10642929039E+03  0.13246620847E+03  0.24525844754E+03  0.32349837145E+03  0.12500000000E+03 0.  0.
</event>
<event>
 5    0  0.5663008E-005  0.3097104E+03  0.7546771E-02  0.1080485E+00
         21   -1    0    0  502  501  0.00000000000E+00  0.00000000000E+00  0.18360071679E+04  0.18360071679E+04  0.00000000000E+00 0. -1.
         21   -1    0    0  501  502 -0.00000000000E+00 -0.00000000000E+00 -0.52244094771E+02  0.52244094771E+02  0.00000000000E+00 0. -1.
         25    1    1    2    0    0 -0.46178919244E+02 -0.13985668151E+02  0.40422401917E+03  0.42585226214E+03  0.12500000000E+03 0.  0.
         25    1    1    2    0    0  0.21542270009E+02  0.89640365214E+02  0.12666072443E+04  0.12760949713E+04  0.12500000000E+03 0.  0.
         25    1    1    2    0    0  0.24636649235E+02 -0.75654697063E+02  0.11293180966E+03  0.18630402923E+03  0.12500000000E+03 0.  0.
</event>
<event>
 5    0  0.5663008E-005  0.2452538E+03  0.7546771E-02  0.1116342E+00
         21   -1    0    0  502  501  0.00000000000E+00  0.00000000000E+00  0.49295562933E+02  0.49295562933E+02  0.00000000000E+00 0. -1.
         21   -1    0    0  501  502 -0.00000000000E+00 -0.00000000000E+00 -0.12201795597E+04  0.12201795597E+04  0.00000000000E+00 0. -1.
         25    1    1    2    0    0  0.12508812121E+02 -0.82909633153E+02 -0.55826968207E+03  0.57820456204E+03  0.12500000000E+03 0.  0.
         25    1    1    2    0    0 -0.43910773000E+02 -0.41632860340E+02 -0.30760283569E+03  0.33749956381E+03  0.12500000000E+03 0.  0.
         25    1    1    2    0    0  0.31401960878E+02  0.12454249349E+03 -0.30501147896E+03  0.35377099673E+03  0.12500000000E+03 0.  0.
</event>
<event>
 5    0  0.5663008E-005  0.4223407E+03  0.7546771E-02  0.1036307E+00
         21   -1    0    0  502  501  0.00000000000E+00  0.00000000000E+00  0.22537345009E+04  0.22537345009E+04  0.00000000000E+00 0.  1.
         21   -1    0    0  501  502 -0.00000000000E+00 -0.00000000000E+00 -0.79144935745E+02  0.79144935745E+02  0.00000000000E+00 0.  1.
         25    1    1    2    0    0  0.47734813612E+02  0.27688084308E+03  0.74486135474E+03  0.80584430971E+03  0.12500000000E+03 0.  0.
         25    1    1    2    0    0 -0.16287768071E+03 -0.93675607419E+02  0.10390241119E+04  0.10632499064E+04  0.12500000000E+03 0.  0.
         25    1    1    2    0    0  0.11514286710E+03 -0.18320523566E+03  0.39070409851E+03  0.46378522056E+03  0.12500000000E+03 0.  0.
</event>
<event>
 5    0  0.5663008E-005  0.2827789E+03  0.7546771E-02  0.1094181E+00
         21   -1    0    0  502  501  0.00000000000E+00  0.00000000000E+00  0.44934987392E+03  0.44934987392E+03  0.00000000000E+00 0. -1.
         21   -1    0    0  501  502 -0.00000000000E+00 -0.00000000000E+00 -0.17795470857E+03  0.17795470857E+03  0.00000000000E+00 0. -1.
         25    1    1    2    0    0  0.41641946185E+02  0.88607575819E+01 -0.24030075888E+02  0.13422000318E+03  0.12500000000E+03 0.  0.
         25    1    1    2    0    0  0.11424532484E+03 -0.30098925864E+02  0.21814703914E+03  0.27779681472E+03  0.12500000000E+03 0.  0.
         25    1    1    2    0    0 -0.15588727103E+03  0.21238168282E+02  0.77278202098E+02  0.21528776459E+03  0.12500000000E+03 0.  0.
</event>
<event>
 5    0  0.5663008E-005  0.1968531E+03  0.7546771E-02  0.1152422E+00
         21   -1    0    0  502  501  0.00000000000E+00  0.00000000000E+00  0.20539278032E+03  0.20539278032E+03  0.00000000000E+00 0.  1.
         21   -1    0    0  501  502 -0.00000000000E+00 -0.00000000000E+00 -0.18866844376E+03  0.18866844376E+03  0.00000000000E+00 0.  1.
         25    1    1    2    0    0  0.98993798612E+01 -0.29142314071E+02  0.41779983028E+02  0.13534341200E+03  0.12500000000E+03 0.  0.
         25    1    1    2    0    0 -0.27000501595E+02  0.29733575565E+02 -0.10443054381E+02  0.13170865570E+03  0.12500000000E+03 0.  0.
         25    1    1    2    0    0  0.17101121734E+02 -0.59126149453E+00 -0.14612592080E+02  0.12700915637E+03  0.12500000000E+03 0.  0.
</event>
<event>
 5    0  0.5663008E-005  0.3370795E+03  0.7546771E-02  0.1068047E+00
         21   -1    0    0  502  501  0.00000000000E+00  0.00000000000E+00  0.11327428985E+03  0.11327428985E+03  0.00000000000E+00 0.  1.
         21   -1    0    0  501  502 -0.00000000000E+00 -0.00000000000E+00 -0.10030745986E+04  0.10030745986E+04  0.00000000000E+00 0.  1.
         25    1    1    2    0    0 -0.40203177551E+02  0.80322641417E+02  0.79005419355E+01  0.15412800126E+03  0.12500000000E+03 0.  0.
         25    1    1    2    0    0  0.11851415630E+03 -0.48369085902E+02 -0.33682802364E+03  0.38139650132E+03  0.12500000000E+03 0.  0.
         25    1    1    2    0    0 -0.78310978745E+02 -0.31953555515E+02 -0.56087282703E+03  0.58082438585E+03  0.12500000000E+03 0.  0.
</event>
<event>
 5    0  0.5663008E-005  0.2600957E+03  0.7546771E-02  0.1107086E+00
         21   -1    0    0  502  501  0.00000000000E+00  0.00000000000E+00  0.58981434191E+02  0.58981434191E+02  0.00000000000E+00 0.  1.
         21   -1    0    0  501  502 -0.00000000000E+00 -0.00000000000E+00 -0.11469675517E+04  0.11469675517E+04  0.00000000000E+00 0.  1.
         25    1    1    2    0    0 -0.76371430350E+02 -0.67221846440E+02 -0.45950885023E+03  0.48695457227E+03  0.12500000000E+03 0.  0.
         25    1    1    2    0    0  0.28407644681E+02 -0.68114794774E+02 -0.37404815581E+03  0.40122766905E+03  0.12500000000E+03 0.  0.
         25    1    1    2    0    0  0.47963785669E+02  0.13533664121E+03 -0.25442911142E+03  0.31776674453E+03  0.12500000000E+03 0.  0.
</event>
<event>
 5    0  0.5663008E-005  0.2091189E+03  0.7546771E-02  0.1142266E+00
         21   -1    0    0  502  501  0.00000000000E+00  0.00000000000E+00  0.56445799753E+03  0.56445799753E+03  0.00000000000E+00 0.  1.
         21   -1    0    0  501  502 -0.00000000000E+00 -0.00000000000E+00 -0.77473848223E+02  0.77473848223E+02  0.00000000000E+00 0.  1.
         25    1    1    2    0    0  0.18378643025E+02 -0.15344459149E+02  0.10394151564E+03  0.16432305261E+03  0.12500000000E+03 0.  0.
         25    1    1    2    0    0  0.24300541774E+02  0.63982410548E+02  0.16432102459E+03  0.21751014761E+03  0.12500000000E+03 0.  0.
         25    1    1    2    0    0 -0.42679184799E+02 -0.48637951399E+02  0.21872160908E+03  0.26009864554E+03  0.12500000000E+03 0.  0.
</event>
<event>
 5    0  0.5663008E-005  0.5117770E+03  0.7546771E-02  0.1010750E+00
         21   -1    0    0  502  501  0.00000000000E+00  0.00000000000E+00  0.47148750258E+03  0.47148750258E+03  0.00000000000E+00 0. -1.
         21   -1    0    0  501  502 -0.00000000000E+00 -0.00000000000E+00 -0.55550937881E+03  0.55550937881E+03  0.00000000000E+00 0. -1.
         25    1    1    2    0    0 -0.15011616320E+03 -0.22592672763E+03 -0.10065276977E+03  0.31517253810E+03  0.12500000000E+03 0.  0.
         25    1    1    2    0    0  0.32151391372E+03  0.51172203119E+02 -0.16148615287E+03  0.38430790866E+03  0.12500000000E+03 0.  0.
         25    1    1    2    0    0 -0.17139775053E+03  0.17475452451E+03  0.17811704642E+03  0.32751643462E+03  0.12500000000E+03 0.  0.
</event>
<event>
 5    0  0.5663008E-005  0.2623086E+03  0.7546771E-02  0.1105764E+00
         21   -1    0    0  502  501  0.00000000000E+00  0.00000000000E+00  0.15014240244E+04  0.15014240244E+04  0.00000000000E+00 0. -1.
         21   -1    0    0  501  502 -0.00000000000E+00 -0.00000000000E+00 -0.45827038726E+02  0.45827038726E+02  0.00000000000E+00 0. -1.
         25    1    1    2    0    0 -0.46300778834E+02 -0.18972463615E+02  0.10237439465E+04  0.10325601118E+04  0.12500000000E+03 0.  0.
         25    1    1    2    0    0  0.12986478029E+02  0.11575762108E+02  0.10882825953E+03  0.16664704303E+03  0.12500000000E+03 0.  0.
         25    1    1    2    0    0  0.33314300804E+02  0.73967015065E+01  0.32302477966E+03  0.34804390830E+03  0.12500000000E+03 0.  0.
</event>
<event>
 5    0  0.5663008E-005  0.2671143E+03  0.7546771E-02  0.1102943E+00
         21   -1    0    0  502  501  0.00000000000E+00  0.00000000000E+00  0.11712836507E+03  0.11712836507E+03  0.00000000000E+00 0. -1.
         21   -1    0    0  501  502 -0.00000000000E+00 -0.00000000000E+00 -0.60916094826E+03  0.60916094826E+03  0.00000000000E+00 0. -1.
         25    1    1    2    0    0  0.74043385597E+02  0.78337492108E+02 -0.31716605553E+03  0.35754509142E+03  0.12500000000E+03 0.  0.
         25    1    1    2    0    0 -0.10828114417E+03 -0.13178348360E+02 -0.14565850807E+03  0.22077109417E+03  0.12500000000E+03 0.  0.
         25    1    1    2    0    0  0.34237758571E+02 -0.65159143749E+02 -0.29208019594E+02  0.14797312774E+03  0.12500000000E+03 0.  0.
</event>
<event>
 5    0  0.6138939E-005  0.3262856E+03  0.7546771E-02  0.1072792E+00
         21   -1    0    0  502  501  0.00000000000E+00  0.00000000000E+00  0.80037028199E+03  0.80037028199E+03  0.00000000000E+00 0. -1.
         21   -1    0    0  501  502 -0.00000000000E+00 -0.00000000000E+00 -0.13301630312E+03  0.13301630312E+03  0.00000000000E+00 0. -1.
         25    1    1    2    0    0  0.10640920727E+03 -0.16292355054E+03  0.34275348343E+03  0.41348754892E+03  0.12500000000E+03 0.  0.
         25    1    1    2    0    0 -0.11798098214E+03  0.55228984410E+02  0.31381444331E+02  0.18324723167E+03  0.12500000000E+03 0.  0.
         25    1    1    2    0    0  0.11571774878E+02  0.10769456613E+03  0.29321905112E+03  0.33665180452E+03  0.12500000000E+03 0.  0.
</event>
<event>
 5    0  0.5663008E-005  0.2724556E+03  0.7546771E-02  0.1099882E+00
         21   -1    0    0  502  501  0.00000000000E+00  0.00000000000E+00  0.96701148977E+03  0.96701148977E+03  0.00000000000E+00 0. -1.
         21   -1    0    0  501  502 -0.00000000000E+00 -0.00000000000E+00 -0.76764375092E+02  0.76764375092E+02  0.00000000000E+00 0. -1.
         25    1    1    2    0    0  0.37975827004E+02  0.61154453248E+02  0.10788584463E+03  0.18012880408E+03  0.12500000000E+03 0.  0.
         25    1    1    2    0    0 -0.10000874943E+03 -0.10520455495E+03  0.27174146464E+03  0.33247281385E+03  0.12500000000E+03 0.  0.
         25    1    1    2    0    0  0.62032922427E+02  0.44050101702E+02  0.51061980542E+03  0.53117424694E+03  0.12500000000E+03 0.  0.
</event>
<event>
 5    0  0.5663008E-005  0.3554567E+03  0.7546771E-02  0.1060397E+00
         21   -1    0    0  502  501  0.00000000000E+00  0.00000000000E+00  0.47161313094E+03  0.47161313094E+03  0.00000000000E+00 0.  1.
         21   -1    0    0  501  502 -0.00000000000E+00 -0.00000000000E+00 -0.26790911174E+03  0.26790911174E+03  0.00000000000E+00 0.  1.
         25    1    1    2    0    0 -0.14248795394E+03  0.27679040160E+02 -0.10713542403E+03  0.21948108202E+03  0.12500000000E+03 0.  0.
         25    1    1    2    0    0  0.29214144476E+02 -0.84050146581E+02  0.30577225854E+03  0.34211046092E+03  0.12500000000E+03 0.  0.
         25    1    1    2    0    0  0.11327380947E+03  0.56371106421E+02  0.50671846826E+01  0.17793069974E+03  0.12500000000E+03 0.  0.
</event>
<event>
 5    0  0.5663008E-005  0.3449063E+03  0.7546771E-02  0.1064725E+00
         21   -1    0    0  502  501  0.00000000000E+00  0.00000000000E+00  0.70343203066E+02  0.70343203066E+02  0.00000000000E+00 0.  1.
         21   -1    0    0  501  502 -0.00000000000E+00 -0.00000000000E+00 -0.16911417338E+04  0.16911417338E+04  0.00000000000E+00 0.  1.
         25    1    1    2    0    0 -0.45858459793E+02 -0.78928045707E+02 -0.20332336883E+03  0.25553478637E+03  0.12500000000E+03 0.  0.
         25    1    1    2    0    0  0.20659940618E+03  0.93977318494E+02 -0.46969680426E+03  0.53642813028E+03  0.12500000000E+03 0.  0.
         25    1    1    2    0    0 -0.16074094638E+03 -0.15049272787E+02 -0.94777835763E+03  0.96952202020E+03  0.12500000000E+03 0.  0.
</event>
<event>
 5    0  0.5663008E-005  0.2815496E+03  0.7546771E-02  0.1094846E+00
         21   -1    0    0  502  501  0.00000000000E+00  0.00000000000E+00  0.17831335079E+03  0.17831335079E+03  0.00000000000E+00 0.  1.
         21   -1    0    0  501  502 -0.00000000000E+00 -0.00000000000E+00 -0.44455556140E+03  0.44455556140E+03  0.00000000000E+00 0.  1.
         25    1    1    2    0    0 -0.29548552998E+02  0.70089130624E+02  0.50739278028E+02  0.15487116436E+03  0.12500000000E+03 0.  0.
         25    1    1    2    0    0  0.11622110305E+03 -0.56441902648E+02 -0.10994040125E+03  0.21072476123E+03  0.12500000000E+03 0.  0.
         25    1    1    2    0    0 -0.86672550052E+02 -0.13647227976E+02 -0.20704108739E+03  0.25727298660E+03  0.12500000000E+03 0.  0.
</event>
<event>
 5    0  0.5663008E-005  0.2577674E+03  0.7546771E-02  0.1108492E+00
         21   -1    0    0  502  501  0.00000000000E+00  0.00000000000E+00  0.28178911555E+03  0.28178911555E+03  0.00000000000E+00 0.  1.
         21   -1    0    0  501  502 -0.00000000000E+00 -0.00000000000E+00 -0.23579344346E+03  0.23579344346E+03  0.00000000000E+00 0.  1.
         25    1    1    2    0    0 -0.69072206165E+02 -0.40713233415E+02  0.16233911637E+03  0.22001710330E+03  0.12500000000E+03 0.  0.
         25    1    1    2    0    0  0.47238410413E+02  0.47441402378E+02 -0.89524022556E+02  0.16769527332E+03  0.12500000000E+03 0.  0.
         25    1    1    2    0    0  0.21833795752E+02 -0.67281689623E+01 -0.26819421729E+02  0.12987018240E+03  0.12500000000E+03 0.  0.
</event>
<event>
 5    0  0.5663008E-005  0.2568037E+03  0.7546771E-02  0.1109079E+00
         21   -1    0    0  502  501  0.00000000000E+00  0.00000000000E+00  0.22509267923E+03  0.22509267923E+03  0.00000000000E+00 0. -1.
         21   -1    0    0  501  502 -0.00000000000E+00 -0.00000000000E+00 -0.29298218799E+03  0.29298218799E+03  0.00000000000E+00 0. -1.
         25    1    1    2    0    0  0.15254294038E+02 -0.21684746318E+00  0.72816499717E+02  0.14546471442E+03  0.12500000000E+03 0.  0.
         25    1    1    2    0    0 -0.17312069233E+02  0.50249122257E+02 -0.18619804853E+03  0.23047645282E+03  0.12500000000E+03 0.  0.
         25    1    1    2    0    0  0.20577751950E+01 -0.50032274794E+02  0.45492040060E+02  0.14213369998E+03  0.12500000000E+03 0.  0.
</event>
<event>
 5    0  0.5663008E-005  0.2816618E+03  0.7546771E-02  0.1094785E+00
         21   -1    0    0  502  501  0.00000000000E+00  0.00000000000E+00  0.56353376903E+02  0.56353376903E+02  0.00000000000E+00 0.  1.
         21   -1    0    0  501  502 -0.00000000000E+00 -0.00000000000E+00 -0.14077842204E+04  0.14077842204E+04  0.00000000000E+00 0.  1.
         25    1    1    2    0    0 -0.87943031236E+02 -0.11260933334E+03 -0.34267032405E+03  0.39174327011E+03  0.12500000000E+03 0.  0.
         25    1    1    2    0    0  0.70372152356E+02  0.77443950168E+02 -0.85486815412E+03  0.87027258154E+03  0.12500000000E+03 0.  0.
         25    1    1    2    0    0  0.17570878879E+02  0.35165383169E+02 -0.15389236532E+03  0.20212174565E+03  0.12500000000E+03 0.  0.
</event>
<event>
 5    0  0.5663008E-005  0.2183841E+03  0.7546771E-02  0.1135094E+00
         21   -1    0    0  502  501  0.00000000000E+00  0.00000000000E+00  0.77323021184E+03  0.77323021184E+03  0.00000000000E+00 0.  1.
         21   -1    0    0  501  502 -0.00000000000E+00 -0.00000000000E+00 -0.61678396552E+02  0.61678396552E+02  0.00000000000E+00 0.  1.
         25    1    1    2    0    0  0.95821896174E+02 -0.10415399777E+02  0.31668043263E+03  0.35383868182E+03  0.12500000000E+03 0.  0.
         25    1    1    2    0    0 -0.50095740550E+02  0.20207484078E+02  0.15300626569E+03  0.20482637275E+03  0.12500000000E+03 0.  0.
         25    1    1    2    0    0 -0.45726155624E+02 -0.97920843012E+01  0.24186511697E+03  0.27624355382E+03  0.12500000000E+03 0.  0.
</event>
<event>
 5    0  0.5663008E-005  0.4021433E+03  0.7546771E-02  0.1043040E+00
         21   -1    0    0  502  501  0.00000000000E+00  0.00000000000E+00  0.20225946725E+03  0.20225946725E+03  0.00000000000E+00 0. -1.
         21   -1    0    0  501  502 -0.00000000000E+00 -0.00000000000E+00 -0.79956320982E+03  0.79956320982E+03  0.00000000000E+00 0. -1.
         25    1    1    2    0    0  0.76029608289E+02  0.56410284353E+02 -0.23645194473E+03  0.28372018554E+03  0.12500000000E+03 0.  0.
         25    1    1    2    0    0  0.10952972425E+03  0.13360720557E+03 -0.36705270737E+03  0.42450010113E+03  0.12500000000E+03 0.  0.
         25    1    1    2    0    0 -0.18555933253E+03 -0.19001748993E+03  0.62009095318E+01  0.29360239040E+03  0.12500000000E+03 0.  0.
</event>
<event>
 5    0  0.5663008E-005  0.3023155E+03  0.7546771E-02  0.1084089E+00
         21   -1    0    0  502  501  0.00000000000E+00  0.00000000000E+00  0.10432844927E+03  0.10432844927E+03  0.00000000000E+00 0.  1.
         21   -1    0    0  501  502 -0.00000000000E+00 -0.00000000000E+00 -0.87602839626E+03  0.87602839626E+03  0.00000000000E+00 0.  1.
         25    1    1    2    0    0 -0.79506409857E+02 -0.38095511031E+02 -0.49061771620E+03  0.51390979814E+03  0.12500000000E+03 0.  0.
         25    1    1    2    0    0  0.99898610159E+02  0.11481122776E+03 -0.24443899882E+03  0.31390567767E+03  0.12500000000E+03 0.  0.
         25    1    1    2    0    0 -0.20392200302E+02 -0.76715716726E+02 -0.36643231967E+02  0.15254136972E+03  0.12500000000E+03 0.  0.
</event>
<event>
 5    0  0.5663008E-005  0.3432029E+03  0.7546771E-02  0.1065440E+00
         21   -1    0    0  502  501  0.00000000000E+00  0.00000000000E+00  0.66463161213E+03  0.66463161213E+03  0.00000000000E+00 0. -1.
         21   -1    0    0  501  502 -0.00000000000E+00 -0.00000000000E+00 -0.17722331844E+03  0.17722331844E+03  0.00000000000E+00 0. -1.
         25    1    1    2    0    0 -0.51364569233E+02  0.86117912374E+01  0.92385193838E+02  0.16392835618E+03  0.12500000000E+03 0.  0.
         25    1    1    2    0    0  0.74091219263E+02  0.23391573537E+03  0.22531070714E+03  0.35580330912E+03  0.12500000000E+03 0.  0.
         25    1    1    2    0    0 -0.22726650030E+02 -0.24252752661E+03  0.16971239271E+03  0.32212326527E+03  0.12500000000E+03 0.  0.
</event>
<event>
 5    0  0.6684303E-005  0.3746160E+03  0.7546771E-02  0.1052942E+00
         21   -1    0    0  502  501  0.00000000000E+00  0.00000000000E+00  0.64820221128E+03  0.64820221128E+03  0.00000000000E+00 0.  1.
         21   -1    0    0  501  502 -0.00000000000E+00 -0.00000000000E+00 -0.21650213016E+03  0.21650213016E+03  0.00000000000E+00 0.  1.
         25    1    1    2    0    0 -0.19556418904E+03 -0.25721319107E+02  0.54697704273E+02  0.23984114982E+03  0.12500000000E+03 0.  0.
         25    1    1    2    0    0  0.13457996637E+03  0.10823849357E+03 -0.15638296189E+01  0.21320127673E+03  0.12500000000E+03 0.  0.
         25    1    1    2    0    0  0.60984222678E+02 -0.82517174467E+02  0.37856620646E+03  0.41166191489E+03  0.12500000000E+03 0.  0.
</event>
<event>
 5    0  0.5663008E-005  0.2634706E+03  0.7546771E-02  0.1105076E+00
         21   -1    0    0  502  501  0.00000000000E+00  0.00000000000E+00  0.18551880312E+03  0.18551880312E+03  0.00000000000E+00 0.  1.
         21   -1    0    0  501  502 -0.00000000000E+00 -0.00000000000E+00 -0.37417627282E+03  0.37417627282E+03  0.00000000000E+00 0.  1.
         25    1    1    2    0    0  0.46645042231E+02  0.13383865406E+03 -0.11239726923E+02  0.18931422754E+03  0.12500000000E+03 0.  0.
         25    1    1    2    0    0 -0.28210259908E+02 -0.90151170050E+02 -0.17740845344E+03  0.23668927221E+03  0.12500000000E+03 0.  0.
         25    1    1    2    0    0 -0.18434782324E+02 -0.43687484012E+02 -0.92893410317E-02  0.13369157619E+03  0.12500000000E+03 0.  0.
</event>
<event>
 5    0  0.5663008E-005  0.4138964E+03  0.7546771E-02  0.1039071E+00
         21   -1    0    0  502  501  0.00000000000E+00  0.00000000000E+00  0.89059866804E+02  0.89059866804E+02  0.00000000000E+00 0. -1.
         21   -1    0    0  501  502 -0.00000000000E+00 -0.00000000000E+00 -0.19235404381E+04  0.19235404381E+04  0.00000000000E+00 0. -1.
         25    1    1    2    0    0 -0.18233620939E+03  0.29531557675E+03 -0.10508754326E+04  0.11137423212E+04  0.12500000000E+03 0.  0.
         25    1    1    2    0    0  0.15407395785E+03 -0.17480634716E+03 -0.47341957850E+03  0.54226113709E+03  0.12500000000E+03 0.  0.
         25    1    1    2    0    0  0.28262251544E+02 -0.12050922959E+03 -0.31018556019E+03  0.35659684664E+03  0.12500000000E+03 0.  0.
</event>
<event>
 5    0  0.5663008E-005  0.4601355E+03  0.7546771E-02  0.1024742E+00
         21   -1    0    0  502  501  0.00000000000E+00  0.00000000000E+00  0.12562079217E+04  0.12562079217E+04  0.00000000000E+00 0. -1.
         21   -1    0    0  501  502 -0.00000000000E+00 -0.00000000000E+00 -0.16854272130E+03  0.16854272130E+03  0.00000000000E+00 0. -1.
         25    1    1    2    0    0  0.22603825000E+03 -0.18560069563E+03  0.40661324128E+03  0.51623660919E+03  0.12500000000E+03 0.  0.
         25    1    1    2    0    0 -0.47433577467E+01  0.29530313027E+03  0.31452928347E+03  0.44919940823E+03  0.12500000000E+03 0.  0.
         25    1    1    2    0    0 -0.22129489225E+03 -0.10970243464E+03  0.36652267561E+03  0.45931462555E+03  0.12500000000E+03 0.  0.
</event>
<event>
 5    0  0.5663008E-005  0.2133412E+03  0.7546771E-02  0.1138947E+00
         21   -1    0    0  502  501  0.00000000000E+00  0.00000000000E+00  0.39847312119E+04  0.39847312119E+04  0.00000000000E+00 0.  1.
         21   -1    0    0  501  502 -0.00000000000E+00 -0.00000000000E+00 -0.11422216278E+02  0.11422216278E+02  0.00000000000E+00 0.  1.
         25    1    1    2    0    0 -0.32217282765E+02 -0.12232104132E+02  0.12447587661E+04  0.12514938927E+04  0.12500000000E+03 0.  0.
         25    1    1    2    0    0 -0.54319333148E+02  0.29183269483E+02  0.15425972415E+04  0.15488813714E+04  0.12500000000E+03 0.  0.
         25    1    1    2    0    0  0.86536615914E+02 -0.16951165352E+02  0.11859529880E+04  0.11957781640E+04  0.12500000000E+03 0.  0.
</event>
<event>
 5    0  0.5663008E-005  0.3171995E+03  0.7546771E-02  0.1076945E+00
         21   -1    0    0  502  501  0.00000000000E+00  0.00000000000E+00  0.15277095137E+03  0.15277095137E+03  0.00000000000E+00 0. -1.
         21   -1    0    0  501  502 -0.00000000000E+00 -0.00000000000E+00 -0.65860395715E+03  0.65860395715E+03  0.00000000000E+00 0. -1.
         25    1    1    2    0    0  0.99995680532E+02  0.10719717976E+03 -0.36694090659E+03  0.41444058731E+03  0.12500000000E+03 0.  0.
         25    1    1    2    0    0 -0.35795988686E+02 -0.17139179691E+03 -0.10206154914E+03  0.23811354574E+03  0.12500000000E+03 0.  0.
         25    1    1    2    0    0 -0.64199691846E+02  0.64194617145E+02 -0.36830550057E+02  0.15882077547E+03  0.12500000000E+03 0.  0.
</event>
<event>
 5    0  0.5663008E-005  0.2402257E+03  0.7546771E-02  0.1119643E+00
         21   -1    0    0  502  501  0.00000000000E+00  0.00000000000E+00  0.26019282218E+04  0.26019282218E+04  0.00000000000E+00 0.  1.
         21   -1    0    0  501  502 -0.00000000000E+00 -0.00000000000E+00 -0.22179085017E+02  0.22179085017E+02  0.00000000000E+00 0.  1.
         25    1    1    2    0    0  0.54526448637E+02 -0.27232134552E+02  0.15114352753E+04  0.15178195921E+04  0.12500000000E+03 0.  0.
         25    1    1    2    0    0 -0.19203421552E+02 -0.49392537479E+02  0.54702108926E+03  0.56361819191E+03  0.12500000000E+03 0.  0.
         25    1    1    2    0    0 -0.35323027086E+02  0.76624672031E+02  0.52129277224E+03  0.54266952281E+03  0.12500000000E+03 0.  0.
</event>
<event>
 5    0  0.5663008E-005  0.4782425E+03  0.7546771E-02  0.1019619E+00
         21   -1    0    0  502  501  0.00000000000E+00  0.00000000000E+00  0.17416357259E+03  0.17416357259E+03  0.00000000000E+00 0.  1.
         21   -1    0    0  501  502 -0.00000000000E+00 -0.00000000000E+00 -0.13132248337E+04  0.13132248337E+04  0.00000000000E+00 0.  1.
         25    1    1    2    0    0  0.17127481321E+03 -0.12177764933E+03 -0.92099700367E+03  0.95290363536E+03  0.12500000000E+03 0.  0.
         25    1    1    2    0    0 -0.83244528038E+02  0.10547793178E+03 -0.30640391298E+03  0.35716047294E+03  0.12500000000E+03 0.  0.
         25    1    1    2    0    0 -0.88030285176E+02  0.16299717549E+02  0.88339655567E+02  0.17732429796E+03  0.12500000000E+03 0.  0.
</event>
