<event>
 4    0  0.2230743E-002  0.2038316E+03  0.7546771E-02  0.1146546E+00
         21   -1    0    0  502  501  0.00000000000E+00  0.00000000000E+00  0.30247941667E+03  0.30247941667E+03  0.00000000000E+00 0.  1.
         21   -1    0    0  501  502 -0.00000000000E+00 -0.00000000000E+00 -0.13735589668E+03  0.13735589668E+03  0.00000000000E+00 0.  1.
         25    1    1    2    0    0 -0.14381380502E+03  0.56046980116E+02  0.33135327541E+02  0.20136192397E+03  0.12500000000E+03 0.  0.
         25    1    1    2    0    0  0.14381380502E+03 -0.56046980116E+02  0.13198819245E+03  0.23847338938E+03  0.12500000000E+03 0.  0.
</event>
<event>
 4    0  0.2230743E-002  0.1840914E+03  0.7546771E-02  0.1163901E+00
         21   -1    0    0  502  501  0.00000000000E+00  0.00000000000E+00  0.48835101100E+02  0.48835101100E+02  0.00000000000E+00 0. -1.
         21   -1    0    0  501  502 -0.00000000000E+00 -0.00000000000E+00 -0.69396069288E+03  0.69396069288E+03  0.00000000000E+00 0. -1.
         25    1    1    2    0    0  0.11247982750E+03  0.74376573587E+02 -0.34072606418E+03  0.38717287754E+03  0.12500000000E+03 0.  0.
         25    1    1    2    0    0 -0.11247982750E+03 -0.74376573587E+02 -0.30439952761E+03  0.35562291645E+03  0.12500000000E+03 0.  0.
</event>
<event>
 4    0  0.2230743E-002  0.1969976E+03  0.7546771E-02  0.1152297E+00
         21   -1    0    0  502  501  0.00000000000E+00  0.00000000000E+00  0.47759550568E+02  0.47759550568E+02  0.00000000000E+00 0.  1.
         21   -1    0    0  501  502 -0.00000000000E+00 -0.00000000000E+00 -0.81257142786E+03  0.81257142786E+03  0.00000000000E+00 0.  1.
         25    1    1    2    0    0 -0.80059439439E+02 -0.12275814483E+03 -0.29226840346E+03  0.35003556337E+03  0.12500000000E+03 0.  0.
         25    1    1    2    0    0  0.80059439439E+02  0.12275814483E+03 -0.47254347383E+03  0.51029541505E+03  0.12500000000E+03 0.  0.
</event>
<event>
 4    0  0.2230743E-002  0.2566089E+03  0.7546771E-02  0.1109198E+00
         21   -1    0    0  502  501  0.00000000000E+00  0.00000000000E+00  0.46075112941E+02  0.46075112941E+02  0.00000000000E+00 0.  1.
         21   -1    0    0  501  502 -0.00000000000E+00 -0.00000000000E+00 -0.14291473851E+04  0.14291473851E+04  0.00000000000E+00 0.  1.
         25    1    1    2    0    0  0.19435490415E+03  0.10593307611E+03 -0.59082828056E+03  0.64319414059E+03  0.12500000000E+03 0.  0.
         25    1    1    2    0    0 -0.19435490415E+03 -0.10593307611E+03 -0.79224399164E+03  0.83202835749E+03  0.12500000000E+03 0.  0.
</event>
<event>
 4    0  0.2230743E-002  0.3751829E+03  0.7546771E-02  0.1052729E+00
         21   -1    0    0  502  501  0.00000000000E+00  0.00000000000E+00  0.20940315812E+03  0.20940315812E+03  0.00000000000E+00 0.  1.
         21   -1    0    0  501  502 -0.00000000000E+00 -0.00000000000E+00 -0.67220667585E+03  0.67220667585E+03  0.00000000000E+00 0.  1.
         25    1    1    2    0    0 -0.24241509390E+03 -0.49948205659E+02 -0.52834721281E+03  0.59668725332E+03  0.12500000000E+03 0.  0.
         25    1    1    2    0    0  0.24241509390E+03  0.49948205659E+02  0.65543695072E+02  0.28492258064E+03  0.12500000000E+03 0.  0.
</event>
<event>
 4    0  0.2230743E-002  0.1572068E+03  0.7546771E-02  0.1191887E+00
         21   -1    0    0  502  501  0.00000000000E+00  0.00000000000E+00  0.41532587955E+02  0.41532587955E+02  0.00000000000E+00 0. -1.
         21   -1    0    0  501  502 -0.00000000000E+00 -0.00000000000E+00 -0.59505048113E+03  0.59505048113E+03  0.00000000000E+00 0. -1.
         25    1    1    2    0    0  0.41720368419E+02  0.85660375360E+02 -0.27013689214E+03  0.31253356547E+03  0.12500000000E+03 0.  0.
         25    1    1    2    0    0 -0.41720368419E+02 -0.85660375360E+02 -0.28338100104E+03  0.32404950362E+03  0.12500000000E+03 0.  0.
</event>
<event>
 4    0  0.2230743E-002  0.2178607E+03  0.7546771E-02  0.1135488E+00
         21   -1    0    0  502  501  0.00000000000E+00  0.00000000000E+00  0.88044312746E+03  0.88044312746E+03  0.00000000000E+00 0. -1.
         21   -1    0    0  501  502 -0.00000000000E+00 -0.00000000000E+00 -0.53908414911E+02  0.53908414911E+02  0.00000000000E+00 0. -1.
         25    1    1    2    0    0  0.62139520442E+02 -0.16701089167E+03  0.43296011436E+03  0.48459613965E+03  0.12500000000E+03 0.  0.
         25    1    1    2    0    0 -0.62139520442E+02  0.16701089167E+03  0.39357459818E+03  0.44975540271E+03  0.12500000000E+03 0.  0.
</event>
<event>
 4    0  0.2230743E-002  0.1752973E+03  0.7546771E-02  0.1172433E+00
         21   -1    0    0  502  501  0.00000000000E+00  0.00000000000E+00  0.23619307390E+03  0.23619307390E+03  0.00000000000E+00 0.  1.
         21   -1    0    0  501  502 -0.00000000000E+00 -0.00000000000E+00 -0.13010184216E+03  0.13010184216E+03  0.00000000000E+00 0.  1.
         25    1    1    2    0    0  0.29252698974E+02 -0.11936393106E+03  0.52180535958E+02  0.18289690202E+03  0.12500000000E+03 0.  0.
         25    1    1    2    0    0 -0.29252698974E+02  0.11936393106E+03  0.53910695774E+02  0.18339801404E+03  0.12500000000E+03 0.  0.
</event>
<event>
 4    0  0.2230743E-002  0.2029251E+03  0.7546771E-02  0.1147294E+00
         21   -1    0    0  502  501  0.00000000000E+00  0.00000000000E+00  0.10057473279E+03  0.10057473279E+03  0.00000000000E+00 0.  1.
         21   -1    0    0  501  502 -0.00000000000E+00 -0.00000000000E+00 -0.40943289902E+03  0.40943289902E+03  0.00000000000E+00 0.  1.
         25    1    1    2    0    0 -0.12470455565E+03 -0.91523816384E+02 -0.20509784823E+03  0.28568857610E+03  0.12500000000E+03 0.  0.
         25    1    1    2    0    0  0.12470455565E+03  0.91523816384E+02 -0.10376031799E+03  0.22431905571E+03  0.12500000000E+03 0.  0.
</event>
<event>
 4    0  0.2230743E-002  0.1829533E+03  0.7546771E-02  0.1164975E+00
         21   -1    0    0  502  501  0.00000000000E+00  0.00000000000E+00  0.59666234269E+02  0.59666234269E+02  0.00000000000E+00 0. -1.
         21   -1    0    0  501  502 -0.00000000000E+00 -0.00000000000E+00 -0.56098573741E+03  0.56098573741E+03  0.00000000000E+00 0. -1.
         25    1    1    2    0    0  0.62185959668E+02  0.47082353779E+02 -0.43462600521E+03  0.45892113268E+03  0.12500000000E+03 0.  0.
         25    1    1    2    0    0 -0.62185959668E+02 -0.47082353779E+02 -0.66693497934E+02  0.16173083900E+03  0.12500000000E+03 0.  0.
</event>
<event>
 4    0  0.2230743E-002  0.1999031E+03  0.7546771E-02  0.1149821E+00
         21   -1    0    0  502  501  0.00000000000E+00  0.00000000000E+00  0.18965948963E+03  0.18965948963E+03  0.00000000000E+00 0.  1.
         21   -1    0    0  501  502 -0.00000000000E+00 -0.00000000000E+00 -0.21069997440E+03  0.21069997440E+03  0.00000000000E+00 0.  1.
         25    1    1    2    0    0 -0.11427626999E+03 -0.10613068559E+03 -0.68462000060E+01  0.19998664645E+03  0.12500000000E+03 0.  0.
         25    1    1    2    0    0  0.11427626999E+03  0.10613068559E+03 -0.14194284765E+02  0.20037281758E+03  0.12500000000E+03 0.  0.
</event>
<event>
 4    0  0.2230743E-002  0.2516426E+03  0.7546771E-02  0.1112271E+00
         21   -1    0    0  502  501  0.00000000000E+00  0.00000000000E+00  0.55321227750E+03  0.55321227750E+03  0.00000000000E+00 0.  1.
         21   -1    0    0  501  502 -0.00000000000E+00 -0.00000000000E+00 -0.11446600931E+03  0.11446600931E+03  0.00000000000E+00 0.  1.
         25    1    1    2    0    0 -0.15241576879E+03 -0.15096840744E+03  0.16504605106E+03  0.29813960755E+03  0.12500000000E+03 0.  0.
         25    1    1    2    0    0  0.15241576879E+03  0.15096840744E+03  0.27370021712E+03  0.36953867926E+03  0.12500000000E+03 0.  0.
</event>
<event>
 4    0  0.2230743E-002  0.2369586E+03  0.7546771E-02  0.1121836E+00
         21   -1    0    0  502  501  0.00000000000E+00  0.00000000000E+00  0.16500622475E+03  0.16500622475E+03  0.00000000000E+00 0.  1.
         21   -1    0    0  501  502 -0.00000000000E+00 -0.00000000000E+00 -0.34028628395E+03  0.34028628395E+03  0.00000000000E+00 0.  1.
         25    1    1    2    0    0  0.94565372317E+02  0.11275497906E+03 -0.23409499594E+03  0.30344976861E+03  0.12500000000E+03 0.  0.
         25    1    1    2    0    0 -0.94565372317E+02 -0.11275497906E+03  0.58814936741E+02  0.20184274009E+03  0.12500000000E+03 0.  0.
</event>
<event>
 4    0  0.2230743E-002  0.2026129E+03  0.7546771E-02  0.1147553E+00
         21   -1    0    0  502  501  0.00000000000E+00  0.00000000000E+00  0.22610899152E+03  0.22610899152E+03  0.00000000000E+00 0.  1.
         21   -1    0    0  501  502 -0.00000000000E+00 -0.00000000000E+00 -0.18155846125E+03  0.18155846125E+03  0.00000000000E+00 0.  1.
         25    1    1    2    0    0  0.10228300075E+02  0.75699648992E+02  0.16308985805E+03  0.21922216307E+03  0.12500000000E+03 0.  0.
         25    1    1    2    0    0 -0.10228300075E+02 -0.75699648992E+02 -0.11853932778E+03  0.18844528970E+03  0.12500000000E+03 0.  0.
</event>
<event>
 4    0  0.2230743E-002  0.2128615E+03  0.7546771E-02  0.1139320E+00
         21   -1    0    0  502  501  0.00000000000E+00  0.00000000000E+00  0.37803982340E+03  0.37803982340E+03  0.00000000000E+00 0.  1.
         21   -1    0    0  501  502 -0.00000000000E+00 -0.00000000000E+00 -0.11985519400E+03  0.11985519400E+03  0.00000000000E+00 0.  1.
         25    1    1    2    0    0  0.38595525306E+02  0.12912992614E+03  0.25462403503E+03  0.31404227679E+03  0.12500000000E+03 0.  0.
         25    1    1    2    0    0 -0.38595525306E+02 -0.12912992614E+03  0.35605943813E+01  0.18385274061E+03  0.12500000000E+03 0.  0.
</event>
<event>
 4    0  0.2230743E-002  0.2268870E+03  0.7546771E-02  0.1128850E+00
         21   -1    0    0  502  501  0.00000000000E+00  0.00000000000E+00  0.32876235975E+03  0.32876235975E+03  0.00000000000E+00 0.  1.
         21   -1    0    0  501  502 -0.00000000000E+00 -0.00000000000E+00 -0.15658029307E+03  0.15658029307E+03  0.00000000000E+00 0.  1.
         25    1    1    2    0    0 -0.73689730142E+02 -0.17050808100E+03  0.46799473000E+02  0.22873209807E+03  0.12500000000E+03 0.  0.
         25    1    1    2    0    0  0.73689730142E+02  0.17050808100E+03  0.12538259367E+03  0.25661055475E+03  0.12500000000E+03 0.  0.
</event>
<event>
 4    0  0.2230743E-002  0.3115106E+03  0.7546771E-02  0.1079624E+00
         21   -1    0    0  502  501  0.00000000000E+00  0.00000000000E+00  0.76609041729E+03  0.76609041729E+03  0.00000000000E+00 0.  1.
         21   -1    0    0  501  502 -0.00000000000E+00 -0.00000000000E+00 -0.12666762420E+03  0.12666762420E+03  0.00000000000E+00 0.  1.
         25    1    1    2    0    0 -0.30159860717E+02 -0.81540887972E+02  0.70913461182E+03  0.72529678842E+03  0.12500000000E+03 0.  0.
         25    1    1    2    0    0  0.30159860717E+02  0.81540887972E+02 -0.69711818728E+02  0.16746125307E+03  0.12500000000E+03 0.  0.
</event>
<event>
 4    0  0.2230743E-002  0.2614007E+03  0.7546771E-02  0.1106305E+00
         21   -1    0    0  502  501  0.00000000000E+00  0.00000000000E+00  0.54175970651E+03  0.54175970651E+03  0.00000000000E+00 0. -1.
         21   -1    0    0  501  502 -0.00000000000E+00 -0.00000000000E+00 -0.12612666296E+03  0.12612666296E+03  0.00000000000E+00 0. -1.
         25    1    1    2    0    0  0.14145360055E+03 -0.18060710202E+03  0.19658474397E+03  0.32695352571E+03  0.12500000000E+03 0.  0.
         25    1    1    2    0    0 -0.14145360055E+03  0.18060710202E+03  0.21904829957E+03  0.34093284376E+03  0.12500000000E+03 0.  0.
</event>
<event>
 4    0  0.2230743E-002  0.2989534E+03  0.7546771E-02  0.1085765E+00
         21   -1    0    0  502  501  0.00000000000E+00  0.00000000000E+00  0.30298287803E+04  0.30298287803E+04  0.00000000000E+00 0. -1.
         21   -1    0    0  501  502 -0.00000000000E+00 -0.00000000000E+00 -0.29497756824E+02  0.29497756824E+02  0.00000000000E+00 0. -1.
         25    1    1    2    0    0  0.18440687160E+03 -0.83852982369E+02  0.57474572171E+03  0.62208911064E+03  0.12500000000E+03 0.  0.
         25    1    1    2    0    0 -0.18440687160E+03  0.83852982369E+02  0.24255853017E+04  0.24372374265E+04  0.12500000000E+03 0.  0.
</event>
<event>
 4    0  0.2230743E-002  0.2703761E+03  0.7546771E-02  0.1101065E+00
         21   -1    0    0  502  501  0.00000000000E+00  0.00000000000E+00  0.20038747968E+03  0.20038747968E+03  0.00000000000E+00 0.  1.
         21   -1    0    0  501  502 -0.00000000000E+00 -0.00000000000E+00 -0.36480932726E+03  0.36480932726E+03  0.00000000000E+00 0.  1.
         25    1    1    2    0    0 -0.12553346909E+03  0.14574773162E+03 -0.23177813563E+03  0.32610911868E+03  0.12500000000E+03 0.  0.
         25    1    1    2    0    0  0.12553346909E+03 -0.14574773162E+03  0.67356288049E+02  0.23908768825E+03  0.12500000000E+03 0.  0.
</event>
<event>
 4    0  0.2230743E-002  0.3076370E+03  0.7546771E-02  0.1081484E+00
         21   -1    0    0  502  501  0.00000000000E+00  0.00000000000E+00  0.14571539369E+03  0.14571539369E+03  0.00000000000E+00 0. -1.
         21   -1    0    0  501  502 -0.00000000000E+00 -0.00000000000E+00 -0.64948898329E+03  0.64948898329E+03  0.00000000000E+00 0. -1.
         25    1    1    2    0    0  0.27520680196E+02  0.25751363219E+03 -0.39314091628E+03  0.48708873797E+03  0.12500000000E+03 0.  0.
         25    1    1    2    0    0 -0.27520680196E+02 -0.25751363219E+03 -0.11063267333E+03  0.30811563902E+03  0.12500000000E+03 0.  0.
</event>
<event>
 4    0  0.2230743E-002  0.2052224E+03  0.7546771E-02  0.1145406E+00
         21   -1    0    0  502  501  0.00000000000E+00  0.00000000000E+00  0.16166760519E+03  0.16166760519E+03  0.00000000000E+00 0.  1.
         21   -1    0    0  501  502 -0.00000000000E+00 -0.00000000000E+00 -0.26051120364E+03  0.26051120364E+03  0.00000000000E+00 0.  1.
         25    1    1    2    0    0 -0.10695055445E+03 -0.10562508171E+03 -0.11362537223E+03  0.22612121572E+03  0.12500000000E+03 0.  0.
         25    1    1    2    0    0  0.10695055445E+03  0.10562508171E+03  0.14781773780E+02  0.19605759312E+03  0.12500000000E+03 0.  0.
</event>
<event>
 4    0  0.2230743E-002  0.2043541E+03  0.7546771E-02  0.1146117E+00
         21   -1    0    0  502  501  0.00000000000E+00  0.00000000000E+00  0.27522658194E+03  0.27522658194E+03  0.00000000000E+00 0.  1.
         21   -1    0    0  501  502 -0.00000000000E+00 -0.00000000000E+00 -0.15173175135E+03  0.15173175135E+03  0.00000000000E+00 0.  1.
         25    1    1    2    0    0  0.11746943264E+03  0.11106236703E+03  0.60387631230E+02  0.21308585824E+03  0.12500000000E+03 0.  0.
         25    1    1    2    0    0 -0.11746943264E+03 -0.11106236703E+03  0.63107199357E+02  0.21387247506E+03  0.12500000000E+03 0.  0.
</event>
<event>
 4    0  0.2230743E-002  0.2116647E+03  0.7546771E-02  0.1140254E+00
         21   -1    0    0  502  501  0.00000000000E+00  0.00000000000E+00  0.81938916752E+03  0.81938916752E+03  0.00000000000E+00 0. -1.
         21   -1    0    0  501  502 -0.00000000000E+00 -0.00000000000E+00 -0.54677233897E+02  0.54677233897E+02  0.00000000000E+00 0. -1.
         25    1    1    2    0    0  0.80151172848E+02 -0.38715122145E+02  0.68336877953E+03  0.70038629343E+03  0.12500000000E+03 0.  0.
         25    1    1    2    0    0 -0.80151172848E+02  0.38715122145E+02  0.81343154094E+02  0.17368010798E+03  0.12500000000E+03 0.  0.
</event>
<event>
 4    0  0.2230743E-002  0.1818297E+03  0.7546771E-02  0.1166044E+00
         21   -1    0    0  502  501  0.00000000000E+00  0.00000000000E+00  0.13577718455E+02  0.13577718455E+02  0.00000000000E+00 0.  1.
         21   -1    0    0  501  502 -0.00000000000E+00 -0.00000000000E+00 -0.24350204916E+04  0.24350204916E+04  0.00000000000E+00 0.  1.
         25    1    1    2    0    0 -0.74957850831E+02  0.97400373174E+02 -0.88560301062E+03  0.90278635596E+03  0.12500000000E+03 0.  0.
         25    1    1    2    0    0  0.74957850831E+02 -0.97400373174E+02 -0.15358397625E+04  0.15458118541E+04  0.12500000000E+03 0.  0.
</event>
<event>
 4    0  0.2230743E-002  0.1898851E+03  0.7546771E-02  0.1158565E+00
         21   -1    0    0  502  501  0.00000000000E+00  0.00000000000E+00  0.22258986037E+03  0.22258986037E+03  0.00000000000E+00 0.  1.
         21   -1    0    0  501  502 -0.00000000000E+00 -0.00000000000E+00 -0.16198551397E+03  0.16198551397E+03  0.00000000000E+00 0.  1.
         25    1    1    2    0    0  0.10423592138E+03  0.69669258412E+02  0.99817693017E+02  0.20324247763E+03  0.12500000000E+03 0.  0.
         25    1    1    2    0    0 -0.10423592138E+03 -0.69669258412E+02 -0.39213346618E+02  0.18133289670E+03  0.12500000000E+03 0.  0.
</event>
<event>
 4    0  0.2230743E-002  0.3041424E+03  0.7546771E-02  0.1083188E+00
         21   -1    0    0  502  501  0.00000000000E+00  0.00000000000E+00  0.11850061712E+03  0.11850061712E+03  0.00000000000E+00 0.  1.
         21   -1    0    0  501  502 -0.00000000000E+00 -0.00000000000E+00 -0.78060854252E+03  0.78060854252E+03  0.00000000000E+00 0.  1.
         25    1    1    2    0    0  0.16732636785E+03 -0.21047257402E+03 -0.23101365729E+03  0.37588446050E+03  0.12500000000E+03 0.  0.
         25    1    1    2    0    0 -0.16732636785E+03  0.21047257402E+03 -0.43109426811E+03  0.52322469914E+03  0.12500000000E+03 0.  0.
</event>
<event>
 4    0  0.2230743E-002  0.1847051E+03  0.7546771E-02  0.1163326E+00
         21   -1    0    0  502  501  0.00000000000E+00  0.00000000000E+00  0.55795630868E+02  0.55795630868E+02  0.00000000000E+00 0. -1.
         21   -1    0    0  501  502 -0.00000000000E+00 -0.00000000000E+00 -0.61144534853E+03  0.61144534853E+03  0.00000000000E+00 0. -1.
         25    1    1    2    0    0 -0.27330760639E+02  0.49513672877E+02 -0.54461625516E+02  0.14761315298E+03  0.12500000000E+03 0.  0.
         25    1    1    2    0    0  0.27330760639E+02 -0.49513672877E+02 -0.50118809214E+03  0.51962782641E+03  0.12500000000E+03 0.  0.
</event>
<event>
 4    0  0.2230743E-002  0.2529826E+03  0.7546771E-02  0.1111434E+00
         21   -1    0    0  502  501  0.00000000000E+00  0.00000000000E+00  0.32310864165E+02  0.32310864165E+02  0.00000000000E+00 0.  1.
         21   -1    0    0  501  502 -0.00000000000E+00 -0.00000000000E+00 -0.19807645626E+04  0.19807645626E+04  0.00000000000E+00 0.  1.
         25    1    1    2    0    0 -0.10395191501E+03  0.16158716986E+03 -0.14001281024E+04  0.14187671117E+04  0.12500000000E+03 0.  0.
         25    1    1    2    0    0  0.10395191501E+03 -0.16158716986E+03 -0.54832559610E+03  0.59430831513E+03  0.12500000000E+03 0.  0.
</event>
<event>
 4    0  0.2230743E-002  0.1618313E+03  0.7546771E-02  0.1186645E+00
         21   -1    0    0  502  501  0.00000000000E+00  0.00000000000E+00  0.15882083388E+03  0.15882083388E+03  0.00000000000E+00 0. -1.
         21   -1    0    0  501  502 -0.00000000000E+00 -0.00000000000E+00 -0.16489879575E+03  0.16489879575E+03  0.00000000000E+00 0. -1.
         25    1    1    2    0    0  0.10958413515E+02 -0.84786113601E+02  0.54028877023E+02  0.16078834360E+03  0.12500000000E+03 0.  0.
         25    1    1    2    0    0 -0.10958413515E+02  0.84786113601E+02 -0.60106838890E+02  0.16293128603E+03  0.12500000000E+03 0.  0.
</event>
<event>
 4    0  0.2230743E-002  0.1922040E+03  0.7546771E-02  0.1156488E+00
         21   -1    0    0  502  501  0.00000000000E+00  0.00000000000E+00  0.49427646021E+03  0.49427646021E+03  0.00000000000E+00 0. -1.
         21   -1    0    0  501  502 -0.00000000000E+00 -0.00000000000E+00 -0.74740325425E+02  0.74740325425E+02  0.00000000000E+00 0. -1.
         25    1    1    2    0    0  0.21924612709E+02 -0.10424357097E+03  0.35756982957E+03  0.39348264732E+03  0.12500000000E+03 0.  0.
         25    1    1    2    0    0 -0.21924612709E+02  0.10424357097E+03  0.61966305222E+02  0.17553413831E+03  0.12500000000E+03 0.  0.
</event>
<event>
 4    0  0.2230743E-002  0.1896394E+03  0.7546771E-02  0.1158787E+00
         21   -1    0    0  502  501  0.00000000000E+00  0.00000000000E+00  0.51464013271E+03  0.51464013271E+03  0.00000000000E+00 0.  1.
         21   -1    0    0  501  502 -0.00000000000E+00 -0.00000000000E+00 -0.69880063997E+02  0.69880063997E+02  0.00000000000E+00 0.  1.
         25    1    1    2    0    0 -0.12406083071E+02 -0.11664075309E+03  0.97375835128E+02  0.19714469165E+03  0.12500000000E+03 0.  0.
         25    1    1    2    0    0  0.12406083071E+02  0.11664075309E+03  0.34738423359E+03  0.38737550506E+03  0.12500000000E+03 0.  0.
</event>
<event>
 4    0  0.2230743E-002  0.2002129E+03  0.7546771E-02  0.1149560E+00
         21   -1    0    0  502  501  0.00000000000E+00  0.00000000000E+00  0.30739590469E+02  0.30739590469E+02  0.00000000000E+00 0.  1.
         21   -1    0    0  501  502 -0.00000000000E+00 -0.00000000000E+00 -0.13040252250E+04  0.13040252250E+04  0.00000000000E+00 0.  1.
         25    1    1    2    0    0  0.22324831250E+02 -0.80282611438E+02 -0.19547232638E+03  0.24653220108E+03  0.12500000000E+03 0.  0.
         25    1    1    2    0    0 -0.22324831250E+02  0.80282611438E+02 -0.10778133081E+04  0.10882326144E+04  0.12500000000E+03 0.  0.
</event>
<event>
 4    0  0.2230743E-002  0.2668668E+03  0.7546771E-02  0.1103086E+00
         21   -1    0    0  502  501  0.00000000000E+00  0.00000000000E+00  0.14890076003E+03  0.14890076003E+03  0.00000000000E+00 0.  1.
         21   -1    0    0  501  502 -0.00000000000E+00 -0.00000000000E+00 -0.47829108170E+03  0.47829108170E+03  0.00000000000E+00 0.  1.
         25    1    1    2    0    0 -0.29208632865E+02  0.17866620132E+03 -0.34220237989E+03  0.40681964620E+03  0.12500000000E+03 0.  0.
         25    1    1    2    0    0  0.29208632865E+02 -0.17866620132E+03  0.12812058230E+02  0.22037219553E+03  0.12500000000E+03 0.  0.
</event>
<event>
 4    0  0.2230743E-002  0.1700993E+03  0.7546771E-02  0.1177744E+00
         21   -1    0    0  502  501  0.00000000000E+00  0.00000000000E+00  0.10747705057E+03  0.10747705057E+03  0.00000000000E+00 0. -1.
         21   -1    0    0  501  502 -0.00000000000E+00 -0.00000000000E+00 -0.26920885312E+03  0.26920885312E+03  0.00000000000E+00 0. -1.
         25    1    1    2    0    0 -0.78253998167E+02  0.70974618608E+02 -0.13217950437E+03  0.21037468025E+03  0.12500000000E+03 0.  0.
         25    1    1    2    0    0  0.78253998167E+02 -0.70974618608E+02 -0.29552298179E+02  0.16631122344E+03  0.12500000000E+03 0.  0.
</event>
<event>
 4    0  0.2230743E-002  0.3404245E+03  0.7546771E-02  0.1066615E+00
         21   -1    0    0  502  501  0.00000000000E+00  0.00000000000E+00  0.10495983209E+04  0.10495983209E+04  0.00000000000E+00 0. -1.
         21   -1    0    0  501  502 -0.00000000000E+00 -0.00000000000E+00 -0.11041256652E+03  0.11041256652E+03  0.00000000000E+00 0.  1.
         25    1    1    2    0    0 -0.14403345629E+03  0.16674860895E+03  0.82146522641E+02  0.26631520103E+03  0.12500000000E+03 0.  0.
         25    1    1    2    0    0  0.14403345629E+03 -0.16674860895E+03  0.85703923173E+03  0.89369568637E+03  0.12500000000E+03 0.  0.
</event>
<event>
 4    0  0.2230743E-002  0.4088172E+03  0.7546771E-02  0.1040769E+00
         21   -1    0    0  502  501  0.00000000000E+00  0.00000000000E+00  0.61291050078E+03  0.61291050078E+03  0.00000000000E+00 0.  1.
         21   -1    0    0  501  502 -0.00000000000E+00 -0.00000000000E+00 -0.27268495913E+03  0.27268495913E+03  0.00000000000E+00 0.  1.
         25    1    1    2    0    0 -0.22649852200E+03  0.15459925559E+03  0.46930465904E+03  0.55774041749E+03  0.12500000000E+03 0.  0.
         25    1    1    2    0    0  0.22649852200E+03 -0.15459925559E+03 -0.12907911739E+03  0.32785504243E+03  0.12500000000E+03 0.  0.
</event>
<event>
 4    0  0.2230743E-002  0.2376574E+03  0.7546771E-02  0.1121363E+00
         21   -1    0    0  502  501  0.00000000000E+00  0.00000000000E+00  0.75100023439E+03  0.75100023439E+03  0.00000000000E+00 0.  1.
         21   -1    0    0  501  502 -0.00000000000E+00 -0.00000000000E+00 -0.75207761651E+02  0.75207761651E+02  0.00000000000E+00 0.  1.
         25    1    1    2    0    0 -0.18541800844E+03 -0.56124049685E+02  0.43814723938E+03  0.49510377719E+03  0.12500000000E+03 0.  0.
         25    1    1    2    0    0  0.18541800844E+03  0.56124049685E+02  0.23764523335E+03  0.33110421885E+03  0.12500000000E+03 0.  0.
</event>
<event>
 4    0  0.2230743E-002  0.1628179E+03  0.7546771E-02  0.1185552E+00
         21   -1    0    0  502  501  0.00000000000E+00  0.00000000000E+00  0.42256679270E+02  0.42256679270E+02  0.00000000000E+00 0.  1.
         21   -1    0    0  501  502 -0.00000000000E+00 -0.00000000000E+00 -0.62734844113E+03  0.62734844113E+03  0.00000000000E+00 0.  1.
         25    1    1    2    0    0  0.57725610416E+02 -0.84759329381E+02 -0.33200714011E+03  0.36928326675E+03  0.12500000000E+03 0.  0.
         25    1    1    2    0    0 -0.57725610416E+02  0.84759329381E+02 -0.25308462174E+03  0.30032185365E+03  0.12500000000E+03 0.  0.
</event>
<event>
 4    0  0.2230743E-002  0.3906672E+03  0.7546771E-02  0.1047060E+00
         21   -1    0    0  502  501  0.00000000000E+00  0.00000000000E+00  0.14427756783E+03  0.14427756783E+03  0.00000000000E+00 0.  1.
         21   -1    0    0  501  502 -0.00000000000E+00 -0.00000000000E+00 -0.10578281263E+04  0.10578281263E+04  0.00000000000E+00 0.  1.
         25    1    1    2    0    0 -0.10437916690E+03 -0.34513077080E+03 -0.58536547553E+03  0.69877607242E+03  0.12500000000E+03 0.  0.
         25    1    1    2    0    0  0.10437916690E+03  0.34513077080E+03 -0.32818508298E+03  0.50332962175E+03  0.12500000000E+03 0.  0.
</event>
<event>
 4    0  0.2230743E-002  0.2817100E+03  0.7546771E-02  0.1094759E+00
         21   -1    0    0  502  501  0.00000000000E+00  0.00000000000E+00  0.40994982768E+03  0.40994982768E+03  0.00000000000E+00 0.  1.
         21   -1    0    0  501  502 -0.00000000000E+00 -0.00000000000E+00 -0.19358595318E+03  0.19358595318E+03  0.00000000000E+00 0.  1.
         25    1    1    2    0    0  0.31807928885E+02 -0.24582575451E+03  0.15948206438E+03  0.32015867126E+03  0.12500000000E+03 0.  0.
         25    1    1    2    0    0 -0.31807928885E+02  0.24582575451E+03  0.56881810121E+02  0.28337710960E+03  0.12500000000E+03 0.  0.
</event>
<event>
 4    0  0.2230743E-002  0.1595233E+03  0.7546771E-02  0.1189236E+00
         21   -1    0    0  502  501  0.00000000000E+00  0.00000000000E+00  0.59409045501E+03  0.59409045501E+03  0.00000000000E+00 0. -1.
         21   -1    0    0  501  502 -0.00000000000E+00 -0.00000000000E+00 -0.42834711922E+02  0.42834711922E+02  0.00000000000E+00 0. -1.
         25    1    1    2    0    0 -0.41887508597E+02  0.89810708151E+02  0.27268923602E+03  0.31591920821E+03  0.12500000000E+03 0.  0.
         25    1    1    2    0    0  0.41887508597E+02 -0.89810708151E+02  0.27856650707E+03  0.32100595872E+03  0.12500000000E+03 0.  0.
</event>
<event>
 4    0  0.2230743E-002  0.1684433E+03  0.7546771E-02  0.1179481E+00
         21   -1    0    0  502  501  0.00000000000E+00  0.00000000000E+00  0.69052858047E+02  0.69052858047E+02  0.00000000000E+00 0. -1.
         21   -1    0    0  501  502 -0.00000000000E+00 -0.00000000000E+00 -0.41089016755E+03  0.41089016755E+03  0.00000000000E+00 0. -1.
         25    1    1    2    0    0  0.78041037486E+02 -0.32364460575E+02 -0.64210355314E+02  0.16396899576E+03  0.12500000000E+03 0.  0.
         25    1    1    2    0    0 -0.78041037486E+02  0.32364460575E+02 -0.27762695419E+03  0.31597402984E+03  0.12500000000E+03 0.  0.
</event>
<event>
 4    0  0.2230743E-002  0.1662365E+03  0.7546771E-02  0.1181830E+00
         21   -1    0    0  502  501  0.00000000000E+00  0.00000000000E+00  0.24183188071E+03  0.24183188071E+03  0.00000000000E+00 0.  1.
         21   -1    0    0  501  502 -0.00000000000E+00 -0.00000000000E+00 -0.11427189350E+03  0.11427189350E+03  0.00000000000E+00 0.  1.
         25    1    1    2    0    0  0.34558187977E+02 -0.97703360341E+02  0.25619451195E+02  0.16438239339E+03  0.12500000000E+03 0.  0.
         25    1    1    2    0    0 -0.34558187977E+02  0.97703360341E+02  0.10194053602E+03  0.19172138082E+03  0.12500000000E+03 0.  0.
</event>
<event>
 4    0  0.2230743E-002  0.2120609E+03  0.7546771E-02  0.1139944E+00
         21   -1    0    0  502  501  0.00000000000E+00  0.00000000000E+00  0.64002329846E+03  0.64002329846E+03  0.00000000000E+00 0. -1.
         21   -1    0    0  501  502 -0.00000000000E+00 -0.00000000000E+00 -0.70262770109E+02  0.70262770109E+02  0.00000000000E+00 0. -1.
         25    1    1    2    0    0  0.10155415088E+03  0.13794752297E+03  0.28727530961E+03  0.35706423535E+03  0.12500000000E+03 0.  0.
         25    1    1    2    0    0 -0.10155415088E+03 -0.13794752297E+03  0.28248521873E+03  0.35322183321E+03  0.12500000000E+03 0.  0.
</event>
<event>
 4    0  0.2230743E-002  0.2259599E+03  0.7546771E-02  0.1129516E+00
         21   -1    0    0  502  501  0.00000000000E+00  0.00000000000E+00  0.34493122277E+03  0.34493122277E+03  0.00000000000E+00 0.  1.
         21   -1    0    0  501  502 -0.00000000000E+00 -0.00000000000E+00 -0.14802341038E+03  0.14802341038E+03  0.00000000000E+00 0.  1.
         25    1    1    2    0    0  0.16474812964E+03  0.36899689992E+02  0.18925522244E+03  0.28274736526E+03  0.12500000000E+03 0.  0.
         25    1    1    2    0    0 -0.16474812964E+03 -0.36899689992E+02  0.76525899572E+01  0.21020726789E+03  0.12500000000E+03 0.  0.
</event>
<event>
 4    0  0.2230743E-002  0.2469157E+03  0.7546771E-02  0.1115270E+00
         21   -1    0    0  502  501  0.00000000000E+00  0.00000000000E+00  0.58453763325E+03  0.58453763325E+03  0.00000000000E+00 0.  1.
         21   -1    0    0  501  502 -0.00000000000E+00 -0.00000000000E+00 -0.10430010978E+03  0.10430010978E+03  0.00000000000E+00 0.  1.
         25    1    1    2    0    0  0.12315271210E+03  0.15671571931E+03  0.13558676550E+03  0.27154222168E+03  0.12500000000E+03 0.  0.
         25    1    1    2    0    0 -0.12315271210E+03 -0.15671571931E+03  0.34465075797E+03  0.41729552135E+03  0.12500000000E+03 0.  0.
</event>
<event>
 4    0  0.2230743E-002  0.2741442E+03  0.7546771E-02  0.1098931E+00
         21   -1    0    0  502  501  0.00000000000E+00  0.00000000000E+00  0.31344876618E+03  0.31344876618E+03  0.00000000000E+00 0. -1.
         21   -1    0    0  501  502 -0.00000000000E+00 -0.00000000000E+00 -0.23976813639E+03  0.23976813639E+03  0.00000000000E+00 0. -1.
         25    1    1    2    0    0 -0.72662598900E+01 -0.12515404778E+03  0.24803907095E+03  0.30473712430E+03  0.12500000000E+03 0.  0.
         25    1    1    2    0    0  0.72662598900E+01  0.12515404778E+03 -0.17435844116E+03  0.24847977827E+03  0.12500000000E+03 0.  0.
</event>
<event>
 4    0  0.2230743E-002  0.3141433E+03  0.7546771E-02  0.1078377E+00
         21   -1    0    0  502  501  0.00000000000E+00  0.00000000000E+00  0.67815501171E+02  0.67815501171E+02  0.00000000000E+00 0. -1.
         21   -1    0    0  501  502 -0.00000000000E+00 -0.00000000000E+00 -0.14552134125E+04  0.14552134125E+04  0.00000000000E+00 0.  1.
         25    1    1    2    0    0  0.36572400064E+02 -0.28349097802E+03 -0.60442259118E+03  0.68018846197E+03  0.12500000000E+03 0.  0.
         25    1    1    2    0    0 -0.36572400064E+02  0.28349097802E+03 -0.78297532018E+03  0.84284045174E+03  0.12500000000E+03 0.  0.
</event>
<event>
 4    0  0.2230743E-002  0.2232483E+03  0.7546771E-02  0.1131484E+00
         21   -1    0    0  502  501  0.00000000000E+00  0.00000000000E+00  0.18760505996E+03  0.18760505996E+03  0.00000000000E+00 0. -1.
         21   -1    0    0  501  502 -0.00000000000E+00 -0.00000000000E+00 -0.26566345440E+03  0.26566345440E+03  0.00000000000E+00 0. -1.
         25    1    1    2    0    0 -0.11959256931E+03 -0.43959675283E+02 -0.17515231514E+03  0.25007632672E+03  0.12500000000E+03 0.  0.
         25    1    1    2    0    0  0.11959256931E+03  0.43959675283E+02  0.97093920692E+02  0.20319218765E+03  0.12500000000E+03 0.  0.
</event>
<event>
 4    0  0.2230743E-002  0.2429850E+03  0.7546771E-02  0.1117820E+00
         21   -1    0    0  502  501  0.00000000000E+00  0.00000000000E+00  0.10802510903E+03  0.10802510903E+03  0.00000000000E+00 0. -1.
         21   -1    0    0  501  502 -0.00000000000E+00 -0.00000000000E+00 -0.54655553202E+03  0.54655553202E+03  0.00000000000E+00 0. -1.
         25    1    1    2    0    0  0.16244931558E+03 -0.11012277748E+03 -0.31355136460E+03  0.39045648220E+03  0.12500000000E+03 0.  0.
         25    1    1    2    0    0 -0.16244931558E+03  0.11012277748E+03 -0.12497905839E+03  0.26412415885E+03  0.12500000000E+03 0.  0.
</event>
<event>
 4    0  0.2230743E-002  0.2355725E+03  0.7546771E-02  0.1122778E+00
         21   -1    0    0  502  501  0.00000000000E+00  0.00000000000E+00  0.36472863131E+03  0.36472863131E+03  0.00000000000E+00 0.  1.
         21   -1    0    0  501  502 -0.00000000000E+00 -0.00000000000E+00 -0.15215256422E+03  0.15215256422E+03  0.00000000000E+00 0.  1.
         25    1    1    2    0    0 -0.13213262476E+03 -0.94593499069E+02 -0.21003053349E+02  0.20609000180E+03  0.12500000000E+03 0.  0.
         25    1    1    2    0    0  0.13213262476E+03  0.94593499069E+02  0.23357912044E+03  0.31079119373E+03  0.12500000000E+03 0.  0.
</event>
<event>
 4    0  0.2230743E-002  0.2433732E+03  0.7546771E-02  0.1117566E+00
         21   -1    0    0  502  501  0.00000000000E+00  0.00000000000E+00  0.62218471346E+03  0.62218471346E+03  0.00000000000E+00 0.  1.
         21   -1    0    0  501  502 -0.00000000000E+00 -0.00000000000E+00 -0.95197646576E+02  0.95197646576E+02  0.00000000000E+00 0.  1.
         25    1    1    2    0    0 -0.80508842655E+02  0.18868675144E+03  0.32097593153E+03  0.40091758821E+03  0.12500000000E+03 0.  0.
         25    1    1    2    0    0  0.80508842655E+02 -0.18868675144E+03  0.20601113535E+03  0.31646477182E+03  0.12500000000E+03 0.  0.
</event>
<event>
 4    0  0.2230743E-002  0.2467725E+03  0.7546771E-02  0.1115362E+00
         21   -1    0    0  502  501  0.00000000000E+00  0.00000000000E+00  0.21587055429E+02  0.21587055429E+02  0.00000000000E+00 0.  1.
         21   -1    0    0  501  502 -0.00000000000E+00 -0.00000000000E+00 -0.28209796779E+04  0.28209796779E+04  0.00000000000E+00 0.  1.
         25    1    1    2    0    0 -0.10635160379E+03 -0.18326673804E+03 -0.12882708378E+04  0.13115502706E+04  0.12500000000E+03 0.  0.
         25    1    1    2    0    0  0.10635160379E+03  0.18326673804E+03 -0.15111217847E+04  0.15310164627E+04  0.12500000000E+03 0.  0.
</event>
<event>
 4    0  0.2230743E-002  0.2015246E+03  0.7546771E-02  0.1148459E+00
         21   -1    0    0  502  501  0.00000000000E+00  0.00000000000E+00  0.15257101633E+03  0.15257101633E+03  0.00000000000E+00 0. -1.
         21   -1    0    0  501  502 -0.00000000000E+00 -0.00000000000E+00 -0.26618524392E+03  0.26618524392E+03  0.00000000000E+00 0. -1.
         25    1    1    2    0    0  0.13916371705E+03 -0.70772271166E+02 -0.82507702426E+02  0.21635104684E+03  0.12500000000E+03 0.  0.
         25    1    1    2    0    0 -0.13916371705E+03  0.70772271166E+02 -0.31106525166E+02  0.20240521341E+03  0.12500000000E+03 0.  0.
</event>
<event>
 4    0  0.2230743E-002  0.1869200E+03  0.7546771E-02  0.1161269E+00
         21   -1    0    0  502  501  0.00000000000E+00  0.00000000000E+00  0.13452029349E+03  0.13452029349E+03  0.00000000000E+00 0. -1.
         21   -1    0    0  501  502 -0.00000000000E+00 -0.00000000000E+00 -0.25973108420E+03  0.25973108420E+03  0.00000000000E+00 0. -1.
         25    1    1    2    0    0 -0.35179764240E+01  0.81543767048E+02  0.56018662553E+02  0.15945172516E+03  0.12500000000E+03 0.  0.
         25    1    1    2    0    0  0.35179764240E+01 -0.81543767048E+02 -0.18122945326E+03  0.23479965254E+03  0.12500000000E+03 0.  0.
</event>
<event>
 4    0  0.2230743E-002  0.3642158E+03  0.7546771E-02  0.1056927E+00
         21   -1    0    0  502  501  0.00000000000E+00  0.00000000000E+00  0.32012924599E+03  0.32012924599E+03  0.00000000000E+00 0. -1.
         21   -1    0    0  501  502 -0.00000000000E+00 -0.00000000000E+00 -0.41437382349E+03  0.41437382349E+03  0.00000000000E+00 0. -1.
         25    1    1    2    0    0  0.29675053805E+03  0.16254482770E+03  0.37609388346E+01  0.36072267396E+03  0.12500000000E+03 0.  0.
         25    1    1    2    0    0 -0.29675053805E+03 -0.16254482770E+03 -0.98005516331E+02  0.37378039552E+03  0.12500000000E+03 0.  0.
</event>
<event>
 4    0  0.2230743E-002  0.1648619E+03  0.7546771E-02  0.1183314E+00
         21   -1    0    0  502  501  0.00000000000E+00  0.00000000000E+00  0.47630563270E+02  0.47630563270E+02  0.00000000000E+00 0. -1.
         21   -1    0    0  501  502 -0.00000000000E+00 -0.00000000000E+00 -0.57063050402E+03  0.57063050402E+03  0.00000000000E+00 0. -1.
         25    1    1    2    0    0 -0.68478194752E+02 -0.25828304313E+02 -0.11387819732E+03  0.18425419476E+03  0.12500000000E+03 0.  0.
         25    1    1    2    0    0  0.68478194752E+02  0.25828304313E+02 -0.40912174342E+03  0.43400687253E+03  0.12500000000E+03 0.  0.
</event>
<event>
 4    0  0.2230743E-002  0.2772574E+03  0.7546771E-02  0.1097196E+00
         21   -1    0    0  502  501  0.00000000000E+00  0.00000000000E+00  0.98738720698E+03  0.98738720698E+03  0.00000000000E+00 0.  1.
         21   -1    0    0  501  502 -0.00000000000E+00 -0.00000000000E+00 -0.77853617978E+02  0.77853617978E+02  0.00000000000E+00 0.  1.
         25    1    1    2    0    0 -0.16986816083E+03 -0.17572916649E+03  0.52943379687E+03  0.59637327010E+03  0.12500000000E+03 0.  0.
         25    1    1    2    0    0  0.16986816083E+03  0.17572916649E+03  0.38009979213E+03  0.46886755486E+03  0.12500000000E+03 0.  0.
</event>
<event>
 4    0  0.2230743E-002  0.2520436E+03  0.7546771E-02  0.1112020E+00
         21   -1    0    0  502  501  0.00000000000E+00  0.00000000000E+00  0.67939314447E+02  0.67939314447E+02  0.00000000000E+00 0. -1.
         21   -1    0    0  501  502 -0.00000000000E+00 -0.00000000000E+00 -0.93504029185E+03  0.93504029185E+03  0.00000000000E+00 0. -1.
         25    1    1    2    0    0  0.16915808580E+03  0.93743630529E+02 -0.22968040104E+03  0.32523900885E+03  0.12500000000E+03 0.  0.
         25    1    1    2    0    0 -0.16915808580E+03 -0.93743630529E+02 -0.63742057636E+03  0.67774059745E+03  0.12500000000E+03 0.  0.
</event>
<event>
 4    0  0.2230743E-002  0.2127392E+03  0.7546771E-02  0.1139415E+00
         21   -1    0    0  502  501  0.00000000000E+00  0.00000000000E+00  0.61000159600E+03  0.61000159600E+03  0.00000000000E+00 0.  1.
         21   -1    0    0  501  502 -0.00000000000E+00 -0.00000000000E+00 -0.74193189225E+02  0.74193189225E+02  0.00000000000E+00 0.  1.
         25    1    1    2    0    0  0.61810904708E+01 -0.16468982497E+03  0.18795241075E+03  0.27948533599E+03  0.12500000000E+03 0.  0.
         25    1    1    2    0    0 -0.61810904708E+01  0.16468982497E+03  0.34785599602E+03  0.40470944923E+03  0.12500000000E+03 0.  0.
</event>
<event>
 4    0  0.2230743E-002  0.3371841E+03  0.7546771E-02  0.1068002E+00
         21   -1    0    0  502  501  0.00000000000E+00  0.00000000000E+00  0.45539927473E+03  0.45539927473E+03  0.00000000000E+00 0. -1.
         21   -1    0    0  501  502 -0.00000000000E+00 -0.00000000000E+00 -0.24965590853E+03  0.24965590853E+03  0.00000000000E+00 0. -1.
         25    1    1    2    0    0 -0.15169037408E+03 -0.25726967655E+03  0.20134060470E+03  0.38126197707E+03  0.12500000000E+03 0.  0.
         25    1    1    2    0    0  0.15169037408E+03  0.25726967655E+03  0.44027614973E+01  0.32379320618E+03  0.12500000000E+03 0.  0.
</event>
<event>
 4    0  0.2230743E-002  0.2781366E+03  0.7546771E-02  0.1096711E+00
         21   -1    0    0  502  501  0.00000000000E+00  0.00000000000E+00  0.10255183936E+03  0.10255183936E+03  0.00000000000E+00 0.  1.
         21   -1    0    0  501  502 -0.00000000000E+00 -0.00000000000E+00 -0.75435005070E+03  0.75435005070E+03  0.00000000000E+00 0.  1.
         25    1    1    2    0    0 -0.58567178488E+02 -0.30384567912E+02 -0.69490170701E+03  0.70913096024E+03  0.12500000000E+03 0.  0.
         25    1    1    2    0    0  0.58567178488E+02  0.30384567912E+02  0.43103495667E+02  0.14777092983E+03  0.12500000000E+03 0.  0.
</event>
<event>
 4    0  0.2230743E-002  0.2722821E+03  0.7546771E-02  0.1099981E+00
         21   -1    0    0  502  501  0.00000000000E+00  0.00000000000E+00  0.61362202612E+03  0.61362202612E+03  0.00000000000E+00 0.  1.
         21   -1    0    0  501  502 -0.00000000000E+00 -0.00000000000E+00 -0.12081958601E+03  0.12081958601E+03  0.00000000000E+00 0.  1.
         25    1    1    2    0    0  0.52496291634E+01  0.16174712299E+03  0.39283867815E+01  0.20452413703E+03  0.12500000000E+03 0.  0.
         25    1    1    2    0    0 -0.52496291634E+01 -0.16174712299E+03  0.48887405333E+03  0.52991747510E+03  0.12500000000E+03 0.  0.
</event>
<event>
 4    0  0.2230743E-002  0.2376228E+03  0.7546771E-02  0.1121387E+00
         21   -1    0    0  502  501  0.00000000000E+00  0.00000000000E+00  0.55426492878E+03  0.55426492878E+03  0.00000000000E+00 0.  1.
         21   -1    0    0  501  502 -0.00000000000E+00 -0.00000000000E+00 -0.10187292007E+03  0.10187292007E+03  0.00000000000E+00 0.  1.
         25    1    1    2    0    0  0.18660677266E+03  0.65086949898E+02  0.16792776239E+03  0.28789430705E+03  0.12500000000E+03 0.  0.
         25    1    1    2    0    0 -0.18660677266E+03 -0.65086949898E+02  0.28446424632E+03  0.36824354181E+03  0.12500000000E+03 0.  0.
</event>
<event>
 4    0  0.2230743E-002  0.2503380E+03  0.7546771E-02  0.1113091E+00
         21   -1    0    0  502  501  0.00000000000E+00  0.00000000000E+00  0.83143384349E+02  0.83143384349E+02  0.00000000000E+00 0. -1.
         21   -1    0    0  501  502 -0.00000000000E+00 -0.00000000000E+00 -0.75374724928E+03  0.75374724928E+03  0.00000000000E+00 0.  1.
         25    1    1    2    0    0 -0.47088200945E+02  0.15301810377E+03 -0.57989448605E+03  0.61443832376E+03  0.12500000000E+03 0.  0.
         25    1    1    2    0    0  0.47088200945E+02 -0.15301810377E+03 -0.90709378881E+02  0.22245230987E+03  0.12500000000E+03 0.  0.
</event>
<event>
 4    0  0.2230743E-002  0.2401202E+03  0.7546771E-02  0.1119713E+00
         21   -1    0    0  502  501  0.00000000000E+00  0.00000000000E+00  0.21876103021E+03  0.21876103021E+03  0.00000000000E+00 0.  1.
         21   -1    0    0  501  502 -0.00000000000E+00 -0.00000000000E+00 -0.26356483038E+03  0.26356483038E+03  0.00000000000E+00 0.  1.
         25    1    1    2    0    0  0.20594902615E+02 -0.18987063961E+03 -0.97275644108E+02  0.24811803791E+03  0.12500000000E+03 0.  0.
         25    1    1    2    0    0 -0.20594902615E+02  0.18987063961E+03  0.52471843937E+02  0.23420782268E+03  0.12500000000E+03 0.  0.
</event>
<event>
 4    0  0.2230743E-002  0.2515509E+03  0.7546771E-02  0.1112329E+00
         21   -1    0    0  502  501  0.00000000000E+00  0.00000000000E+00  0.90433464520E+03  0.90433464520E+03  0.00000000000E+00 0.  1.
         21   -1    0    0  501  502 -0.00000000000E+00 -0.00000000000E+00 -0.69971719054E+02  0.69971719054E+02  0.00000000000E+00 0.  1.
         25    1    1    2    0    0 -0.21371728196E+03 -0.40690785420E+02  0.38242865185E+03  0.45739205326E+03  0.12500000000E+03 0.  0.
         25    1    1    2    0    0  0.21371728196E+03  0.40690785420E+02  0.45193427430E+03  0.51691431100E+03  0.12500000000E+03 0.  0.
</event>
<event>
 4    0  0.2230743E-002  0.2142051E+03  0.7546771E-02  0.1138279E+00
         21   -1    0    0  502  501  0.00000000000E+00  0.00000000000E+00  0.39605761474E+02  0.39605761474E+02  0.00000000000E+00 0.  1.
         21   -1    0    0  501  502 -0.00000000000E+00 -0.00000000000E+00 -0.11585134281E+04  0.11585134281E+04  0.00000000000E+00 0.  1.
         25    1    1    2    0    0 -0.49746889711E+02 -0.10265263761E+03 -0.19217942971E+03  0.25606688628E+03  0.12500000000E+03 0.  0.
         25    1    1    2    0    0  0.49746889711E+02  0.10265263761E+03 -0.92672823692E+03  0.94205230330E+03  0.12500000000E+03 0.  0.
</event>
<event>
 4    0  0.2230743E-002  0.2856930E+03  0.7546771E-02  0.1092620E+00
         21   -1    0    0  502  501  0.00000000000E+00  0.00000000000E+00  0.25935537347E+03  0.25935537347E+03  0.00000000000E+00 0. -1.
         21   -1    0    0  501  502 -0.00000000000E+00 -0.00000000000E+00 -0.31470526043E+03  0.31470526043E+03  0.00000000000E+00 0. -1.
         25    1    1    2    0    0 -0.94422867544E+02 -0.16655131816E+03 -0.19976736981E+03  0.30362315712E+03  0.12500000000E+03 0.  0.
         25    1    1    2    0    0  0.94422867544E+02  0.16655131816E+03  0.14441748286E+03  0.27043747678E+03  0.12500000000E+03 0.  0.
</event>
<event>
 4    0  0.2230743E-002  0.1497516E+03  0.7546771E-02  0.1200779E+00
         21   -1    0    0  502  501  0.00000000000E+00  0.00000000000E+00  0.32247072911E+03  0.32247072911E+03  0.00000000000E+00 0. -1.
         21   -1    0    0  501  502 -0.00000000000E+00 -0.00000000000E+00 -0.69542843993E+02  0.69542843993E+02  0.00000000000E+00 0. -1.
         25    1    1    2    0    0  0.39306639779E+02  0.69772600844E+02  0.15222274337E+03  0.21262641265E+03  0.12500000000E+03 0.  0.
         25    1    1    2    0    0 -0.39306639779E+02 -0.69772600844E+02  0.10070514175E+03  0.17938716045E+03  0.12500000000E+03 0.  0.
</event>
<event>
 4    0  0.2230743E-002  0.2470384E+03  0.7546771E-02  0.1115191E+00
         21   -1    0    0  502  501  0.00000000000E+00  0.00000000000E+00  0.35165615394E+02  0.35165615394E+02  0.00000000000E+00 0.  1.
         21   -1    0    0  501  502 -0.00000000000E+00 -0.00000000000E+00 -0.17354446031E+04  0.17354446031E+04  0.00000000000E+00 0. -1.
         25    1    1    2    0    0  0.16676714942E+02 -0.16455407079E+03 -0.13315647326E+04  0.13476074325E+04  0.12500000000E+03 0.  0.
         25    1    1    2    0    0 -0.16676714942E+02  0.16455407079E+03 -0.36871425510E+03  0.42300278598E+03  0.12500000000E+03 0.  0.
</event>
<event>
 4    0  0.2230743E-002  0.2047777E+03  0.7546771E-02  0.1145770E+00
         21   -1    0    0  502  501  0.00000000000E+00  0.00000000000E+00  0.37462372598E+03  0.37462372598E+03  0.00000000000E+00 0.  1.
         21   -1    0    0  501  502 -0.00000000000E+00 -0.00000000000E+00 -0.11193602560E+03  0.11193602560E+03  0.00000000000E+00 0.  1.
         25    1    1    2    0    0 -0.43245597476E+02  0.91651523886E+02  0.28179942610E+03  0.32450901387E+03  0.12500000000E+03 0.  0.
         25    1    1    2    0    0  0.43245597476E+02 -0.91651523886E+02 -0.19111725724E+02  0.16205073771E+03  0.12500000000E+03 0.  0.
</event>
<event>
 4    0  0.2230743E-002  0.2612800E+03  0.7546771E-02  0.1106377E+00
         21   -1    0    0  502  501  0.00000000000E+00  0.00000000000E+00  0.22523321250E+03  0.22523321250E+03  0.00000000000E+00 0. -1.
         21   -1    0    0  501  502 -0.00000000000E+00 -0.00000000000E+00 -0.30309579552E+03  0.30309579552E+03  0.00000000000E+00 0. -1.
         25    1    1    2    0    0  0.89784306006E+02  0.12715359450E+03 -0.20935369800E+03  0.28928053696E+03  0.12500000000E+03 0.  0.
         25    1    1    2    0    0 -0.89784306006E+02 -0.12715359450E+03  0.13149111498E+03  0.23904847106E+03  0.12500000000E+03 0.  0.
</event>
<event>
 4    0  0.2230743E-002  0.2354718E+03  0.7546771E-02  0.1122847E+00
         21   -1    0    0  502  501  0.00000000000E+00  0.00000000000E+00  0.33048513338E+03  0.33048513338E+03  0.00000000000E+00 0. -1.
         21   -1    0    0  501  502 -0.00000000000E+00 -0.00000000000E+00 -0.16777443839E+03  0.16777443839E+03  0.00000000000E+00 0. -1.
         25    1    1    2    0    0 -0.17651509240E+03 -0.89392203213E+02  0.53899945792E+02  0.24016400229E+03  0.12500000000E+03 0.  0.
         25    1    1    2    0    0  0.17651509240E+03  0.89392203213E+02  0.10881074920E+03  0.25809556947E+03  0.12500000000E+03 0.  0.
</event>
<event>
 4    0  0.2230743E-002  0.1817677E+03  0.7546771E-02  0.1166103E+00
         21   -1    0    0  502  501  0.00000000000E+00  0.00000000000E+00  0.10888523281E+03  0.10888523281E+03  0.00000000000E+00 0.  1.
         21   -1    0    0  501  502 -0.00000000000E+00 -0.00000000000E+00 -0.30343423375E+03  0.30343423375E+03  0.00000000000E+00 0.  1.
         25    1    1    2    0    0  0.10681319030E+03 -0.20918669241E+02 -0.12643169402E+02  0.16622724830E+03  0.12500000000E+03 0.  0.
         25    1    1    2    0    0 -0.10681319030E+03  0.20918669241E+02 -0.18190583154E+03  0.24609221827E+03  0.12500000000E+03 0.  0.
</event>
<event>
 4    0  0.2230743E-002  0.2043281E+03  0.7546771E-02  0.1146138E+00
         21   -1    0    0  502  501  0.00000000000E+00  0.00000000000E+00  0.15071756656E+04  0.15071756656E+04  0.00000000000E+00 0.  1.
         21   -1    0    0  501  502 -0.00000000000E+00 -0.00000000000E+00 -0.27700811225E+02  0.27700811225E+02  0.00000000000E+00 0.  1.
         25    1    1    2    0    0 -0.13870400591E+03  0.36901474293E+02  0.46057272412E+03  0.49835003187E+03  0.12500000000E+03 0.  0.
         25    1    1    2    0    0  0.13870400591E+03 -0.36901474293E+02  0.10189021303E+04  0.10365264450E+04  0.12500000000E+03 0.  0.
</event>
<event>
 4    0  0.2230743E-002  0.2169595E+03  0.7546771E-02  0.1136170E+00
         21   -1    0    0  502  501  0.00000000000E+00  0.00000000000E+00  0.13835114488E+03  0.13835114488E+03  0.00000000000E+00 0. -1.
         21   -1    0    0  501  502 -0.00000000000E+00 -0.00000000000E+00 -0.34023161114E+03  0.34023161114E+03  0.00000000000E+00 0. -1.
         25    1    1    2    0    0  0.28514971765E+02 -0.83739544820E+02  0.68570673185E+02  0.16778662701E+03  0.12500000000E+03 0.  0.
         25    1    1    2    0    0 -0.28514971765E+02  0.83739544820E+02 -0.27045113944E+03  0.31079612901E+03  0.12500000000E+03 0.  0.
</event>
<event>
 4    0  0.2230743E-002  0.1918614E+03  0.7546771E-02  0.1156793E+00
         21   -1    0    0  502  501  0.00000000000E+00  0.00000000000E+00  0.18166433959E+03  0.18166433959E+03  0.00000000000E+00 0. -1.
         21   -1    0    0  501  502 -0.00000000000E+00 -0.00000000000E+00 -0.20263084744E+03  0.20263084744E+03  0.00000000000E+00 0. -1.
         25    1    1    2    0    0  0.61586209298E+02 -0.12975593491E+03 -0.34105197140E+02  0.19343636755E+03  0.12500000000E+03 0.  0.
         25    1    1    2    0    0 -0.61586209298E+02  0.12975593491E+03  0.13138689292E+02  0.19085881949E+03  0.12500000000E+03 0.  0.
</event>
<event>
 4    0  0.2230743E-002  0.2302081E+03  0.7546771E-02  0.1126493E+00
         21   -1    0    0  502  501  0.00000000000E+00  0.00000000000E+00  0.94118629861E+02  0.94118629861E+02  0.00000000000E+00 0. -1.
         21   -1    0    0  501  502 -0.00000000000E+00 -0.00000000000E+00 -0.56307415868E+03  0.56307415868E+03  0.00000000000E+00 0. -1.
         25    1    1    2    0    0 -0.57283251957E+02 -0.96067660863E+02 -0.45953670480E+03  0.48919254847E+03  0.12500000000E+03 0.  0.
         25    1    1    2    0    0  0.57283251957E+02  0.96067660863E+02 -0.94188240185E+01  0.16800024007E+03  0.12500000000E+03 0.  0.
</event>
<event>
 4    0  0.2230743E-002  0.1676092E+03  0.7546771E-02  0.1180364E+00
         21   -1    0    0  502  501  0.00000000000E+00  0.00000000000E+00  0.26797030194E+03  0.26797030194E+03  0.00000000000E+00 0.  1.
         21   -1    0    0  501  502 -0.00000000000E+00 -0.00000000000E+00 -0.10483572122E+03  0.10483572122E+03  0.00000000000E+00 0.  1.
         25    1    1    2    0    0  0.13971436932E+02  0.87460989720E+02  0.59488195840E+01  0.15331345090E+03  0.12500000000E+03 0.  0.
         25    1    1    2    0    0 -0.13971436932E+02 -0.87460989720E+02  0.15718576114E+03  0.21949257226E+03  0.12500000000E+03 0.  0.
</event>
<event>
 4    0  0.2230743E-002  0.2422422E+03  0.7546771E-02  0.1118308E+00
         21   -1    0    0  502  501  0.00000000000E+00  0.00000000000E+00  0.90393357071E+03  0.90393357071E+03  0.00000000000E+00 0. -1.
         21   -1    0    0  501  502 -0.00000000000E+00 -0.00000000000E+00 -0.64917712226E+02  0.64917712226E+02  0.00000000000E+00 0. -1.
         25    1    1    2    0    0  0.11914176245E+03  0.15080150935E+03  0.26306038561E+03  0.34894357890E+03  0.12500000000E+03 0.  0.
         25    1    1    2    0    0 -0.11914176245E+03 -0.15080150935E+03  0.57595547288E+03  0.61990770404E+03  0.12500000000E+03 0.  0.
</event>
<event>
 4    0  0.2230743E-002  0.1859780E+03  0.7546771E-02  0.1162140E+00
         21   -1    0    0  502  501  0.00000000000E+00  0.00000000000E+00  0.71773660553E+03  0.71773660553E+03  0.00000000000E+00 0. -1.
         21   -1    0    0  501  502 -0.00000000000E+00 -0.00000000000E+00 -0.48190148816E+02  0.48190148816E+02  0.00000000000E+00 0. -1.
         25    1    1    2    0    0  0.11759250395E+03  0.15537176979E+02  0.19072683641E+03  0.25704304500E+03  0.12500000000E+03 0.  0.
         25    1    1    2    0    0 -0.11759250395E+03 -0.15537176979E+02  0.47881962030E+03  0.50888370935E+03  0.12500000000E+03 0.  0.
</event>
<event>
 4    0  0.2230743E-002  0.1825658E+03  0.7546771E-02  0.1165343E+00
         21   -1    0    0  502  501  0.00000000000E+00  0.00000000000E+00  0.33031053847E+03  0.33031053847E+03  0.00000000000E+00 0.  1.
         21   -1    0    0  501  502 -0.00000000000E+00 -0.00000000000E+00 -0.10090590667E+03  0.10090590667E+03  0.00000000000E+00 0.  1.
         25    1    1    2    0    0 -0.25202303244E+02  0.12024196083E+03  0.17505996617E+03  0.24771814020E+03  0.12500000000E+03 0.  0.
         25    1    1    2    0    0  0.25202303244E+02 -0.12024196083E+03  0.54344665625E+02  0.18349830494E+03  0.12500000000E+03 0.  0.
</event>
<event>
 4    0  0.2230743E-002  0.2458423E+03  0.7546771E-02  0.1115961E+00
         21   -1    0    0  502  501  0.00000000000E+00  0.00000000000E+00  0.24374335172E+02  0.24374335172E+02  0.00000000000E+00 0.  1.
         21   -1    0    0  501  502 -0.00000000000E+00 -0.00000000000E+00 -0.24795927749E+04  0.24795927749E+04  0.00000000000E+00 0.  1.
         25    1    1    2    0    0 -0.77245924098E+02 -0.11181837650E+01 -0.22313255060E+04  0.22361589158E+04  0.12500000000E+03 0.  0.
         25    1    1    2    0    0  0.77245924098E+02  0.11181837650E+01 -0.22389293367E+03  0.26780819419E+03  0.12500000000E+03 0.  0.
</event>
<event>
 4    0  0.2230743E-002  0.1816949E+03  0.7546771E-02  0.1166173E+00
         21   -1    0    0  502  501  0.00000000000E+00  0.00000000000E+00  0.19750751047E+04  0.19750751047E+04  0.00000000000E+00 0.  1.
         21   -1    0    0  501  502 -0.00000000000E+00 -0.00000000000E+00 -0.16714823948E+02  0.16714823948E+02  0.00000000000E+00 0.  1.
         25    1    1    2    0    0 -0.97947478905E+02  0.88171371716E+02  0.95458622355E+03  0.97171382495E+03  0.12500000000E+03 0.  0.
         25    1    1    2    0    0  0.97947478905E+02 -0.88171371716E+02  0.10037740572E+04  0.10200761037E+04  0.12500000000E+03 0.  0.
</event>
<event>
 4    0  0.2230743E-002  0.2025488E+03  0.7546771E-02  0.1147606E+00
         21   -1    0    0  502  501  0.00000000000E+00  0.00000000000E+00  0.14194377637E+04  0.14194377637E+04  0.00000000000E+00 0. -1.
         21   -1    0    0  501  502 -0.00000000000E+00 -0.00000000000E+00 -0.28903000319E+02  0.28903000319E+02  0.00000000000E+00 0.  1.
         25    1    1    2    0    0 -0.11325890988E+02 -0.15824721920E+03  0.74955434039E+03  0.77629064620E+03  0.12500000000E+03 0.  0.
         25    1    1    2    0    0  0.11325890988E+02  0.15824721920E+03  0.64098042299E+03  0.67205011781E+03  0.12500000000E+03 0.  0.
</event>
<event>
 4    0  0.2230743E-002  0.3133053E+03  0.7546771E-02  0.1078772E+00
         21   -1    0    0  502  501  0.00000000000E+00  0.00000000000E+00  0.75698514739E+03  0.75698514739E+03  0.00000000000E+00 0. -1.
         21   -1    0    0  501  502 -0.00000000000E+00 -0.00000000000E+00 -0.12967258171E+03  0.12967258171E+03  0.00000000000E+00 0. -1.
         25    1    1    2    0    0  0.22585652896E+03  0.21075091917E+02  0.64197977544E+02  0.26683648831E+03  0.12500000000E+03 0.  0.
         25    1    1    2    0    0 -0.22585652896E+03 -0.21075091917E+02  0.56311458813E+03  0.61982124079E+03  0.12500000000E+03 0.  0.
</event>
<event>
 4    0  0.2230743E-002  0.2267907E+03  0.7546771E-02  0.1128919E+00
         21   -1    0    0  502  501  0.00000000000E+00  0.00000000000E+00  0.32449821784E+02  0.32449821784E+02  0.00000000000E+00 0. -1.
         21   -1    0    0  501  502 -0.00000000000E+00 -0.00000000000E+00 -0.15850330868E+04  0.15850330868E+04  0.00000000000E+00 0. -1.
         25    1    1    2    0    0 -0.69963566890E+02  0.14156121346E+03 -0.11481609049E+04  0.11656898993E+04  0.12500000000E+03 0.  0.
         25    1    1    2    0    0  0.69963566890E+02 -0.14156121346E+03 -0.40442236007E+03  0.45179300921E+03  0.12500000000E+03 0.  0.
</event>
<event>
 4    0  0.2230743E-002  0.1901879E+03  0.7546771E-02  0.1158292E+00
         21   -1    0    0  502  501  0.00000000000E+00  0.00000000000E+00  0.21807060550E+03  0.21807060550E+03  0.00000000000E+00 0. -1.
         21   -1    0    0  501  502 -0.00000000000E+00 -0.00000000000E+00 -0.16587025286E+03  0.16587025286E+03  0.00000000000E+00 0. -1.
         25    1    1    2    0    0 -0.26658654593E+02  0.11840470152E+03  0.10307811952E+03  0.20243630092E+03  0.12500000000E+03 0.  0.
         25    1    1    2    0    0  0.26658654593E+02 -0.11840470152E+03 -0.50877766878E+02  0.18150455744E+03  0.12500000000E+03 0.  0.
</event>
<event>
 4    0  0.2230743E-002  0.6847468E+03  0.7546771E-02  0.9743679E-01
         21   -1    0    0  502  501  0.00000000000E+00  0.00000000000E+00  0.26609971521E+04  0.26609971521E+04  0.00000000000E+00 0. -1.
         21   -1    0    0  501  502 -0.00000000000E+00 -0.00000000000E+00 -0.17620392103E+03  0.17620392103E+03  0.00000000000E+00 0.  1.
         25    1    1    2    0    0  0.49371740587E+03  0.10553528497E+03  0.21650861672E+04  0.22266831128E+04  0.12500000000E+03 0.  0.
         25    1    1    2    0    0 -0.49371740587E+03 -0.10553528497E+03  0.31970706384E+03  0.61051796034E+03  0.12500000000E+03 0.  0.
</event>
<event>
 4    0  0.2230743E-002  0.2065435E+03  0.7546771E-02  0.1144333E+00
         21   -1    0    0  502  501  0.00000000000E+00  0.00000000000E+00  0.45084291393E+02  0.45084291393E+02  0.00000000000E+00 0.  1.
         21   -1    0    0  501  502 -0.00000000000E+00 -0.00000000000E+00 -0.94623232910E+03  0.94623232910E+03  0.00000000000E+00 0.  1.
         25    1    1    2    0    0 -0.60999946070E+02 -0.80998786085E+02 -0.76118912987E+03  0.77802036490E+03  0.12500000000E+03 0.  0.
         25    1    1    2    0    0  0.60999946070E+02  0.80998786085E+02 -0.13995890784E+03  0.21329625560E+03  0.12500000000E+03 0.  0.
</event>
<event>
 4    0  0.2230743E-002  0.1770762E+03  0.7546771E-02  0.1170663E+00
         21   -1    0    0  502  501  0.00000000000E+00  0.00000000000E+00  0.50173280493E+03  0.50173280493E+03  0.00000000000E+00 0. -1.
         21   -1    0    0  501  502 -0.00000000000E+00 -0.00000000000E+00 -0.62495395186E+02  0.62495395186E+02  0.00000000000E+00 0. -1.
         25    1    1    2    0    0  0.95943363542E+02 -0.68365909427E+02  0.15105713903E+03  0.22874065190E+03  0.12500000000E+03 0.  0.
         25    1    1    2    0    0 -0.95943363542E+02  0.68365909427E+02  0.28818027071E+03  0.33548754821E+03  0.12500000000E+03 0.  0.
</event>
<event>
 4    0  0.2230743E-002  0.2401359E+03  0.7546771E-02  0.1119702E+00
         21   -1    0    0  502  501  0.00000000000E+00  0.00000000000E+00  0.28465308019E+03  0.28465308019E+03  0.00000000000E+00 0. -1.
         21   -1    0    0  501  502 -0.00000000000E+00 -0.00000000000E+00 -0.20258078468E+03  0.20258078468E+03  0.00000000000E+00 0. -1.
         25    1    1    2    0    0 -0.17704353611E+03 -0.98703832764E+02  0.72360662126E+02  0.24889340229E+03  0.12500000000E+03 0.  0.
         25    1    1    2    0    0  0.17704353611E+03  0.98703832764E+02  0.97116333770E+01  0.23834046258E+03  0.12500000000E+03 0.  0.
</event>
<event>
 4    0  0.2230743E-002  0.1768177E+03  0.7546771E-02  0.1170919E+00
         21   -1    0    0  502  501  0.00000000000E+00  0.00000000000E+00  0.68248720555E+03  0.68248720555E+03  0.00000000000E+00 0.  1.
         21   -1    0    0  501  502 -0.00000000000E+00 -0.00000000000E+00 -0.45809657711E+02  0.45809657711E+02  0.00000000000E+00 0.  1.
         25    1    1    2    0    0  0.19336785946E+02 -0.44617006180E+02  0.55562283488E+03  0.57158229781E+03  0.12500000000E+03 0.  0.
         25    1    1    2    0    0 -0.19336785946E+02  0.44617006180E+02  0.81054712957E+02  0.15671456545E+03  0.12500000000E+03 0.  0.
</event>
<event>
 4    0  0.2230743E-002  0.2806459E+03  0.7546771E-02  0.1095337E+00
         21   -1    0    0  502  501  0.00000000000E+00  0.00000000000E+00  0.99830467323E+03  0.99830467323E+03  0.00000000000E+00 0.  1.
         21   -1    0    0  501  502 -0.00000000000E+00 -0.00000000000E+00 -0.78895875992E+02  0.78895875992E+02  0.00000000000E+00 0.  1.
         25    1    1    2    0    0  0.20025461413E+03  0.14674844189E+03  0.38537359223E+03  0.47515768042E+03  0.12500000000E+03 0.  0.
         25    1    1    2    0    0 -0.20025461413E+03 -0.14674844189E+03  0.53403520502E+03  0.60204286880E+03  0.12500000000E+03 0.  0.
</event>
<event>
 4    0  0.2230743E-002  0.1795144E+03  0.7546771E-02  0.1168274E+00
         21   -1    0    0  502  501  0.00000000000E+00  0.00000000000E+00  0.90121349021E+02  0.90121349021E+02  0.00000000000E+00 0.  1.
         21   -1    0    0  501  502 -0.00000000000E+00 -0.00000000000E+00 -0.35757793039E+03  0.35757793039E+03  0.00000000000E+00 0.  1.
         25    1    1    2    0    0  0.54914820328E+02  0.11630238563E+03 -0.14326768408E+03  0.22954849531E+03  0.12500000000E+03 0.  0.
         25    1    1    2    0    0 -0.54914820328E+02 -0.11630238563E+03 -0.12418889728E+03  0.21815078410E+03  0.12500000000E+03 0.  0.
</event>
<event>
 4    0  0.2230743E-002  0.1721399E+03  0.7546771E-02  0.1175634E+00
         21   -1    0    0  502  501  0.00000000000E+00  0.00000000000E+00  0.12719302791E+03  0.12719302791E+03  0.00000000000E+00 0. -1.
         21   -1    0    0  501  502 -0.00000000000E+00 -0.00000000000E+00 -0.23296984332E+03  0.23296984332E+03  0.00000000000E+00 0. -1.
         25    1    1    2    0    0 -0.44029148784E+02 -0.10426115432E+03 -0.89100154465E+02  0.19071652201E+03  0.12500000000E+03 0.  0.
         25    1    1    2    0    0  0.44029148784E+02  0.10426115432E+03 -0.16676660941E+02  0.16944634922E+03  0.12500000000E+03 0.  0.
</event>
<event>
 4    0  0.2230743E-002  0.2086691E+03  0.7546771E-02  0.1142624E+00
         21   -1    0    0  502  501  0.00000000000E+00  0.00000000000E+00  0.56402440938E+02  0.56402440938E+02  0.00000000000E+00 0. -1.
         21   -1    0    0  501  502 -0.00000000000E+00 -0.00000000000E+00 -0.77200228185E+03  0.77200228185E+03  0.00000000000E+00 0. -1.
         25    1    1    2    0    0  0.13394927280E+03 -0.69138794726E+02 -0.21472720423E+03  0.29061203151E+03  0.12500000000E+03 0.  0.
         25    1    1    2    0    0 -0.13394927280E+03  0.69138794726E+02 -0.50087263668E+03  0.53779269128E+03  0.12500000000E+03 0.  0.
</event>
<event>
 4    0  0.2230743E-002  0.2394754E+03  0.7546771E-02  0.1120143E+00
         21   -1    0    0  502  501  0.00000000000E+00  0.00000000000E+00  0.84356427241E+02  0.84356427241E+02  0.00000000000E+00 0.  1.
         21   -1    0    0  501  502 -0.00000000000E+00 -0.00000000000E+00 -0.67983530165E+03  0.67983530165E+03  0.00000000000E+00 0.  1.
         25    1    1    2    0    0 -0.11204338384E+03 -0.17076880655E+03 -0.29329130243E+03  0.37862975746E+03  0.12500000000E+03 0.  0.
         25    1    1    2    0    0  0.11204338384E+03  0.17076880655E+03 -0.30218757198E+03  0.38556197143E+03  0.12500000000E+03 0.  0.
</event>
<event>
 4    0  0.2230743E-002  0.3329608E+03  0.7546771E-02  0.1069834E+00
         21   -1    0    0  502  501  0.00000000000E+00  0.00000000000E+00  0.32871571947E+03  0.32871571947E+03  0.00000000000E+00 0. -1.
         21   -1    0    0  501  502 -0.00000000000E+00 -0.00000000000E+00 -0.33726072777E+03  0.33726072777E+03  0.00000000000E+00 0. -1.
         25    1    1    2    0    0 -0.20903311439E+03 -0.21164874663E+03 -0.86424673899E+02  0.33404230139E+03  0.12500000000E+03 0.  0.
         25    1    1    2    0    0  0.20903311439E+03  0.21164874663E+03  0.77879665595E+02  0.33193414584E+03  0.12500000000E+03 0.  0.
</event>
<event>
 4    0  0.2230743E-002  0.2173841E+03  0.7546771E-02  0.1135848E+00
         21   -1    0    0  502  501  0.00000000000E+00  0.00000000000E+00  0.18120076730E+03  0.18120076730E+03  0.00000000000E+00 0. -1.
         21   -1    0    0  501  502 -0.00000000000E+00 -0.00000000000E+00 -0.26079263591E+03  0.26079263591E+03  0.00000000000E+00 0. -1.
         25    1    1    2    0    0 -0.69948258070E+02 -0.90481285781E+02  0.98670389639E+02  0.19606240760E+03  0.12500000000E+03 0.  0.
         25    1    1    2    0    0  0.69948258070E+02  0.90481285781E+02 -0.17826225825E+03  0.24593099561E+03  0.12500000000E+03 0.  0.
</event>
<event>
 4    0  0.2230743E-002  0.1880492E+03  0.7546771E-02  0.1160233E+00
         21   -1    0    0  502  501  0.00000000000E+00  0.00000000000E+00  0.26183997935E+03  0.26183997935E+03  0.00000000000E+00 0. -1.
         21   -1    0    0  501  502 -0.00000000000E+00 -0.00000000000E+00 -0.13505380016E+03  0.13505380016E+03  0.00000000000E+00 0. -1.
         25    1    1    2    0    0 -0.59747956610E+02 -0.12697102204E+03  0.56233764029E+02  0.19615987096E+03  0.12500000000E+03 0.  0.
         25    1    1    2    0    0  0.59747956610E+02  0.12697102204E+03  0.70552415160E+02  0.20073390855E+03  0.12500000000E+03 0.  0.
</event>
<event>
 4    0  0.2230743E-002  0.5404025E+03  0.7546771E-02  0.1003740E+00
         21   -1    0    0  502  501  0.00000000000E+00  0.00000000000E+00  0.19350738154E+03  0.19350738154E+03  0.00000000000E+00 0.  1.
         21   -1    0    0  501  502 -0.00000000000E+00 -0.00000000000E+00 -0.15091666876E+04  0.15091666876E+04  0.00000000000E+00 0.  1.
         25    1    1    2    0    0 -0.46407192766E+03  0.24183399284E+03 -0.57806739943E+03  0.78970459820E+03  0.12500000000E+03 0.  0.
         25    1    1    2    0    0  0.46407192766E+03 -0.24183399284E+03 -0.73759190664E+03  0.91296947095E+03  0.12500000000E+03 0.  0.
</event>
<event>
 4    0  0.2230743E-002  0.1937660E+03  0.7546771E-02  0.1155108E+00
         21   -1    0    0  502  501  0.00000000000E+00  0.00000000000E+00  0.67348253274E+02  0.67348253274E+02  0.00000000000E+00 0.  1.
         21   -1    0    0  501  502 -0.00000000000E+00 -0.00000000000E+00 -0.55747945731E+03  0.55747945731E+03  0.00000000000E+00 0.  1.
         25    1    1    2    0    0 -0.53397551421E+02  0.11916291034E+03 -0.35757275942E+03  0.40066741317E+03  0.12500000000E+03 0.  0.
         25    1    1    2    0    0  0.53397551421E+02 -0.11916291034E+03 -0.13255844462E+03  0.22416029742E+03  0.12500000000E+03 0.  0.
</event>
<event>
 4    0  0.2230743E-002  0.1818439E+03  0.7546771E-02  0.1166030E+00
         21   -1    0    0  502  501  0.00000000000E+00  0.00000000000E+00  0.51187617742E+02  0.51187617742E+02  0.00000000000E+00 0. -1.
         21   -1    0    0  501  502 -0.00000000000E+00 -0.00000000000E+00 -0.64600011939E+03  0.64600011939E+03  0.00000000000E+00 0. -1.
         25    1    1    2    0    0 -0.11001316216E+03 -0.67500311452E+02 -0.24376397275E+03  0.30282843708E+03  0.12500000000E+03 0.  0.
         25    1    1    2    0    0  0.11001316216E+03  0.67500311452E+02 -0.35104852890E+03  0.39435930005E+03  0.12500000000E+03 0.  0.
</event>
<event>
 4    0  0.2230743E-002  0.3880697E+03  0.7546771E-02  0.1047991E+00
         21   -1    0    0  502  501  0.00000000000E+00  0.00000000000E+00  0.83109934951E+02  0.83109934951E+02  0.00000000000E+00 0.  1.
         21   -1    0    0  501  502 -0.00000000000E+00 -0.00000000000E+00 -0.18120351181E+04  0.18120351181E+04  0.00000000000E+00 0.  1.
         25    1    1    2    0    0 -0.10094640818E+03  0.64405259486E+02 -0.16377987341E+02  0.17387194496E+03  0.12500000000E+03 0.  0.
         25    1    1    2    0    0  0.10094640818E+03 -0.64405259486E+02 -0.17125471958E+04  0.17212731081E+04  0.12500000000E+03 0.  0.
</event>
<event>
 4    0  0.2230743E-002  0.3050081E+03  0.7546771E-02  0.1082764E+00
         21   -1    0    0  502  501  0.00000000000E+00  0.00000000000E+00  0.28337709238E+03  0.28337709238E+03  0.00000000000E+00 0. -1.
         21   -1    0    0  501  502 -0.00000000000E+00 -0.00000000000E+00 -0.32829032994E+03  0.32829032994E+03  0.00000000000E+00 0. -1.
         25    1    1    2    0    0  0.25253134819E+03  0.71029992678E+01 -0.13931573385E+03  0.31441438917E+03  0.12500000000E+03 0.  0.
         25    1    1    2    0    0 -0.25253134819E+03 -0.71029992678E+01  0.94402496286E+02  0.29725303316E+03  0.12500000000E+03 0.  0.
</event>
<event>
 4    0  0.2230743E-002  0.2230014E+03  0.7546771E-02  0.1131665E+00
         21   -1    0    0  502  501  0.00000000000E+00  0.00000000000E+00  0.40340251169E+02  0.40340251169E+02  0.00000000000E+00 0. -1.
         21   -1    0    0  501  502 -0.00000000000E+00 -0.00000000000E+00 -0.12327547533E+04  0.12327547533E+04  0.00000000000E+00 0. -1.
         25    1    1    2    0    0  0.12738443886E+02  0.74208153750E+02 -0.11486525884E+03  0.18570984283E+03  0.12500000000E+03 0.  0.
         25    1    1    2    0    0 -0.12738443886E+02 -0.74208153750E+02 -0.10775492433E+04  0.10873851616E+04  0.12500000000E+03 0.  0.
</event>
<event>
 4    0  0.2230743E-002  0.2170625E+03  0.7546771E-02  0.1136092E+00
         21   -1    0    0  502  501  0.00000000000E+00  0.00000000000E+00  0.75063400020E+02  0.75063400020E+02  0.00000000000E+00 0. -1.
         21   -1    0    0  501  502 -0.00000000000E+00 -0.00000000000E+00 -0.62768457755E+03  0.62768457755E+03  0.00000000000E+00 0. -1.
         25    1    1    2    0    0 -0.51449275937E+02  0.58868269141E+01 -0.55106981910E+03  0.56743689363E+03  0.12500000000E+03 0.  0.
         25    1    1    2    0    0  0.51449275937E+02 -0.58868269141E+01 -0.15513584329E+01  0.13531108395E+03  0.12500000000E+03 0.  0.
</event>
<event>
 4    0  0.2230743E-002  0.1909178E+03  0.7546771E-02  0.1157636E+00
         21   -1    0    0  502  501  0.00000000000E+00  0.00000000000E+00  0.39442375742E+03  0.39442375742E+03  0.00000000000E+00 0.  1.
         21   -1    0    0  501  502 -0.00000000000E+00 -0.00000000000E+00 -0.92412307333E+02  0.92412307333E+02  0.00000000000E+00 0.  1.
         25    1    1    2    0    0  0.71841428560E+02  0.91350823540E+02  0.26007834227E+03  0.31108183479E+03  0.12500000000E+03 0.  0.
         25    1    1    2    0    0 -0.71841428560E+02 -0.91350823540E+02  0.41933107818E+02  0.17575422996E+03  0.12500000000E+03 0.  0.
</event>
<event>
 4    0  0.2230743E-002  0.1880774E+03  0.7546771E-02  0.1160207E+00
         21   -1    0    0  502  501  0.00000000000E+00  0.00000000000E+00  0.68232273833E+02  0.68232273833E+02  0.00000000000E+00 0. -1.
         21   -1    0    0  501  502 -0.00000000000E+00 -0.00000000000E+00 -0.51842187361E+03  0.51842187361E+03  0.00000000000E+00 0. -1.
         25    1    1    2    0    0 -0.84670730150E+02  0.81363921500E+02 -0.10470269790E+03  0.20093997913E+03  0.12500000000E+03 0.  0.
         25    1    1    2    0    0  0.84670730150E+02 -0.81363921500E+02 -0.34548690188E+03  0.38571416831E+03  0.12500000000E+03 0.  0.
</event>
<event>
 4    0  0.2230743E-002  0.1761155E+03  0.7546771E-02  0.1171616E+00
         21   -1    0    0  502  501  0.00000000000E+00  0.00000000000E+00  0.15299036330E+04  0.15299036330E+04  0.00000000000E+00 0.  1.
         21   -1    0    0  501  502 -0.00000000000E+00 -0.00000000000E+00 -0.20273616743E+02  0.20273616743E+02  0.00000000000E+00 0.  1.
         25    1    1    2    0    0 -0.15410683000E+01 -0.99674507658E+01  0.21061717022E+03  0.24512510553E+03  0.12500000000E+03 0.  0.
         25    1    1    2    0    0  0.15410683000E+01  0.99674507658E+01  0.12990128461E+04  0.13050521443E+04  0.12500000000E+03 0.  0.
</event>
<event>
 4    0  0.2230743E-002  0.2081872E+03  0.7546771E-02  0.1143010E+00
         21   -1    0    0  502  501  0.00000000000E+00  0.00000000000E+00  0.23096544883E+03  0.23096544883E+03  0.00000000000E+00 0. -1.
         21   -1    0    0  501  502 -0.00000000000E+00 -0.00000000000E+00 -0.18765545173E+03  0.18765545173E+03  0.00000000000E+00 0. -1.
         25    1    1    2    0    0  0.47791847578E+02  0.30252386736E+02 -0.13577094405E+03  0.19302335829E+03  0.12500000000E+03 0.  0.
         25    1    1    2    0    0 -0.47791847578E+02 -0.30252386736E+02  0.17908094114E+03  0.22559754227E+03  0.12500000000E+03 0.  0.
</event>
<event>
 4    0  0.2230743E-002  0.1710587E+03  0.7546771E-02  0.1176748E+00
         21   -1    0    0  502  501  0.00000000000E+00  0.00000000000E+00  0.20663605055E+03  0.20663605055E+03  0.00000000000E+00 0. -1.
         21   -1    0    0  501  502 -0.00000000000E+00 -0.00000000000E+00 -0.14160681866E+03  0.14160681866E+03  0.00000000000E+00 0. -1.
         25    1    1    2    0    0 -0.89209700688E+02  0.35706800404E+02 -0.35026465157E+02  0.16150913149E+03  0.12500000000E+03 0.  0.
         25    1    1    2    0    0  0.89209700688E+02 -0.35706800404E+02  0.10005569704E+03  0.18673373772E+03  0.12500000000E+03 0.  0.
</event>
<event>
 4    0  0.2230743E-002  0.2233692E+03  0.7546771E-02  0.1131396E+00
         21   -1    0    0  502  501  0.00000000000E+00  0.00000000000E+00  0.25885217737E+03  0.25885217737E+03  0.00000000000E+00 0.  1.
         21   -1    0    0  501  502 -0.00000000000E+00 -0.00000000000E+00 -0.19275010766E+03  0.19275010766E+03  0.00000000000E+00 0.  1.
         25    1    1    2    0    0  0.12144937930E+03  0.94945034791E+02 -0.70555207714E+02  0.21063605745E+03  0.12500000000E+03 0.  0.
         25    1    1    2    0    0 -0.12144937930E+03 -0.94945034791E+02  0.13665727742E+03  0.24096622758E+03  0.12500000000E+03 0.  0.
</event>
<event>
 4    0  0.2230743E-002  0.2380790E+03  0.7546771E-02  0.1121079E+00
         21   -1    0    0  502  501  0.00000000000E+00  0.00000000000E+00  0.16102254170E+03  0.16102254170E+03  0.00000000000E+00 0. -1.
         21   -1    0    0  501  502 -0.00000000000E+00 -0.00000000000E+00 -0.35201045271E+03  0.35201045271E+03  0.00000000000E+00 0. -1.
         25    1    1    2    0    0 -0.13591624781E+03 -0.10481104467E+03  0.20540351810E+02  0.21332015272E+03  0.12500000000E+03 0.  0.
         25    1    1    2    0    0  0.13591624781E+03  0.10481104467E+03 -0.21152826282E+03  0.29971284169E+03  0.12500000000E+03 0.  0.
</event>
<event>
 4    0  0.2230743E-002  0.1874011E+03  0.7546771E-02  0.1160826E+00
         21   -1    0    0  502  501  0.00000000000E+00  0.00000000000E+00  0.25503750618E+03  0.25503750618E+03  0.00000000000E+00 0.  1.
         21   -1    0    0  501  502 -0.00000000000E+00 -0.00000000000E+00 -0.13770205653E+03  0.13770205653E+03  0.00000000000E+00 0.  1.
         25    1    1    2    0    0  0.28761572125E+02  0.12720022592E+03  0.11092489180E+03  0.21198220946E+03  0.12500000000E+03 0.  0.
         25    1    1    2    0    0 -0.28761572125E+02 -0.12720022592E+03  0.64105578497E+01  0.18075735326E+03  0.12500000000E+03 0.  0.
</event>
<event>
 4    0  0.2230743E-002  0.2469323E+03  0.7546771E-02  0.1115259E+00
         21   -1    0    0  502  501  0.00000000000E+00  0.00000000000E+00  0.64122316368E+03  0.64122316368E+03  0.00000000000E+00 0.  1.
         21   -1    0    0  501  502 -0.00000000000E+00 -0.00000000000E+00 -0.95092599060E+02  0.95092599060E+02  0.00000000000E+00 0.  1.
         25    1    1    2    0    0  0.53814762738E+02 -0.15459410254E+03  0.69975019226E+02  0.21752440908E+03  0.12500000000E+03 0.  0.
         25    1    1    2    0    0 -0.53814762738E+02  0.15459410254E+03  0.47615554539E+03  0.51879135366E+03  0.12500000000E+03 0.  0.
</event>
<event>
 4    0  0.2230743E-002  0.2160455E+03  0.7546771E-02  0.1136866E+00
         21   -1    0    0  502  501  0.00000000000E+00  0.00000000000E+00  0.27342258125E+03  0.27342258125E+03  0.00000000000E+00 0. -1.
         21   -1    0    0  501  502 -0.00000000000E+00 -0.00000000000E+00 -0.17070893631E+03  0.17070893631E+03  0.00000000000E+00 0. -1.
         25    1    1    2    0    0  0.16454972341E+03 -0.61492455449E+02  0.65626929414E+02  0.22536598549E+03  0.12500000000E+03 0.  0.
         25    1    1    2    0    0 -0.16454972341E+03  0.61492455449E+02  0.37086715533E+02  0.21876553207E+03  0.12500000000E+03 0.  0.
</event>
<event>
 4    0  0.2230743E-002  0.1811306E+03  0.7546771E-02  0.1166713E+00
         21   -1    0    0  502  501  0.00000000000E+00  0.00000000000E+00  0.54898060652E+03  0.54898060652E+03  0.00000000000E+00 0. -1.
         21   -1    0    0  501  502 -0.00000000000E+00 -0.00000000000E+00 -0.59762177829E+02  0.59762177829E+02  0.00000000000E+00 0. -1.
         25    1    1    2    0    0 -0.90574820315E+02 -0.92311188786E+02  0.28057612704E+03  0.33327633687E+03  0.12500000000E+03 0.  0.
         25    1    1    2    0    0  0.90574820315E+02  0.92311188786E+02  0.20864230165E+03  0.27546644748E+03  0.12500000000E+03 0.  0.
</event>
<event>
 4    0  0.2230743E-002  0.2472071E+03  0.7546771E-02  0.1115083E+00
         21   -1    0    0  502  501  0.00000000000E+00  0.00000000000E+00  0.33175331616E+03  0.33175331616E+03  0.00000000000E+00 0. -1.
         21   -1    0    0  501  502 -0.00000000000E+00 -0.00000000000E+00 -0.18420722002E+03  0.18420722002E+03  0.00000000000E+00 0. -1.
         25    1    1    2    0    0 -0.13496017942E+03 -0.60836390155E+02 -0.86446277353E+02  0.21216332215E+03  0.12500000000E+03 0.  0.
         25    1    1    2    0    0  0.13496017942E+03  0.60836390155E+02  0.23399237350E+03  0.30379721403E+03  0.12500000000E+03 0.  0.
</event>
<event>
 4    0  0.2230743E-002  0.1722836E+03  0.7546771E-02  0.1175487E+00
         21   -1    0    0  502  501  0.00000000000E+00  0.00000000000E+00  0.10587608932E+03  0.10587608932E+03  0.00000000000E+00 0.  1.
         21   -1    0    0  501  502 -0.00000000000E+00 -0.00000000000E+00 -0.28034323810E+03  0.28034323810E+03  0.00000000000E+00 0.  1.
         25    1    1    2    0    0 -0.95715485617E+02 -0.21317874425E+02 -0.16192791206E+03  0.22685139334E+03  0.12500000000E+03 0.  0.
         25    1    1    2    0    0  0.95715485617E+02  0.21317874425E+02 -0.12539236727E+02  0.15936793409E+03  0.12500000000E+03 0.  0.
</event>
<event>
 4    0  0.2230743E-002  0.4787111E+03  0.7546771E-02  0.1019490E+00
         21   -1    0    0  502  501  0.00000000000E+00  0.00000000000E+00  0.43068667368E+03  0.43068667368E+03  0.00000000000E+00 0. -1.
         21   -1    0    0  501  502 -0.00000000000E+00 -0.00000000000E+00 -0.53209055665E+03  0.53209055665E+03  0.00000000000E+00 0. -1.
         25    1    1    2    0    0 -0.11885131132E+03 -0.19150384862E+03  0.35496481194E+03  0.43866202931E+03  0.12500000000E+03 0.  0.
         25    1    1    2    0    0  0.11885131132E+03  0.19150384862E+03 -0.45636869492E+03  0.52411520102E+03  0.12500000000E+03 0.  0.
</event>
<event>
 4    0  0.2230743E-002  0.2082465E+03  0.7546771E-02  0.1142962E+00
         21   -1    0    0  502  501  0.00000000000E+00  0.00000000000E+00  0.23377713502E+03  0.23377713502E+03  0.00000000000E+00 0. -1.
         21   -1    0    0  501  502 -0.00000000000E+00 -0.00000000000E+00 -0.18550407223E+03  0.18550407223E+03  0.00000000000E+00 0. -1.
         25    1    1    2    0    0  0.95038203597E+02  0.13408878117E+03  0.51327516560E+02  0.21277118069E+03  0.12500000000E+03 0.  0.
         25    1    1    2    0    0 -0.95038203597E+02 -0.13408878117E+03 -0.30544537655E+01  0.20651002655E+03  0.12500000000E+03 0.  0.
</event>
<event>
 4    0  0.2230743E-002  0.2129307E+03  0.7546771E-02  0.1139266E+00
         21   -1    0    0  502  501  0.00000000000E+00  0.00000000000E+00  0.16038053278E+03  0.16038053278E+03  0.00000000000E+00 0. -1.
         21   -1    0    0  501  502 -0.00000000000E+00 -0.00000000000E+00 -0.28269953581E+03  0.28269953581E+03  0.00000000000E+00 0. -1.
         25    1    1    2    0    0  0.14929524437E+03  0.10962845416E+02  0.27767025803E+02  0.19699051168E+03  0.12500000000E+03 0.  0.
         25    1    1    2    0    0 -0.14929524437E+03 -0.10962845416E+02 -0.15008602883E+03  0.24608955691E+03  0.12500000000E+03 0.  0.
</event>
<event>
 4    0  0.2230743E-002  0.2335126E+03  0.7546771E-02  0.1124192E+00
         21   -1    0    0  502  501  0.00000000000E+00  0.00000000000E+00  0.18808162307E+03  0.18808162307E+03  0.00000000000E+00 0. -1.
         21   -1    0    0  501  502 -0.00000000000E+00 -0.00000000000E+00 -0.28991727882E+03  0.28991727882E+03  0.00000000000E+00 0. -1.
         25    1    1    2    0    0  0.14611424976E+03  0.10734780868E+03  0.28561106918E+02  0.22206679815E+03  0.12500000000E+03 0.  0.
         25    1    1    2    0    0 -0.14611424976E+03 -0.10734780868E+03 -0.13039676267E+03  0.25593210374E+03  0.12500000000E+03 0.  0.
</event>
<event>
 4    0  0.2230743E-002  0.2423978E+03  0.7546771E-02  0.1118206E+00
         21   -1    0    0  502  501  0.00000000000E+00  0.00000000000E+00  0.78671899550E+02  0.78671899550E+02  0.00000000000E+00 0.  1.
         21   -1    0    0  501  502 -0.00000000000E+00 -0.00000000000E+00 -0.74685759404E+03  0.74685759404E+03  0.00000000000E+00 0. -1.
         25    1    1    2    0    0 -0.17140499426E+03 -0.25750558083E+02 -0.13927615904E+03  0.25507961850E+03  0.12500000000E+03 0.  0.
         25    1    1    2    0    0  0.17140499426E+03  0.25750558083E+02 -0.52890953545E+03  0.57044987509E+03  0.12500000000E+03 0.  0.
</event>
<event>
 4    0  0.2230743E-002  0.1901032E+03  0.7546771E-02  0.1158368E+00
         21   -1    0    0  502  501  0.00000000000E+00  0.00000000000E+00  0.30895045304E+02  0.30895045304E+02  0.00000000000E+00 0.  1.
         21   -1    0    0  501  502 -0.00000000000E+00 -0.00000000000E+00 -0.11697412123E+04  0.11697412123E+04  0.00000000000E+00 0.  1.
         25    1    1    2    0    0  0.72090826260E+02 -0.10616535699E+03 -0.77028939107E+03  0.79084696134E+03  0.12500000000E+03 0.  0.
         25    1    1    2    0    0 -0.72090826260E+02  0.10616535699E+03 -0.36855677589E+03  0.40978929624E+03  0.12500000000E+03 0.  0.
</event>
<event>
 4    0  0.2230743E-002  0.2892257E+03  0.7546771E-02  0.1090754E+00
         21   -1    0    0  502  501  0.00000000000E+00  0.00000000000E+00  0.13205220159E+04  0.13205220159E+04  0.00000000000E+00 0.  1.
         21   -1    0    0  501  502 -0.00000000000E+00 -0.00000000000E+00 -0.63347289944E+02  0.63347289944E+02  0.00000000000E+00 0.  1.
         25    1    1    2    0    0  0.11479963537E+03  0.23415659963E+03  0.63879960930E+03  0.70121195817E+03  0.12500000000E+03 0.  0.
         25    1    1    2    0    0 -0.11479963537E+03 -0.23415659963E+03  0.61837511661E+03  0.68265734763E+03  0.12500000000E+03 0.  0.
</event>
<event>
 4    0  0.2230743E-002  0.1828480E+03  0.7546771E-02  0.1165075E+00
         21   -1    0    0  502  501  0.00000000000E+00  0.00000000000E+00  0.30661438057E+02  0.30661438057E+02  0.00000000000E+00 0.  1.
         21   -1    0    0  501  502 -0.00000000000E+00 -0.00000000000E+00 -0.10904050925E+04  0.10904050925E+04  0.00000000000E+00 0.  1.
         25    1    1    2    0    0 -0.60337187203E+02 -0.11851678839E+03 -0.56367422140E+03  0.59248665231E+03  0.12500000000E+03 0.  0.
         25    1    1    2    0    0  0.60337187203E+02  0.11851678839E+03 -0.49606943302E+03  0.52857987823E+03  0.12500000000E+03 0.  0.
</event>
<event>
 4    0  0.2230743E-002  0.4185917E+03  0.7546771E-02  0.1037526E+00
         21   -1    0    0  502  501  0.00000000000E+00  0.00000000000E+00  0.94476814504E+03  0.94476814504E+03  0.00000000000E+00 0.  1.
         21   -1    0    0  501  502 -0.00000000000E+00 -0.00000000000E+00 -0.18546247938E+03  0.18546247938E+03  0.00000000000E+00 0. -1.
         25    1    1    2    0    0 -0.37047539153E+02 -0.39737939186E+03  0.40346644706E+03  0.58111365079E+03  0.12500000000E+03 0.  0.
         25    1    1    2    0    0  0.37047539153E+02  0.39737939186E+03  0.35583921861E+03  0.54911697363E+03  0.12500000000E+03 0.  0.
</event>
<event>
 4    0  0.2230743E-002  0.2186931E+03  0.7546771E-02  0.1134861E+00
         21   -1    0    0  502  501  0.00000000000E+00  0.00000000000E+00  0.12339041334E+03  0.12339041334E+03  0.00000000000E+00 0. -1.
         21   -1    0    0  501  502 -0.00000000000E+00 -0.00000000000E+00 -0.38760440162E+03  0.38760440162E+03  0.00000000000E+00 0. -1.
         25    1    1    2    0    0 -0.17816443964E+03  0.18267970041E+01 -0.15704839118E+03  0.26839355788E+03  0.12500000000E+03 0.  0.
         25    1    1    2    0    0  0.17816443964E+03 -0.18267970041E+01 -0.10716559710E+03  0.24260125709E+03  0.12500000000E+03 0.  0.
</event>
<event>
 4    0  0.2230743E-002  0.1939844E+03  0.7546771E-02  0.1154916E+00
         21   -1    0    0  502  501  0.00000000000E+00  0.00000000000E+00  0.50441798779E+03  0.50441798779E+03  0.00000000000E+00 0.  1.
         21   -1    0    0  501  502 -0.00000000000E+00 -0.00000000000E+00 -0.74600687239E+02  0.74600687239E+02  0.00000000000E+00 0.  1.
         25    1    1    2    0    0  0.85727056484E+02 -0.14496925734E+02  0.39428462112E+03  0.42266375705E+03  0.12500000000E+03 0.  0.
         25    1    1    2    0    0 -0.85727056484E+02  0.14496925734E+02  0.35532679429E+02  0.15635491798E+03  0.12500000000E+03 0.  0.
</event>
<event>
 4    0  0.2230743E-002  0.2223748E+03  0.7546771E-02  0.1132125E+00
         21   -1    0    0  502  501  0.00000000000E+00  0.00000000000E+00  0.42760275783E+02  0.42760275783E+02  0.00000000000E+00 0. -1.
         21   -1    0    0  501  502 -0.00000000000E+00 -0.00000000000E+00 -0.11564600338E+04  0.11564600338E+04  0.00000000000E+00 0. -1.
         25    1    1    2    0    0  0.39430827365E+02  0.17963998125E+03 -0.55553729611E+03  0.59839117672E+03  0.12500000000E+03 0.  0.
         25    1    1    2    0    0 -0.39430827365E+02 -0.17963998125E+03 -0.55816246189E+03  0.60082913285E+03  0.12500000000E+03 0.  0.
</event>
<event>
 4    0  0.2230743E-002  0.1964136E+03  0.7546771E-02  0.1152801E+00
         21   -1    0    0  502  501  0.00000000000E+00  0.00000000000E+00  0.19827665401E+02  0.19827665401E+02  0.00000000000E+00 0. -1.
         21   -1    0    0  501  502 -0.00000000000E+00 -0.00000000000E+00 -0.19456809329E+04  0.19456809329E+04  0.00000000000E+00 0. -1.
         25    1    1    2    0    0  0.12193467903E+03  0.84673232473E+02 -0.81151920827E+03  0.83440161052E+03  0.12500000000E+03 0.  0.
         25    1    1    2    0    0 -0.12193467903E+03 -0.84673232473E+02 -0.11143340592E+04  0.11311069878E+04  0.12500000000E+03 0.  0.
</event>
<event>
 4    0  0.2230743E-002  0.2006830E+03  0.7546771E-02  0.1149164E+00
         21   -1    0    0  502  501  0.00000000000E+00  0.00000000000E+00  0.64983428605E+03  0.64983428605E+03  0.00000000000E+00 0. -1.
         21   -1    0    0  501  502 -0.00000000000E+00 -0.00000000000E+00 -0.61975292866E+02  0.61975292866E+02  0.00000000000E+00 0. -1.
         25    1    1    2    0    0  0.92753577881E+02  0.44216463414E+02  0.83413989388E+02  0.18204728911E+03  0.12500000000E+03 0.  0.
         25    1    1    2    0    0 -0.92753577881E+02 -0.44216463414E+02  0.50444500380E+03  0.52976228981E+03  0.12500000000E+03 0.  0.
</event>
<event>
 4    0  0.2230743E-002  0.2642593E+03  0.7546771E-02  0.1104611E+00
         21   -1    0    0  502  501  0.00000000000E+00  0.00000000000E+00  0.98837739619E+03  0.98837739619E+03  0.00000000000E+00 0. -1.
         21   -1    0    0  501  502 -0.00000000000E+00 -0.00000000000E+00 -0.70654155889E+02  0.70654155889E+02  0.00000000000E+00 0. -1.
         25    1    1    2    0    0 -0.26931640929E+02 -0.18284649255E+03  0.17513253531E+03  0.28364512695E+03  0.12500000000E+03 0.  0.
         25    1    1    2    0    0  0.26931640929E+02  0.18284649255E+03  0.74259070499E+03  0.77538642512E+03  0.12500000000E+03 0.  0.
</event>
<event>
 4    0  0.2230743E-002  0.1841400E+03  0.7546771E-02  0.1163855E+00
         21   -1    0    0  502  501  0.00000000000E+00  0.00000000000E+00  0.19703133680E+03  0.19703133680E+03  0.00000000000E+00 0. -1.
         21   -1    0    0  501  502 -0.00000000000E+00 -0.00000000000E+00 -0.17209216834E+03  0.17209216834E+03  0.00000000000E+00 0. -1.
         25    1    1    2    0    0 -0.12883995686E+03 -0.19267511224E+02  0.48768248677E+02  0.18701420682E+03  0.12500000000E+03 0.  0.
         25    1    1    2    0    0  0.12883995686E+03  0.19267511224E+02 -0.23829080216E+02  0.18210929832E+03  0.12500000000E+03 0.  0.
</event>
<event>
 4    0  0.2230743E-002  0.2635543E+03  0.7546771E-02  0.1105026E+00
         21   -1    0    0  502  501  0.00000000000E+00  0.00000000000E+00  0.29647572227E+03  0.29647572227E+03  0.00000000000E+00 0.  1.
         21   -1    0    0  501  502 -0.00000000000E+00 -0.00000000000E+00 -0.23428861365E+03  0.23428861365E+03  0.00000000000E+00 0.  1.
         25    1    1    2    0    0 -0.20561510299E+03 -0.13713171754E+02 -0.76277411175E+02  0.25280202751E+03  0.12500000000E+03 0.  0.
         25    1    1    2    0    0  0.20561510299E+03  0.13713171754E+02  0.13846451980E+03  0.27796230842E+03  0.12500000000E+03 0.  0.
</event>
<event>
 4    0  0.2230743E-002  0.2513802E+03  0.7546771E-02  0.1112436E+00
         21   -1    0    0  502  501  0.00000000000E+00  0.00000000000E+00  0.48839893621E+02  0.48839893621E+02  0.00000000000E+00 0. -1.
         21   -1    0    0  501  502 -0.00000000000E+00 -0.00000000000E+00 -0.12938606968E+04  0.12938606968E+04  0.00000000000E+00 0. -1.
         25    1    1    2    0    0 -0.17593405496E+02  0.21652735145E+03 -0.67411678832E+03  0.71920238191E+03  0.12500000000E+03 0.  0.
         25    1    1    2    0    0  0.17593405496E+02 -0.21652735145E+03 -0.57090401485E+03  0.62349820851E+03  0.12500000000E+03 0.  0.
</event>
<event>
 4    0  0.2230743E-002  0.2127648E+03  0.7546771E-02  0.1139395E+00
         21   -1    0    0  502  501  0.00000000000E+00  0.00000000000E+00  0.35162827890E+03  0.35162827890E+03  0.00000000000E+00 0.  1.
         21   -1    0    0  501  502 -0.00000000000E+00 -0.00000000000E+00 -0.12874065836E+03  0.12874065836E+03  0.00000000000E+00 0.  1.
         25    1    1    2    0    0  0.58213908823E+02  0.15950529318E+03  0.79254918269E+02  0.22524906171E+03  0.12500000000E+03 0.  0.
         25    1    1    2    0    0 -0.58213908823E+02 -0.15950529318E+03  0.14363270228E+03  0.25511987554E+03  0.12500000000E+03 0.  0.
</event>
<event>
 4    0  0.2230743E-002  0.2469874E+03  0.7546771E-02  0.1115224E+00
         21   -1    0    0  502  501  0.00000000000E+00  0.00000000000E+00  0.96895548677E+02  0.96895548677E+02  0.00000000000E+00 0.  1.
         21   -1    0    0  501  502 -0.00000000000E+00 -0.00000000000E+00 -0.62957271461E+03  0.62957271461E+03  0.00000000000E+00 0.  1.
         25    1    1    2    0    0 -0.15069310967E+03  0.14769117575E+03 -0.22329331748E+03  0.33167152777E+03  0.12500000000E+03 0.  0.
         25    1    1    2    0    0  0.15069310967E+03 -0.14769117575E+03 -0.30938384845E+03  0.39479673552E+03  0.12500000000E+03 0.  0.
</event>
<event>
 4    0  0.2230743E-002  0.1830647E+03  0.7546771E-02  0.1164870E+00
         21   -1    0    0  502  501  0.00000000000E+00  0.00000000000E+00  0.85806277546E+02  0.85806277546E+02  0.00000000000E+00 0. -1.
         21   -1    0    0  501  502 -0.00000000000E+00 -0.00000000000E+00 -0.39056233614E+03  0.39056233614E+03  0.00000000000E+00 0. -1.
         25    1    1    2    0    0 -0.10954894097E+03 -0.68275559794E+02 -0.19791959645E+03  0.26731945158E+03  0.12500000000E+03 0.  0.
         25    1    1    2    0    0  0.10954894097E+03  0.68275559794E+02 -0.10683646214E+03  0.20904916210E+03  0.12500000000E+03 0.  0.
</event>
<event>
 4    0  0.2230743E-002  0.2253302E+03  0.7546771E-02  0.1129970E+00
         21   -1    0    0  502  501  0.00000000000E+00  0.00000000000E+00  0.65644853054E+02  0.65644853054E+02  0.00000000000E+00 0.  1.
         21   -1    0    0  501  502 -0.00000000000E+00 -0.00000000000E+00 -0.77346036891E+03  0.77346036891E+03  0.00000000000E+00 0.  1.
         25    1    1    2    0    0  0.13745277494E+03  0.60603213264E+02 -0.56276694682E+03  0.59573286902E+03  0.12500000000E+03 0.  0.
         25    1    1    2    0    0 -0.13745277494E+03 -0.60603213264E+02 -0.14504856904E+03  0.24337235294E+03  0.12500000000E+03 0.  0.
</event>
<event>
 4    0  0.2230743E-002  0.2419943E+03  0.7546771E-02  0.1118471E+00
         21   -1    0    0  502  501  0.00000000000E+00  0.00000000000E+00  0.56972322264E+03  0.56972322264E+03  0.00000000000E+00 0. -1.
         21   -1    0    0  501  502 -0.00000000000E+00 -0.00000000000E+00 -0.10278891079E+03  0.10278891079E+03  0.00000000000E+00 0. -1.
         25    1    1    2    0    0 -0.10459004350E+03 -0.15112417529E+03  0.36644535094E+03  0.42858463433E+03  0.12500000000E+03 0.  0.
         25    1    1    2    0    0  0.10459004350E+03  0.15112417529E+03  0.10048896091E+03  0.24392749911E+03  0.12500000000E+03 0.  0.
</event>
<event>
 4    0  0.2230743E-002  0.2867531E+03  0.7546771E-02  0.1092057E+00
         21   -1    0    0  502  501  0.00000000000E+00  0.00000000000E+00  0.98866136850E+03  0.98866136850E+03  0.00000000000E+00 0.  1.
         21   -1    0    0  501  502 -0.00000000000E+00 -0.00000000000E+00 -0.83170402686E+02  0.83170402686E+02  0.00000000000E+00 0.  1.
         25    1    1    2    0    0  0.66216636967E+02  0.38859149691E+02  0.91322497315E+03  0.92493217487E+03  0.12500000000E+03 0.  0.
         25    1    1    2    0    0 -0.66216636967E+02 -0.38859149691E+02 -0.77340073425E+01  0.14689959631E+03  0.12500000000E+03 0.  0.
</event>
<event>
 4    0  0.2230743E-002  0.2191796E+03  0.7546771E-02  0.1134496E+00
         21   -1    0    0  502  501  0.00000000000E+00  0.00000000000E+00  0.14479834446E+03  0.14479834446E+03  0.00000000000E+00 0. -1.
         21   -1    0    0  501  502 -0.00000000000E+00 -0.00000000000E+00 -0.33176976166E+03  0.33176976166E+03  0.00000000000E+00 0. -1.
         25    1    1    2    0    0 -0.91199114026E+02  0.25474050135E+02 -0.25996199296E+03  0.30359750231E+03  0.12500000000E+03 0.  0.
         25    1    1    2    0    0  0.91199114026E+02 -0.25474050135E+02  0.72990575759E+02  0.17297060380E+03  0.12500000000E+03 0.  0.
</event>
<event>
 4    0  0.2230743E-002  0.2153576E+03  0.7546771E-02  0.1137392E+00
         21   -1    0    0  502  501  0.00000000000E+00  0.00000000000E+00  0.50133228701E+03  0.50133228701E+03  0.00000000000E+00 0. -1.
         21   -1    0    0  501  502 -0.00000000000E+00 -0.00000000000E+00 -0.92511274661E+02  0.92511274661E+02  0.00000000000E+00 0. -1.
         25    1    1    2    0    0  0.99958180581E+02 -0.76213084276E+02  0.35810372426E+02  0.18085202474E+03  0.12500000000E+03 0.  0.
         25    1    1    2    0    0 -0.99958180581E+02  0.76213084276E+02  0.37301063992E+03  0.41299153693E+03  0.12500000000E+03 0.  0.
</event>
<event>
 4    0  0.2230743E-002  0.4012280E+03  0.7546771E-02  0.1043355E+00
         21   -1    0    0  502  501  0.00000000000E+00  0.00000000000E+00  0.18346788890E+03  0.18346788890E+03  0.00000000000E+00 0. -1.
         21   -1    0    0  501  502 -0.00000000000E+00 -0.00000000000E+00 -0.87745021494E+03  0.87745021494E+03  0.00000000000E+00 0. -1.
         25    1    1    2    0    0  0.77099832403E+02 -0.24313178783E+03  0.27655947439E+02  0.28538973675E+03  0.12500000000E+03 0.  0.
         25    1    1    2    0    0 -0.77099832403E+02  0.24313178783E+03 -0.72163827348E+03  0.77552836709E+03  0.12500000000E+03 0.  0.
</event>
<event>
 4    0  0.2230743E-002  0.2048881E+03  0.7546771E-02  0.1145679E+00
         21   -1    0    0  502  501  0.00000000000E+00  0.00000000000E+00  0.11947833331E+03  0.11947833331E+03  0.00000000000E+00 0. -1.
         21   -1    0    0  501  502 -0.00000000000E+00 -0.00000000000E+00 -0.35135337018E+03  0.35135337018E+03  0.00000000000E+00 0. -1.
         25    1    1    2    0    0 -0.11836893256E+03 -0.20900156239E+02  0.94353963583E+01  0.17367224139E+03  0.12500000000E+03 0.  0.
         25    1    1    2    0    0  0.11836893256E+03  0.20900156239E+02 -0.24131043323E+03  0.29715946209E+03  0.12500000000E+03 0.  0.
</event>
<event>
 4    0  0.2230743E-002  0.1910722E+03  0.7546771E-02  0.1157498E+00
         21   -1    0    0  502  501  0.00000000000E+00  0.00000000000E+00  0.11440565370E+03  0.11440565370E+03  0.00000000000E+00 0. -1.
         21   -1    0    0  501  502 -0.00000000000E+00 -0.00000000000E+00 -0.31911512404E+03  0.31911512404E+03  0.00000000000E+00 0. -1.
         25    1    1    2    0    0 -0.19776591895E+02 -0.56957198581E+02 -0.25134439042E+03  0.28711363370E+03  0.12500000000E+03 0.  0.
         25    1    1    2    0    0  0.19776591895E+02  0.56957198581E+02  0.46634920082E+02  0.14640714405E+03  0.12500000000E+03 0.  0.
</event>
<event>
 4    0  0.2230743E-002  0.1684615E+03  0.7546771E-02  0.1179462E+00
         21   -1    0    0  502  501  0.00000000000E+00  0.00000000000E+00  0.13284574291E+04  0.13284574291E+04  0.00000000000E+00 0. -1.
         21   -1    0    0  501  502 -0.00000000000E+00 -0.00000000000E+00 -0.21362566529E+02  0.21362566529E+02  0.00000000000E+00 0. -1.
         25    1    1    2    0    0 -0.11053693658E+03  0.97575043632E+01  0.73764545558E+03  0.75634611216E+03  0.12500000000E+03 0.  0.
         25    1    1    2    0    0  0.11053693658E+03 -0.97575043632E+01  0.56944940703E+03  0.59347388351E+03  0.12500000000E+03 0.  0.
</event>
<event>
 4    0  0.2230743E-002  0.2078465E+03  0.7546771E-02  0.1143283E+00
         21   -1    0    0  502  501  0.00000000000E+00  0.00000000000E+00  0.40932706236E+03  0.40932706236E+03  0.00000000000E+00 0. -1.
         21   -1    0    0  501  502 -0.00000000000E+00 -0.00000000000E+00 -0.10553948401E+03  0.10553948401E+03  0.00000000000E+00 0. -1.
         25    1    1    2    0    0  0.99126873016E+02 -0.15350650246E+02 -0.12016812686E+02  0.16072082380E+03  0.12500000000E+03 0.  0.
         25    1    1    2    0    0 -0.99126873016E+02  0.15350650246E+02  0.31580439104E+03  0.35414572257E+03  0.12500000000E+03 0.  0.
</event>
<event>
 4    0  0.2230743E-002  0.2130040E+03  0.7546771E-02  0.1139209E+00
         21   -1    0    0  502  501  0.00000000000E+00  0.00000000000E+00  0.74852126421E+03  0.74852126421E+03  0.00000000000E+00 0. -1.
         21   -1    0    0  501  502 -0.00000000000E+00 -0.00000000000E+00 -0.60613793200E+02  0.60613793200E+02  0.00000000000E+00 0. -1.
         25    1    1    2    0    0 -0.17230149233E+03  0.74804300964E+01  0.34660739571E+03  0.40682360779E+03  0.12500000000E+03 0.  0.
         25    1    1    2    0    0  0.17230149233E+03 -0.74804300964E+01  0.34130007530E+03  0.40231144962E+03  0.12500000000E+03 0.  0.
</event>
<event>
 4    0  0.2230743E-002  0.1807338E+03  0.7546771E-02  0.1167095E+00
         21   -1    0    0  502  501  0.00000000000E+00  0.00000000000E+00  0.60398954952E+02  0.60398954952E+02  0.00000000000E+00 0.  1.
         21   -1    0    0  501  502 -0.00000000000E+00 -0.00000000000E+00 -0.54081577307E+03  0.54081577307E+03  0.00000000000E+00 0.  1.
         25    1    1    2    0    0  0.10078611324E+03  0.67316698002E+02 -0.32084358983E+03  0.36504107657E+03  0.12500000000E+03 0.  0.
         25    1    1    2    0    0 -0.10078611324E+03 -0.67316698002E+02 -0.15957322829E+03  0.23617365145E+03  0.12500000000E+03 0.  0.
</event>
<event>
 4    0  0.2230743E-002  0.2105550E+03  0.7546771E-02  0.1141127E+00
         21   -1    0    0  502  501  0.00000000000E+00  0.00000000000E+00  0.50904820073E+03  0.50904820073E+03  0.00000000000E+00 0. -1.
         21   -1    0    0  501  502 -0.00000000000E+00 -0.00000000000E+00 -0.87090826136E+02  0.87090826136E+02  0.00000000000E+00 0. -1.
         25    1    1    2    0    0 -0.14845761150E+02  0.13976005566E+03  0.34494282104E+03  0.39289161301E+03  0.12500000000E+03 0.  0.
         25    1    1    2    0    0  0.14845761150E+02 -0.13976005566E+03  0.77014553552E+02  0.20324741386E+03  0.12500000000E+03 0.  0.
</event>
<event>
 4    0  0.2230743E-002  0.2124819E+03  0.7546771E-02  0.1139616E+00
         21   -1    0    0  502  501  0.00000000000E+00  0.00000000000E+00  0.17213293323E+03  0.17213293323E+03  0.00000000000E+00 0.  1.
         21   -1    0    0  501  502 -0.00000000000E+00 -0.00000000000E+00 -0.26228899024E+03  0.26228899024E+03  0.00000000000E+00 0.  1.
         25    1    1    2    0    0 -0.14990228037E+03 -0.52357371724E+02 -0.11220208743E+03  0.23114129111E+03  0.12500000000E+03 0.  0.
         25    1    1    2    0    0  0.14990228037E+03  0.52357371724E+02  0.22046030417E+02  0.20328063235E+03  0.12500000000E+03 0.  0.
</event>
<event>
 4    0  0.2230743E-002  0.2697126E+03  0.7546771E-02  0.1101444E+00
         21   -1    0    0  502  501  0.00000000000E+00  0.00000000000E+00  0.42974175486E+03  0.42974175486E+03  0.00000000000E+00 0. -1.
         21   -1    0    0  501  502 -0.00000000000E+00 -0.00000000000E+00 -0.16927587666E+03  0.16927587666E+03  0.00000000000E+00 0. -1.
         25    1    1    2    0    0  0.11109847606E+03 -0.13510605391E+03 -0.50618869012E+02  0.22087052109E+03  0.12500000000E+03 0.  0.
         25    1    1    2    0    0 -0.11109847606E+03  0.13510605391E+03  0.31108474721E+03  0.37814711044E+03  0.12500000000E+03 0.  0.
</event>
<event>
 4    0  0.2230743E-002  0.2233258E+03  0.7546771E-02  0.1131428E+00
         21   -1    0    0  502  501  0.00000000000E+00  0.00000000000E+00  0.26311204503E+03  0.26311204503E+03  0.00000000000E+00 0. -1.
         21   -1    0    0  501  502 -0.00000000000E+00 -0.00000000000E+00 -0.18955578746E+03  0.18955578746E+03  0.00000000000E+00 0. -1.
         25    1    1    2    0    0 -0.78484124720E+02 -0.10695377082E+03 -0.93996941368E+02  0.20508362176E+03  0.12500000000E+03 0.  0.
         25    1    1    2    0    0  0.78484124720E+02  0.10695377082E+03  0.16755319894E+03  0.24758421073E+03  0.12500000000E+03 0.  0.
</event>
<event>
 4    0  0.2230743E-002  0.2047211E+03  0.7546771E-02  0.1145816E+00
         21   -1    0    0  502  501  0.00000000000E+00  0.00000000000E+00  0.14329504499E+04  0.14329504499E+04  0.00000000000E+00 0. -1.
         21   -1    0    0  501  502 -0.00000000000E+00 -0.00000000000E+00 -0.29247843196E+02  0.29247843196E+02  0.00000000000E+00 0. -1.
         25    1    1    2    0    0  0.79868414502E+01 -0.75382408650E+02  0.19004246637E+03  0.23976537739E+03  0.12500000000E+03 0.  0.
         25    1    1    2    0    0 -0.79868414502E+01  0.75382408650E+02  0.12136601403E+04  0.12224329157E+04  0.12500000000E+03 0.  0.
</event>
<event>
 4    0  0.2230743E-002  0.1417157E+03  0.7546771E-02  0.1211039E+00
         21   -1    0    0  502  501  0.00000000000E+00  0.00000000000E+00  0.26562108977E+03  0.26562108977E+03  0.00000000000E+00 0. -1.
         21   -1    0    0  501  502 -0.00000000000E+00 -0.00000000000E+00 -0.75608954175E+02  0.75608954175E+02  0.00000000000E+00 0. -1.
         25    1    1    2    0    0 -0.31692277836E+02  0.33075818236E+02  0.15349157378E+03  0.20318236500E+03  0.12500000000E+03 0.  0.
         25    1    1    2    0    0  0.31692277836E+02 -0.33075818236E+02  0.36520561815E+02  0.13804767894E+03  0.12500000000E+03 0.  0.
</event>
<event>
 4    0  0.2230743E-002  0.3244269E+03  0.7546771E-02  0.1073630E+00
         21   -1    0    0  502  501  0.00000000000E+00  0.00000000000E+00  0.29282423724E+03  0.29282423724E+03  0.00000000000E+00 0. -1.
         21   -1    0    0  501  502 -0.00000000000E+00 -0.00000000000E+00 -0.35944030880E+03  0.35944030880E+03  0.00000000000E+00 0.  1.
         25    1    1    2    0    0 -0.21115114890E+03  0.19913919836E+03  0.40471257901E+02  0.31859716056E+03  0.12500000000E+03 0.  0.
         25    1    1    2    0    0  0.21115114890E+03 -0.19913919836E+03 -0.10708732946E+03  0.33366738548E+03  0.12500000000E+03 0.  0.
</event>
<event>
 4    0  0.2230743E-002  0.2491426E+03  0.7546771E-02  0.1113848E+00
         21   -1    0    0  502  501  0.00000000000E+00  0.00000000000E+00  0.10047075607E+04  0.10047075607E+04  0.00000000000E+00 0.  1.
         21   -1    0    0  501  502 -0.00000000000E+00 -0.00000000000E+00 -0.61781172684E+02  0.61781172684E+02  0.00000000000E+00 0.  1.
         25    1    1    2    0    0  0.16896021306E+03 -0.13203175623E+03  0.51771948135E+03  0.57414144566E+03  0.12500000000E+03 0.  0.
         25    1    1    2    0    0 -0.16896021306E+03  0.13203175623E+03  0.42520690663E+03  0.49234728769E+03  0.12500000000E+03 0.  0.
</event>
<event>
 4    0  0.2230743E-002  0.3188825E+03  0.7546771E-02  0.1076165E+00
         21   -1    0    0  502  501  0.00000000000E+00  0.00000000000E+00  0.59485800531E+03  0.59485800531E+03  0.00000000000E+00 0.  1.
         21   -1    0    0  501  502 -0.00000000000E+00 -0.00000000000E+00 -0.17094171000E+03  0.17094171000E+03  0.00000000000E+00 0.  1.
         25    1    1    2    0    0 -0.13452322960E+03  0.63054315224E+02  0.51570106972E+03  0.55103987087E+03  0.12500000000E+03 0.  0.
         25    1    1    2    0    0  0.13452322960E+03 -0.63054315224E+02 -0.91784774410E+02  0.21475984444E+03  0.12500000000E+03 0.  0.
</event>
<event>
 4    0  0.2230743E-002  0.2133417E+03  0.7546771E-02  0.1138947E+00
         21   -1    0    0  502  501  0.00000000000E+00  0.00000000000E+00  0.12671270598E+04  0.12671270598E+04  0.00000000000E+00 0.  1.
         21   -1    0    0  501  502 -0.00000000000E+00 -0.00000000000E+00 -0.35919589059E+02  0.35919589059E+02  0.00000000000E+00 0.  1.
         25    1    1    2    0    0 -0.93339521183E+02 -0.12764217653E+03  0.40216085099E+03  0.44984790931E+03  0.12500000000E+03 0.  0.
         25    1    1    2    0    0  0.93339521183E+02  0.12764217653E+03  0.82904661974E+03  0.85319873954E+03  0.12500000000E+03 0.  0.
</event>
<event>
 4    0  0.2230743E-002  0.1995549E+03  0.7546771E-02  0.1150115E+00
         21   -1    0    0  502  501  0.00000000000E+00  0.00000000000E+00  0.59901115229E+03  0.59901115229E+03  0.00000000000E+00 0. -1.
         21   -1    0    0  501  502 -0.00000000000E+00 -0.00000000000E+00 -0.66479805099E+02  0.66479805099E+02  0.00000000000E+00 0. -1.
         25    1    1    2    0    0  0.11027623491E+01  0.50269552735E+02  0.51171863673E+03  0.52915896212E+03  0.12500000000E+03 0.  0.
         25    1    1    2    0    0 -0.11027623491E+01 -0.50269552735E+02  0.20812710463E+02  0.13633199527E+03  0.12500000000E+03 0.  0.
</event>
<event>
 4    0  0.2230743E-002  0.2134129E+03  0.7546771E-02  0.1138891E+00
         21   -1    0    0  502  501  0.00000000000E+00  0.00000000000E+00  0.64190117903E+03  0.64190117903E+03  0.00000000000E+00 0. -1.
         21   -1    0    0  501  502 -0.00000000000E+00 -0.00000000000E+00 -0.70953422843E+02  0.70953422843E+02  0.00000000000E+00 0. -1.
         25    1    1    2    0    0 -0.39483494333E+02 -0.22881997940E+02  0.68195884463E+01  0.13324428296E+03  0.12500000000E+03 0.  0.
         25    1    1    2    0    0  0.39483494333E+02  0.22881997940E+02  0.56412816774E+03  0.57961031892E+03  0.12500000000E+03 0.  0.
</event>
<event>
 4    0  0.2230743E-002  0.2189223E+03  0.7546771E-02  0.1134689E+00
         21   -1    0    0  502  501  0.00000000000E+00  0.00000000000E+00  0.55509835244E+03  0.55509835244E+03  0.00000000000E+00 0.  1.
         21   -1    0    0  501  502 -0.00000000000E+00 -0.00000000000E+00 -0.86339614118E+02  0.86339614118E+02  0.00000000000E+00 0.  1.
         25    1    1    2    0    0 -0.16230415138E+02 -0.69503186346E+02  0.47602660066E+03  0.49731322506E+03  0.12500000000E+03 0.  0.
         25    1    1    2    0    0  0.16230415138E+02  0.69503186346E+02 -0.72678623376E+01  0.14412474149E+03  0.12500000000E+03 0.  0.
</event>
<event>
 4    0  0.2230743E-002  0.1906406E+03  0.7546771E-02  0.1157885E+00
         21   -1    0    0  502  501  0.00000000000E+00  0.00000000000E+00  0.10925878291E+03  0.10925878291E+03  0.00000000000E+00 0.  1.
         21   -1    0    0  501  502 -0.00000000000E+00 -0.00000000000E+00 -0.33264000253E+03  0.33264000253E+03  0.00000000000E+00 0.  1.
         25    1    1    2    0    0 -0.17327088598E+02  0.13686587029E+03 -0.15928446839E+03  0.24500823725E+03  0.12500000000E+03 0.  0.
         25    1    1    2    0    0  0.17327088598E+02 -0.13686587029E+03 -0.64096751220E+02  0.19689054819E+03  0.12500000000E+03 0.  0.
</event>
<event>
 4    0  0.2230743E-002  0.2845725E+03  0.7546771E-02  0.1093217E+00
         21   -1    0    0  502  501  0.00000000000E+00  0.00000000000E+00  0.10439526278E+04  0.10439526278E+04  0.00000000000E+00 0.  1.
         21   -1    0    0  501  502 -0.00000000000E+00 -0.00000000000E+00 -0.77572022345E+02  0.77572022345E+02  0.00000000000E+00 0.  1.
         25    1    1    2    0    0  0.22823926390E+03  0.10172406812E+03  0.37678885589E+03  0.46907972621E+03  0.12500000000E+03 0.  0.
         25    1    1    2    0    0 -0.22823926390E+03 -0.10172406812E+03  0.58959174961E+03  0.65244492398E+03  0.12500000000E+03 0.  0.
</event>
<event>
 4    0  0.2230743E-002  0.3062411E+03  0.7546771E-02  0.1082162E+00
         21   -1    0    0  502  501  0.00000000000E+00  0.00000000000E+00  0.71567704403E+02  0.71567704403E+02  0.00000000000E+00 0. -1.
         21   -1    0    0  501  502 -0.00000000000E+00 -0.00000000000E+00 -0.13104177848E+04  0.13104177848E+04  0.00000000000E+00 0. -1.
         25    1    1    2    0    0  0.94297463193E+01  0.20583210827E+03 -0.19307992758E+03  0.30880517377E+03  0.12500000000E+03 0.  0.
         25    1    1    2    0    0 -0.94297463193E+01 -0.20583210827E+03 -0.10457701528E+04  0.10731803154E+04  0.12500000000E+03 0.  0.
</event>
<event>
 4    0  0.2230743E-002  0.1987263E+03  0.7546771E-02  0.1150818E+00
         21   -1    0    0  502  501  0.00000000000E+00  0.00000000000E+00  0.76091491245E+02  0.76091491245E+02  0.00000000000E+00 0. -1.
         21   -1    0    0  501  502 -0.00000000000E+00 -0.00000000000E+00 -0.51900873461E+03  0.51900873461E+03  0.00000000000E+00 0. -1.
         25    1    1    2    0    0  0.14354241791E+02 -0.12764970008E+03 -0.34996953320E+03  0.39319736057E+03  0.12500000000E+03 0.  0.
         25    1    1    2    0    0 -0.14354241791E+02  0.12764970008E+03 -0.92947710171E+02  0.20190286529E+03  0.12500000000E+03 0.  0.
</event>
<event>
 4    0  0.2230743E-002  0.2779885E+03  0.7546771E-02  0.1096793E+00
         21   -1    0    0  502  501  0.00000000000E+00  0.00000000000E+00  0.30286470500E+03  0.30286470500E+03  0.00000000000E+00 0. -1.
         21   -1    0    0  501  502 -0.00000000000E+00 -0.00000000000E+00 -0.25515546252E+03  0.25515546252E+03  0.00000000000E+00 0. -1.
         25    1    1    2    0    0 -0.55579595762E+02 -0.17591644827E+03 -0.14293943154E+03  0.26474963518E+03  0.12500000000E+03 0.  0.
         25    1    1    2    0    0  0.55579595762E+02  0.17591644827E+03  0.19064867403E+03  0.29327053235E+03  0.12500000000E+03 0.  0.
</event>
<event>
 4    0  0.2230743E-002  0.1917588E+03  0.7546771E-02  0.1156885E+00
         21   -1    0    0  502  501  0.00000000000E+00  0.00000000000E+00  0.38148028473E+03  0.38148028473E+03  0.00000000000E+00 0.  1.
         21   -1    0    0  501  502 -0.00000000000E+00 -0.00000000000E+00 -0.96391448994E+02  0.96391448994E+02  0.00000000000E+00 0.  1.
         25    1    1    2    0    0 -0.82876520405E+02  0.85869111078E+02  0.24607997005E+03  0.30070313189E+03  0.12500000000E+03 0.  0.
         25    1    1    2    0    0  0.82876520405E+02 -0.85869111078E+02  0.39008865687E+02  0.17716860183E+03  0.12500000000E+03 0.  0.
</event>
<event>
 4    0  0.2230743E-002  0.2191482E+03  0.7546771E-02  0.1134520E+00
         21   -1    0    0  502  501  0.00000000000E+00  0.00000000000E+00  0.56223528528E+03  0.56223528528E+03  0.00000000000E+00 0. -1.
         21   -1    0    0  501  502 -0.00000000000E+00 -0.00000000000E+00 -0.85419620688E+02  0.85419620688E+02  0.00000000000E+00 0. -1.
         25    1    1    2    0    0 -0.15617842445E+03  0.37911050227E+02  0.35819872653E+03  0.41201975157E+03  0.12500000000E+03 0.  0.
         25    1    1    2    0    0  0.15617842445E+03 -0.37911050227E+02  0.11861693806E+03  0.23563515440E+03  0.12500000000E+03 0.  0.
</event>
<event>
 4    0  0.2230743E-002  0.2424011E+03  0.7546771E-02  0.1118204E+00
         21   -1    0    0  502  501  0.00000000000E+00  0.00000000000E+00  0.72742789020E+03  0.72742789020E+03  0.00000000000E+00 0.  1.
         21   -1    0    0  501  502 -0.00000000000E+00 -0.00000000000E+00 -0.80775398052E+02  0.80775398052E+02  0.00000000000E+00 0.  1.
         25    1    1    2    0    0  0.17181538327E+03 -0.10597703802E+03  0.24196975274E+03  0.33900740369E+03  0.12500000000E+03 0.  0.
         25    1    1    2    0    0 -0.17181538327E+03  0.10597703802E+03  0.40468273941E+03  0.46919588456E+03  0.12500000000E+03 0.  0.
</event>
<event>
 4    0  0.2230743E-002  0.1687856E+03  0.7546771E-02  0.1179120E+00
         21   -1    0    0  502  501  0.00000000000E+00  0.00000000000E+00  0.18757222707E+03  0.18757222707E+03  0.00000000000E+00 0. -1.
         21   -1    0    0  501  502 -0.00000000000E+00 -0.00000000000E+00 -0.15188054477E+03  0.15188054477E+03  0.00000000000E+00 0. -1.
         25    1    1    2    0    0  0.19689970905E+02  0.11135987341E+03  0.26545983801E+02  0.17064116038E+03  0.12500000000E+03 0.  0.
         25    1    1    2    0    0 -0.19689970905E+02 -0.11135987341E+03  0.91456984968E+01  0.16881161145E+03  0.12500000000E+03 0.  0.
</event>
<event>
 4    0  0.2230743E-002  0.2101707E+03  0.7546771E-02  0.1141431E+00
         21   -1    0    0  502  501  0.00000000000E+00  0.00000000000E+00  0.22776369640E+03  0.22776369640E+03  0.00000000000E+00 0. -1.
         21   -1    0    0  501  502 -0.00000000000E+00 -0.00000000000E+00 -0.19393661974E+03  0.19393661974E+03  0.00000000000E+00 0. -1.
         25    1    1    2    0    0 -0.15402203092E+03  0.22545063988E+02  0.82819568315E+02  0.21613687056E+03  0.12500000000E+03 0.  0.
         25    1    1    2    0    0  0.15402203092E+03 -0.22545063988E+02 -0.48992491658E+02  0.20556344558E+03  0.12500000000E+03 0.  0.
</event>
<event>
 4    0  0.2230743E-002  0.2287632E+03  0.7546771E-02  0.1127513E+00
         21   -1    0    0  502  501  0.00000000000E+00  0.00000000000E+00  0.39095692360E+03  0.39095692360E+03  0.00000000000E+00 0. -1.
         21   -1    0    0  501  502 -0.00000000000E+00 -0.00000000000E+00 -0.13385771280E+03  0.13385771280E+03  0.00000000000E+00 0. -1.
         25    1    1    2    0    0  0.24106172551E+02 -0.17676619309E+03  0.20868212939E+03  0.30166309967E+03  0.12500000000E+03 0.  0.
         25    1    1    2    0    0 -0.24106172551E+02  0.17676619309E+03  0.48417081407E+02  0.22315153673E+03  0.12500000000E+03 0.  0.
</event>
<event>
 4    0  0.2230743E-002  0.2612070E+03  0.7546771E-02  0.1106420E+00
         21   -1    0    0  502  501  0.00000000000E+00  0.00000000000E+00  0.31642661776E+03  0.31642661776E+03  0.00000000000E+00 0.  1.
         21   -1    0    0  501  502 -0.00000000000E+00 -0.00000000000E+00 -0.21562372644E+03  0.21562372644E+03  0.00000000000E+00 0.  1.
         25    1    1    2    0    0  0.32503497481E+02 -0.32685743071E+02 -0.17841877871E+03  0.22267262011E+03  0.12500000000E+03 0.  0.
         25    1    1    2    0    0 -0.32503497481E+02  0.32685743071E+02  0.27922167003E+03  0.30937772409E+03  0.12500000000E+03 0.  0.
</event>
<event>
 4    0  0.2230743E-002  0.2460073E+03  0.7546771E-02  0.1115854E+00
         21   -1    0    0  502  501  0.00000000000E+00  0.00000000000E+00  0.23395954514E+03  0.23395954514E+03  0.00000000000E+00 0.  1.
         21   -1    0    0  501  502 -0.00000000000E+00 -0.00000000000E+00 -0.25867535460E+03  0.25867535460E+03  0.00000000000E+00 0.  1.
         25    1    1    2    0    0  0.66355093571E+02  0.12035708138E+03 -0.17382420737E+03  0.25441831803E+03  0.12500000000E+03 0.  0.
         25    1    1    2    0    0 -0.66355093571E+02 -0.12035708138E+03  0.14910839791E+03  0.23821658172E+03  0.12500000000E+03 0.  0.
</event>
<event>
 4    0  0.2230743E-002  0.2009597E+03  0.7546771E-02  0.1148932E+00
         21   -1    0    0  502  501  0.00000000000E+00  0.00000000000E+00  0.53478526341E+02  0.53478526341E+02  0.00000000000E+00 0.  1.
         21   -1    0    0  501  502 -0.00000000000E+00 -0.00000000000E+00 -0.75515903323E+03  0.75515903323E+03  0.00000000000E+00 0.  1.
         25    1    1    2    0    0 -0.70655254580E+02 -0.13812423286E+03 -0.29801682993E+03  0.35848221660E+03  0.12500000000E+03 0.  0.
         25    1    1    2    0    0  0.70655254580E+02  0.13812423286E+03 -0.40366367696E+03  0.45015534296E+03  0.12500000000E+03 0.  0.
</event>
<event>
 4    0  0.2230743E-002  0.2721983E+03  0.7546771E-02  0.1100028E+00
         21   -1    0    0  502  501  0.00000000000E+00  0.00000000000E+00  0.18833784521E+03  0.18833784521E+03  0.00000000000E+00 0. -1.
         21   -1    0    0  501  502 -0.00000000000E+00 -0.00000000000E+00 -0.39339910435E+03  0.39339910435E+03  0.00000000000E+00 0. -1.
         25    1    1    2    0    0  0.30530389018E+02 -0.10107705142E+03 -0.33497850228E+03  0.37280594411E+03  0.12500000000E+03 0.  0.
         25    1    1    2    0    0 -0.30530389018E+02  0.10107705142E+03  0.12991724313E+03  0.20893100545E+03  0.12500000000E+03 0.  0.
</event>
<event>
 4    0  0.2230743E-002  0.1794614E+03  0.7546771E-02  0.1168325E+00
         21   -1    0    0  502  501  0.00000000000E+00  0.00000000000E+00  0.14045770946E+03  0.14045770946E+03  0.00000000000E+00 0.  1.
         21   -1    0    0  501  502 -0.00000000000E+00 -0.00000000000E+00 -0.22929596327E+03  0.22929596327E+03  0.00000000000E+00 0.  1.
         25    1    1    2    0    0 -0.12393551146E+03  0.34865634320E+02 -0.46892050014E+02  0.18547098914E+03  0.12500000000E+03 0.  0.
         25    1    1    2    0    0  0.12393551146E+03 -0.34865634320E+02 -0.41946203790E+02  0.18428268359E+03  0.12500000000E+03 0.  0.
</event>
<event>
 4    0  0.2230743E-002  0.1950856E+03  0.7546771E-02  0.1153953E+00
         21   -1    0    0  502  501  0.00000000000E+00  0.00000000000E+00  0.90641675940E+03  0.90641675940E+03  0.00000000000E+00 0. -1.
         21   -1    0    0  501  502 -0.00000000000E+00 -0.00000000000E+00 -0.41987760065E+02  0.41987760065E+02  0.00000000000E+00 0. -1.
         25    1    1    2    0    0  0.81936618098E+02  0.10495919698E+03  0.26551176046E+03  0.32226004617E+03  0.12500000000E+03 0.  0.
         25    1    1    2    0    0 -0.81936618098E+02 -0.10495919698E+03  0.59891723887E+03  0.62614447329E+03  0.12500000000E+03 0.  0.
</event>
<event>
 4    0  0.2230743E-002  0.2598481E+03  0.7546771E-02  0.1107235E+00
         21   -1    0    0  502  501  0.00000000000E+00  0.00000000000E+00  0.16748719045E+03  0.16748719045E+03  0.00000000000E+00 0.  1.
         21   -1    0    0  501  502 -0.00000000000E+00 -0.00000000000E+00 -0.40314136615E+03  0.40314136615E+03  0.00000000000E+00 0.  1.
         25    1    1    2    0    0 -0.22395790951E+03 -0.31103716859E+02 -0.14832371565E+03  0.29790856157E+03  0.12500000000E+03 0.  0.
         25    1    1    2    0    0  0.22395790951E+03  0.31103716859E+02 -0.87330460049E+02  0.27271999503E+03  0.12500000000E+03 0.  0.
</event>
<event>
 4    0  0.2230743E-002  0.2020524E+03  0.7546771E-02  0.1148019E+00
         21   -1    0    0  502  501  0.00000000000E+00  0.00000000000E+00  0.87171308113E+02  0.87171308113E+02  0.00000000000E+00 0. -1.
         21   -1    0    0  501  502 -0.00000000000E+00 -0.00000000000E+00 -0.46833252672E+03  0.46833252672E+03  0.00000000000E+00 0.  1.
         25    1    1    2    0    0 -0.82950190007E+02  0.13531554131E+03 -0.18642714483E+03  0.27490200085E+03  0.12500000000E+03 0.  0.
         25    1    1    2    0    0  0.82950190007E+02 -0.13531554131E+03 -0.19473407377E+03  0.28060183398E+03  0.12500000000E+03 0.  0.
</event>
<event>
 4    0  0.2230743E-002  0.1621600E+03  0.7546771E-02  0.1186280E+00
         21   -1    0    0  502  501  0.00000000000E+00  0.00000000000E+00  0.75150887904E+02  0.75150887904E+02  0.00000000000E+00 0.  1.
         21   -1    0    0  501  502 -0.00000000000E+00 -0.00000000000E+00 -0.34990745267E+03  0.34990745267E+03  0.00000000000E+00 0.  1.
         25    1    1    2    0    0 -0.77573029244E+02 -0.33187440583E+02 -0.21548775564E+03  0.26301892310E+03  0.12500000000E+03 0.  0.
         25    1    1    2    0    0  0.77573029244E+02  0.33187440583E+02 -0.59268809119E+02  0.16203941747E+03  0.12500000000E+03 0.  0.
</event>
<event>
 4    0  0.2230743E-002  0.1997747E+03  0.7546771E-02  0.1149929E+00
         21   -1    0    0  502  501  0.00000000000E+00  0.00000000000E+00  0.95079584232E+02  0.95079584232E+02  0.00000000000E+00 0.  1.
         21   -1    0    0  501  502 -0.00000000000E+00 -0.00000000000E+00 -0.41975289413E+03  0.41975289413E+03  0.00000000000E+00 0.  1.
         25    1    1    2    0    0 -0.10495917705E+03 -0.99717504906E+01 -0.14469083025E+02  0.16416521866E+03  0.12500000000E+03 0.  0.
         25    1    1    2    0    0  0.10495917705E+03  0.99717504906E+01 -0.31020422687E+03  0.35066725970E+03  0.12500000000E+03 0.  0.
</event>
<event>
 4    0  0.2299981E-002  0.2635923E+03  0.7546771E-02  0.1105004E+00
         21   -1    0    0  502  501  0.00000000000E+00  0.00000000000E+00  0.16064519100E+03  0.16064519100E+03  0.00000000000E+00 0. -1.
         21   -1    0    0  501  502 -0.00000000000E+00 -0.00000000000E+00 -0.43251162612E+03  0.43251162612E+03  0.00000000000E+00 0. -1.
         25    1    1    2    0    0 -0.35615634182E+02 -0.19705558428E+02  0.12112909290E+03  0.17875692876E+03  0.12500000000E+03 0.  0.
         25    1    1    2    0    0  0.35615634182E+02  0.19705558428E+02 -0.39299552803E+03  0.41439988837E+03  0.12500000000E+03 0.  0.
</event>
<event>
 4    0  0.2230743E-002  0.3247962E+03  0.7546771E-02  0.1073463E+00
         21   -1    0    0  502  501  0.00000000000E+00  0.00000000000E+00  0.58396222617E+03  0.58396222617E+03  0.00000000000E+00 0. -1.
         21   -1    0    0  501  502 -0.00000000000E+00 -0.00000000000E+00 -0.18064967730E+03  0.18064967730E+03  0.00000000000E+00 0. -1.
         25    1    1    2    0    0 -0.29513054625E+02  0.24731569279E+03  0.39802327816E+03  0.48588435070E+03  0.12500000000E+03 0.  0.
         25    1    1    2    0    0  0.29513054625E+02 -0.24731569279E+03  0.52892707089E+01  0.27872755278E+03  0.12500000000E+03 0.  0.
</event>
<event>
 4    0  0.2230743E-002  0.2569243E+03  0.7546771E-02  0.1109005E+00
         21   -1    0    0  502  501  0.00000000000E+00  0.00000000000E+00  0.19593996010E+03  0.19593996010E+03  0.00000000000E+00 0. -1.
         21   -1    0    0  501  502 -0.00000000000E+00 -0.00000000000E+00 -0.33688936674E+03  0.33688936674E+03  0.00000000000E+00 0. -1.
         25    1    1    2    0    0  0.82870156498E+02  0.19665554210E+03  0.16966873676E+01  0.24732315667E+03  0.12500000000E+03 0.  0.
         25    1    1    2    0    0 -0.82870156498E+02 -0.19665554210E+03 -0.14264609401E+03  0.28550617018E+03  0.12500000000E+03 0.  0.
</event>
<event>
 4    0  0.2230743E-002  0.2229802E+03  0.7546771E-02  0.1131681E+00
         21   -1    0    0  502  501  0.00000000000E+00  0.00000000000E+00  0.74638476727E+03  0.74638476727E+03  0.00000000000E+00 0.  1.
         21   -1    0    0  501  502 -0.00000000000E+00 -0.00000000000E+00 -0.66614638978E+02  0.66614638978E+02  0.00000000000E+00 0.  1.
         25    1    1    2    0    0  0.16834114706E+03  0.46055405905E+02  0.22996810335E+03  0.31459524911E+03  0.12500000000E+03 0.  0.
         25    1    1    2    0    0 -0.16834114706E+03 -0.46055405905E+02  0.44980202494E+03  0.49840415713E+03  0.12500000000E+03 0.  0.
</event>
<event>
 4    0  0.2230743E-002  0.2069279E+03  0.7546771E-02  0.1144022E+00
         21   -1    0    0  502  501  0.00000000000E+00  0.00000000000E+00  0.17923222490E+03  0.17923222490E+03  0.00000000000E+00 0.  1.
         21   -1    0    0  501  502 -0.00000000000E+00 -0.00000000000E+00 -0.23890313986E+03  0.23890313986E+03  0.00000000000E+00 0.  1.
         25    1    1    2    0    0  0.10674306263E+03  0.11750595531E+03  0.15262546589E+02  0.20263187381E+03  0.12500000000E+03 0.  0.
         25    1    1    2    0    0 -0.10674306263E+03 -0.11750595531E+03 -0.74933461544E+02  0.21550349095E+03  0.12500000000E+03 0.  0.
</event>
<event>
 4    0  0.2230743E-002  0.2512469E+03  0.7546771E-02  0.1112519E+00
         21   -1    0    0  502  501  0.00000000000E+00  0.00000000000E+00  0.11881566661E+03  0.11881566661E+03  0.00000000000E+00 0. -1.
         21   -1    0    0  501  502 -0.00000000000E+00 -0.00000000000E+00 -0.53128531056E+03  0.53128531056E+03  0.00000000000E+00 0. -1.
         25    1    1    2    0    0  0.72998854558E+02 -0.18371666347E+03 -0.87524100872E+02  0.24973208332E+03  0.12500000000E+03 0.  0.
         25    1    1    2    0    0 -0.72998854558E+02  0.18371666347E+03 -0.32494554307E+03  0.40036889385E+03  0.12500000000E+03 0.  0.
</event>
<event>
 4    0  0.2230743E-002  0.2253046E+03  0.7546771E-02  0.1129989E+00
         21   -1    0    0  502  501  0.00000000000E+00  0.00000000000E+00  0.23740612733E+04  0.23740612733E+04  0.00000000000E+00 0. -1.
         21   -1    0    0  501  502 -0.00000000000E+00 -0.00000000000E+00 -0.21381984284E+02  0.21381984284E+02  0.00000000000E+00 0. -1.
         25    1    1    2    0    0  0.80681841137E+02  0.84440222215E+02  0.39690590487E+03  0.43220250802E+03  0.12500000000E+03 0.  0.
         25    1    1    2    0    0 -0.80681841137E+02 -0.84440222215E+02  0.19557733841E+04  0.19632407495E+04  0.12500000000E+03 0.  0.
</event>
<event>
 4    0  0.2230743E-002  0.3546628E+03  0.7546771E-02  0.1060717E+00
         21   -1    0    0  502  501  0.00000000000E+00  0.00000000000E+00  0.50416009474E+03  0.50416009474E+03  0.00000000000E+00 0.  1.
         21   -1    0    0  501  502 -0.00000000000E+00 -0.00000000000E+00 -0.24949554049E+03  0.24949554049E+03  0.00000000000E+00 0.  1.
         25    1    1    2    0    0 -0.32005120458E+03 -0.84120812892E+02  0.10021029643E+03  0.36766314505E+03  0.12500000000E+03 0.  0.
         25    1    1    2    0    0  0.32005120458E+03  0.84120812892E+02  0.15445425782E+03  0.38599249018E+03  0.12500000000E+03 0.  0.
</event>
<event>
 4    0  0.2230743E-002  0.1753523E+03  0.7546771E-02  0.1172378E+00
         21   -1    0    0  502  501  0.00000000000E+00  0.00000000000E+00  0.69622530831E+02  0.69622530831E+02  0.00000000000E+00 0. -1.
         21   -1    0    0  501  502 -0.00000000000E+00 -0.00000000000E+00 -0.44164473404E+03  0.44164473404E+03  0.00000000000E+00 0. -1.
         25    1    1    2    0    0  0.83677392463E+02  0.83694886692E+02 -0.13729509112E+03  0.22018556291E+03  0.12500000000E+03 0.  0.
         25    1    1    2    0    0 -0.83677392463E+02 -0.83694886692E+02 -0.23472711208E+03  0.29108170196E+03  0.12500000000E+03 0.  0.
</event>
<event>
 4    0  0.2230743E-002  0.2700625E+03  0.7546771E-02  0.1101244E+00
         21   -1    0    0  502  501  0.00000000000E+00  0.00000000000E+00  0.10607652123E+04  0.10607652123E+04  0.00000000000E+00 0. -1.
         21   -1    0    0  501  502 -0.00000000000E+00 -0.00000000000E+00 -0.68755796833E+02  0.68755796833E+02  0.00000000000E+00 0.  1.
         25    1    1    2    0    0  0.85856328698E+01  0.22975853627E+03  0.63544479654E+03  0.68722469945E+03  0.12500000000E+03 0.  0.
         25    1    1    2    0    0 -0.85856328698E+01 -0.22975853627E+03  0.35656461888E+03  0.44229630964E+03  0.12500000000E+03 0.  0.
</event>
<event>
 4    0  0.2230743E-002  0.2155682E+03  0.7546771E-02  0.1137231E+00
         21   -1    0    0  502  501  0.00000000000E+00  0.00000000000E+00  0.96014149993E+02  0.96014149993E+02  0.00000000000E+00 0. -1.
         21   -1    0    0  501  502 -0.00000000000E+00 -0.00000000000E+00 -0.48398766258E+03  0.48398766258E+03  0.00000000000E+00 0. -1.
         25    1    1    2    0    0  0.11657341106E+03 -0.94495276412E+02 -0.31673955409E+03  0.37211243268E+03  0.12500000000E+03 0.  0.
         25    1    1    2    0    0 -0.11657341106E+03  0.94495276412E+02 -0.71233958499E+02  0.20788937990E+03  0.12500000000E+03 0.  0.
</event>
<event>
 4    0  0.2230743E-002  0.1794450E+03  0.7546771E-02  0.1168341E+00
         21   -1    0    0  502  501  0.00000000000E+00  0.00000000000E+00  0.43429146982E+03  0.43429146982E+03  0.00000000000E+00 0. -1.
         21   -1    0    0  501  502 -0.00000000000E+00 -0.00000000000E+00 -0.74144937639E+02  0.74144937639E+02  0.00000000000E+00 0. -1.
         25    1    1    2    0    0  0.65138616329E+02  0.27493688322E+02  0.33250143311E+03  0.36218937762E+03  0.12500000000E+03 0.  0.
         25    1    1    2    0    0 -0.65138616329E+02 -0.27493688322E+02  0.27645099064E+02  0.14624702984E+03  0.12500000000E+03 0.  0.
</event>
<event>
 4    0  0.2230743E-002  0.2822058E+03  0.7546771E-02  0.1094490E+00
         21   -1    0    0  502  501  0.00000000000E+00  0.00000000000E+00  0.45127791701E+03  0.45127791701E+03  0.00000000000E+00 0.  1.
         21   -1    0    0  501  502 -0.00000000000E+00 -0.00000000000E+00 -0.17647681332E+03  0.17647681332E+03  0.00000000000E+00 0.  1.
         25    1    1    2    0    0 -0.10305469162E+03  0.19070240101E+03 -0.77332166342E+01  0.25034471805E+03  0.12500000000E+03 0.  0.
         25    1    1    2    0    0  0.10305469162E+03 -0.19070240101E+03  0.28253432032E+03  0.37741001229E+03  0.12500000000E+03 0.  0.
</event>
<event>
 4    0  0.2230743E-002  0.1612695E+03  0.7546771E-02  0.1187271E+00
         21   -1    0    0  502  501  0.00000000000E+00  0.00000000000E+00  0.17458401554E+02  0.17458401554E+02  0.00000000000E+00 0.  1.
         21   -1    0    0  501  502 -0.00000000000E+00 -0.00000000000E+00 -0.14897043047E+04  0.14897043047E+04  0.00000000000E+00 0.  1.
         25    1    1    2    0    0  0.10056861554E+03 -0.92264890360E+00 -0.81261414282E+03  0.82830045444E+03  0.12500000000E+03 0.  0.
         25    1    1    2    0    0 -0.10056861554E+03  0.92264890360E+00 -0.65963176035E+03  0.67886225184E+03  0.12500000000E+03 0.  0.
</event>
<event>
 4    0  0.2230743E-002  0.2243477E+03  0.7546771E-02  0.1130683E+00
         21   -1    0    0  502  501  0.00000000000E+00  0.00000000000E+00  0.10085058163E+03  0.10085058163E+03  0.00000000000E+00 0.  1.
         21   -1    0    0  501  502 -0.00000000000E+00 -0.00000000000E+00 -0.49907373390E+03  0.49907373390E+03  0.00000000000E+00 0.  1.
         25    1    1    2    0    0 -0.11157659875E+03  0.73074694415E+02 -0.25205544937E+02  0.18452524990E+03  0.12500000000E+03 0.  0.
         25    1    1    2    0    0  0.11157659875E+03 -0.73074694415E+02 -0.37301760733E+03  0.41539906564E+03  0.12500000000E+03 0.  0.
</event>
<event>
 4    0  0.2230743E-002  0.2271061E+03  0.7546771E-02  0.1128693E+00
         21   -1    0    0  502  501  0.00000000000E+00  0.00000000000E+00  0.67615032586E+02  0.67615032586E+02  0.00000000000E+00 0.  1.
         21   -1    0    0  501  502 -0.00000000000E+00 -0.00000000000E+00 -0.76280619017E+03  0.76280619017E+03  0.00000000000E+00 0.  1.
         25    1    1    2    0    0 -0.77790267084E+02  0.40737133253E+02 -0.40352400652E+02  0.15800049341E+03  0.12500000000E+03 0.  0.
         25    1    1    2    0    0  0.77790267084E+02 -0.40737133253E+02 -0.65483875693E+03  0.67242072935E+03  0.12500000000E+03 0.  0.
</event>
<event>
 4    0  0.2230743E-002  0.1861645E+03  0.7546771E-02  0.1161967E+00
         21   -1    0    0  502  501  0.00000000000E+00  0.00000000000E+00  0.58958294189E+02  0.58958294189E+02  0.00000000000E+00 0.  1.
         21   -1    0    0  501  502 -0.00000000000E+00 -0.00000000000E+00 -0.58782630515E+03  0.58782630515E+03  0.00000000000E+00 0.  1.
         25    1    1    2    0    0 -0.10228540944E+03 -0.71413262594E+02 -0.36676384148E+03  0.40706617948E+03  0.12500000000E+03 0.  0.
         25    1    1    2    0    0  0.10228540944E+03  0.71413262594E+02 -0.16210416948E+03  0.23971841986E+03  0.12500000000E+03 0.  0.
</event>
<event>
 4    0  0.2230743E-002  0.2307834E+03  0.7546771E-02  0.1126090E+00
         21   -1    0    0  502  501  0.00000000000E+00  0.00000000000E+00  0.21320965272E+04  0.21320965272E+04  0.00000000000E+00 0.  1.
         21   -1    0    0  501  502 -0.00000000000E+00 -0.00000000000E+00 -0.24980563263E+02  0.24980563263E+02  0.00000000000E+00 0.  1.
         25    1    1    2    0    0 -0.19747910153E+02 -0.23048377885E+01  0.19554196468E+04  0.19595117472E+04  0.12500000000E+03 0.  0.
         25    1    1    2    0    0  0.19747910153E+02  0.23048377885E+01  0.15169631712E+03  0.19756534327E+03  0.12500000000E+03 0.  0.
</event>
<event>
 4    0  0.2230743E-002  0.1877445E+03  0.7546771E-02  0.1160511E+00
         21   -1    0    0  502  501  0.00000000000E+00  0.00000000000E+00  0.14025983473E+04  0.14025983473E+04  0.00000000000E+00 0. -1.
         21   -1    0    0  501  502 -0.00000000000E+00 -0.00000000000E+00 -0.25130509981E+02  0.25130509981E+02  0.00000000000E+00 0. -1.
         25    1    1    2    0    0 -0.13142778429E+03  0.19204311504E+01  0.87290358463E+03  0.89155068201E+03  0.12500000000E+03 0.  0.
         25    1    1    2    0    0  0.13142778429E+03 -0.19204311504E+01  0.50456425269E+03  0.53617817527E+03  0.12500000000E+03 0.  0.
</event>
<event>
 4    0  0.2230743E-002  0.1843327E+03  0.7546771E-02  0.1163675E+00
         21   -1    0    0  502  501  0.00000000000E+00  0.00000000000E+00  0.53712647462E+02  0.53712647462E+02  0.00000000000E+00 0.  1.
         21   -1    0    0  501  502 -0.00000000000E+00 -0.00000000000E+00 -0.63259832627E+03  0.63259832627E+03  0.00000000000E+00 0.  1.
         25    1    1    2    0    0  0.78152269702E+02  0.11060700802E+03 -0.28303625037E+03  0.33775169357E+03  0.12500000000E+03 0.  0.
         25    1    1    2    0    0 -0.78152269702E+02 -0.11060700802E+03 -0.29584942843E+03  0.34855928016E+03  0.12500000000E+03 0.  0.
</event>
<event>
 4    0  0.2230743E-002  0.1822344E+03  0.7546771E-02  0.1165658E+00
         21   -1    0    0  502  501  0.00000000000E+00  0.00000000000E+00  0.59844046139E+02  0.59844046139E+02  0.00000000000E+00 0. -1.
         21   -1    0    0  501  502 -0.00000000000E+00 -0.00000000000E+00 -0.55493224511E+03  0.55493224511E+03  0.00000000000E+00 0. -1.
         25    1    1    2    0    0  0.81262730098E+02  0.83862086046E+02 -0.14156010414E+03  0.22203770820E+03  0.12500000000E+03 0.  0.
         25    1    1    2    0    0 -0.81262730098E+02 -0.83862086046E+02 -0.35352809484E+03  0.39273858305E+03  0.12500000000E+03 0.  0.
</event>
<event>
 4    0  0.2230743E-002  0.3746159E+03  0.7546771E-02  0.1052942E+00
         21   -1    0    0  502  501  0.00000000000E+00  0.00000000000E+00  0.93193575926E+03  0.93193575926E+03  0.00000000000E+00 0. -1.
         21   -1    0    0  501  502 -0.00000000000E+00 -0.00000000000E+00 -0.15058664261E+03  0.15058664261E+03  0.00000000000E+00 0. -1.
         25    1    1    2    0    0  0.28762051224E+03 -0.12970420327E+03  0.16147973388E+03  0.37583166958E+03  0.12500000000E+03 0.  0.
         25    1    1    2    0    0 -0.28762051224E+03  0.12970420327E+03  0.61986938278E+03  0.70669073229E+03  0.12500000000E+03 0.  0.
</event>
<event>
 4    0  0.2230743E-002  0.1530067E+03  0.7546771E-02  0.1196826E+00
         21   -1    0    0  502  501  0.00000000000E+00  0.00000000000E+00  0.15079634938E+03  0.15079634938E+03  0.00000000000E+00 0. -1.
         21   -1    0    0  501  502 -0.00000000000E+00 -0.00000000000E+00 -0.15524941620E+03  0.15524941620E+03  0.00000000000E+00 0. -1.
         25    1    1    2    0    0 -0.69288730859E+02  0.53363755343E+02 -0.13950683632E+02  0.15319347304E+03  0.12500000000E+03 0.  0.
         25    1    1    2    0    0  0.69288730859E+02 -0.53363755343E+02  0.94976168116E+01  0.15285229254E+03  0.12500000000E+03 0.  0.
</event>
<event>
 4    0  0.2230743E-002  0.3322285E+03  0.7546771E-02  0.1070155E+00
         21   -1    0    0  502  501  0.00000000000E+00  0.00000000000E+00  0.18015259869E+03  0.18015259869E+03  0.00000000000E+00 0.  1.
         21   -1    0    0  501  502 -0.00000000000E+00 -0.00000000000E+00 -0.61267921584E+03  0.61267921584E+03  0.00000000000E+00 0.  1.
         25    1    1    2    0    0 -0.22410530795E+03  0.14829366253E+03 -0.39538904303E+03  0.49413732377E+03  0.12500000000E+03 0.  0.
         25    1    1    2    0    0  0.22410530795E+03 -0.14829366253E+03 -0.37137574112E+02  0.29869449075E+03  0.12500000000E+03 0.  0.
</event>
<event>
 4    0  0.2230743E-002  0.1681734E+03  0.7546771E-02  0.1179766E+00
         21   -1    0    0  502  501  0.00000000000E+00  0.00000000000E+00  0.15975595600E+03  0.15975595600E+03  0.00000000000E+00 0. -1.
         21   -1    0    0  501  502 -0.00000000000E+00 -0.00000000000E+00 -0.17703430707E+03  0.17703430707E+03  0.00000000000E+00 0. -1.
         25    1    1    2    0    0  0.12115134353E+02  0.12296927543E+01  0.10335192626E+03  0.16264965197E+03  0.12500000000E+03 0.  0.
         25    1    1    2    0    0 -0.12115134353E+02 -0.12296927543E+01 -0.12063027733E+03  0.17414061110E+03  0.12500000000E+03 0.  0.
</event>
<event>
 4    0  0.2230743E-002  0.1444815E+03  0.7546771E-02  0.1207423E+00
         21   -1    0    0  502  501  0.00000000000E+00  0.00000000000E+00  0.73796045754E+03  0.73796045754E+03  0.00000000000E+00 0.  1.
         21   -1    0    0  501  502 -0.00000000000E+00 -0.00000000000E+00 -0.28287278071E+02  0.28287278071E+02  0.00000000000E+00 0.  1.
         25    1    1    2    0    0 -0.30628920502E+02  0.29975626029E+02  0.19991588578E+03  0.23964146201E+03  0.12500000000E+03 0.  0.
         25    1    1    2    0    0  0.30628920502E+02 -0.29975626029E+02  0.50975729368E+03  0.52660627360E+03  0.12500000000E+03 0.  0.
</event>
<event>
 4    0  0.2230743E-002  0.3060989E+03  0.7546771E-02  0.1082231E+00
         21   -1    0    0  502  501  0.00000000000E+00  0.00000000000E+00  0.27441729356E+03  0.27441729356E+03  0.00000000000E+00 0. -1.
         21   -1    0    0  501  502 -0.00000000000E+00 -0.00000000000E+00 -0.34143822810E+03  0.34143822810E+03  0.00000000000E+00 0. -1.
         25    1    1    2    0    0  0.43273741091E+02 -0.95135601277E+02 -0.29418828476E+03  0.33629621792E+03  0.12500000000E+03 0.  0.
         25    1    1    2    0    0 -0.43273741091E+02  0.95135601277E+02  0.22716735022E+03  0.27955930374E+03  0.12500000000E+03 0.  0.
</event>
<event>
 4    0  0.2230743E-002  0.2327958E+03  0.7546771E-02  0.1124687E+00
         21   -1    0    0  502  501  0.00000000000E+00  0.00000000000E+00  0.45337289517E+02  0.45337289517E+02  0.00000000000E+00 0. -1.
         21   -1    0    0  501  502 -0.00000000000E+00 -0.00000000000E+00 -0.11953491954E+04  0.11953491954E+04  0.00000000000E+00 0. -1.
         25    1    1    2    0    0  0.91362699361E+02 -0.10308799902E+03 -0.94802004647E+03  0.96609589943E+03  0.12500000000E+03 0.  0.
         25    1    1    2    0    0 -0.91362699361E+02  0.10308799902E+03 -0.20199185944E+03  0.27459058552E+03  0.12500000000E+03 0.  0.
</event>
<event>
 4    0  0.2230743E-002  0.2104632E+03  0.7546771E-02  0.1141200E+00
         21   -1    0    0  502  501  0.00000000000E+00  0.00000000000E+00  0.10724403947E+03  0.10724403947E+03  0.00000000000E+00 0. -1.
         21   -1    0    0  501  502 -0.00000000000E+00 -0.00000000000E+00 -0.41302784614E+03  0.41302784614E+03  0.00000000000E+00 0. -1.
         25    1    1    2    0    0  0.15813027168E+03 -0.60271728403E+02 -0.14590971786E+03  0.25603224374E+03  0.12500000000E+03 0.  0.
         25    1    1    2    0    0 -0.15813027168E+03  0.60271728403E+02 -0.15987408881E+03  0.26423964188E+03  0.12500000000E+03 0.  0.
</event>
<event>
 4    0  0.2230743E-002  0.1885956E+03  0.7546771E-02  0.1159734E+00
         21   -1    0    0  502  501  0.00000000000E+00  0.00000000000E+00  0.74174508956E+03  0.74174508956E+03  0.00000000000E+00 0. -1.
         21   -1    0    0  501  502 -0.00000000000E+00 -0.00000000000E+00 -0.47952210813E+02  0.47952210813E+02  0.00000000000E+00 0. -1.
         25    1    1    2    0    0 -0.75086231164E+02 -0.51682070455E+02  0.57272030944E+03  0.59324744531E+03  0.12500000000E+03 0.  0.
         25    1    1    2    0    0  0.75086231164E+02  0.51682070455E+02  0.12107256930E+03  0.19644985506E+03  0.12500000000E+03 0.  0.
</event>
<event>
 4    0  0.2230743E-002  0.2434250E+03  0.7546771E-02  0.1117532E+00
         21   -1    0    0  502  501  0.00000000000E+00  0.00000000000E+00  0.47794919424E+03  0.47794919424E+03  0.00000000000E+00 0.  1.
         21   -1    0    0  501  502 -0.00000000000E+00 -0.00000000000E+00 -0.12397918060E+03  0.12397918060E+03  0.00000000000E+00 0.  1.
         25    1    1    2    0    0 -0.19913359893E+03 -0.20532763218E+02  0.25070193513E+03  0.34431416594E+03  0.12500000000E+03 0.  0.
         25    1    1    2    0    0  0.19913359893E+03  0.20532763218E+02  0.10326807852E+03  0.25761420891E+03  0.12500000000E+03 0.  0.
</event>
<event>
 4    0  0.2230743E-002  0.2525159E+03  0.7546771E-02  0.1111725E+00
         21   -1    0    0  502  501  0.00000000000E+00  0.00000000000E+00  0.26771820888E+03  0.26771820888E+03  0.00000000000E+00 0. -1.
         21   -1    0    0  501  502 -0.00000000000E+00 -0.00000000000E+00 -0.23817675712E+03  0.23817675712E+03  0.00000000000E+00 0. -1.
         25    1    1    2    0    0  0.79726387800E+02  0.14702788946E+03 -0.12747819793E+03  0.24464093717E+03  0.12500000000E+03 0.  0.
         25    1    1    2    0    0 -0.79726387800E+02 -0.14702788946E+03  0.15701964969E+03  0.26125402883E+03  0.12500000000E+03 0.  0.
</event>
<event>
 4    0  0.2230743E-002  0.1992493E+03  0.7546771E-02  0.1150374E+00
         21   -1    0    0  502  501  0.00000000000E+00  0.00000000000E+00  0.25809133278E+03  0.25809133278E+03  0.00000000000E+00 0. -1.
         21   -1    0    0  501  502 -0.00000000000E+00 -0.00000000000E+00 -0.15382269080E+03  0.15382269080E+03  0.00000000000E+00 0. -1.
         25    1    1    2    0    0  0.76913210557E+02 -0.48438144688E+02 -0.77850428213E+02  0.17305370551E+03  0.12500000000E+03 0.  0.
         25    1    1    2    0    0 -0.76913210557E+02  0.48438144688E+02  0.18211907019E+03  0.23886031807E+03  0.12500000000E+03 0.  0.
</event>
<event>
 4    0  0.2230743E-002  0.2627421E+03  0.7546771E-02  0.1105507E+00
         21   -1    0    0  502  501  0.00000000000E+00  0.00000000000E+00  0.30191786098E+02  0.30191786098E+02  0.00000000000E+00 0. -1.
         21   -1    0    0  501  502 -0.00000000000E+00 -0.00000000000E+00 -0.22864955876E+04  0.22864955876E+04  0.00000000000E+00 0. -1.
         25    1    1    2    0    0  0.21530965322E+03 -0.81737021972E+02 -0.12128624728E+04  0.12408463101E+04  0.12500000000E+03 0.  0.
         25    1    1    2    0    0 -0.21530965322E+03  0.81737021972E+02 -0.10434413287E+04  0.10758410635E+04  0.12500000000E+03 0.  0.
</event>
<event>
 4    0  0.2230743E-002  0.1861107E+03  0.7546771E-02  0.1162017E+00
         21   -1    0    0  502  501  0.00000000000E+00  0.00000000000E+00  0.49779691654E+02  0.49779691654E+02  0.00000000000E+00 0. -1.
         21   -1    0    0  501  502 -0.00000000000E+00 -0.00000000000E+00 -0.69580987432E+03  0.69580987432E+03  0.00000000000E+00 0. -1.
         25    1    1    2    0    0  0.19226749248E+02  0.68534136265E+02 -0.55956191209E+03  0.57775525024E+03  0.12500000000E+03 0.  0.
         25    1    1    2    0    0 -0.19226749248E+02 -0.68534136265E+02 -0.86468270573E+02  0.16783431573E+03  0.12500000000E+03 0.  0.
</event>
<event>
 4    0  0.2230743E-002  0.1280976E+03  0.7546771E-02  0.1230306E+00
         21   -1    0    0  502  501  0.00000000000E+00  0.00000000000E+00  0.50979566369E+03  0.50979566369E+03  0.00000000000E+00 0.  1.
         21   -1    0    0  501  502 -0.00000000000E+00 -0.00000000000E+00 -0.32187404108E+02  0.32187404108E+02  0.00000000000E+00 0.  1.
         25    1    1    2    0    0 -0.20688980773E+02  0.18027829457E+02  0.25057564976E+03  0.28136487488E+03  0.12500000000E+03 0.  0.
         25    1    1    2    0    0  0.20688980773E+02 -0.18027829457E+02  0.22703260982E+03  0.26061819292E+03  0.12500000000E+03 0.  0.
</event>
<event>
 4    0  0.2230743E-002  0.2223545E+03  0.7546771E-02  0.1132140E+00
         21   -1    0    0  502  501  0.00000000000E+00  0.00000000000E+00  0.12843487266E+03  0.12843487266E+03  0.00000000000E+00 0. -1.
         21   -1    0    0  501  502 -0.00000000000E+00 -0.00000000000E+00 -0.38495392163E+03  0.38495392163E+03  0.00000000000E+00 0. -1.
         25    1    1    2    0    0  0.58078691658E+02 -0.17080876637E+03 -0.16936365143E+03  0.27723242148E+03  0.12500000000E+03 0.  0.
         25    1    1    2    0    0 -0.58078691658E+02  0.17080876637E+03 -0.87155397545E+02  0.23615637280E+03  0.12500000000E+03 0.  0.
</event>
<event>
 4    0  0.2230743E-002  0.2192791E+03  0.7546771E-02  0.1134422E+00
         21   -1    0    0  502  501  0.00000000000E+00  0.00000000000E+00  0.26202769107E+03  0.26202769107E+03  0.00000000000E+00 0.  1.
         21   -1    0    0  501  502 -0.00000000000E+00 -0.00000000000E+00 -0.18350474429E+03  0.18350474429E+03  0.00000000000E+00 0.  1.
         25    1    1    2    0    0 -0.11827326424E+03 -0.13536182656E+03  0.26947018536E+02  0.22059585430E+03  0.12500000000E+03 0.  0.
         25    1    1    2    0    0  0.11827326424E+03  0.13536182656E+03  0.51575928250E+02  0.22493658106E+03  0.12500000000E+03 0.  0.
</event>
<event>
 4    0  0.2230743E-002  0.1802850E+03  0.7546771E-02  0.1167528E+00
         21   -1    0    0  502  501  0.00000000000E+00  0.00000000000E+00  0.24346188522E+03  0.24346188522E+03  0.00000000000E+00 0.  1.
         21   -1    0    0  501  502 -0.00000000000E+00 -0.00000000000E+00 -0.13350211604E+03  0.13350211604E+03  0.00000000000E+00 0.  1.
         25    1    1    2    0    0  0.46702091655E+02  0.36258847998E+02  0.17591961718E+03  0.22375991851E+03  0.12500000000E+03 0.  0.
         25    1    1    2    0    0 -0.46702091655E+02 -0.36258847998E+02 -0.65959848005E+02  0.15320408275E+03  0.12500000000E+03 0.  0.
</event>
<event>
 4    0  0.2230743E-002  0.2860379E+03  0.7546771E-02  0.1092436E+00
         21   -1    0    0  502  501  0.00000000000E+00  0.00000000000E+00  0.62414559999E+03  0.62414559999E+03  0.00000000000E+00 0.  1.
         21   -1    0    0  501  502 -0.00000000000E+00 -0.00000000000E+00 -0.13108752322E+03  0.13108752322E+03  0.00000000000E+00 0.  1.
         25    1    1    2    0    0  0.25290011272E+03  0.47056760492E+02  0.25241748283E+03  0.38146086478E+03  0.12500000000E+03 0.  0.
         25    1    1    2    0    0 -0.25290011272E+03 -0.47056760492E+02  0.24064059394E+03  0.37377225843E+03  0.12500000000E+03 0.  0.
</event>
<event>
 4    0  0.2230743E-002  0.1703461E+03  0.7546771E-02  0.1177487E+00
         21   -1    0    0  502  501  0.00000000000E+00  0.00000000000E+00  0.30967662648E+02  0.30967662648E+02  0.00000000000E+00 0. -1.
         21   -1    0    0  501  502 -0.00000000000E+00 -0.00000000000E+00 -0.93703512101E+03  0.93703512101E+03  0.00000000000E+00 0. -1.
         25    1    1    2    0    0  0.78481455766E+02  0.71331107619E+02 -0.58463517953E+03  0.60718264053E+03  0.12500000000E+03 0.  0.
         25    1    1    2    0    0 -0.78481455766E+02 -0.71331107619E+02 -0.32143227883E+03  0.36082014312E+03  0.12500000000E+03 0.  0.
</event>
<event>
 4    0  0.2230743E-002  0.1840106E+03  0.7546771E-02  0.1163977E+00
         21   -1    0    0  502  501  0.00000000000E+00  0.00000000000E+00  0.55913282223E+03  0.55913282223E+03  0.00000000000E+00 0. -1.
         21   -1    0    0  501  502 -0.00000000000E+00 -0.00000000000E+00 -0.60557879616E+02  0.60557879616E+02  0.00000000000E+00 0. -1.
         25    1    1    2    0    0 -0.71934735416E+02  0.64965091932E+02  0.40760320860E+03  0.43721898974E+03  0.12500000000E+03 0.  0.
         25    1    1    2    0    0  0.71934735416E+02 -0.64965091932E+02  0.90971734016E+02  0.18247171211E+03  0.12500000000E+03 0.  0.
</event>
<event>
 4    0  0.2230743E-002  0.1891859E+03  0.7546771E-02  0.1159198E+00
         21   -1    0    0  502  501  0.00000000000E+00  0.00000000000E+00  0.22041742879E+04  0.22041742879E+04  0.00000000000E+00 0.  1.
         21   -1    0    0  501  502 -0.00000000000E+00 -0.00000000000E+00 -0.16237959208E+02  0.16237959208E+02  0.00000000000E+00 0.  1.
         25    1    1    2    0    0  0.13077923983E+03  0.55337086431E+02  0.10884336445E+04  0.11047525521E+04  0.12500000000E+03 0.  0.
         25    1    1    2    0    0 -0.13077923983E+03 -0.55337086431E+02  0.10995026841E+04  0.11156596950E+04  0.12500000000E+03 0.  0.
</event>
<event>
 4    0  0.2230743E-002  0.1834912E+03  0.7546771E-02  0.1164466E+00
         21   -1    0    0  502  501  0.00000000000E+00  0.00000000000E+00  0.10800251125E+03  0.10800251125E+03  0.00000000000E+00 0. -1.
         21   -1    0    0  501  502 -0.00000000000E+00 -0.00000000000E+00 -0.31174309068E+03  0.31174309068E+03  0.00000000000E+00 0. -1.
         25    1    1    2    0    0 -0.54299460965E+02  0.17881607559E+02 -0.24090303518E+03  0.27735799197E+03  0.12500000000E+03 0.  0.
         25    1    1    2    0    0  0.54299460965E+02 -0.17881607559E+02  0.37162455751E+02  0.14238760995E+03  0.12500000000E+03 0.  0.
</event>
<event>
 4    0  0.2230743E-002  0.3058918E+03  0.7546771E-02  0.1082332E+00
         21   -1    0    0  502  501  0.00000000000E+00  0.00000000000E+00  0.55011000196E+03  0.55011000196E+03  0.00000000000E+00 0. -1.
         21   -1    0    0  501  502 -0.00000000000E+00 -0.00000000000E+00 -0.17009291474E+03  0.17009291474E+03  0.00000000000E+00 0. -1.
         25    1    1    2    0    0  0.21754976316E+03  0.11713021579E+03  0.36981818446E+02  0.27935647799E+03  0.12500000000E+03 0.  0.
         25    1    1    2    0    0 -0.21754976316E+03 -0.11713021579E+03  0.34303526877E+03  0.44084643871E+03  0.12500000000E+03 0.  0.
</event>
<event>
 4    0  0.2230743E-002  0.3337332E+03  0.7546771E-02  0.1069497E+00
         21   -1    0    0  502  501  0.00000000000E+00  0.00000000000E+00  0.16949069802E+03  0.16949069802E+03  0.00000000000E+00 0. -1.
         21   -1    0    0  501  502 -0.00000000000E+00 -0.00000000000E+00 -0.65713234751E+03  0.65713234751E+03  0.00000000000E+00 0. -1.
         25    1    1    2    0    0 -0.13506452094E+03  0.26390555201E+03 -0.13399437324E+03  0.34852267826E+03  0.12500000000E+03 0.  0.
         25    1    1    2    0    0  0.13506452094E+03 -0.26390555201E+03 -0.35364727624E+03  0.47810036728E+03  0.12500000000E+03 0.  0.
</event>
<event>
 4    0  0.2230743E-002  0.2228633E+03  0.7546771E-02  0.1131766E+00
         21   -1    0    0  502  501  0.00000000000E+00  0.00000000000E+00  0.21689051157E+03  0.21689051157E+03  0.00000000000E+00 0.  1.
         21   -1    0    0  501  502 -0.00000000000E+00 -0.00000000000E+00 -0.22900047691E+03  0.22900047691E+03  0.00000000000E+00 0.  1.
         25    1    1    2    0    0  0.15196162153E+03 -0.96335491176E+02 -0.46937768277E+02  0.22405583092E+03  0.12500000000E+03 0.  0.
         25    1    1    2    0    0 -0.15196162153E+03  0.96335491176E+02  0.34827802934E+02  0.22183515757E+03  0.12500000000E+03 0.  0.
</event>
<event>
 4    0  0.2230743E-002  0.3850247E+03  0.7546771E-02  0.1049092E+00
         21   -1    0    0  502  501  0.00000000000E+00  0.00000000000E+00  0.93996030063E+02  0.93996030063E+02  0.00000000000E+00 0. -1.
         21   -1    0    0  501  502 -0.00000000000E+00 -0.00000000000E+00 -0.15771303533E+04  0.15771303533E+04  0.00000000000E+00 0.  1.
         25    1    1    2    0    0 -0.19793497029E+03 -0.18861511243E+03 -0.21953287911E+03  0.37225474894E+03  0.12500000000E+03 0.  0.
         25    1    1    2    0    0  0.19793497029E+03  0.18861511243E+03 -0.12636014441E+04  0.12988716344E+04  0.12500000000E+03 0.  0.
</event>
<event>
 4    0  0.2230743E-002  0.1898724E+03  0.7546771E-02  0.1158576E+00
         21   -1    0    0  502  501  0.00000000000E+00  0.00000000000E+00  0.20747999406E+03  0.20747999406E+03  0.00000000000E+00 0. -1.
         21   -1    0    0  501  502 -0.00000000000E+00 -0.00000000000E+00 -0.17375913932E+03  0.17375913932E+03  0.00000000000E+00 0. -1.
         25    1    1    2    0    0  0.59223823547E+02  0.70761824467E+02  0.12643129732E+03  0.20031118296E+03  0.12500000000E+03 0.  0.
         25    1    1    2    0    0 -0.59223823547E+02 -0.70761824467E+02 -0.92710442591E+02  0.18092795042E+03  0.12500000000E+03 0.  0.
</event>
<event>
 4    0  0.2230743E-002  0.4494516E+03  0.7546771E-02  0.1027886E+00
         21   -1    0    0  502  501  0.00000000000E+00  0.00000000000E+00  0.15376064851E+03  0.15376064851E+03  0.00000000000E+00 0. -1.
         21   -1    0    0  501  502 -0.00000000000E+00 -0.00000000000E+00 -0.13137740130E+04  0.13137740130E+04  0.00000000000E+00 0. -1.
         25    1    1    2    0    0  0.13779865391E+03  0.34996724354E+03 -0.23400599726E+03  0.46027094990E+03  0.12500000000E+03 0.  0.
         25    1    1    2    0    0 -0.13779865391E+03 -0.34996724354E+03 -0.92600736725E+03  0.10072637116E+04  0.12500000000E+03 0.  0.
</event>
<event>
 4    0  0.2230743E-002  0.2144991E+03  0.7546771E-02  0.1138052E+00
         21   -1    0    0  502  501  0.00000000000E+00  0.00000000000E+00  0.11272995853E+04  0.11272995853E+04  0.00000000000E+00 0.  1.
         21   -1    0    0  501  502 -0.00000000000E+00 -0.00000000000E+00 -0.40814240165E+02  0.40814240165E+02  0.00000000000E+00 0.  1.
         25    1    1    2    0    0  0.56250133739E+02 -0.73296365877E+02  0.94571855919E+03  0.95840754796E+03  0.12500000000E+03 0.  0.
         25    1    1    2    0    0 -0.56250133739E+02  0.73296365877E+02  0.14076678593E+03  0.20970627749E+03  0.12500000000E+03 0.  0.
</event>
<event>
 4    0  0.2230743E-002  0.3487944E+03  0.7546771E-02  0.1063111E+00
         21   -1    0    0  502  501  0.00000000000E+00  0.00000000000E+00  0.47042044643E+03  0.47042044643E+03  0.00000000000E+00 0.  1.
         21   -1    0    0  501  502 -0.00000000000E+00 -0.00000000000E+00 -0.25861452824E+03  0.25861452824E+03  0.00000000000E+00 0.  1.
         25    1    1    2    0    0 -0.20428322884E+03 -0.24661001772E+03  0.16759288870E+03  0.38244021071E+03  0.12500000000E+03 0.  0.
         25    1    1    2    0    0  0.20428322884E+03  0.24661001772E+03  0.44213029493E+02  0.34659476396E+03  0.12500000000E+03 0.  0.
</event>
<event>
 4    0  0.2230743E-002  0.2361315E+03  0.7546771E-02  0.1122397E+00
         21   -1    0    0  502  501  0.00000000000E+00  0.00000000000E+00  0.22188144567E+03  0.22188144567E+03  0.00000000000E+00 0.  1.
         21   -1    0    0  501  502 -0.00000000000E+00 -0.00000000000E+00 -0.25129680630E+03  0.25129680630E+03  0.00000000000E+00 0.  1.
         25    1    1    2    0    0 -0.51631130915E+02 -0.14856940677E+03 -0.13902252175E+03  0.24431721974E+03  0.12500000000E+03 0.  0.
         25    1    1    2    0    0  0.51631130915E+02  0.14856940677E+03  0.10960716112E+03  0.22886103224E+03  0.12500000000E+03 0.  0.
</event>
<event>
 4    0  0.2230743E-002  0.2232137E+03  0.7546771E-02  0.1131510E+00
         21   -1    0    0  502  501  0.00000000000E+00  0.00000000000E+00  0.36359144757E+02  0.36359144757E+02  0.00000000000E+00 0.  1.
         21   -1    0    0  501  502 -0.00000000000E+00 -0.00000000000E+00 -0.13703392972E+04  0.13703392972E+04  0.00000000000E+00 0.  1.
         25    1    1    2    0    0 -0.16318064013E+03  0.55935427211E+02 -0.45696447906E+03  0.50418074978E+03  0.12500000000E+03 0.  0.
         25    1    1    2    0    0  0.16318064013E+03 -0.55935427211E+02 -0.87701567342E+03  0.90251769221E+03  0.12500000000E+03 0.  0.
</event>
<event>
 4    0  0.2230743E-002  0.2086520E+03  0.7546771E-02  0.1142638E+00
         21   -1    0    0  502  501  0.00000000000E+00  0.00000000000E+00  0.26422923722E+03  0.26422923722E+03  0.00000000000E+00 0. -1.
         21   -1    0    0  501  502 -0.00000000000E+00 -0.00000000000E+00 -0.16476472987E+03  0.16476472987E+03  0.00000000000E+00 0. -1.
         25    1    1    2    0    0 -0.78496342901E+02  0.34677195036E+02 -0.97623565905E+02  0.18033176183E+03  0.12500000000E+03 0.  0.
         25    1    1    2    0    0  0.78496342901E+02 -0.34677195036E+02  0.19708807325E+03  0.24866220526E+03  0.12500000000E+03 0.  0.
</event>
<event>
 4    0  0.2230743E-002  0.2438111E+03  0.7546771E-02  0.1117280E+00
         21   -1    0    0  502  501  0.00000000000E+00  0.00000000000E+00  0.15838367617E+03  0.15838367617E+03  0.00000000000E+00 0. -1.
         21   -1    0    0  501  502 -0.00000000000E+00 -0.00000000000E+00 -0.37531551784E+03  0.37531551784E+03  0.00000000000E+00 0. -1.
         25    1    1    2    0    0  0.15978440017E+03 -0.88055200432E+02 -0.22079995561E+03  0.31250982906E+03  0.12500000000E+03 0.  0.
         25    1    1    2    0    0 -0.15978440017E+03  0.88055200432E+02  0.38681139383E+01  0.22118936495E+03  0.12500000000E+03 0.  0.
</event>
<event>
 4    0  0.2230743E-002  0.3122353E+03  0.7546771E-02  0.1079279E+00
         21   -1    0    0  502  501  0.00000000000E+00  0.00000000000E+00  0.17437617634E+03  0.17437617634E+03  0.00000000000E+00 0.  1.
         21   -1    0    0  501  502 -0.00000000000E+00 -0.00000000000E+00 -0.55908364862E+03  0.55908364862E+03  0.00000000000E+00 0.  1.
         25    1    1    2    0    0  0.19476733953E+03 -0.18887916270E+03 -0.29907595390E+03  0.42270684978E+03  0.12500000000E+03 0.  0.
         25    1    1    2    0    0 -0.19476733953E+03  0.18887916270E+03 -0.85631518385E+02  0.31075297519E+03  0.12500000000E+03 0.  0.
</event>
<event>
 4    0  0.2230743E-002  0.2245093E+03  0.7546771E-02  0.1130565E+00
         21   -1    0    0  502  501  0.00000000000E+00  0.00000000000E+00  0.93468303495E+03  0.93468303495E+03  0.00000000000E+00 0. -1.
         21   -1    0    0  501  502 -0.00000000000E+00 -0.00000000000E+00 -0.53926736204E+02  0.53926736204E+02  0.00000000000E+00 0. -1.
         25    1    1    2    0    0 -0.53941860671E+02  0.14877451506E+03  0.22313453004E+03  0.30076169829E+03  0.12500000000E+03 0.  0.
         25    1    1    2    0    0  0.53941860671E+02 -0.14877451506E+03  0.65762176871E+03  0.68784807286E+03  0.12500000000E+03 0.  0.
</event>
<event>
 4    0  0.2230743E-002  0.1698973E+03  0.7546771E-02  0.1177955E+00
         21   -1    0    0  502  501  0.00000000000E+00  0.00000000000E+00  0.62142377905E+02  0.62142377905E+02  0.00000000000E+00 0. -1.
         21   -1    0    0  501  502 -0.00000000000E+00 -0.00000000000E+00 -0.46449905654E+03  0.46449905654E+03  0.00000000000E+00 0. -1.
         25    1    1    2    0    0 -0.76790115190E+02  0.80121970038E+02 -0.15407048690E+03  0.22733008338E+03  0.12500000000E+03 0.  0.
         25    1    1    2    0    0  0.76790115190E+02 -0.80121970038E+02 -0.24828619173E+03  0.29931135107E+03  0.12500000000E+03 0.  0.
</event>
<event>
 4    0  0.2230743E-002  0.2354913E+03  0.7546771E-02  0.1122833E+00
         21   -1    0    0  502  501  0.00000000000E+00  0.00000000000E+00  0.33745269110E+02  0.33745269110E+02  0.00000000000E+00 0.  1.
         21   -1    0    0  501  502 -0.00000000000E+00 -0.00000000000E+00 -0.16433761589E+04  0.16433761589E+04  0.00000000000E+00 0.  1.
         25    1    1    2    0    0  0.18497205526E+03  0.49058316599E+02 -0.60307268590E+03  0.64493646519E+03  0.12500000000E+03 0.  0.
         25    1    1    2    0    0 -0.18497205526E+03 -0.49058316599E+02 -0.10065582039E+04  0.10321849628E+04  0.12500000000E+03 0.  0.
</event>
<event>
 4    0  0.2230743E-002  0.2463890E+03  0.7546771E-02  0.1115608E+00
         21   -1    0    0  502  501  0.00000000000E+00  0.00000000000E+00  0.12330632641E+03  0.12330632641E+03  0.00000000000E+00 0. -1.
         21   -1    0    0  501  502 -0.00000000000E+00 -0.00000000000E+00 -0.49233127877E+03  0.49233127877E+03  0.00000000000E+00 0. -1.
         25    1    1    2    0    0 -0.10042602039E+03 -0.16834714125E+03 -0.28644058653E+03  0.36891646094E+03  0.12500000000E+03 0.  0.
         25    1    1    2    0    0  0.10042602039E+03  0.16834714125E+03 -0.82584365832E+02  0.24672114425E+03  0.12500000000E+03 0.  0.
</event>
<event>
 4    0  0.2230743E-002  0.1845996E+03  0.7546771E-02  0.1163424E+00
         21   -1    0    0  502  501  0.00000000000E+00  0.00000000000E+00  0.40227634794E+03  0.40227634794E+03  0.00000000000E+00 0.  1.
         21   -1    0    0  501  502 -0.00000000000E+00 -0.00000000000E+00 -0.84710418302E+02  0.84710418302E+02  0.00000000000E+00 0.  1.
         25    1    1    2    0    0 -0.93300231917E+02  0.20034769608E+02  0.28629811270E+03  0.32664649792E+03  0.12500000000E+03 0.  0.
         25    1    1    2    0    0  0.93300231917E+02 -0.20034769608E+02  0.31267816938E+02  0.16034026832E+03  0.12500000000E+03 0.  0.
</event>
<event>
 4    0  0.2230743E-002  0.1776401E+03  0.7546771E-02  0.1170107E+00
         21   -1    0    0  502  501  0.00000000000E+00  0.00000000000E+00  0.11782487378E+04  0.11782487378E+04  0.00000000000E+00 0.  1.
         21   -1    0    0  501  502 -0.00000000000E+00 -0.00000000000E+00 -0.26782130488E+02  0.26782130488E+02  0.00000000000E+00 0.  1.
         25    1    1    2    0    0 -0.50276016269E+01 -0.12386462861E+03  0.65623268551E+03  0.67943657579E+03  0.12500000000E+03 0.  0.
         25    1    1    2    0    0  0.50276016269E+01  0.12386462861E+03  0.49523392183E+03  0.52559429252E+03  0.12500000000E+03 0.  0.
</event>
<event>
 4    0  0.2230743E-002  0.2337319E+03  0.7546771E-02  0.1124040E+00
         21   -1    0    0  502  501  0.00000000000E+00  0.00000000000E+00  0.10998640855E+03  0.10998640855E+03  0.00000000000E+00 0.  1.
         21   -1    0    0  501  502 -0.00000000000E+00 -0.00000000000E+00 -0.49670338693E+03  0.49670338693E+03  0.00000000000E+00 0.  1.
         25    1    1    2    0    0  0.11223865289E+03  0.16222162051E+03 -0.18089306189E+03  0.29539916927E+03  0.12500000000E+03 0.  0.
         25    1    1    2    0    0 -0.11223865289E+03 -0.16222162051E+03 -0.20582391649E+03  0.31129062621E+03  0.12500000000E+03 0.  0.
</event>
<event>
 4    0  0.2230743E-002  0.2850582E+03  0.7546771E-02  0.1092958E+00
         21   -1    0    0  502  501  0.00000000000E+00  0.00000000000E+00  0.33457658772E+03  0.33457658772E+03  0.00000000000E+00 0. -1.
         21   -1    0    0  501  502 -0.00000000000E+00 -0.00000000000E+00 -0.24286876906E+03  0.24286876906E+03  0.00000000000E+00 0. -1.
         25    1    1    2    0    0  0.19421410954E+03 -0.15938218676E+03  0.96612017243E+02  0.29678390064E+03  0.12500000000E+03 0.  0.
         25    1    1    2    0    0 -0.19421410954E+03  0.15938218676E+03 -0.49041985897E+01  0.28066145614E+03  0.12500000000E+03 0.  0.
</event>
<event>
 4    0  0.2230743E-002  0.2285771E+03  0.7546771E-02  0.1127645E+00
         21   -1    0    0  502  501  0.00000000000E+00  0.00000000000E+00  0.13993386813E+04  0.13993386813E+04  0.00000000000E+00 0.  1.
         21   -1    0    0  501  502 -0.00000000000E+00 -0.00000000000E+00 -0.37337278282E+02  0.37337278282E+02  0.00000000000E+00 0.  1.
         25    1    1    2    0    0  0.37506322760E+02 -0.87941289087E+02  0.16002068655E+03  0.22443710633E+03  0.12500000000E+03 0.  0.
         25    1    1    2    0    0 -0.37506322760E+02  0.87941289087E+02  0.12019807164E+04  0.12122388532E+04  0.12500000000E+03 0.  0.
</event>
<event>
 4    0  0.2230743E-002  0.1840374E+03  0.7546771E-02  0.1163952E+00
         21   -1    0    0  502  501  0.00000000000E+00  0.00000000000E+00  0.18526794174E+03  0.18526794174E+03  0.00000000000E+00 0.  1.
         21   -1    0    0  501  502 -0.00000000000E+00 -0.00000000000E+00 -0.18281506666E+03  0.18281506666E+03  0.00000000000E+00 0.  1.
         25    1    1    2    0    0  0.13039301784E+03 -0.31056225264E+02 -0.15445551966E+02  0.18393040343E+03  0.12500000000E+03 0.  0.
         25    1    1    2    0    0 -0.13039301784E+03  0.31056225264E+02  0.17898427052E+02  0.18415260498E+03  0.12500000000E+03 0.  0.
</event>
<event>
 4    0  0.2230743E-002  0.2155448E+03  0.7546771E-02  0.1137249E+00
         21   -1    0    0  502  501  0.00000000000E+00  0.00000000000E+00  0.41395568682E+03  0.41395568682E+03  0.00000000000E+00 0. -1.
         21   -1    0    0  501  502 -0.00000000000E+00 -0.00000000000E+00 -0.11223320005E+03  0.11223320005E+03  0.00000000000E+00 0. -1.
         25    1    1    2    0    0 -0.37864820323E+02 -0.15671801214E+03  0.23578121362E+03  0.31178848703E+03  0.12500000000E+03 0.  0.
         25    1    1    2    0    0  0.37864820323E+02  0.15671801214E+03  0.65941273140E+02  0.21440039984E+03  0.12500000000E+03 0.  0.
</event>
<event>
 4    0  0.2230743E-002  0.2389516E+03  0.7546771E-02  0.1120493E+00
         21   -1    0    0  502  501  0.00000000000E+00  0.00000000000E+00  0.41948869324E+03  0.41948869324E+03  0.00000000000E+00 0. -1.
         21   -1    0    0  501  502 -0.00000000000E+00 -0.00000000000E+00 -0.13611304259E+03  0.13611304259E+03  0.00000000000E+00 0. -1.
         25    1    1    2    0    0 -0.15362691974E+03 -0.10797133083E+03  0.23333176636E+03  0.32454237310E+03  0.12500000000E+03 0.  0.
         25    1    1    2    0    0  0.15362691974E+03  0.10797133083E+03  0.50043884297E+02  0.23105936273E+03  0.12500000000E+03 0.  0.
</event>
<event>
 4    0  0.2230743E-002  0.1911591E+03  0.7546771E-02  0.1157420E+00
         21   -1    0    0  502  501  0.00000000000E+00  0.00000000000E+00  0.10941415538E+03  0.10941415538E+03  0.00000000000E+00 0. -1.
         21   -1    0    0  501  502 -0.00000000000E+00 -0.00000000000E+00 -0.33397703322E+03  0.33397703322E+03  0.00000000000E+00 0. -1.
         25    1    1    2    0    0 -0.11456295896E+03 -0.20147084178E+02 -0.12609325546E+02  0.17121498666E+03  0.12500000000E+03 0.  0.
         25    1    1    2    0    0  0.11456295896E+03  0.20147084178E+02 -0.21195355229E+03  0.27217620193E+03  0.12500000000E+03 0.  0.
</event>
<event>
 4    0  0.2230743E-002  0.2187489E+03  0.7546771E-02  0.1134819E+00
         21   -1    0    0  502  501  0.00000000000E+00  0.00000000000E+00  0.89108029678E+03  0.89108029678E+03  0.00000000000E+00 0.  1.
         21   -1    0    0  501  502 -0.00000000000E+00 -0.00000000000E+00 -0.53700082271E+02  0.53700082271E+02  0.00000000000E+00 0.  1.
         25    1    1    2    0    0 -0.14380156254E+03  0.65289270429E+02  0.23437749388E+03  0.30902975238E+03  0.12500000000E+03 0.  0.
         25    1    1    2    0    0  0.14380156254E+03 -0.65289270429E+02  0.60300272063E+03  0.63575062666E+03  0.12500000000E+03 0.  0.
</event>
<event>
 4    0  0.2230743E-002  0.1807584E+03  0.7546771E-02  0.1167071E+00
         21   -1    0    0  502  501  0.00000000000E+00  0.00000000000E+00  0.36257410896E+03  0.36257410896E+03  0.00000000000E+00 0.  1.
         21   -1    0    0  501  502 -0.00000000000E+00 -0.00000000000E+00 -0.90115637701E+02  0.90115637701E+02  0.00000000000E+00 0.  1.
         25    1    1    2    0    0 -0.82274921954E+02  0.95037477275E+02  0.92005057725E+02  0.19972785363E+03  0.12500000000E+03 0.  0.
         25    1    1    2    0    0  0.82274921954E+02 -0.95037477275E+02  0.18045341354E+03  0.25296189303E+03  0.12500000000E+03 0.  0.
</event>
<event>
 4    0  0.2230743E-002  0.1965836E+03  0.7546771E-02  0.1152654E+00
         21   -1    0    0  502  501  0.00000000000E+00  0.00000000000E+00  0.14072063136E+03  0.14072063136E+03  0.00000000000E+00 0. -1.
         21   -1    0    0  501  502 -0.00000000000E+00 -0.00000000000E+00 -0.27462306621E+03  0.27462306621E+03  0.00000000000E+00 0. -1.
         25    1    1    2    0    0  0.10975818027E+03 -0.98235358357E+02 -0.28525275845E+02  0.19528372981E+03  0.12500000000E+03 0.  0.
         25    1    1    2    0    0 -0.10975818027E+03  0.98235358357E+02 -0.10537715901E+03  0.22005996776E+03  0.12500000000E+03 0.  0.
</event>
<event>
 4    0  0.2230743E-002  0.1965297E+03  0.7546771E-02  0.1152700E+00
         21   -1    0    0  502  501  0.00000000000E+00  0.00000000000E+00  0.13408646046E+03  0.13408646046E+03  0.00000000000E+00 0. -1.
         21   -1    0    0  501  502 -0.00000000000E+00 -0.00000000000E+00 -0.28805222705E+03  0.28805222705E+03  0.00000000000E+00 0. -1.
         25    1    1    2    0    0  0.10947284046E+03 -0.61942730349E+02 -0.16797205178E+03  0.24425563417E+03  0.12500000000E+03 0.  0.
         25    1    1    2    0    0 -0.10947284046E+03  0.61942730349E+02  0.14006285193E+02  0.17788305334E+03  0.12500000000E+03 0.  0.
</event>
<event>
 4    0  0.2230743E-002  0.2205509E+03  0.7546771E-02  0.1133473E+00
         21   -1    0    0  502  501  0.00000000000E+00  0.00000000000E+00  0.22825484127E+02  0.22825484127E+02  0.00000000000E+00 0.  1.
         21   -1    0    0  501  502 -0.00000000000E+00 -0.00000000000E+00 -0.21310699146E+04  0.21310699146E+04  0.00000000000E+00 0.  1.
         25    1    1    2    0    0  0.61067102210E+02 -0.13000644910E+03 -0.15975801531E+04  0.16088872594E+04  0.12500000000E+03 0.  0.
         25    1    1    2    0    0 -0.61067102210E+02  0.13000644910E+03 -0.51066427735E+03  0.54500813934E+03  0.12500000000E+03 0.  0.
</event>
<event>
 4    0  0.2230743E-002  0.1830450E+03  0.7546771E-02  0.1164888E+00
         21   -1    0    0  502  501  0.00000000000E+00  0.00000000000E+00  0.31297654996E+03  0.31297654996E+03  0.00000000000E+00 0.  1.
         21   -1    0    0  501  502 -0.00000000000E+00 -0.00000000000E+00 -0.10705425863E+03  0.10705425863E+03  0.00000000000E+00 0.  1.
         25    1    1    2    0    0  0.33890219698E+02  0.11122085493E+03  0.27185701759E+02  0.17286609830E+03  0.12500000000E+03 0.  0.
         25    1    1    2    0    0 -0.33890219698E+02 -0.11122085493E+03  0.17873658957E+03  0.24716471029E+03  0.12500000000E+03 0.  0.
</event>
<event>
 4    0  0.2230743E-002  0.2051127E+03  0.7546771E-02  0.1145496E+00
         21   -1    0    0  502  501  0.00000000000E+00  0.00000000000E+00  0.27403719780E+03  0.27403719780E+03  0.00000000000E+00 0. -1.
         21   -1    0    0  501  502 -0.00000000000E+00 -0.00000000000E+00 -0.15352368385E+03  0.15352368385E+03  0.00000000000E+00 0. -1.
         25    1    1    2    0    0  0.13028803805E+03  0.45452846074E+02  0.14994713424E+03  0.23906082310E+03  0.12500000000E+03 0.  0.
         25    1    1    2    0    0 -0.13028803805E+03 -0.45452846074E+02 -0.29433620287E+02  0.18850005856E+03  0.12500000000E+03 0.  0.
</event>
<event>
 4    0  0.2230743E-002  0.2149395E+03  0.7546771E-02  0.1137713E+00
         21   -1    0    0  502  501  0.00000000000E+00  0.00000000000E+00  0.74457898449E+03  0.74457898449E+03  0.00000000000E+00 0.  1.
         21   -1    0    0  501  502 -0.00000000000E+00 -0.00000000000E+00 -0.62047136347E+02  0.62047136347E+02  0.00000000000E+00 0.  1.
         25    1    1    2    0    0 -0.12812612950E+03  0.11091948102E+03  0.42207240101E+03  0.47168797740E+03  0.12500000000E+03 0.  0.
         25    1    1    2    0    0  0.12812612950E+03 -0.11091948102E+03  0.26045944714E+03  0.33493814344E+03  0.12500000000E+03 0.  0.
</event>
<event>
 4    0  0.2230743E-002  0.2391193E+03  0.7546771E-02  0.1120381E+00
         21   -1    0    0  502  501  0.00000000000E+00  0.00000000000E+00  0.23052553692E+03  0.23052553692E+03  0.00000000000E+00 0.  1.
         21   -1    0    0  501  502 -0.00000000000E+00 -0.00000000000E+00 -0.24803349741E+03  0.24803349741E+03  0.00000000000E+00 0.  1.
         25    1    1    2    0    0 -0.72272325510E+02 -0.10989697320E+03  0.14708223318E+03  0.23357828895E+03  0.12500000000E+03 0.  0.
         25    1    1    2    0    0  0.72272325510E+02  0.10989697320E+03 -0.16459019366E+03  0.24498074537E+03  0.12500000000E+03 0.  0.
</event>
<event>
 4    0  0.2230743E-002  0.2272377E+03  0.7546771E-02  0.1128599E+00
         21   -1    0    0  502  501  0.00000000000E+00  0.00000000000E+00  0.31615161541E+02  0.31615161541E+02  0.00000000000E+00 0. -1.
         21   -1    0    0  501  502 -0.00000000000E+00 -0.00000000000E+00 -0.16332975907E+04  0.16332975907E+04  0.00000000000E+00 0. -1.
         25    1    1    2    0    0  0.15067470046E+03 -0.24366055158E+02 -0.38774987908E+03  0.43505348950E+03  0.12500000000E+03 0.  0.
         25    1    1    2    0    0 -0.15067470046E+03  0.24366055158E+02 -0.12139325501E+04  0.12298592628E+04  0.12500000000E+03 0.  0.
</event>
<event>
 4    0  0.2230743E-002  0.2430485E+03  0.7546771E-02  0.1117779E+00
         21   -1    0    0  502  501  0.00000000000E+00  0.00000000000E+00  0.58262559231E+02  0.58262559231E+02  0.00000000000E+00 0.  1.
         21   -1    0    0  501  502 -0.00000000000E+00 -0.00000000000E+00 -0.10139028934E+04  0.10139028934E+04  0.00000000000E+00 0.  1.
         25    1    1    2    0    0 -0.24658281640E+02  0.79933252242E+02 -0.89892375407E+03  0.91141992039E+03  0.12500000000E+03 0.  0.
         25    1    1    2    0    0  0.24658281640E+02 -0.79933252242E+02 -0.56716580064E+02  0.16074553220E+03  0.12500000000E+03 0.  0.
</event>
<event>
 4    0  0.2230743E-002  0.1869302E+03  0.7546771E-02  0.1161260E+00
         21   -1    0    0  502  501  0.00000000000E+00  0.00000000000E+00  0.41016314193E+02  0.41016314193E+02  0.00000000000E+00 0.  1.
         21   -1    0    0  501  502 -0.00000000000E+00 -0.00000000000E+00 -0.85192730589E+03  0.85192730589E+03  0.00000000000E+00 0.  1.
         25    1    1    2    0    0  0.72946014081E+02  0.10312772948E+03 -0.54393292127E+03  0.57222764037E+03  0.12500000000E+03 0.  0.
         25    1    1    2    0    0 -0.72946014081E+02 -0.10312772948E+03 -0.26697807043E+03  0.32071597972E+03  0.12500000000E+03 0.  0.
</event>
<event>
 4    0  0.2230743E-002  0.2755766E+03  0.7546771E-02  0.1098130E+00
         21   -1    0    0  502  501  0.00000000000E+00  0.00000000000E+00  0.47356888096E+02  0.47356888096E+02  0.00000000000E+00 0. -1.
         21   -1    0    0  501  502 -0.00000000000E+00 -0.00000000000E+00 -0.16036198238E+04  0.16036198238E+04  0.00000000000E+00 0. -1.
         25    1    1    2    0    0  0.74637676223E+02 -0.13550610180E+03 -0.20674702468E+03  0.28688328385E+03  0.12500000000E+03 0.  0.
         25    1    1    2    0    0 -0.74637676223E+02  0.13550610180E+03 -0.13495159110E+04  0.13640934280E+04  0.12500000000E+03 0.  0.
</event>
<event>
 4    0  0.2230743E-002  0.4390403E+03  0.7546771E-02  0.1031042E+00
         21   -1    0    0  502  501  0.00000000000E+00  0.00000000000E+00  0.49680038537E+03  0.49680038537E+03  0.00000000000E+00 0. -1.
         21   -1    0    0  501  502 -0.00000000000E+00 -0.00000000000E+00 -0.38799568668E+03  0.38799568668E+03  0.00000000000E+00 0. -1.
         25    1    1    2    0    0 -0.34947602990E+03 -0.17477679673E+03 -0.10316162871E+03  0.42302215757E+03  0.12500000000E+03 0.  0.
         25    1    1    2    0    0  0.34947602990E+03  0.17477679673E+03  0.21196632740E+03  0.46177391449E+03  0.12500000000E+03 0.  0.
</event>
<event>
 4    0  0.2230743E-002  0.3427648E+03  0.7546771E-02  0.1065624E+00
         21   -1    0    0  502  501  0.00000000000E+00  0.00000000000E+00  0.72817827057E+02  0.72817827057E+02  0.00000000000E+00 0. -1.
         21   -1    0    0  501  502 -0.00000000000E+00 -0.00000000000E+00 -0.16134468905E+04  0.16134468905E+04  0.00000000000E+00 0. -1.
         25    1    1    2    0    0  0.30004717494E+03 -0.58913132098E+01 -0.10375134601E+04  0.10872544296E+04  0.12500000000E+03 0.  0.
         25    1    1    2    0    0 -0.30004717494E+03  0.58913132098E+01 -0.50311560328E+03  0.59901028791E+03  0.12500000000E+03 0.  0.
</event>
<event>
 4    0  0.2230743E-002  0.2280133E+03  0.7546771E-02  0.1128046E+00
         21   -1    0    0  502  501  0.00000000000E+00  0.00000000000E+00  0.13280604190E+04  0.13280604190E+04  0.00000000000E+00 0.  1.
         21   -1    0    0  501  502 -0.00000000000E+00 -0.00000000000E+00 -0.39147366471E+02  0.39147366471E+02  0.00000000000E+00 0.  1.
         25    1    1    2    0    0 -0.10796020733E+03  0.10102009789E+03  0.10055313713E+04  0.10240013697E+04  0.12500000000E+03 0.  0.
         25    1    1    2    0    0  0.10796020733E+03 -0.10102009789E+03  0.28338168120E+03  0.34320641571E+03  0.12500000000E+03 0.  0.
</event>
<event>
 4    0  0.2230743E-002  0.2094129E+03  0.7546771E-02  0.1142032E+00
         21   -1    0    0  502  501  0.00000000000E+00  0.00000000000E+00  0.28558726482E+03  0.28558726482E+03  0.00000000000E+00 0.  1.
         21   -1    0    0  501  502 -0.00000000000E+00 -0.00000000000E+00 -0.15355640445E+03  0.15355640445E+03  0.00000000000E+00 0.  1.
         25    1    1    2    0    0 -0.14264419246E+03 -0.19357544222E+02  0.15685958836E+03  0.24688460993E+03  0.12500000000E+03 0.  0.
         25    1    1    2    0    0  0.14264419246E+03  0.19357544222E+02 -0.24828727993E+02  0.19225905933E+03  0.12500000000E+03 0.  0.
</event>
<event>
 4    0  0.2230743E-002  0.2484748E+03  0.7546771E-02  0.1114273E+00
         21   -1    0    0  502  501  0.00000000000E+00  0.00000000000E+00  0.11261181152E+04  0.11261181152E+04  0.00000000000E+00 0.  1.
         21   -1    0    0  501  502 -0.00000000000E+00 -0.00000000000E+00 -0.54825255392E+02  0.54825255392E+02  0.00000000000E+00 0.  1.
         25    1    1    2    0    0  0.18504652783E+03 -0.10701461638E+03  0.48692371989E+03  0.54627287556E+03  0.12500000000E+03 0.  0.
         25    1    1    2    0    0 -0.18504652783E+03  0.10701461638E+03  0.58436913993E+03  0.63467049505E+03  0.12500000000E+03 0.  0.
</event>
<event>
 4    0  0.2230743E-002  0.2933770E+03  0.7546771E-02  0.1088599E+00
         21   -1    0    0  502  501  0.00000000000E+00  0.00000000000E+00  0.72879552145E+02  0.72879552145E+02  0.00000000000E+00 0.  1.
         21   -1    0    0  501  502 -0.00000000000E+00 -0.00000000000E+00 -0.11809902317E+04  0.11809902317E+04  0.00000000000E+00 0. -1.
         25    1    1    2    0    0  0.21337697383E+03  0.89499320630E+01 -0.21728772982E+03  0.32931564156E+03  0.12500000000E+03 0.  0.
         25    1    1    2    0    0 -0.21337697383E+03 -0.89499320630E+01 -0.89082294975E+03  0.92455414230E+03  0.12500000000E+03 0.  0.
</event>
<event>
 4    0  0.2230743E-002  0.2357768E+03  0.7546771E-02  0.1122639E+00
         21   -1    0    0  502  501  0.00000000000E+00  0.00000000000E+00  0.22338980211E+02  0.22338980211E+02  0.00000000000E+00 0.  1.
         21   -1    0    0  501  502 -0.00000000000E+00 -0.00000000000E+00 -0.24885070217E+04  0.24885070217E+04  0.00000000000E+00 0.  1.
         25    1    1    2    0    0 -0.13840887272E+03  0.60833815265E+02 -0.53663740347E+03  0.57136894554E+03  0.12500000000E+03 0.  0.
         25    1    1    2    0    0  0.13840887272E+03 -0.60833815265E+02 -0.19295306380E+04  0.19394770563E+04  0.12500000000E+03 0.  0.
</event>
<event>
 4    0  0.2230743E-002  0.1942045E+03  0.7546771E-02  0.1154723E+00
         21   -1    0    0  502  501  0.00000000000E+00  0.00000000000E+00  0.44674713935E+02  0.44674713935E+02  0.00000000000E+00 0. -1.
         21   -1    0    0  501  502 -0.00000000000E+00 -0.00000000000E+00 -0.84422225385E+03  0.84422225385E+03  0.00000000000E+00 0. -1.
         25    1    1    2    0    0  0.85623478669E+02 -0.94201872464E+02 -0.57533795347E+03  0.60236544853E+03  0.12500000000E+03 0.  0.
         25    1    1    2    0    0 -0.85623478669E+02  0.94201872464E+02 -0.22420958644E+03  0.28653151926E+03  0.12500000000E+03 0.  0.
</event>
<event>
 4    0  0.2230743E-002  0.3145852E+03  0.7546771E-02  0.1078169E+00
         21   -1    0    0  502  501  0.00000000000E+00  0.00000000000E+00  0.60742676703E+03  0.60742676703E+03  0.00000000000E+00 0. -1.
         21   -1    0    0  501  502 -0.00000000000E+00 -0.00000000000E+00 -0.16292310340E+03  0.16292310340E+03  0.00000000000E+00 0. -1.
         25    1    1    2    0    0  0.20436170487E+03 -0.16265902052E+03  0.37279299336E+03  0.47203948910E+03  0.12500000000E+03 0.  0.
         25    1    1    2    0    0 -0.20436170487E+03  0.16265902052E+03  0.71710670273E+02  0.29831038132E+03  0.12500000000E+03 0.  0.
</event>
<event>
 4    0  0.2230743E-002  0.1853495E+03  0.7546771E-02  0.1162724E+00
         21   -1    0    0  502  501  0.00000000000E+00  0.00000000000E+00  0.71548681217E+02  0.71548681217E+02  0.00000000000E+00 0. -1.
         21   -1    0    0  501  502 -0.00000000000E+00 -0.00000000000E+00 -0.48015456540E+03  0.48015456540E+03  0.00000000000E+00 0. -1.
         25    1    1    2    0    0  0.17389898157E+02 -0.12264039816E+03 -0.29090936974E+03  0.33999461352E+03  0.12500000000E+03 0.  0.
         25    1    1    2    0    0 -0.17389898157E+02  0.12264039816E+03 -0.11769651444E+03  0.21170863310E+03  0.12500000000E+03 0.  0.
</event>
<event>
 4    0  0.2230743E-002  0.1862201E+03  0.7546771E-02  0.1161915E+00
         21   -1    0    0  502  501  0.00000000000E+00  0.00000000000E+00  0.95037694119E+03  0.95037694119E+03  0.00000000000E+00 0.  1.
         21   -1    0    0  501  502 -0.00000000000E+00 -0.00000000000E+00 -0.36488586246E+02  0.36488586246E+02  0.00000000000E+00 0.  1.
         25    1    1    2    0    0  0.22237965797E+01  0.20960471845E+01  0.82260272420E+03  0.83205142903E+03  0.12500000000E+03 0.  0.
         25    1    1    2    0    0 -0.22237965797E+01 -0.20960471845E+01  0.91285630737E+02  0.15481409840E+03  0.12500000000E+03 0.  0.
</event>
<event>
 4    0  0.2230743E-002  0.2729377E+03  0.7546771E-02  0.1099610E+00
         21   -1    0    0  502  501  0.00000000000E+00  0.00000000000E+00  0.35338847678E+02  0.35338847678E+02  0.00000000000E+00 0. -1.
         21   -1    0    0  501  502 -0.00000000000E+00 -0.00000000000E+00 -0.21080191754E+04  0.21080191754E+04  0.00000000000E+00 0. -1.
         25    1    1    2    0    0 -0.99212373716E+02  0.67198823866E+02 -0.20794822375E+03  0.27060347520E+03  0.12500000000E+03 0.  0.
         25    1    1    2    0    0  0.99212373716E+02 -0.67198823866E+02 -0.18647321040E+04  0.18727545479E+04  0.12500000000E+03 0.  0.
</event>
<event>
 4    0  0.2230743E-002  0.2541451E+03  0.7546771E-02  0.1110713E+00
         21   -1    0    0  502  501  0.00000000000E+00  0.00000000000E+00  0.20574122987E+03  0.20574122987E+03  0.00000000000E+00 0. -1.
         21   -1    0    0  501  502 -0.00000000000E+00 -0.00000000000E+00 -0.31393662188E+03  0.31393662188E+03  0.00000000000E+00 0. -1.
         25    1    1    2    0    0 -0.15641936504E+03 -0.13918256694E+03 -0.12729712698E+03  0.27507883095E+03  0.12500000000E+03 0.  0.
         25    1    1    2    0    0  0.15641936504E+03  0.13918256694E+03  0.19101734966E+02  0.24459902080E+03  0.12500000000E+03 0.  0.
</event>
<event>
 4    0  0.2230743E-002  0.2167614E+03  0.7546771E-02  0.1136321E+00
         21   -1    0    0  502  501  0.00000000000E+00  0.00000000000E+00  0.23720605049E+03  0.23720605049E+03  0.00000000000E+00 0.  1.
         21   -1    0    0  501  502 -0.00000000000E+00 -0.00000000000E+00 -0.19807893033E+03  0.19807893033E+03  0.00000000000E+00 0.  1.
         25    1    1    2    0    0 -0.14452313017E+03 -0.83100019098E+02  0.79538857278E+02  0.22303358076E+03  0.12500000000E+03 0.  0.
         25    1    1    2    0    0  0.14452313017E+03  0.83100019098E+02 -0.40411737120E+02  0.21225140006E+03  0.12500000000E+03 0.  0.
</event>
<event>
 4    0  0.2230743E-002  0.2395492E+03  0.7546771E-02  0.1120094E+00
         21   -1    0    0  502  501  0.00000000000E+00  0.00000000000E+00  0.25342169077E+03  0.25342169077E+03  0.00000000000E+00 0. -1.
         21   -1    0    0  501  502 -0.00000000000E+00 -0.00000000000E+00 -0.22643608308E+03  0.22643608308E+03  0.00000000000E+00 0. -1.
         25    1    1    2    0    0 -0.11985829709E+02  0.10596676405E+03 -0.16109987359E+03  0.23011037453E+03  0.12500000000E+03 0.  0.
         25    1    1    2    0    0  0.11985829709E+02 -0.10596676405E+03  0.18808548128E+03  0.24974739931E+03  0.12500000000E+03 0.  0.
</event>
<event>
 4    0  0.2230743E-002  0.2070544E+03  0.7546771E-02  0.1143920E+00
         21   -1    0    0  502  501  0.00000000000E+00  0.00000000000E+00  0.36744870477E+03  0.36744870477E+03  0.00000000000E+00 0.  1.
         21   -1    0    0  501  502 -0.00000000000E+00 -0.00000000000E+00 -0.11667347747E+03  0.11667347747E+03  0.00000000000E+00 0.  1.
         25    1    1    2    0    0  0.99574099909E+02  0.13101972306E+03  0.14042046306E+03  0.24984810516E+03  0.12500000000E+03 0.  0.
         25    1    1    2    0    0 -0.99574099909E+02 -0.13101972306E+03  0.11035476424E+03  0.23427407709E+03  0.12500000000E+03 0.  0.
</event>
<event>
 4    0  0.2230743E-002  0.1852059E+03  0.7546771E-02  0.1162858E+00
         21   -1    0    0  502  501  0.00000000000E+00  0.00000000000E+00  0.28666686159E+02  0.28666686159E+02  0.00000000000E+00 0.  1.
         21   -1    0    0  501  502 -0.00000000000E+00 -0.00000000000E+00 -0.11965540548E+04  0.11965540548E+04  0.00000000000E+00 0.  1.
         25    1    1    2    0    0  0.10787709213E+03 -0.68360923658E+02 -0.74482148309E+03  0.76596000193E+03  0.12500000000E+03 0.  0.
         25    1    1    2    0    0 -0.10787709213E+03  0.68360923658E+02 -0.42306588551E+03  0.45926073898E+03  0.12500000000E+03 0.  0.
</event>
<event>
 4    0  0.2230743E-002  0.1786033E+03  0.7546771E-02  0.1169162E+00
         21   -1    0    0  502  501  0.00000000000E+00  0.00000000000E+00  0.26365323066E+03  0.26365323066E+03  0.00000000000E+00 0. -1.
         21   -1    0    0  501  502 -0.00000000000E+00 -0.00000000000E+00 -0.12098901366E+03  0.12098901366E+03  0.00000000000E+00 0. -1.
         25    1    1    2    0    0 -0.12766675545E+02  0.33908340290E+02 -0.60379273215E+02  0.14346923078E+03  0.12500000000E+03 0.  0.
         25    1    1    2    0    0  0.12766675545E+02 -0.33908340290E+02  0.20304349021E+03  0.24117301355E+03  0.12500000000E+03 0.  0.
</event>
<event>
 4    0  0.2230743E-002  0.1551838E+03  0.7546771E-02  0.1194244E+00
         21   -1    0    0  502  501  0.00000000000E+00  0.00000000000E+00  0.22065804824E+03  0.22065804824E+03  0.00000000000E+00 0.  1.
         21   -1    0    0  501  502 -0.00000000000E+00 -0.00000000000E+00 -0.10913718826E+03  0.10913718826E+03  0.00000000000E+00 0.  1.
         25    1    1    2    0    0 -0.57043834960E+02 -0.68605115527E+02  0.32087235517E+02  0.15689248442E+03  0.12500000000E+03 0.  0.
         25    1    1    2    0    0  0.57043834960E+02  0.68605115527E+02  0.79433624460E+02  0.17290275208E+03  0.12500000000E+03 0.  0.
</event>
<event>
 4    0  0.2230743E-002  0.2357536E+03  0.7546771E-02  0.1122654E+00
         21   -1    0    0  502  501  0.00000000000E+00  0.00000000000E+00  0.17249342870E+04  0.17249342870E+04  0.00000000000E+00 0. -1.
         21   -1    0    0  501  502 -0.00000000000E+00 -0.00000000000E+00 -0.32221375987E+02  0.32221375987E+02  0.00000000000E+00 0. -1.
         25    1    1    2    0    0  0.12798847315E+03 -0.12243917317E+03  0.50111321818E+03  0.54599620678E+03  0.12500000000E+03 0.  0.
         25    1    1    2    0    0 -0.12798847315E+03  0.12243917317E+03  0.11915996928E+04  0.12111594562E+04  0.12500000000E+03 0.  0.
</event>
<event>
 4    0  0.2230743E-002  0.4817395E+03  0.7546771E-02  0.1018658E+00
         21   -1    0    0  502  501  0.00000000000E+00  0.00000000000E+00  0.18274776889E+03  0.18274776889E+03  0.00000000000E+00 0.  1.
         21   -1    0    0  501  502 -0.00000000000E+00 -0.00000000000E+00 -0.12699084250E+04  0.12699084250E+04  0.00000000000E+00 0. -1.
         25    1    1    2    0    0 -0.20388590441E+02  0.29517366101E+03 -0.22591038830E+01  0.32120599049E+03  0.12500000000E+03 0.  0.
         25    1    1    2    0    0  0.20388590441E+02 -0.29517366101E+03 -0.10849015522E+04  0.11314502034E+04  0.12500000000E+03 0.  0.
</event>
<event>
 4    0  0.2230743E-002  0.2202170E+03  0.7546771E-02  0.1133721E+00
         21   -1    0    0  502  501  0.00000000000E+00  0.00000000000E+00  0.60537068411E+03  0.60537068411E+03  0.00000000000E+00 0. -1.
         21   -1    0    0  501  502 -0.00000000000E+00 -0.00000000000E+00 -0.80108820997E+02  0.80108820997E+02  0.00000000000E+00 0. -1.
         25    1    1    2    0    0 -0.10243896383E+02  0.17979406827E+03  0.22999578164E+03  0.31773244086E+03  0.12500000000E+03 0.  0.
         25    1    1    2    0    0  0.10243896383E+02 -0.17979406827E+03  0.29526608147E+03  0.36774706425E+03  0.12500000000E+03 0.  0.
</event>
<event>
 4    0  0.2230743E-002  0.2963643E+03  0.7546771E-02  0.1087072E+00
         21   -1    0    0  502  501  0.00000000000E+00  0.00000000000E+00  0.51401034085E+03  0.51401034085E+03  0.00000000000E+00 0.  1.
         21   -1    0    0  501  502 -0.00000000000E+00 -0.00000000000E+00 -0.17087549965E+03  0.17087549965E+03  0.00000000000E+00 0.  1.
         25    1    1    2    0    0 -0.70766849520E+02  0.25398031675E+03  0.23152809008E+03  0.37248383157E+03  0.12500000000E+03 0.  0.
         25    1    1    2    0    0  0.70766849520E+02 -0.25398031675E+03  0.11160675112E+03  0.31240200892E+03  0.12500000000E+03 0.  0.
</event>
<event>
 4    0  0.2230743E-002  0.2734471E+03  0.7546771E-02  0.1099323E+00
         21   -1    0    0  502  501  0.00000000000E+00  0.00000000000E+00  0.85471536161E+03  0.85471536161E+03  0.00000000000E+00 0.  1.
         21   -1    0    0  501  502 -0.00000000000E+00 -0.00000000000E+00 -0.87483268322E+02  0.87483268322E+02  0.00000000000E+00 0.  1.
         25    1    1    2    0    0 -0.36352472832E+02  0.61595221122E+01  0.79776946391E+03  0.80834433228E+03  0.12500000000E+03 0.  0.
         25    1    1    2    0    0  0.36352472832E+02 -0.61595221122E+01 -0.30537370621E+02  0.13385429765E+03  0.12500000000E+03 0.  0.
</event>
<event>
 4    0  0.2230743E-002  0.2020030E+03  0.7546771E-02  0.1148060E+00
         21   -1    0    0  502  501  0.00000000000E+00  0.00000000000E+00  0.32306254558E+03  0.32306254558E+03  0.00000000000E+00 0. -1.
         21   -1    0    0  501  502 -0.00000000000E+00 -0.00000000000E+00 -0.12630743376E+03  0.12630743376E+03  0.00000000000E+00 0. -1.
         25    1    1    2    0    0  0.85174394620E+02  0.12094764243E+03  0.34508811892E+02  0.19672027808E+03  0.12500000000E+03 0.  0.
         25    1    1    2    0    0 -0.85174394620E+02 -0.12094764243E+03  0.16224629992E+03  0.25264970126E+03  0.12500000000E+03 0.  0.
</event>
<event>
 4    0  0.2230743E-002  0.2936569E+03  0.7546771E-02  0.1088455E+00
         21   -1    0    0  502  501  0.00000000000E+00  0.00000000000E+00  0.21624041313E+04  0.21624041313E+04  0.00000000000E+00 0. -1.
         21   -1    0    0  501  502 -0.00000000000E+00 -0.00000000000E+00 -0.39878949096E+02  0.39878949096E+02  0.00000000000E+00 0. -1.
         25    1    1    2    0    0 -0.90778750233E+02 -0.72418700061E+02  0.19574787210E+04  0.19649003010E+04  0.12500000000E+03 0.  0.
         25    1    1    2    0    0  0.90778750233E+02  0.72418700061E+02  0.16504646123E+03  0.23738277945E+03  0.12500000000E+03 0.  0.
</event>
<event>
 4    0  0.2230743E-002  0.3214409E+03  0.7546771E-02  0.1074988E+00
         21   -1    0    0  502  501  0.00000000000E+00  0.00000000000E+00  0.85895898112E+03  0.85895898112E+03  0.00000000000E+00 0. -1.
         21   -1    0    0  501  502 -0.00000000000E+00 -0.00000000000E+00 -0.12029011120E+03  0.12029011120E+03  0.00000000000E+00 0. -1.
         25    1    1    2    0    0  0.14813828477E+03 -0.25220245634E+03  0.43993424014E+03  0.54287951338E+03  0.12500000000E+03 0.  0.
         25    1    1    2    0    0 -0.14813828477E+03  0.25220245634E+03  0.29873462978E+03  0.43636957894E+03  0.12500000000E+03 0.  0.
</event>
<event>
 4    0  0.2230743E-002  0.1313273E+03  0.7546771E-02  0.1225499E+00
         21   -1    0    0  502  501  0.00000000000E+00  0.00000000000E+00  0.63861342755E+02  0.63861342755E+02  0.00000000000E+00 0.  1.
         21   -1    0    0  501  502 -0.00000000000E+00 -0.00000000000E+00 -0.27006748871E+03  0.27006748871E+03  0.00000000000E+00 0.  1.
         25    1    1    2    0    0  0.37095087386E+02 -0.74237720650E+01 -0.12066049204E+03  0.17780638976E+03  0.12500000000E+03 0.  0.
         25    1    1    2    0    0 -0.37095087386E+02  0.74237720650E+01 -0.85545653906E+02  0.15612244170E+03  0.12500000000E+03 0.  0.
</event>
<event>
 4    0  0.2230743E-002  0.2065808E+03  0.7546771E-02  0.1144303E+00
         21   -1    0    0  502  501  0.00000000000E+00  0.00000000000E+00  0.53643631427E+03  0.53643631427E+03  0.00000000000E+00 0.  1.
         21   -1    0    0  501  502 -0.00000000000E+00 -0.00000000000E+00 -0.79553948064E+02  0.79553948064E+02  0.00000000000E+00 0.  1.
         25    1    1    2    0    0  0.31571939318E+02 -0.12309807326E+03  0.38410266648E+03  0.42344985700E+03  0.12500000000E+03 0.  0.
         25    1    1    2    0    0 -0.31571939318E+02  0.12309807326E+03  0.72779699719E+02  0.19254040533E+03  0.12500000000E+03 0.  0.
</event>
<event>
 4    0  0.2230743E-002  0.2497536E+03  0.7546771E-02  0.1113461E+00
         21   -1    0    0  502  501  0.00000000000E+00  0.00000000000E+00  0.59738599070E+02  0.59738599070E+02  0.00000000000E+00 0. -1.
         21   -1    0    0  501  502 -0.00000000000E+00 -0.00000000000E+00 -0.10441638258E+04  0.10441638258E+04  0.00000000000E+00 0. -1.
         25    1    1    2    0    0  0.68631524164E+02  0.16441203145E+03 -0.76297184824E+03  0.79340572433E+03  0.12500000000E+03 0.  0.
         25    1    1    2    0    0 -0.68631524164E+02 -0.16441203145E+03 -0.22145337846E+03  0.31049670051E+03  0.12500000000E+03 0.  0.
</event>
<event>
 4    0  0.2230743E-002  0.2199873E+03  0.7546771E-02  0.1133893E+00
         21   -1    0    0  502  501  0.00000000000E+00  0.00000000000E+00  0.30156711279E+03  0.30156711279E+03  0.00000000000E+00 0. -1.
         21   -1    0    0  501  502 -0.00000000000E+00 -0.00000000000E+00 -0.16047643348E+03  0.16047643348E+03  0.00000000000E+00 0. -1.
         25    1    1    2    0    0 -0.52181910169E+02  0.15515363476E+03  0.15171263762E+03  0.25580720581E+03  0.12500000000E+03 0.  0.
         25    1    1    2    0    0  0.52181910169E+02 -0.15515363476E+03 -0.10621958308E+02  0.20623634046E+03  0.12500000000E+03 0.  0.
</event>
<event>
 4    0  0.2230743E-002  0.1794302E+03  0.7546771E-02  0.1168356E+00
         21   -1    0    0  502  501  0.00000000000E+00  0.00000000000E+00  0.32482239308E+03  0.32482239308E+03  0.00000000000E+00 0.  1.
         21   -1    0    0  501  502 -0.00000000000E+00 -0.00000000000E+00 -0.99116352593E+02  0.99116352593E+02  0.00000000000E+00 0.  1.
         25    1    1    2    0    0  0.71072545330E+02  0.70045711826E+02  0.16789079282E+02  0.16082469222E+03  0.12500000000E+03 0.  0.
         25    1    1    2    0    0 -0.71072545330E+02 -0.70045711826E+02  0.20891696120E+03  0.26311405345E+03  0.12500000000E+03 0.  0.
</event>
<event>
 4    0  0.2230743E-002  0.2579384E+03  0.7546771E-02  0.1108388E+00
         21   -1    0    0  502  501  0.00000000000E+00  0.00000000000E+00  0.27743635474E+03  0.27743635474E+03  0.00000000000E+00 0. -1.
         21   -1    0    0  501  502 -0.00000000000E+00 -0.00000000000E+00 -0.23981068974E+03  0.23981068974E+03  0.00000000000E+00 0. -1.
         25    1    1    2    0    0 -0.96319611230E+02  0.15881241418E+03  0.14724818028E+03  0.26796618630E+03  0.12500000000E+03 0.  0.
         25    1    1    2    0    0  0.96319611230E+02 -0.15881241418E+03 -0.10962251527E+03  0.24928085819E+03  0.12500000000E+03 0.  0.
</event>
<event>
 4    0  0.2230743E-002  0.2294355E+03  0.7546771E-02  0.1127038E+00
         21   -1    0    0  502  501  0.00000000000E+00  0.00000000000E+00  0.14420575685E+03  0.14420575685E+03  0.00000000000E+00 0.  1.
         21   -1    0    0  501  502 -0.00000000000E+00 -0.00000000000E+00 -0.36503834676E+03  0.36503834676E+03  0.00000000000E+00 0.  1.
         25    1    1    2    0    0  0.96228597391E+02  0.15419457187E+03 -0.18042657979E+03  0.28498185844E+03  0.12500000000E+03 0.  0.
         25    1    1    2    0    0 -0.96228597391E+02 -0.15419457187E+03 -0.40406010123E+02  0.22426224516E+03  0.12500000000E+03 0.  0.
</event>
<event>
 4    0  0.2230743E-002  0.2375387E+03  0.7546771E-02  0.1121443E+00
         21   -1    0    0  502  501  0.00000000000E+00  0.00000000000E+00  0.15707794247E+04  0.15707794247E+04  0.00000000000E+00 0.  1.
         21   -1    0    0  501  502 -0.00000000000E+00 -0.00000000000E+00 -0.35921419621E+02  0.35921419621E+02  0.00000000000E+00 0.  1.
         25    1    1    2    0    0 -0.11286166784E+03 -0.59796504827E+01  0.13336058747E+04  0.13442109735E+04  0.12500000000E+03 0.  0.
         25    1    1    2    0    0  0.11286166784E+03  0.59796504827E+01  0.20125213034E+03  0.26248987077E+03  0.12500000000E+03 0.  0.
</event>
<event>
 4    0  0.2230743E-002  0.2232572E+03  0.7546771E-02  0.1131478E+00
         21   -1    0    0  502  501  0.00000000000E+00  0.00000000000E+00  0.80257194514E+03  0.80257194514E+03  0.00000000000E+00 0.  1.
         21   -1    0    0  501  502 -0.00000000000E+00 -0.00000000000E+00 -0.62105082471E+02  0.62105082471E+02  0.00000000000E+00 0. -1.
         25    1    1    2    0    0 -0.10165390547E+03 -0.15315884639E+03  0.33018720028E+03  0.39804489188E+03  0.12500000000E+03 0.  0.
         25    1    1    2    0    0  0.10165390547E+03  0.15315884639E+03  0.41027966239E+03  0.46663213573E+03  0.12500000000E+03 0.  0.
</event>
<event>
 4    0  0.2230743E-002  0.1754842E+03  0.7546771E-02  0.1172246E+00
         21   -1    0    0  502  501  0.00000000000E+00  0.00000000000E+00  0.14672947960E+04  0.14672947960E+04  0.00000000000E+00 0. -1.
         21   -1    0    0  501  502 -0.00000000000E+00 -0.00000000000E+00 -0.20987402161E+02  0.20987402161E+02  0.00000000000E+00 0. -1.
         25    1    1    2    0    0  0.68701866584E+02 -0.80406008200E+01  0.11552920119E+04  0.11640915903E+04  0.12500000000E+03 0.  0.
         25    1    1    2    0    0 -0.68701866584E+02  0.80406008200E+01  0.29101538197E+03  0.32419060794E+03  0.12500000000E+03 0.  0.
</event>
<event>
 4    0  0.2230743E-002  0.2850571E+03  0.7546771E-02  0.1092959E+00
         21   -1    0    0  502  501  0.00000000000E+00  0.00000000000E+00  0.96576366265E+02  0.96576366265E+02  0.00000000000E+00 0.  1.
         21   -1    0    0  501  502 -0.00000000000E+00 -0.00000000000E+00 -0.84138110024E+03  0.84138110024E+03  0.00000000000E+00 0.  1.
         25    1    1    2    0    0  0.23541091054E+03  0.28961760503E+01 -0.20619670297E+03  0.33699965127E+03  0.12500000000E+03 0.  0.
         25    1    1    2    0    0 -0.23541091054E+03 -0.28961760503E+01 -0.53860803100E+03  0.60095781524E+03  0.12500000000E+03 0.  0.
</event>
<event>
 4    0  0.2230743E-002  0.1923362E+03  0.7546771E-02  0.1156371E+00
         21   -1    0    0  502  501  0.00000000000E+00  0.00000000000E+00  0.41189309405E+03  0.41189309405E+03  0.00000000000E+00 0. -1.
         21   -1    0    0  501  502 -0.00000000000E+00 -0.00000000000E+00 -0.89812634545E+02  0.89812634545E+02  0.00000000000E+00 0. -1.
         25    1    1    2    0    0 -0.14446185230E+03 -0.19178325678E+02  0.14610287609E+03  0.24126351848E+03  0.12500000000E+03 0.  0.
         25    1    1    2    0    0  0.14446185230E+03  0.19178325678E+02  0.17597758342E+03  0.26044221012E+03  0.12500000000E+03 0.  0.
</event>
<event>
 4    0  0.2230743E-002  0.2317036E+03  0.7546771E-02  0.1125446E+00
         21   -1    0    0  502  501  0.00000000000E+00  0.00000000000E+00  0.49078235278E+03  0.49078235278E+03  0.00000000000E+00 0. -1.
         21   -1    0    0  501  502 -0.00000000000E+00 -0.00000000000E+00 -0.10938979231E+03  0.10938979231E+03  0.00000000000E+00 0. -1.
         25    1    1    2    0    0  0.63233217093E+02  0.18420718195E+03  0.17588111513E+03  0.29067145076E+03  0.12500000000E+03 0.  0.
         25    1    1    2    0    0 -0.63233217093E+02 -0.18420718195E+03  0.20551144534E+03  0.30950069433E+03  0.12500000000E+03 0.  0.
</event>
<event>
 4    0  0.2230743E-002  0.2897084E+03  0.7546771E-02  0.1090501E+00
         21   -1    0    0  502  501  0.00000000000E+00  0.00000000000E+00  0.57081358001E+03  0.57081358001E+03  0.00000000000E+00 0. -1.
         21   -1    0    0  501  502 -0.00000000000E+00 -0.00000000000E+00 -0.14703744511E+03  0.14703744511E+03  0.00000000000E+00 0. -1.
         25    1    1    2    0    0 -0.21749412870E+03  0.14391552827E+03  0.23300774989E+03  0.37139330474E+03  0.12500000000E+03 0.  0.
         25    1    1    2    0    0  0.21749412870E+03 -0.14391552827E+03  0.19076838501E+03  0.34645772038E+03  0.12500000000E+03 0.  0.
</event>
<event>
 4    0  0.2230743E-002  0.2703173E+03  0.7546771E-02  0.1101098E+00
         21   -1    0    0  502  501  0.00000000000E+00  0.00000000000E+00  0.91647884740E+03  0.91647884740E+03  0.00000000000E+00 0. -1.
         21   -1    0    0  501  502 -0.00000000000E+00 -0.00000000000E+00 -0.79730659617E+02  0.79730659617E+02  0.00000000000E+00 0. -1.
         25    1    1    2    0    0  0.10160353958E+03 -0.20264242146E+03  0.56180924796E+03  0.61858052129E+03  0.12500000000E+03 0.  0.
         25    1    1    2    0    0 -0.10160353958E+03  0.20264242146E+03  0.27493893982E+03  0.37762898573E+03  0.12500000000E+03 0.  0.
</event>
<event>
 4    0  0.2230743E-002  0.3295717E+03  0.7546771E-02  0.1071327E+00
         21   -1    0    0  502  501  0.00000000000E+00  0.00000000000E+00  0.15835830555E+03  0.15835830555E+03  0.00000000000E+00 0.  1.
         21   -1    0    0  501  502 -0.00000000000E+00 -0.00000000000E+00 -0.68589703829E+03  0.68589703829E+03  0.00000000000E+00 0.  1.
         25    1    1    2    0    0  0.98460944053E+02 -0.11524840326E+03  0.75146405597E+02  0.21035383104E+03  0.12500000000E+03 0.  0.
         25    1    1    2    0    0 -0.98460944053E+02  0.11524840326E+03 -0.60268513834E+03  0.63390151280E+03  0.12500000000E+03 0.  0.
</event>
<event>
 4    0  0.2230743E-002  0.1942788E+03  0.7546771E-02  0.1154658E+00
         21   -1    0    0  502  501  0.00000000000E+00  0.00000000000E+00  0.21011959113E+03  0.21011959113E+03  0.00000000000E+00 0.  1.
         21   -1    0    0  501  502 -0.00000000000E+00 -0.00000000000E+00 -0.17963229827E+03  0.17963229827E+03  0.00000000000E+00 0.  1.
         25    1    1    2    0    0 -0.17518660457E+02 -0.13834008983E+03 -0.36629715766E+02  0.19081829052E+03  0.12500000000E+03 0.  0.
         25    1    1    2    0    0  0.17518660457E+02  0.13834008983E+03  0.67117008618E+02  0.19893359888E+03  0.12500000000E+03 0.  0.
</event>
<event>
 4    0  0.2230743E-002  0.2010841E+03  0.7546771E-02  0.1148828E+00
         21   -1    0    0  502  501  0.00000000000E+00  0.00000000000E+00  0.99425362256E+02  0.99425362256E+02  0.00000000000E+00 0.  1.
         21   -1    0    0  501  502 -0.00000000000E+00 -0.00000000000E+00 -0.40668495399E+03  0.40668495399E+03  0.00000000000E+00 0.  1.
         25    1    1    2    0    0 -0.35529925988E+02  0.10979632844E+03 -0.18721411986E+02  0.17115227327E+03  0.12500000000E+03 0.  0.
         25    1    1    2    0    0  0.35529925988E+02 -0.10979632844E+03 -0.28853817975E+03  0.33495804297E+03  0.12500000000E+03 0.  0.
</event>
<event>
 4    0  0.2230743E-002  0.2237575E+03  0.7546771E-02  0.1131112E+00
         21   -1    0    0  502  501  0.00000000000E+00  0.00000000000E+00  0.26642752966E+03  0.26642752966E+03  0.00000000000E+00 0.  1.
         21   -1    0    0  501  502 -0.00000000000E+00 -0.00000000000E+00 -0.18792130037E+03  0.18792130037E+03  0.00000000000E+00 0.  1.
         25    1    1    2    0    0 -0.85173199786E+02  0.15141572290E+03  0.10552792178E+03  0.23862593610E+03  0.12500000000E+03 0.  0.
         25    1    1    2    0    0  0.85173199786E+02 -0.15141572290E+03 -0.27021692494E+02  0.21572289394E+03  0.12500000000E+03 0.  0.
</event>
<event>
 4    0  0.2230743E-002  0.1423509E+03  0.7546771E-02  0.1210200E+00
         21   -1    0    0  502  501  0.00000000000E+00  0.00000000000E+00  0.25880912462E+03  0.25880912462E+03  0.00000000000E+00 0. -1.
         21   -1    0    0  501  502 -0.00000000000E+00 -0.00000000000E+00 -0.78296202588E+02  0.78296202588E+02  0.00000000000E+00 0. -1.
         25    1    1    2    0    0 -0.50070913386E+02 -0.34790922572E+02  0.54317275200E+02  0.14930797382E+03  0.12500000000E+03 0.  0.
         25    1    1    2    0    0  0.50070913386E+02  0.34790922572E+02  0.12619564683E+03  0.18779735339E+03  0.12500000000E+03 0.  0.
</event>
<event>
 4    0  0.2230743E-002  0.2222173E+03  0.7546771E-02  0.1132241E+00
         21   -1    0    0  502  501  0.00000000000E+00  0.00000000000E+00  0.11172034675E+03  0.11172034675E+03  0.00000000000E+00 0. -1.
         21   -1    0    0  501  502 -0.00000000000E+00 -0.00000000000E+00 -0.44200131190E+03  0.44200131190E+03  0.00000000000E+00 0. -1.
         25    1    1    2    0    0  0.13119012381E+03 -0.45335347197E+02 -0.15168973039E+02  0.18740661684E+03  0.12500000000E+03 0.  0.
         25    1    1    2    0    0 -0.13119012381E+03  0.45335347197E+02 -0.31511199211E+03  0.36631504182E+03  0.12500000000E+03 0.  0.
</event>
<event>
 4    0  0.2230743E-002  0.2330581E+03  0.7546771E-02  0.1124506E+00
         21   -1    0    0  502  501  0.00000000000E+00  0.00000000000E+00  0.16189966202E+03  0.16189966202E+03  0.00000000000E+00 0.  1.
         21   -1    0    0  501  502 -0.00000000000E+00 -0.00000000000E+00 -0.33549209035E+03  0.33549209035E+03  0.00000000000E+00 0.  1.
         25    1    1    2    0    0 -0.17615366258E+03 -0.87512797567E+02 -0.88467665615E+02  0.24927922184E+03  0.12500000000E+03 0.  0.
         25    1    1    2    0    0  0.17615366258E+03  0.87512797567E+02 -0.85124762711E+02  0.24811253053E+03  0.12500000000E+03 0.  0.
</event>
<event>
 4    0  0.2230743E-002  0.1681322E+03  0.7546771E-02  0.1179810E+00
         21   -1    0    0  502  501  0.00000000000E+00  0.00000000000E+00  0.27070001375E+02  0.27070001375E+02  0.00000000000E+00 0.  1.
         21   -1    0    0  501  502 -0.00000000000E+00 -0.00000000000E+00 -0.10442719421E+04  0.10442719421E+04  0.00000000000E+00 0.  1.
         25    1    1    2    0    0  0.65029234817E+02 -0.63188945373E+02 -0.29674209958E+03  0.33451833710E+03  0.12500000000E+03 0.  0.
         25    1    1    2    0    0 -0.65029234817E+02  0.63188945373E+02 -0.72045984119E+03  0.73682360641E+03  0.12500000000E+03 0.  0.
</event>
<event>
 4    0  0.2230743E-002  0.2984569E+03  0.7546771E-02  0.1086015E+00
         21   -1    0    0  502  501  0.00000000000E+00  0.00000000000E+00  0.24019309612E+04  0.24019309612E+04  0.00000000000E+00 0.  1.
         21   -1    0    0  501  502 -0.00000000000E+00 -0.00000000000E+00 -0.37085388113E+02  0.37085388113E+02  0.00000000000E+00 0.  1.
         25    1    1    2    0    0  0.22555423116E+03  0.11074764736E+03  0.15973482210E+04  0.16218156775E+04  0.12500000000E+03 0.  0.
         25    1    1    2    0    0 -0.22555423116E+03 -0.11074764736E+03  0.76749735215E+03  0.81720067189E+03  0.12500000000E+03 0.  0.
</event>
<event>
 4    0  0.2230743E-002  0.2172783E+03  0.7546771E-02  0.1135929E+00
         21   -1    0    0  502  501  0.00000000000E+00  0.00000000000E+00  0.30424755753E+03  0.30424755753E+03  0.00000000000E+00 0.  1.
         21   -1    0    0  501  502 -0.00000000000E+00 -0.00000000000E+00 -0.15516928586E+03  0.15516928586E+03  0.00000000000E+00 0.  1.
         25    1    1    2    0    0  0.78871821567E+02  0.12679112550E+03 -0.27349196476E+02  0.19664621097E+03  0.12500000000E+03 0.  0.
         25    1    1    2    0    0 -0.78871821567E+02 -0.12679112550E+03  0.17642746814E+03  0.26277063241E+03  0.12500000000E+03 0.  0.
</event>
<event>
 4    0  0.2230743E-002  0.1894124E+03  0.7546771E-02  0.1158992E+00
         21   -1    0    0  502  501  0.00000000000E+00  0.00000000000E+00  0.15688496015E+03  0.15688496015E+03  0.00000000000E+00 0. -1.
         21   -1    0    0  501  502 -0.00000000000E+00 -0.00000000000E+00 -0.22868396077E+03  0.22868396077E+03  0.00000000000E+00 0. -1.
         25    1    1    2    0    0 -0.10912093293E+02  0.57889864604E+02  0.95951162916E+02  0.16823179209E+03  0.12500000000E+03 0.  0.
         25    1    1    2    0    0  0.10912093293E+02 -0.57889864604E+02 -0.16775016353E+03  0.21733712883E+03  0.12500000000E+03 0.  0.
</event>
<event>
 4    0  0.2230743E-002  0.3331250E+03  0.7546771E-02  0.1069762E+00
         21   -1    0    0  502  501  0.00000000000E+00  0.00000000000E+00  0.20082321247E+03  0.20082321247E+03  0.00000000000E+00 0. -1.
         21   -1    0    0  501  502 -0.00000000000E+00 -0.00000000000E+00 -0.55258687826E+03  0.55258687826E+03  0.00000000000E+00 0. -1.
         25    1    1    2    0    0 -0.14787887824E+03  0.18474239322E+02  0.12993767110E+03  0.23391934191E+03  0.12500000000E+03 0.  0.
         25    1    1    2    0    0  0.14787887824E+03 -0.18474239322E+02 -0.48170133689E+03  0.51949074882E+03  0.12500000000E+03 0.  0.
</event>
<event>
 4    0  0.2230743E-002  0.2765817E+03  0.7546771E-02  0.1097571E+00
         21   -1    0    0  502  501  0.00000000000E+00  0.00000000000E+00  0.98453013341E+03  0.98453013341E+03  0.00000000000E+00 0. -1.
         21   -1    0    0  501  502 -0.00000000000E+00 -0.00000000000E+00 -0.77699419087E+02  0.77699419087E+02  0.00000000000E+00 0. -1.
         25    1    1    2    0    0 -0.99201318382E+02 -0.21800813414E+03  0.56708520095E+03  0.62815529390E+03  0.12500000000E+03 0.  0.
         25    1    1    2    0    0  0.99201318382E+02  0.21800813414E+03  0.33974551337E+03  0.43407425859E+03  0.12500000000E+03 0.  0.
</event>
<event>
 4    0  0.2230743E-002  0.1970824E+03  0.7546771E-02  0.1152224E+00
         21   -1    0    0  502  501  0.00000000000E+00  0.00000000000E+00  0.26805572088E+03  0.26805572088E+03  0.00000000000E+00 0. -1.
         21   -1    0    0  501  502 -0.00000000000E+00 -0.00000000000E+00 -0.14490072593E+03  0.14490072593E+03  0.00000000000E+00 0. -1.
         25    1    1    2    0    0  0.11530377844E+03  0.44319337878E+02  0.15503397236E+03  0.23434952020E+03  0.12500000000E+03 0.  0.
         25    1    1    2    0    0 -0.11530377844E+03 -0.44319337878E+02 -0.31878977409E+02  0.17860692661E+03  0.12500000000E+03 0.  0.
</event>
<event>
 4    0  0.2230743E-002  0.2381917E+03  0.7546771E-02  0.1121003E+00
         21   -1    0    0  502  501  0.00000000000E+00  0.00000000000E+00  0.82280085403E+02  0.82280085403E+02  0.00000000000E+00 0.  1.
         21   -1    0    0  501  502 -0.00000000000E+00 -0.00000000000E+00 -0.68953852058E+03  0.68953852058E+03  0.00000000000E+00 0.  1.
         25    1    1    2    0    0  0.19534015791E+03  0.15003121393E+02 -0.21901673850E+03  0.31933713014E+03  0.12500000000E+03 0.  0.
         25    1    1    2    0    0 -0.19534015791E+03 -0.15003121393E+02 -0.38824169667E+03  0.45248147584E+03  0.12500000000E+03 0.  0.
</event>
<event>
 4    0  0.2230743E-002  0.1618875E+03  0.7546771E-02  0.1186582E+00
         21   -1    0    0  502  501  0.00000000000E+00  0.00000000000E+00  0.45254841522E+02  0.45254841522E+02  0.00000000000E+00 0.  1.
         21   -1    0    0  501  502 -0.00000000000E+00 -0.00000000000E+00 -0.57911048985E+03  0.57911048985E+03  0.00000000000E+00 0.  1.
         25    1    1    2    0    0  0.50817266512E+02  0.38668765958E+02 -0.11139739524E+03  0.17919834738E+03  0.12500000000E+03 0.  0.
         25    1    1    2    0    0 -0.50817266512E+02 -0.38668765958E+02 -0.42245825309E+03  0.44516698399E+03  0.12500000000E+03 0.  0.
</event>
<event>
 4    0  0.2230743E-002  0.2048762E+03  0.7546771E-02  0.1145689E+00
         21   -1    0    0  502  501  0.00000000000E+00  0.00000000000E+00  0.12444054184E+03  0.12444054184E+03  0.00000000000E+00 0. -1.
         21   -1    0    0  501  502 -0.00000000000E+00 -0.00000000000E+00 -0.33730366177E+03  0.33730366177E+03  0.00000000000E+00 0. -1.
         25    1    1    2    0    0  0.77933342311E+02  0.10051052400E+03 -0.22009229568E+03  0.28326946517E+03  0.12500000000E+03 0.  0.
         25    1    1    2    0    0 -0.77933342311E+02 -0.10051052400E+03  0.72291757528E+01  0.17847473844E+03  0.12500000000E+03 0.  0.
</event>
<event>
 4    0  0.2230743E-002  0.2070422E+03  0.7546771E-02  0.1143930E+00
         21   -1    0    0  502  501  0.00000000000E+00  0.00000000000E+00  0.15300849994E+03  0.15300849994E+03  0.00000000000E+00 0. -1.
         21   -1    0    0  501  502 -0.00000000000E+00 -0.00000000000E+00 -0.28015739007E+03  0.28015739007E+03  0.00000000000E+00 0. -1.
         25    1    1    2    0    0  0.40148619404E+02  0.13574968344E+03 -0.15234708652E+03  0.24264072817E+03  0.12500000000E+03 0.  0.
         25    1    1    2    0    0 -0.40148619404E+02 -0.13574968344E+03  0.25198196395E+02  0.19052516185E+03  0.12500000000E+03 0.  0.
</event>
<event>
 4    0  0.2230743E-002  0.1507672E+03  0.7546771E-02  0.1199533E+00
         21   -1    0    0  502  501  0.00000000000E+00  0.00000000000E+00  0.14232826450E+03  0.14232826450E+03  0.00000000000E+00 0. -1.
         21   -1    0    0  501  502 -0.00000000000E+00 -0.00000000000E+00 -0.15970655848E+03  0.15970655848E+03  0.00000000000E+00 0. -1.
         25    1    1    2    0    0  0.76192256821E+02 -0.33060897797E+02 -0.23117018299E+02  0.15184755348E+03  0.12500000000E+03 0.  0.
         25    1    1    2    0    0 -0.76192256821E+02  0.33060897797E+02  0.57387243239E+01  0.15018726950E+03  0.12500000000E+03 0.  0.
</event>
<event>
 4    0  0.2230743E-002  0.2148886E+03  0.7546771E-02  0.1137752E+00
         21   -1    0    0  502  501  0.00000000000E+00  0.00000000000E+00  0.10333410359E+03  0.10333410359E+03  0.00000000000E+00 0. -1.
         21   -1    0    0  501  502 -0.00000000000E+00 -0.00000000000E+00 -0.44687183270E+03  0.44687183270E+03  0.00000000000E+00 0. -1.
         25    1    1    2    0    0  0.48803174247E+02 -0.16774338714E+03 -0.17906792723E+03  0.27966035884E+03  0.12500000000E+03 0.  0.
         25    1    1    2    0    0 -0.48803174247E+02  0.16774338714E+03 -0.16446980188E+03  0.27054557745E+03  0.12500000000E+03 0.  0.
</event>
<event>
 4    0  0.2230743E-002  0.1934726E+03  0.7546771E-02  0.1155366E+00
         21   -1    0    0  502  501  0.00000000000E+00  0.00000000000E+00  0.54179370932E+03  0.54179370932E+03  0.00000000000E+00 0. -1.
         21   -1    0    0  501  502 -0.00000000000E+00 -0.00000000000E+00 -0.69088392709E+02  0.69088392709E+02  0.00000000000E+00 0. -1.
         25    1    1    2    0    0 -0.65521731028E+02  0.60949409119E+02  0.42180290783E+03  0.44894389490E+03  0.12500000000E+03 0.  0.
         25    1    1    2    0    0  0.65521731028E+02 -0.60949409119E+02  0.50902408775E+02  0.16193820713E+03  0.12500000000E+03 0.  0.
</event>
<event>
 4    0  0.2230743E-002  0.1491181E+03  0.7546771E-02  0.1201561E+00
         21   -1    0    0  502  501  0.00000000000E+00  0.00000000000E+00  0.91559975792E+02  0.91559975792E+02  0.00000000000E+00 0.  1.
         21   -1    0    0  501  502 -0.00000000000E+00 -0.00000000000E+00 -0.24285955792E+03  0.24285955792E+03  0.00000000000E+00 0.  1.
         25    1    1    2    0    0 -0.37907294428E+02 -0.75590261148E+01  0.45630183023E+01  0.13091952865E+03  0.12500000000E+03 0.  0.
         25    1    1    2    0    0  0.37907294428E+02  0.75590261148E+01 -0.15586260043E+03  0.20350000506E+03  0.12500000000E+03 0.  0.
</event>
<event>
 4    0  0.2230743E-002  0.3211786E+03  0.7546771E-02  0.1075108E+00
         21   -1    0    0  502  501  0.00000000000E+00  0.00000000000E+00  0.13830714420E+03  0.13830714420E+03  0.00000000000E+00 0.  1.
         21   -1    0    0  501  502 -0.00000000000E+00 -0.00000000000E+00 -0.74584484268E+03  0.74584484268E+03  0.00000000000E+00 0.  1.
         25    1    1    2    0    0 -0.25619362290E+03  0.13683858218E+03 -0.38127353688E+03  0.49533269619E+03  0.12500000000E+03 0.  0.
         25    1    1    2    0    0  0.25619362290E+03 -0.13683858218E+03 -0.22626416160E+03  0.38881929069E+03  0.12500000000E+03 0.  0.
</event>
<event>
 4    0  0.2230743E-002  0.1853662E+03  0.7546771E-02  0.1162708E+00
         21   -1    0    0  502  501  0.00000000000E+00  0.00000000000E+00  0.60355960299E+02  0.60355960299E+02  0.00000000000E+00 0. -1.
         21   -1    0    0  501  502 -0.00000000000E+00 -0.00000000000E+00 -0.56929970569E+03  0.56929970569E+03  0.00000000000E+00 0. -1.
         25    1    1    2    0    0  0.72160074116E+02 -0.11388701433E+03 -0.29460261484E+03  0.34726507022E+03  0.12500000000E+03 0.  0.
         25    1    1    2    0    0 -0.72160074116E+02  0.11388701433E+03 -0.21434113055E+03  0.28239059576E+03  0.12500000000E+03 0.  0.
</event>
<event>
 4    0  0.2230743E-002  0.1938194E+03  0.7546771E-02  0.1155061E+00
         21   -1    0    0  502  501  0.00000000000E+00  0.00000000000E+00  0.39847073290E+02  0.39847073290E+02  0.00000000000E+00 0. -1.
         21   -1    0    0  501  502 -0.00000000000E+00 -0.00000000000E+00 -0.94275300441E+03  0.94275300441E+03  0.00000000000E+00 0. -1.
         25    1    1    2    0    0  0.14665049421E+03  0.22140294625E+01 -0.50399677126E+03  0.53958225955E+03  0.12500000000E+03 0.  0.
         25    1    1    2    0    0 -0.14665049421E+03 -0.22140294625E+01 -0.39890915985E+03  0.44301781815E+03  0.12500000000E+03 0.  0.
</event>
<event>
 4    0  0.2230743E-002  0.3208061E+03  0.7546771E-02  0.1075279E+00
         21   -1    0    0  502  501  0.00000000000E+00  0.00000000000E+00  0.70343749299E+03  0.70343749299E+03  0.00000000000E+00 0.  1.
         21   -1    0    0  501  502 -0.00000000000E+00 -0.00000000000E+00 -0.14630518030E+03  0.14630518030E+03  0.00000000000E+00 0.  1.
         25    1    1    2    0    0 -0.21986283911E+03 -0.16634317744E+03  0.41923715560E+03  0.51710203378E+03  0.12500000000E+03 0.  0.
         25    1    1    2    0    0  0.21986283911E+03  0.16634317744E+03  0.13789515710E+03  0.33264063951E+03  0.12500000000E+03 0.  0.
</event>
<event>
 4    0  0.2230743E-002  0.2581068E+03  0.7546771E-02  0.1108286E+00
         21   -1    0    0  502  501  0.00000000000E+00  0.00000000000E+00  0.21386784494E+02  0.21386784494E+02  0.00000000000E+00 0. -1.
         21   -1    0    0  501  502 -0.00000000000E+00 -0.00000000000E+00 -0.31149659294E+04  0.31149659294E+04  0.00000000000E+00 0. -1.
         25    1    1    2    0    0  0.99803293702E+02 -0.13556098016E+03 -0.63226970592E+03  0.66612870963E+03  0.12500000000E+03 0.  0.
         25    1    1    2    0    0 -0.99803293702E+02  0.13556098016E+03 -0.24613094390E+04  0.24702240043E+04  0.12500000000E+03 0.  0.
</event>
<event>
 4    0  0.2230743E-002  0.2483500E+03  0.7546771E-02  0.1114352E+00
         21   -1    0    0  502  501  0.00000000000E+00  0.00000000000E+00  0.57753045294E+03  0.57753045294E+03  0.00000000000E+00 0. -1.
         21   -1    0    0  501  502 -0.00000000000E+00 -0.00000000000E+00 -0.10679560284E+03  0.10679560284E+03  0.00000000000E+00 0. -1.
         25    1    1    2    0    0 -0.13884459543E+02 -0.95015814593E+02  0.49977944026E+03  0.52404701330E+03  0.12500000000E+03 0.  0.
         25    1    1    2    0    0  0.13884459543E+02  0.95015814593E+02 -0.29044590158E+02  0.16027904248E+03  0.12500000000E+03 0.  0.
</event>
<event>
 4    0  0.2230743E-002  0.2314765E+03  0.7546771E-02  0.1125605E+00
         21   -1    0    0  502  501  0.00000000000E+00  0.00000000000E+00  0.66551127266E+02  0.66551127266E+02  0.00000000000E+00 0.  1.
         21   -1    0    0  501  502 -0.00000000000E+00 -0.00000000000E+00 -0.80511581491E+03  0.80511581491E+03  0.00000000000E+00 0.  1.
         25    1    1    2    0    0 -0.10502402901E+03 -0.12661725633E+03 -0.56580613259E+03  0.60234836760E+03  0.12500000000E+03 0.  0.
         25    1    1    2    0    0  0.10502402901E+03  0.12661725633E+03 -0.17275855506E+03  0.26931857458E+03  0.12500000000E+03 0.  0.
</event>
<event>
 4    0  0.2230743E-002  0.2107976E+03  0.7546771E-02  0.1140936E+00
         21   -1    0    0  502  501  0.00000000000E+00  0.00000000000E+00  0.22453238398E+03  0.22453238398E+03  0.00000000000E+00 0. -1.
         21   -1    0    0  501  502 -0.00000000000E+00 -0.00000000000E+00 -0.19790292886E+03  0.19790292886E+03  0.00000000000E+00 0. -1.
         25    1    1    2    0    0 -0.43826924804E+02 -0.10913497093E+03 -0.10931943352E+03  0.20348705060E+03  0.12500000000E+03 0.  0.
         25    1    1    2    0    0  0.43826924804E+02  0.10913497093E+03  0.13594888864E+03  0.21894826225E+03  0.12500000000E+03 0.  0.
</event>
<event>
 4    0  0.2230743E-002  0.2399244E+03  0.7546771E-02  0.1119843E+00
         21   -1    0    0  502  501  0.00000000000E+00  0.00000000000E+00  0.38108669724E+03  0.38108669724E+03  0.00000000000E+00 0.  1.
         21   -1    0    0  501  502 -0.00000000000E+00 -0.00000000000E+00 -0.15105152755E+03  0.15105152755E+03  0.00000000000E+00 0.  1.
         25    1    1    2    0    0  0.13057258199E+03 -0.13336185559E+03  0.20848836881E+03  0.30647509462E+03  0.12500000000E+03 0.  0.
         25    1    1    2    0    0 -0.13057258199E+03  0.13336185559E+03  0.21546800876E+02  0.22566313018E+03  0.12500000000E+03 0.  0.
</event>
<event>
 4    0  0.2230743E-002  0.1618289E+03  0.7546771E-02  0.1186647E+00
         21   -1    0    0  502  501  0.00000000000E+00  0.00000000000E+00  0.28168927439E+02  0.28168927439E+02  0.00000000000E+00 0. -1.
         21   -1    0    0  501  502 -0.00000000000E+00 -0.00000000000E+00 -0.92969800530E+03  0.92969800530E+03  0.00000000000E+00 0. -1.
         25    1    1    2    0    0  0.45040675438E+02  0.75842706840E+02 -0.29464350958E+03  0.33199484388E+03  0.12500000000E+03 0.  0.
         25    1    1    2    0    0 -0.45040675438E+02 -0.75842706840E+02 -0.60688556829E+03  0.62587208887E+03  0.12500000000E+03 0.  0.
</event>
<event>
 4    0  0.2230743E-002  0.2324267E+03  0.7546771E-02  0.1124943E+00
         21   -1    0    0  502  501  0.00000000000E+00  0.00000000000E+00  0.63337215631E+02  0.63337215631E+02  0.00000000000E+00 0.  1.
         21   -1    0    0  501  502 -0.00000000000E+00 -0.00000000000E+00 -0.85292918177E+03  0.85292918177E+03  0.00000000000E+00 0.  1.
         25    1    1    2    0    0 -0.16347676889E+03  0.41670879268E+02 -0.19831861462E+03  0.28881895549E+03  0.12500000000E+03 0.  0.
         25    1    1    2    0    0  0.16347676889E+03 -0.41670879268E+02 -0.59127335152E+03  0.62744744192E+03  0.12500000000E+03 0.  0.
</event>
<event>
 4    0  0.2230743E-002  0.4225874E+03  0.7546771E-02  0.1036227E+00
         21   -1    0    0  502  501  0.00000000000E+00  0.00000000000E+00  0.20738496777E+04  0.20738496777E+04  0.00000000000E+00 0. -1.
         21   -1    0    0  501  502 -0.00000000000E+00 -0.00000000000E+00 -0.86110428662E+02  0.86110428662E+02  0.00000000000E+00 0. -1.
         25    1    1    2    0    0 -0.21537149082E+03 -0.31506324547E+03  0.13300632725E+04  0.13893678550E+04  0.12500000000E+03 0.  0.
         25    1    1    2    0    0  0.21537149082E+03  0.31506324547E+03  0.65767597650E+03  0.77059225131E+03  0.12500000000E+03 0.  0.
</event>
<event>
 4    0  0.2230743E-002  0.3461999E+03  0.7546771E-02  0.1064186E+00
         21   -1    0    0  502  501  0.00000000000E+00  0.00000000000E+00  0.75001465334E+02  0.75001465334E+02  0.00000000000E+00 0.  1.
         21   -1    0    0  501  502 -0.00000000000E+00 -0.00000000000E+00 -0.15980268988E+04  0.15980268988E+04  0.00000000000E+00 0.  1.
         25    1    1    2    0    0 -0.17683612469E+03 -0.20598177301E+03 -0.33932193187E+03  0.45217682300E+03  0.12500000000E+03 0.  0.
         25    1    1    2    0    0  0.17683612469E+03  0.20598177301E+03 -0.11837035016E+04  0.12208515411E+04  0.12500000000E+03 0.  0.
</event>
<event>
 4    0  0.2230743E-002  0.2140455E+03  0.7546771E-02  0.1138402E+00
         21   -1    0    0  502  501  0.00000000000E+00  0.00000000000E+00  0.14877072669E+03  0.14877072669E+03  0.00000000000E+00 0. -1.
         21   -1    0    0  501  502 -0.00000000000E+00 -0.00000000000E+00 -0.30796038986E+03  0.30796038986E+03  0.00000000000E+00 0. -1.
         25    1    1    2    0    0 -0.13243164121E+02  0.12668284879E+03  0.46491857968E+02  0.18441913792E+03  0.12500000000E+03 0.  0.
         25    1    1    2    0    0  0.13243164121E+02 -0.12668284879E+03 -0.20568152114E+03  0.27231197864E+03  0.12500000000E+03 0.  0.
</event>
<event>
 4    0  0.2230743E-002  0.2060842E+03  0.7546771E-02  0.1144705E+00
         21   -1    0    0  502  501  0.00000000000E+00  0.00000000000E+00  0.34540491919E+03  0.34540491919E+03  0.00000000000E+00 0. -1.
         21   -1    0    0  501  502 -0.00000000000E+00 -0.00000000000E+00 -0.12295919899E+03  0.12295919899E+03  0.00000000000E+00 0. -1.
         25    1    1    2    0    0 -0.62397170725E+02  0.15014714693E+03  0.88265963052E+02  0.22327886797E+03  0.12500000000E+03 0.  0.
         25    1    1    2    0    0  0.62397170725E+02 -0.15014714693E+03  0.13417975714E+03  0.24508525022E+03  0.12500000000E+03 0.  0.
</event>
<event>
 4    0  0.2230743E-002  0.2150438E+03  0.7546771E-02  0.1137633E+00
         21   -1    0    0  502  501  0.00000000000E+00  0.00000000000E+00  0.27533457464E+03  0.27533457464E+03  0.00000000000E+00 0. -1.
         21   -1    0    0  501  502 -0.00000000000E+00 -0.00000000000E+00 -0.16795505266E+03  0.16795505266E+03  0.00000000000E+00 0. -1.
         25    1    1    2    0    0  0.12635003868E+03 -0.11703295308E+03  0.85587910794E+02  0.22937160865E+03  0.12500000000E+03 0.  0.
         25    1    1    2    0    0 -0.12635003868E+03  0.11703295308E+03  0.21791611185E+02  0.21391801864E+03  0.12500000000E+03 0.  0.
</event>
<event>
 4    0  0.2230743E-002  0.1844578E+03  0.7546771E-02  0.1163557E+00
         21   -1    0    0  502  501  0.00000000000E+00  0.00000000000E+00  0.53833707302E+02  0.53833707302E+02  0.00000000000E+00 0. -1.
         21   -1    0    0  501  502 -0.00000000000E+00 -0.00000000000E+00 -0.63203299641E+03  0.63203299641E+03  0.00000000000E+00 0. -1.
         25    1    1    2    0    0  0.18537048090E+02  0.13432418755E+03 -0.28237843390E+03  0.33726723743E+03  0.12500000000E+03 0.  0.
         25    1    1    2    0    0 -0.18537048090E+02 -0.13432418755E+03 -0.29582085521E+03  0.34859946628E+03  0.12500000000E+03 0.  0.
</event>
<event>
 4    0  0.2230743E-002  0.2173414E+03  0.7546771E-02  0.1135881E+00
         21   -1    0    0  502  501  0.00000000000E+00  0.00000000000E+00  0.10717657904E+03  0.10717657904E+03  0.00000000000E+00 0.  1.
         21   -1    0    0  501  502 -0.00000000000E+00 -0.00000000000E+00 -0.44074245482E+03  0.44074245482E+03  0.00000000000E+00 0.  1.
         25    1    1    2    0    0 -0.12176018475E+03 -0.22008035670E+02 -0.32772494275E+03  0.37193888520E+03  0.12500000000E+03 0.  0.
         25    1    1    2    0    0  0.12176018475E+03  0.22008035670E+02 -0.58409330419E+01  0.17598014866E+03  0.12500000000E+03 0.  0.
</event>
<event>
 4    0  0.2230743E-002  0.2362115E+03  0.7546771E-02  0.1122343E+00
         21   -1    0    0  502  501  0.00000000000E+00  0.00000000000E+00  0.51580520598E+03  0.51580520598E+03  0.00000000000E+00 0. -1.
         21   -1    0    0  501  502 -0.00000000000E+00 -0.00000000000E+00 -0.10817237993E+03  0.10817237993E+03  0.00000000000E+00 0. -1.
         25    1    1    2    0    0 -0.17249235302E+03  0.12978797156E+02  0.70103059101E+02  0.22463637266E+03  0.12500000000E+03 0.  0.
         25    1    1    2    0    0  0.17249235302E+03 -0.12978797156E+02  0.33752976695E+03  0.39934121325E+03  0.12500000000E+03 0.  0.
</event>
<event>
 4    0  0.2230743E-002  0.2646779E+03  0.7546771E-02  0.1104365E+00
         21   -1    0    0  502  501  0.00000000000E+00  0.00000000000E+00  0.45104886364E+03  0.45104886364E+03  0.00000000000E+00 0. -1.
         21   -1    0    0  501  502 -0.00000000000E+00 -0.00000000000E+00 -0.15531437623E+03  0.15531437623E+03  0.00000000000E+00 0. -1.
         25    1    1    2    0    0  0.20787372225E+03  0.82985223133E+02  0.22325424085E+03  0.33994924286E+03  0.12500000000E+03 0.  0.
         25    1    1    2    0    0 -0.20787372225E+03 -0.82985223133E+02  0.72480246563E+02  0.26641399701E+03  0.12500000000E+03 0.  0.
</event>
<event>
 4    0  0.2230743E-002  0.3747510E+03  0.7546771E-02  0.1052891E+00
         21   -1    0    0  502  501  0.00000000000E+00  0.00000000000E+00  0.72774587226E+02  0.72774587226E+02  0.00000000000E+00 0.  1.
         21   -1    0    0  501  502 -0.00000000000E+00 -0.00000000000E+00 -0.19297713789E+04  0.19297713789E+04  0.00000000000E+00 0.  1.
         25    1    1    2    0    0  0.55811940223E+01  0.50793112735E+02 -0.18625035002E+04  0.18673926685E+04  0.12500000000E+03 0.  0.
         25    1    1    2    0    0 -0.55811940223E+01 -0.50793112735E+02  0.55067085194E+01  0.13515329765E+03  0.12500000000E+03 0.  0.
</event>
<event>
 4    0  0.2230743E-002  0.2110321E+03  0.7546771E-02  0.1140751E+00
         21   -1    0    0  502  501  0.00000000000E+00  0.00000000000E+00  0.17360991942E+03  0.17360991942E+03  0.00000000000E+00 0.  1.
         21   -1    0    0  501  502 -0.00000000000E+00 -0.00000000000E+00 -0.25652067844E+03  0.25652067844E+03  0.00000000000E+00 0.  1.
         25    1    1    2    0    0  0.12932751716E+03 -0.88676996189E+02  0.25529956449E+02  0.20215339479E+03  0.12500000000E+03 0.  0.
         25    1    1    2    0    0 -0.12932751716E+03  0.88676996189E+02 -0.10844071547E+03  0.22797720307E+03  0.12500000000E+03 0.  0.
</event>
<event>
 4    0  0.2230743E-002  0.2882776E+03  0.7546771E-02  0.1091252E+00
         21   -1    0    0  502  501  0.00000000000E+00  0.00000000000E+00  0.20272173602E+03  0.20272173602E+03  0.00000000000E+00 0.  1.
         21   -1    0    0  501  502 -0.00000000000E+00 -0.00000000000E+00 -0.40994123228E+03  0.40994123228E+03  0.00000000000E+00 0.  1.
         25    1    1    2    0    0  0.24404461232E+03 -0.31368409963E+02 -0.15103425587E+02  0.27639620730E+03  0.12500000000E+03 0.  0.
         25    1    1    2    0    0 -0.24404461232E+03  0.31368409963E+02 -0.19211607067E+03  0.33626676100E+03  0.12500000000E+03 0.  0.
</event>
<event>
 4    0  0.2230743E-002  0.2556900E+03  0.7546771E-02  0.1109761E+00
         21   -1    0    0  502  501  0.00000000000E+00  0.00000000000E+00  0.12113991076E+04  0.12113991076E+04  0.00000000000E+00 0. -1.
         21   -1    0    0  501  502 -0.00000000000E+00 -0.00000000000E+00 -0.53968471448E+02  0.53968471448E+02  0.00000000000E+00 0. -1.
         25    1    1    2    0    0 -0.18378221226E+03  0.12463293582E+02  0.26747799162E+03  0.34799527473E+03  0.12500000000E+03 0.  0.
         25    1    1    2    0    0  0.18378221226E+03 -0.12463293582E+02  0.88995264451E+03  0.91737230430E+03  0.12500000000E+03 0.  0.
</event>
<event>
 4    0  0.2230743E-002  0.1637383E+03  0.7546771E-02  0.1184540E+00
         21   -1    0    0  502  501  0.00000000000E+00  0.00000000000E+00  0.11247679722E+03  0.11247679722E+03  0.00000000000E+00 0. -1.
         21   -1    0    0  501  502 -0.00000000000E+00 -0.00000000000E+00 -0.23836246261E+03  0.23836246261E+03  0.00000000000E+00 0. -1.
         25    1    1    2    0    0 -0.94783554407E+02 -0.18369473741E+01 -0.12715898084E+02  0.15739755597E+03  0.12500000000E+03 0.  0.
         25    1    1    2    0    0  0.94783554407E+02  0.18369473741E+01 -0.11316976731E+03  0.19344170387E+03  0.12500000000E+03 0.  0.
</event>
<event>
 4    0  0.2230743E-002  0.2037210E+03  0.7546771E-02  0.1146637E+00
         21   -1    0    0  502  501  0.00000000000E+00  0.00000000000E+00  0.19725735239E+03  0.19725735239E+03  0.00000000000E+00 0. -1.
         21   -1    0    0  501  502 -0.00000000000E+00 -0.00000000000E+00 -0.21039651412E+03  0.21039651412E+03  0.00000000000E+00 0. -1.
         25    1    1    2    0    0  0.63019339217E+02  0.93609704778E+02  0.10813313581E+03  0.20012993031E+03  0.12500000000E+03 0.  0.
         25    1    1    2    0    0 -0.63019339217E+02 -0.93609704778E+02 -0.12127229754E+03  0.20752393620E+03  0.12500000000E+03 0.  0.
</event>
<event>
 4    0  0.2230743E-002  0.1549001E+03  0.7546771E-02  0.1194578E+00
         21   -1    0    0  502  501  0.00000000000E+00  0.00000000000E+00  0.32369826067E+02  0.32369826067E+02  0.00000000000E+00 0.  1.
         21   -1    0    0  501  502 -0.00000000000E+00 -0.00000000000E+00 -0.74124683339E+03  0.74124683339E+03  0.00000000000E+00 0.  1.
         25    1    1    2    0    0 -0.11223572949E+02 -0.70849527165E+02 -0.49621419719E+03  0.51671960829E+03  0.12500000000E+03 0.  0.
         25    1    1    2    0    0  0.11223572949E+02  0.70849527165E+02 -0.21266281013E+03  0.25689705117E+03  0.12500000000E+03 0.  0.
</event>
<event>
 4    0  0.2230743E-002  0.1951899E+03  0.7546771E-02  0.1153862E+00
         21   -1    0    0  502  501  0.00000000000E+00  0.00000000000E+00  0.58283641729E+02  0.58283641729E+02  0.00000000000E+00 0. -1.
         21   -1    0    0  501  502 -0.00000000000E+00 -0.00000000000E+00 -0.65368402094E+03  0.65368402094E+03  0.00000000000E+00 0. -1.
         25    1    1    2    0    0 -0.39730565738E+02  0.78277476796E+02 -0.76065956836E+02  0.17063678096E+03  0.12500000000E+03 0.  0.
         25    1    1    2    0    0  0.39730565738E+02 -0.78277476796E+02 -0.51933442238E+03  0.54133088171E+03  0.12500000000E+03 0.  0.
</event>
<event>
 4    0  0.2230743E-002  0.2137272E+03  0.7546771E-02  0.1138648E+00
         21   -1    0    0  502  501  0.00000000000E+00  0.00000000000E+00  0.65937138083E+03  0.65937138083E+03  0.00000000000E+00 0. -1.
         21   -1    0    0  501  502 -0.00000000000E+00 -0.00000000000E+00 -0.69277057654E+02  0.69277057654E+02  0.00000000000E+00 0. -1.
         25    1    1    2    0    0 -0.15059410186E+03 -0.17795064351E+02  0.15182779224E+03  0.24833833036E+03  0.12500000000E+03 0.  0.
         25    1    1    2    0    0  0.15059410186E+03  0.17795064351E+02  0.43826653094E+03  0.48031010813E+03  0.12500000000E+03 0.  0.
</event>
<event>
 4    0  0.2230743E-002  0.2048176E+03  0.7546771E-02  0.1145737E+00
         21   -1    0    0  502  501  0.00000000000E+00  0.00000000000E+00  0.17637305028E+03  0.17637305028E+03  0.00000000000E+00 0.  1.
         21   -1    0    0  501  502 -0.00000000000E+00 -0.00000000000E+00 -0.23784961657E+03  0.23784961657E+03  0.00000000000E+00 0.  1.
         25    1    1    2    0    0  0.36981524510E+02 -0.11619580225E+03 -0.13897039923E+03  0.22317452695E+03  0.12500000000E+03 0.  0.
         25    1    1    2    0    0 -0.36981524510E+02  0.11619580225E+03  0.77493832944E+02  0.19104813990E+03  0.12500000000E+03 0.  0.
</event>
<event>
 4    0  0.2230743E-002  0.2094599E+03  0.7546771E-02  0.1141994E+00
         21   -1    0    0  502  501  0.00000000000E+00  0.00000000000E+00  0.40288243388E+02  0.40288243388E+02  0.00000000000E+00 0. -1.
         21   -1    0    0  501  502 -0.00000000000E+00 -0.00000000000E+00 -0.10889893973E+04  0.10889893973E+04  0.00000000000E+00 0. -1.
         25    1    1    2    0    0 -0.47510174646E+02  0.15304811140E+03 -0.66094324962E+03  0.69148530015E+03  0.12500000000E+03 0.  0.
         25    1    1    2    0    0  0.47510174646E+02 -0.15304811140E+03 -0.38775790430E+03  0.43779234055E+03  0.12500000000E+03 0.  0.
</event>
<event>
 4    0  0.2230743E-002  0.2022628E+03  0.7546771E-02  0.1147844E+00
         21   -1    0    0  502  501  0.00000000000E+00  0.00000000000E+00  0.11966143996E+03  0.11966143996E+03  0.00000000000E+00 0.  1.
         21   -1    0    0  501  502 -0.00000000000E+00 -0.00000000000E+00 -0.34188339626E+03  0.34188339626E+03  0.00000000000E+00 0.  1.
         25    1    1    2    0    0 -0.15894910142E+03  0.33123391808E+01 -0.11462227157E+03  0.23246301550E+03  0.12500000000E+03 0.  0.
         25    1    1    2    0    0  0.15894910142E+03 -0.33123391808E+01 -0.10759968473E+03  0.22908182073E+03  0.12500000000E+03 0.  0.
</event>
<event>
 4    0  0.2230743E-002  0.2184605E+03  0.7546771E-02  0.1135036E+00
         21   -1    0    0  502  501  0.00000000000E+00  0.00000000000E+00  0.80575829326E+03  0.80575829326E+03  0.00000000000E+00 0. -1.
         21   -1    0    0  501  502 -0.00000000000E+00 -0.00000000000E+00 -0.59229898222E+02  0.59229898222E+02  0.00000000000E+00 0. -1.
         25    1    1    2    0    0  0.71087858773E+02 -0.96463163805E+02  0.10956992083E+03  0.20491264770E+03  0.12500000000E+03 0.  0.
         25    1    1    2    0    0 -0.71087858773E+02  0.96463163805E+02  0.63695847420E+03  0.66007554378E+03  0.12500000000E+03 0.  0.
</event>
<event>
 4    0  0.2230743E-002  0.1814529E+03  0.7546771E-02  0.1166404E+00
         21   -1    0    0  502  501  0.00000000000E+00  0.00000000000E+00  0.70611550736E+02  0.70611550736E+02  0.00000000000E+00 0.  1.
         21   -1    0    0  501  502 -0.00000000000E+00 -0.00000000000E+00 -0.46628563754E+03  0.46628563754E+03  0.00000000000E+00 0.  1.
         25    1    1    2    0    0 -0.72165796877E+02  0.10442640995E+03 -0.14685806592E+03  0.23087890518E+03  0.12500000000E+03 0.  0.
         25    1    1    2    0    0  0.72165796877E+02 -0.10442640995E+03 -0.24881602088E+03  0.30601828309E+03  0.12500000000E+03 0.  0.
</event>
<event>
 4    0  0.2230743E-002  0.2281134E+03  0.7546771E-02  0.1127975E+00
         21   -1    0    0  502  501  0.00000000000E+00  0.00000000000E+00  0.11790006878E+04  0.11790006878E+04  0.00000000000E+00 0.  1.
         21   -1    0    0  501  502 -0.00000000000E+00 -0.00000000000E+00 -0.44135449921E+02  0.44135449921E+02  0.00000000000E+00 0.  1.
         25    1    1    2    0    0 -0.81281312580E+02  0.17070864850E+03  0.49841976472E+03  0.54753571236E+03  0.12500000000E+03 0.  0.
         25    1    1    2    0    0  0.81281312580E+02 -0.17070864850E+03  0.63644547319E+03  0.67560042539E+03  0.12500000000E+03 0.  0.
</event>
<event>
 4    0  0.2230743E-002  0.6057186E+03  0.7546771E-02  0.9893612E-01
         21   -1    0    0  502  501  0.00000000000E+00  0.00000000000E+00  0.21563048644E+04  0.21563048644E+04  0.00000000000E+00 0.  1.
         21   -1    0    0  501  502 -0.00000000000E+00 -0.00000000000E+00 -0.17014988359E+03  0.17014988359E+03  0.00000000000E+00 0. -1.
         25    1    1    2    0    0 -0.22108151844E+03  0.28040988427E+03  0.84654504420E+02  0.38768302273E+03  0.12500000000E+03 0.  0.
         25    1    1    2    0    0  0.22108151844E+03 -0.28040988427E+03  0.19015004764E+04  0.19387717253E+04  0.12500000000E+03 0.  0.
</event>
<event>
 4    0  0.2230743E-002  0.1912785E+03  0.7546771E-02  0.1157313E+00
         21   -1    0    0  502  501  0.00000000000E+00  0.00000000000E+00  0.53967858987E+02  0.53967858987E+02  0.00000000000E+00 0.  1.
         21   -1    0    0  501  502 -0.00000000000E+00 -0.00000000000E+00 -0.67794906981E+03  0.67794906981E+03  0.00000000000E+00 0.  1.
         25    1    1    2    0    0 -0.10774681443E+03 -0.93824139507E+02 -0.35686434500E+03  0.40421467800E+03  0.12500000000E+03 0.  0.
         25    1    1    2    0    0  0.10774681443E+03  0.93824139507E+02 -0.26711686582E+03  0.32770225080E+03  0.12500000000E+03 0.  0.
</event>
<event>
 4    0  0.2230743E-002  0.2204994E+03  0.7546771E-02  0.1133511E+00
         21   -1    0    0  502  501  0.00000000000E+00  0.00000000000E+00  0.14788776426E+03  0.14788776426E+03  0.00000000000E+00 0.  1.
         21   -1    0    0  501  502 -0.00000000000E+00 -0.00000000000E+00 -0.32876283902E+03  0.32876283902E+03  0.00000000000E+00 0.  1.
         25    1    1    2    0    0  0.75692269213E+02 -0.12896185720E+03 -0.20189820377E+03  0.28062139070E+03  0.12500000000E+03 0.  0.
         25    1    1    2    0    0 -0.75692269213E+02  0.12896185720E+03  0.21023129010E+02  0.19602921258E+03  0.12500000000E+03 0.  0.
</event>
<event>
 4    0  0.2230743E-002  0.2107545E+03  0.7546771E-02  0.1140970E+00
         21   -1    0    0  502  501  0.00000000000E+00  0.00000000000E+00  0.11420497951E+03  0.11420497951E+03  0.00000000000E+00 0. -1.
         21   -1    0    0  501  502 -0.00000000000E+00 -0.00000000000E+00 -0.38892744481E+03  0.38892744481E+03  0.00000000000E+00 0. -1.
         25    1    1    2    0    0 -0.15294134758E+03  0.57575695579E+02 -0.19188399574E+03  0.28133695872E+03  0.12500000000E+03 0.  0.
         25    1    1    2    0    0  0.15294134758E+03 -0.57575695579E+02 -0.82838469563E+02  0.22179546560E+03  0.12500000000E+03 0.  0.
</event>
<event>
 4    0  0.2230743E-002  0.2007497E+03  0.7546771E-02  0.1149108E+00
         21   -1    0    0  502  501  0.00000000000E+00  0.00000000000E+00  0.63000892188E+03  0.63000892188E+03  0.00000000000E+00 0.  1.
         21   -1    0    0  501  502 -0.00000000000E+00 -0.00000000000E+00 -0.63968032477E+02  0.63968032477E+02  0.00000000000E+00 0.  1.
         25    1    1    2    0    0 -0.15050763684E+03  0.16630372299E+01  0.20533342876E+03  0.28362322085E+03  0.12500000000E+03 0.  0.
         25    1    1    2    0    0  0.15050763684E+03 -0.16630372299E+01  0.36070746064E+03  0.41035373350E+03  0.12500000000E+03 0.  0.
</event>
<event>
 4    0  0.2230743E-002  0.2111625E+03  0.7546771E-02  0.1140649E+00
         21   -1    0    0  502  501  0.00000000000E+00  0.00000000000E+00  0.12189708525E+03  0.12189708525E+03  0.00000000000E+00 0.  1.
         21   -1    0    0  501  502 -0.00000000000E+00 -0.00000000000E+00 -0.36579722803E+03  0.36579722803E+03  0.00000000000E+00 0.  1.
         25    1    1    2    0    0  0.14196184257E+03 -0.46985223017E+02 -0.21579247011E+03  0.29077855162E+03  0.12500000000E+03 0.  0.
         25    1    1    2    0    0 -0.14196184257E+03  0.46985223017E+02 -0.28107672673E+02  0.19691576166E+03  0.12500000000E+03 0.  0.
</event>
<event>
 4    0  0.2230743E-002  0.1682021E+03  0.7546771E-02  0.1179736E+00
         21   -1    0    0  502  501  0.00000000000E+00  0.00000000000E+00  0.12199726105E+03  0.12199726105E+03  0.00000000000E+00 0. -1.
         21   -1    0    0  501  502 -0.00000000000E+00 -0.00000000000E+00 -0.23190632350E+03  0.23190632350E+03  0.00000000000E+00 0. -1.
         25    1    1    2    0    0 -0.10377676832E+03  0.66786055573E+00 -0.10077322590E+03  0.19118134517E+03  0.12500000000E+03 0.  0.
         25    1    1    2    0    0  0.10377676832E+03 -0.66786055573E+00 -0.91358365521E+01  0.16272223939E+03  0.12500000000E+03 0.  0.
</event>
<event>
 4    0  0.2230743E-002  0.4434725E+03  0.7546771E-02  0.1029687E+00
         21   -1    0    0  502  501  0.00000000000E+00  0.00000000000E+00  0.11356249868E+04  0.11356249868E+04  0.00000000000E+00 0.  1.
         21   -1    0    0  501  502 -0.00000000000E+00 -0.00000000000E+00 -0.17318029755E+03  0.17318029755E+03  0.00000000000E+00 0.  1.
         25    1    1    2    0    0 -0.47600831311E+02 -0.17519203633E+03 -0.86627553579E+02  0.23682783150E+03  0.12500000000E+03 0.  0.
         25    1    1    2    0    0  0.47600831311E+02  0.17519203633E+03  0.10490722428E+04  0.10719774528E+04  0.12500000000E+03 0.  0.
</event>
<event>
 4    0  0.2230743E-002  0.1795342E+03  0.7546771E-02  0.1168255E+00
         21   -1    0    0  502  501  0.00000000000E+00  0.00000000000E+00  0.10855498367E+03  0.10855498367E+03  0.00000000000E+00 0.  1.
         21   -1    0    0  501  502 -0.00000000000E+00 -0.00000000000E+00 -0.29692362365E+03  0.29692362365E+03  0.00000000000E+00 0.  1.
         25    1    1    2    0    0 -0.63711265603E+02 -0.68789011565E+02 -0.19402245470E+03  0.24911998395E+03  0.12500000000E+03 0.  0.
         25    1    1    2    0    0  0.63711265603E+02  0.68789011565E+02  0.56538147217E+01  0.15635862336E+03  0.12500000000E+03 0.  0.
</event>
<event>
 4    0  0.2230743E-002  0.2693055E+03  0.7546771E-02  0.1101678E+00
         21   -1    0    0  502  501  0.00000000000E+00  0.00000000000E+00  0.41071268826E+03  0.41071268826E+03  0.00000000000E+00 0.  1.
         21   -1    0    0  501  502 -0.00000000000E+00 -0.00000000000E+00 -0.17658444558E+03  0.17658444558E+03  0.00000000000E+00 0.  1.
         25    1    1    2    0    0  0.95889858825E+02  0.21832966578E+03  0.12376487568E+03  0.29631984820E+03  0.12500000000E+03 0.  0.
         25    1    1    2    0    0 -0.95889858825E+02 -0.21832966578E+03  0.11036336701E+03  0.29097728564E+03  0.12500000000E+03 0.  0.
</event>
<event>
 4    0  0.2230743E-002  0.2635256E+03  0.7546771E-02  0.1105043E+00
         21   -1    0    0  502  501  0.00000000000E+00  0.00000000000E+00  0.57203035195E+03  0.57203035195E+03  0.00000000000E+00 0.  1.
         21   -1    0    0  501  502 -0.00000000000E+00 -0.00000000000E+00 -0.12140219960E+03  0.12140219960E+03  0.00000000000E+00 0.  1.
         25    1    1    2    0    0 -0.16981017479E+03 -0.12641194613E+03  0.35016728853E+03  0.42785231744E+03  0.12500000000E+03 0.  0.
         25    1    1    2    0    0  0.16981017479E+03  0.12641194613E+03  0.10046086382E+03  0.26558023410E+03  0.12500000000E+03 0.  0.
</event>
<event>
 4    0  0.2230743E-002  0.2253584E+03  0.7546771E-02  0.1129950E+00
         21   -1    0    0  502  501  0.00000000000E+00  0.00000000000E+00  0.18509213660E+03  0.18509213660E+03  0.00000000000E+00 0. -1.
         21   -1    0    0  501  502 -0.00000000000E+00 -0.00000000000E+00 -0.27438437780E+03  0.27438437780E+03  0.00000000000E+00 0. -1.
         25    1    1    2    0    0  0.49182730939E+02 -0.22180173639E+02  0.13842835696E+03  0.19416052930E+03  0.12500000000E+03 0.  0.
         25    1    1    2    0    0 -0.49182730939E+02  0.22180173639E+02 -0.22772059816E+03  0.26531598511E+03  0.12500000000E+03 0.  0.
</event>
<event>
 4    0  0.2230743E-002  0.1582504E+03  0.7546771E-02  0.1190686E+00
         21   -1    0    0  502  501  0.00000000000E+00  0.00000000000E+00  0.19399007509E+03  0.19399007509E+03  0.00000000000E+00 0.  1.
         21   -1    0    0  501  502 -0.00000000000E+00 -0.00000000000E+00 -0.12909523386E+03  0.12909523386E+03  0.00000000000E+00 0.  1.
         25    1    1    2    0    0 -0.56831174258E+02 -0.23067098497E+02  0.10922057201E+03  0.17696329210E+03  0.12500000000E+03 0.  0.
         25    1    1    2    0    0  0.56831174258E+02  0.23067098497E+02 -0.44325730770E+02  0.14612201685E+03  0.12500000000E+03 0.  0.
</event>
<event>
 4    0  0.2230743E-002  0.1980121E+03  0.7546771E-02  0.1151427E+00
         21   -1    0    0  502  501  0.00000000000E+00  0.00000000000E+00  0.14204500413E+04  0.14204500413E+04  0.00000000000E+00 0. -1.
         21   -1    0    0  501  502 -0.00000000000E+00 -0.00000000000E+00 -0.27603088768E+02  0.27603088768E+02  0.00000000000E+00 0. -1.
         25    1    1    2    0    0 -0.33927434631E+01 -0.23136479678E+02  0.12514013267E+04  0.12578462100E+04  0.12500000000E+03 0.  0.
         25    1    1    2    0    0  0.33927434631E+01  0.23136479678E+02  0.14144562587E+03  0.19020692016E+03  0.12500000000E+03 0.  0.
</event>
<event>
 4    0  0.2230743E-002  0.1616357E+03  0.7546771E-02  0.1186862E+00
         21   -1    0    0  502  501  0.00000000000E+00  0.00000000000E+00  0.52509326926E+03  0.52509326926E+03  0.00000000000E+00 0. -1.
         21   -1    0    0  501  502 -0.00000000000E+00 -0.00000000000E+00 -0.49755188814E+02  0.49755188814E+02  0.00000000000E+00 0. -1.
         25    1    1    2    0    0 -0.12035443802E+02  0.98324473594E+02  0.19100771284E+03  0.24884031100E+03  0.12500000000E+03 0.  0.
         25    1    1    2    0    0  0.12035443802E+02 -0.98324473594E+02  0.28433036760E+03  0.32600814707E+03  0.12500000000E+03 0.  0.
</event>
<event>
 4    0  0.2230743E-002  0.3490937E+03  0.7546771E-02  0.1062988E+00
         21   -1    0    0  502  501  0.00000000000E+00  0.00000000000E+00  0.15612625853E+03  0.15612625853E+03  0.00000000000E+00 0.  1.
         21   -1    0    0  501  502 -0.00000000000E+00 -0.00000000000E+00 -0.78056312383E+03  0.78056312383E+03  0.00000000000E+00 0.  1.
         25    1    1    2    0    0  0.12347815794E+03  0.17711034847E+03 -0.63981787713E+03  0.68673637367E+03  0.12500000000E+03 0.  0.
         25    1    1    2    0    0 -0.12347815794E+03 -0.17711034847E+03  0.15381011830E+02  0.24995300868E+03  0.12500000000E+03 0.  0.
</event>
<event>
 4    0  0.2230743E-002  0.2098753E+03  0.7546771E-02  0.1141665E+00
         21   -1    0    0  502  501  0.00000000000E+00  0.00000000000E+00  0.82420312738E+03  0.82420312738E+03  0.00000000000E+00 0.  1.
         21   -1    0    0  501  502 -0.00000000000E+00 -0.00000000000E+00 -0.53442714066E+02  0.53442714066E+02  0.00000000000E+00 0.  1.
         25    1    1    2    0    0 -0.13115255605E+03  0.86088445062E+01  0.16462163464E+03  0.24494976578E+03  0.12500000000E+03 0.  0.
         25    1    1    2    0    0  0.13115255605E+03 -0.86088445062E+01  0.60613877867E+03  0.63269607567E+03  0.12500000000E+03 0.  0.
</event>
<event>
 4    0  0.2230743E-002  0.1940553E+03  0.7546771E-02  0.1154854E+00
         21   -1    0    0  502  501  0.00000000000E+00  0.00000000000E+00  0.17727586638E+04  0.17727586638E+04  0.00000000000E+00 0. -1.
         21   -1    0    0  501  502 -0.00000000000E+00 -0.00000000000E+00 -0.21242292546E+02  0.21242292546E+02  0.00000000000E+00 0. -1.
         25    1    1    2    0    0  0.13432156743E+03 -0.63019964482E+02  0.89572498552E+03  0.91649443483E+03  0.12500000000E+03 0.  0.
         25    1    1    2    0    0 -0.13432156743E+03  0.63019964482E+02  0.85579138577E+03  0.87750652155E+03  0.12500000000E+03 0.  0.
</event>
<event>
 4    0  0.2230743E-002  0.4189698E+03  0.7546771E-02  0.1037402E+00
         21   -1    0    0  502  501  0.00000000000E+00  0.00000000000E+00  0.52331446749E+03  0.52331446749E+03  0.00000000000E+00 0. -1.
         21   -1    0    0  501  502 -0.00000000000E+00 -0.00000000000E+00 -0.33543060482E+03  0.33543060482E+03  0.00000000000E+00 0. -1.
         25    1    1    2    0    0  0.10577272392E+03  0.12932011123E+03 -0.27839582739E+03  0.34790917924E+03  0.12500000000E+03 0.  0.
         25    1    1    2    0    0 -0.10577272392E+03 -0.12932011123E+03  0.46627969005E+03  0.51083589307E+03  0.12500000000E+03 0.  0.
</event>
<event>
 4    0  0.2230743E-002  0.1771235E+03  0.7546771E-02  0.1170616E+00
         21   -1    0    0  502  501  0.00000000000E+00  0.00000000000E+00  0.24221565353E+03  0.24221565353E+03  0.00000000000E+00 0. -1.
         21   -1    0    0  501  502 -0.00000000000E+00 -0.00000000000E+00 -0.12952395061E+03  0.12952395061E+03  0.00000000000E+00 0. -1.
         25    1    1    2    0    0  0.47386184323E+02 -0.82668754638E+02  0.14203691468E+03  0.21184678093E+03  0.12500000000E+03 0.  0.
         25    1    1    2    0    0 -0.47386184323E+02  0.82668754638E+02 -0.29345211764E+02  0.15989282320E+03  0.12500000000E+03 0.  0.
</event>
<event>
 4    0  0.2230743E-002  0.1917019E+03  0.7546771E-02  0.1156935E+00
         21   -1    0    0  502  501  0.00000000000E+00  0.00000000000E+00  0.24872343075E+02  0.24872343075E+02  0.00000000000E+00 0. -1.
         21   -1    0    0  501  502 -0.00000000000E+00 -0.00000000000E+00 -0.14775295764E+04  0.14775295764E+04  0.00000000000E+00 0. -1.
         25    1    1    2    0    0  0.73956656916E+02 -0.94525262255E+02 -0.10475575530E+04  0.10617939721E+04  0.12500000000E+03 0.  0.
         25    1    1    2    0    0 -0.73956656916E+02  0.94525262255E+02 -0.40509968037E+03  0.44060794743E+03  0.12500000000E+03 0.  0.
</event>
<event>
 4    0  0.2230743E-002  0.1549861E+03  0.7546771E-02  0.1194477E+00
         21   -1    0    0  502  501  0.00000000000E+00  0.00000000000E+00  0.13845421738E+03  0.13845421738E+03  0.00000000000E+00 0. -1.
         21   -1    0    0  501  502 -0.00000000000E+00 -0.00000000000E+00 -0.17349198692E+03  0.17349198692E+03  0.00000000000E+00 0. -1.
         25    1    1    2    0    0 -0.64701217499E+02  0.22285559490E+02 -0.78839695927E+02  0.16286065013E+03  0.12500000000E+03 0.  0.
         25    1    1    2    0    0  0.64701217499E+02 -0.22285559490E+02  0.43801926388E+02  0.14908555417E+03  0.12500000000E+03 0.  0.
</event>
<event>
 4    0  0.2230743E-002  0.3406214E+03  0.7546771E-02  0.1066532E+00
         21   -1    0    0  502  501  0.00000000000E+00  0.00000000000E+00  0.15162422448E+03  0.15162422448E+03  0.00000000000E+00 0. -1.
         21   -1    0    0  501  502 -0.00000000000E+00 -0.00000000000E+00 -0.76520065464E+03  0.76520065464E+03  0.00000000000E+00 0. -1.
         25    1    1    2    0    0  0.26123036674E+03  0.16845064643E+03 -0.38954232137E+03  0.51379484712E+03  0.12500000000E+03 0.  0.
         25    1    1    2    0    0 -0.26123036674E+03 -0.16845064643E+03 -0.22403410879E+03  0.40303003199E+03  0.12500000000E+03 0.  0.
</event>
<event>
 4    0  0.2230743E-002  0.2324561E+03  0.7546771E-02  0.1124923E+00
         21   -1    0    0  502  501  0.00000000000E+00  0.00000000000E+00  0.21777470449E+03  0.21777470449E+03  0.00000000000E+00 0.  1.
         21   -1    0    0  501  502 -0.00000000000E+00 -0.00000000000E+00 -0.24812725385E+03  0.24812725385E+03  0.00000000000E+00 0. -1.
         25    1    1    2    0    0 -0.15567263225E+03 -0.93366896142E+02 -0.89221962557E+02  0.23777490265E+03  0.12500000000E+03 0.  0.
         25    1    1    2    0    0  0.15567263225E+03  0.93366896142E+02  0.58869413195E+02  0.22812705569E+03  0.12500000000E+03 0.  0.
</event>
<event>
 4    0  0.2230743E-002  0.1666949E+03  0.7546771E-02  0.1181339E+00
         21   -1    0    0  502  501  0.00000000000E+00  0.00000000000E+00  0.20135462490E+03  0.20135462490E+03  0.00000000000E+00 0.  1.
         21   -1    0    0  501  502 -0.00000000000E+00 -0.00000000000E+00 -0.13800117336E+03  0.13800117336E+03  0.00000000000E+00 0.  1.
         25    1    1    2    0    0 -0.22596409644E+02 -0.10134508972E+02  0.14106551170E+03  0.19009940713E+03  0.12500000000E+03 0.  0.
         25    1    1    2    0    0  0.22596409644E+02  0.10134508972E+02 -0.77712060159E+02  0.14925639114E+03  0.12500000000E+03 0.  0.
</event>
<event>
 4    0  0.2230743E-002  0.3070441E+03  0.7546771E-02  0.1081771E+00
         21   -1    0    0  502  501  0.00000000000E+00  0.00000000000E+00  0.51556966794E+02  0.51556966794E+02  0.00000000000E+00 0.  1.
         21   -1    0    0  501  502 -0.00000000000E+00 -0.00000000000E+00 -0.18285811000E+04  0.18285811000E+04  0.00000000000E+00 0.  1.
         25    1    1    2    0    0  0.12150718867E+01 -0.16740733232E+03 -0.19963946076E+03  0.28897682537E+03  0.12500000000E+03 0.  0.
         25    1    1    2    0    0 -0.12150718867E+01  0.16740733232E+03 -0.15773846725E+04  0.15911612415E+04  0.12500000000E+03 0.  0.
</event>
<event>
 4    0  0.2230743E-002  0.3145602E+03  0.7546771E-02  0.1078180E+00
         21   -1    0    0  502  501  0.00000000000E+00  0.00000000000E+00  0.36851357059E+03  0.36851357059E+03  0.00000000000E+00 0.  1.
         21   -1    0    0  501  502 -0.00000000000E+00 -0.00000000000E+00 -0.26850606545E+03  0.26850606545E+03  0.00000000000E+00 0.  1.
         25    1    1    2    0    0  0.10192760678E+03 -0.25153208944E+03 -0.49543938265E+02  0.30288154592E+03  0.12500000000E+03 0.  0.
         25    1    1    2    0    0 -0.10192760678E+03  0.25153208944E+03  0.14955144341E+03  0.33413809012E+03  0.12500000000E+03 0.  0.
</event>
<event>
 4    0  0.2230743E-002  0.2328176E+03  0.7546771E-02  0.1124672E+00
         21   -1    0    0  502  501  0.00000000000E+00  0.00000000000E+00  0.14302850539E+03  0.14302850539E+03  0.00000000000E+00 0.  1.
         21   -1    0    0  501  502 -0.00000000000E+00 -0.00000000000E+00 -0.37897366220E+03  0.37897366220E+03  0.00000000000E+00 0.  1.
         25    1    1    2    0    0  0.10361553606E+03  0.11799083474E+02 -0.30456538814E+03  0.34534109709E+03  0.12500000000E+03 0.  0.
         25    1    1    2    0    0 -0.10361553606E+03 -0.11799083474E+02  0.68620231334E+02  0.17666107050E+03  0.12500000000E+03 0.  0.
</event>
<event>
 4    0  0.2230743E-002  0.2067364E+03  0.7546771E-02  0.1144177E+00
         21   -1    0    0  502  501  0.00000000000E+00  0.00000000000E+00  0.76624593417E+03  0.76624593417E+03  0.00000000000E+00 0. -1.
         21   -1    0    0  501  502 -0.00000000000E+00 -0.00000000000E+00 -0.55778346990E+02  0.55778346990E+02  0.00000000000E+00 0. -1.
         25    1    1    2    0    0 -0.12069792265E+03  0.13297099066E+02  0.57635218928E+03  0.60212261830E+03  0.12500000000E+03 0.  0.
         25    1    1    2    0    0  0.12069792265E+03 -0.13297099066E+02  0.13411539789E+03  0.21990166286E+03  0.12500000000E+03 0.  0.
</event>
<event>
 4    0  0.2230743E-002  0.2668839E+03  0.7546771E-02  0.1103076E+00
         21   -1    0    0  502  501  0.00000000000E+00  0.00000000000E+00  0.74955308118E+03  0.74955308118E+03  0.00000000000E+00 0. -1.
         21   -1    0    0  501  502 -0.00000000000E+00 -0.00000000000E+00 -0.95025973121E+02  0.95025973121E+02  0.00000000000E+00 0. -1.
         25    1    1    2    0    0  0.61394317098E+02 -0.12530833998E+03  0.26499901727E+02  0.18920540963E+03  0.12500000000E+03 0.  0.
         25    1    1    2    0    0 -0.61394317098E+02  0.12530833998E+03  0.62802720633E+03  0.65537364467E+03  0.12500000000E+03 0.  0.
</event>
<event>
 4    0  0.2230743E-002  0.3116131E+03  0.7546771E-02  0.1079575E+00
         21   -1    0    0  502  501  0.00000000000E+00  0.00000000000E+00  0.10458836225E+03  0.10458836225E+03  0.00000000000E+00 0.  1.
         21   -1    0    0  501  502 -0.00000000000E+00 -0.00000000000E+00 -0.92842745652E+03  0.92842745652E+03  0.00000000000E+00 0.  1.
         25    1    1    2    0    0 -0.27345762479E+03  0.23747309836E+02 -0.28209465592E+03  0.41297143023E+03  0.12500000000E+03 0.  0.
         25    1    1    2    0    0  0.27345762479E+03 -0.23747309836E+02 -0.54174443835E+03  0.62004438855E+03  0.12500000000E+03 0.  0.
</event>
<event>
 4    0  0.2230743E-002  0.1929665E+03  0.7546771E-02  0.1155813E+00
         21   -1    0    0  502  501  0.00000000000E+00  0.00000000000E+00  0.16325445946E+03  0.16325445946E+03  0.00000000000E+00 0. -1.
         21   -1    0    0  501  502 -0.00000000000E+00 -0.00000000000E+00 -0.22808607041E+03  0.22808607041E+03  0.00000000000E+00 0. -1.
         25    1    1    2    0    0  0.67085336504E+02 -0.11818551020E+03 -0.89262085885E+02  0.20508773043E+03  0.12500000000E+03 0.  0.
         25    1    1    2    0    0 -0.67085336504E+02  0.11818551020E+03  0.24430474938E+02  0.18625279945E+03  0.12500000000E+03 0.  0.
</event>
<event>
 4    0  0.2230743E-002  0.2223732E+03  0.7546771E-02  0.1132126E+00
         21   -1    0    0  502  501  0.00000000000E+00  0.00000000000E+00  0.67008549192E+03  0.67008549192E+03  0.00000000000E+00 0. -1.
         21   -1    0    0  501  502 -0.00000000000E+00 -0.00000000000E+00 -0.73796339602E+02  0.73796339602E+02  0.00000000000E+00 0. -1.
         25    1    1    2    0    0  0.18181649210E+03 -0.68861868863E+01  0.25325783836E+03  0.33596010040E+03  0.12500000000E+03 0.  0.
         25    1    1    2    0    0 -0.18181649210E+03  0.68861868863E+01  0.34303131396E+03  0.40792173113E+03  0.12500000000E+03 0.  0.
</event>
<event>
 4    0  0.2230743E-002  0.1743043E+03  0.7546771E-02  0.1173432E+00
         21   -1    0    0  502  501  0.00000000000E+00  0.00000000000E+00  0.12798397322E+03  0.12798397322E+03  0.00000000000E+00 0.  1.
         21   -1    0    0  501  502 -0.00000000000E+00 -0.00000000000E+00 -0.23738888657E+03  0.23738888657E+03  0.00000000000E+00 0.  1.
         25    1    1    2    0    0 -0.37771488322E+02 -0.11103687566E+03 -0.21540740842E+02  0.17275669770E+03  0.12500000000E+03 0.  0.
         25    1    1    2    0    0  0.37771488322E+02  0.11103687566E+03 -0.87864172508E+02  0.19261616208E+03  0.12500000000E+03 0.  0.
</event>
<event>
 4    0  0.2230743E-002  0.2217820E+03  0.7546771E-02  0.1132561E+00
         21   -1    0    0  502  501  0.00000000000E+00  0.00000000000E+00  0.46393393704E+03  0.46393393704E+03  0.00000000000E+00 0.  1.
         21   -1    0    0  501  502 -0.00000000000E+00 -0.00000000000E+00 -0.10602210787E+03  0.10602210787E+03  0.00000000000E+00 0.  1.
         25    1    1    2    0    0  0.13139045124E+03  0.10639400376E+03  0.88286389343E+02  0.22804083244E+03  0.12500000000E+03 0.  0.
         25    1    1    2    0    0 -0.13139045124E+03 -0.10639400376E+03  0.26962543984E+03  0.34191521247E+03  0.12500000000E+03 0.  0.
</event>
<event>
 4    0  0.2230743E-002  0.2043996E+03  0.7546771E-02  0.1146079E+00
         21   -1    0    0  502  501  0.00000000000E+00  0.00000000000E+00  0.96989279672E+02  0.96989279672E+02  0.00000000000E+00 0. -1.
         21   -1    0    0  501  502 -0.00000000000E+00 -0.00000000000E+00 -0.43076111370E+03  0.43076111370E+03  0.00000000000E+00 0. -1.
         25    1    1    2    0    0  0.44895237946E+02 -0.73182041042E+02  0.10043940908E+02  0.15197721629E+03  0.12500000000E+03 0.  0.
         25    1    1    2    0    0 -0.44895237946E+02  0.73182041042E+02 -0.34381577493E+03  0.37577317708E+03  0.12500000000E+03 0.  0.
</event>
<event>
 4    0  0.2230743E-002  0.1894219E+03  0.7546771E-02  0.1158984E+00
         21   -1    0    0  502  501  0.00000000000E+00  0.00000000000E+00  0.12446103322E+03  0.12446103322E+03  0.00000000000E+00 0.  1.
         21   -1    0    0  501  502 -0.00000000000E+00 -0.00000000000E+00 -0.28828840630E+03  0.28828840630E+03  0.00000000000E+00 0.  1.
         25    1    1    2    0    0 -0.92811657489E+02  0.10584322504E+03 -0.59089278207E+02  0.19731531834E+03  0.12500000000E+03 0.  0.
         25    1    1    2    0    0  0.92811657489E+02 -0.10584322504E+03 -0.10473809487E+03  0.21543412118E+03  0.12500000000E+03 0.  0.
</event>
<event>
 4    0  0.2230743E-002  0.2696422E+03  0.7546771E-02  0.1101485E+00
         21   -1    0    0  502  501  0.00000000000E+00  0.00000000000E+00  0.10683620444E+04  0.10683620444E+04  0.00000000000E+00 0.  1.
         21   -1    0    0  501  502 -0.00000000000E+00 -0.00000000000E+00 -0.68054553525E+02  0.68054553525E+02  0.00000000000E+00 0.  1.
         25    1    1    2    0    0 -0.21228655418E+03 -0.10622383555E+03  0.44310873004E+03  0.51799558971E+03  0.12500000000E+03 0.  0.
         25    1    1    2    0    0  0.21228655418E+03  0.10622383555E+03  0.55719876084E+03  0.61842100822E+03  0.12500000000E+03 0.  0.
</event>
<event>
 4    0  0.2230743E-002  0.2546431E+03  0.7546771E-02  0.1110405E+00
         21   -1    0    0  502  501  0.00000000000E+00  0.00000000000E+00  0.11208709456E+03  0.11208709456E+03  0.00000000000E+00 0. -1.
         21   -1    0    0  501  502 -0.00000000000E+00 -0.00000000000E+00 -0.57850629591E+03  0.57850629591E+03  0.00000000000E+00 0. -1.
         25    1    1    2    0    0 -0.19987080133E+03  0.90940889146E+02 -0.19033959234E+03  0.31634276182E+03  0.12500000000E+03 0.  0.
         25    1    1    2    0    0  0.19987080133E+03 -0.90940889146E+02 -0.27607960901E+03  0.37425062866E+03  0.12500000000E+03 0.  0.
</event>
<event>
 4    0  0.2230743E-002  0.2104433E+03  0.7546771E-02  0.1141215E+00
         21   -1    0    0  502  501  0.00000000000E+00  0.00000000000E+00  0.52325647021E+02  0.52325647021E+02  0.00000000000E+00 0.  1.
         21   -1    0    0  501  502 -0.00000000000E+00 -0.00000000000E+00 -0.84636096565E+03  0.84636096565E+03  0.00000000000E+00 0.  1.
         25    1    1    2    0    0 -0.11828873621E+03  0.21676782031E+01 -0.13844880230E+03  0.22088457348E+03  0.12500000000E+03 0.  0.
         25    1    1    2    0    0  0.11828873621E+03 -0.21676782031E+01 -0.65558651632E+03  0.67780203919E+03  0.12500000000E+03 0.  0.
</event>
<event>
 4    0  0.2230743E-002  0.2351438E+03  0.7546771E-02  0.1123071E+00
         21   -1    0    0  502  501  0.00000000000E+00  0.00000000000E+00  0.77142134901E+03  0.77142134901E+03  0.00000000000E+00 0. -1.
         21   -1    0    0  501  502 -0.00000000000E+00 -0.00000000000E+00 -0.71676273099E+02  0.71676273099E+02  0.00000000000E+00 0. -1.
         25    1    1    2    0    0 -0.13369966895E+03 -0.77098697616E+02  0.57555550293E+03  0.60885872549E+03  0.12500000000E+03 0.  0.
         25    1    1    2    0    0  0.13369966895E+03  0.77098697616E+02  0.12418957298E+03  0.23423889662E+03  0.12500000000E+03 0.  0.
</event>
<event>
 4    0  0.2230743E-002  0.2542178E+03  0.7546771E-02  0.1110668E+00
         21   -1    0    0  502  501  0.00000000000E+00  0.00000000000E+00  0.30473941529E+03  0.30473941529E+03  0.00000000000E+00 0.  1.
         21   -1    0    0  501  502 -0.00000000000E+00 -0.00000000000E+00 -0.21207199521E+03  0.21207199521E+03  0.00000000000E+00 0.  1.
         25    1    1    2    0    0  0.18136234877E+03 -0.69855976151E+02  0.15404892303E+03  0.27771969617E+03  0.12500000000E+03 0.  0.
         25    1    1    2    0    0 -0.18136234877E+03  0.69855976151E+02 -0.61381502954E+02  0.23909171433E+03  0.12500000000E+03 0.  0.
</event>
<event>
 4    0  0.2230743E-002  0.2315685E+03  0.7546771E-02  0.1125541E+00
         21   -1    0    0  502  501  0.00000000000E+00  0.00000000000E+00  0.22837152570E+03  0.22837152570E+03  0.00000000000E+00 0. -1.
         21   -1    0    0  501  502 -0.00000000000E+00 -0.00000000000E+00 -0.23481029087E+03  0.23481029087E+03  0.00000000000E+00 0. -1.
         25    1    1    2    0    0  0.12002464328E+02 -0.10971749489E+03  0.15747282768E+03  0.22935709994E+03  0.12500000000E+03 0.  0.
         25    1    1    2    0    0 -0.12002464328E+02  0.10971749489E+03 -0.16391159285E+03  0.23382471663E+03  0.12500000000E+03 0.  0.
</event>
<event>
 4    0  0.2230743E-002  0.2215196E+03  0.7546771E-02  0.1132755E+00
         21   -1    0    0  502  501  0.00000000000E+00  0.00000000000E+00  0.27052227753E+03  0.27052227753E+03  0.00000000000E+00 0.  1.
         21   -1    0    0  501  502 -0.00000000000E+00 -0.00000000000E+00 -0.18139330054E+03  0.18139330054E+03  0.00000000000E+00 0.  1.
         25    1    1    2    0    0  0.33489450097E+02  0.13280501391E+03 -0.79054414700E+02  0.20157707079E+03  0.12500000000E+03 0.  0.
         25    1    1    2    0    0 -0.33489450097E+02 -0.13280501391E+03  0.16818339169E+03  0.25033850728E+03  0.12500000000E+03 0.  0.
</event>
<event>
 4    0  0.2230743E-002  0.2005971E+03  0.7546771E-02  0.1149236E+00
         21   -1    0    0  502  501  0.00000000000E+00  0.00000000000E+00  0.43931895784E+03  0.43931895784E+03  0.00000000000E+00 0. -1.
         21   -1    0    0  501  502 -0.00000000000E+00 -0.00000000000E+00 -0.91594526477E+02  0.91594526477E+02  0.00000000000E+00 0. -1.
         25    1    1    2    0    0 -0.12932334283E+02 -0.41497335326E+02 -0.25627439013E+02  0.13479999903E+03  0.12500000000E+03 0.  0.
         25    1    1    2    0    0  0.12932334283E+02  0.41497335326E+02  0.37335187037E+03  0.39611348528E+03  0.12500000000E+03 0.  0.
</event>
<event>
 4    0  0.2230743E-002  0.2037633E+03  0.7546771E-02  0.1146602E+00
         21   -1    0    0  502  501  0.00000000000E+00  0.00000000000E+00  0.28991326042E+03  0.28991326042E+03  0.00000000000E+00 0.  1.
         21   -1    0    0  501  502 -0.00000000000E+00 -0.00000000000E+00 -0.14321340811E+03  0.14321340811E+03  0.00000000000E+00 0.  1.
         25    1    1    2    0    0 -0.35081094038E+02  0.14094238104E+03  0.14697668758E+03  0.24150069280E+03  0.12500000000E+03 0.  0.
         25    1    1    2    0    0  0.35081094038E+02 -0.14094238104E+03 -0.27683526696E+00  0.19162597572E+03  0.12500000000E+03 0.  0.
</event>
<event>
 4    0  0.2230743E-002  0.2722247E+03  0.7546771E-02  0.1100013E+00
         21   -1    0    0  502  501  0.00000000000E+00  0.00000000000E+00  0.19800094979E+03  0.19800094979E+03  0.00000000000E+00 0. -1.
         21   -1    0    0  501  502 -0.00000000000E+00 -0.00000000000E+00 -0.37427235899E+03  0.37427235899E+03  0.00000000000E+00 0.  1.
         25    1    1    2    0    0  0.17565533153E+03 -0.50968100984E+02  0.78154042236E+02  0.23491614915E+03  0.12500000000E+03 0.  0.
         25    1    1    2    0    0 -0.17565533153E+03  0.50968100984E+02 -0.25442545144E+03  0.33735715963E+03  0.12500000000E+03 0.  0.
</event>
<event>
 4    0  0.2230743E-002  0.2013132E+03  0.7546771E-02  0.1148636E+00
         21   -1    0    0  502  501  0.00000000000E+00  0.00000000000E+00  0.75715947622E+02  0.75715947622E+02  0.00000000000E+00 0. -1.
         21   -1    0    0  501  502 -0.00000000000E+00 -0.00000000000E+00 -0.53525058846E+03  0.53525058846E+03  0.00000000000E+00 0. -1.
         25    1    1    2    0    0 -0.72824660192E+02 -0.13731830450E+03 -0.27110941797E+03  0.33657846693E+03  0.12500000000E+03 0.  0.
         25    1    1    2    0    0  0.72824660192E+02  0.13731830450E+03 -0.18842522287E+03  0.27438806916E+03  0.12500000000E+03 0.  0.
</event>
<event>
 4    0  0.2230743E-002  0.2121455E+03  0.7546771E-02  0.1139878E+00
         21   -1    0    0  502  501  0.00000000000E+00  0.00000000000E+00  0.11961639699E+03  0.11961639699E+03  0.00000000000E+00 0. -1.
         21   -1    0    0  501  502 -0.00000000000E+00 -0.00000000000E+00 -0.37625053242E+03  0.37625053242E+03  0.00000000000E+00 0. -1.
         25    1    1    2    0    0 -0.49339678855E+02  0.14286826713E+01 -0.32015504450E+03  0.34721851559E+03  0.12500000000E+03 0.  0.
         25    1    1    2    0    0  0.49339678855E+02 -0.14286826713E+01  0.63520909077E+02  0.14864841383E+03  0.12500000000E+03 0.  0.
</event>
<event>
 4    0  0.2230743E-002  0.4079852E+03  0.7546771E-02  0.1041049E+00
         21   -1    0    0  502  501  0.00000000000E+00  0.00000000000E+00  0.21921036997E+03  0.21921036997E+03  0.00000000000E+00 0. -1.
         21   -1    0    0  501  502 -0.00000000000E+00 -0.00000000000E+00 -0.75932509517E+03  0.75932509517E+03  0.00000000000E+00 0. -1.
         25    1    1    2    0    0 -0.24950361522E+03  0.25586933238E+03 -0.87767577083E+02  0.38865063598E+03  0.12500000000E+03 0.  0.
         25    1    1    2    0    0  0.24950361522E+03 -0.25586933238E+03 -0.45234714812E+03  0.58988482916E+03  0.12500000000E+03 0.  0.
</event>
<event>
 4    0  0.2230743E-002  0.2585857E+03  0.7546771E-02  0.1107996E+00
         21   -1    0    0  502  501  0.00000000000E+00  0.00000000000E+00  0.81154006045E+02  0.81154006045E+02  0.00000000000E+00 0. -1.
         21   -1    0    0  501  502 -0.00000000000E+00 -0.00000000000E+00 -0.82394662993E+03  0.82394662993E+03  0.00000000000E+00 0. -1.
         25    1    1    2    0    0 -0.21483299980E+03 -0.33877985616E+02 -0.26153484187E+03  0.36238985806E+03  0.12500000000E+03 0.  0.
         25    1    1    2    0    0  0.21483299980E+03  0.33877985616E+02 -0.48125778202E+03  0.54271077792E+03  0.12500000000E+03 0.  0.
</event>
<event>
 4    0  0.2230743E-002  0.2418704E+03  0.7546771E-02  0.1118553E+00
         21   -1    0    0  502  501  0.00000000000E+00  0.00000000000E+00  0.90286699269E+03  0.90286699269E+03  0.00000000000E+00 0.  1.
         21   -1    0    0  501  502 -0.00000000000E+00 -0.00000000000E+00 -0.64795027993E+02  0.64795027993E+02  0.00000000000E+00 0.  1.
         25    1    1    2    0    0  0.13171445142E+03  0.70539050903E+02  0.13226427529E+03  0.23546399498E+03  0.12500000000E+03 0.  0.
         25    1    1    2    0    0 -0.13171445142E+03 -0.70539050903E+02  0.70580768940E+03  0.73219802570E+03  0.12500000000E+03 0.  0.
</event>
<event>
 4    0  0.2230743E-002  0.2379188E+03  0.7546771E-02  0.1121187E+00
         21   -1    0    0  502  501  0.00000000000E+00  0.00000000000E+00  0.12946734169E+04  0.12946734169E+04  0.00000000000E+00 0.  1.
         21   -1    0    0  501  502 -0.00000000000E+00 -0.00000000000E+00 -0.43721725688E+02  0.43721725688E+02  0.00000000000E+00 0.  1.
         25    1    1    2    0    0  0.95684061121E+01  0.62053614476E+02  0.84160624244E+02  0.16324893916E+03  0.12500000000E+03 0.  0.
         25    1    1    2    0    0 -0.95684061121E+01 -0.62053614476E+02  0.11667910669E+04  0.11751462034E+04  0.12500000000E+03 0.  0.
</event>
<event>
 4    0  0.2230743E-002  0.1669025E+03  0.7546771E-02  0.1181117E+00
         21   -1    0    0  502  501  0.00000000000E+00  0.00000000000E+00  0.46070296520E+02  0.46070296520E+02  0.00000000000E+00 0.  1.
         21   -1    0    0  501  502 -0.00000000000E+00 -0.00000000000E+00 -0.60465072231E+03  0.60465072231E+03  0.00000000000E+00 0.  1.
         25    1    1    2    0    0 -0.94630121646E+02  0.45074831162E+02 -0.34806961893E+03  0.38440091044E+03  0.12500000000E+03 0.  0.
         25    1    1    2    0    0  0.94630121646E+02 -0.45074831162E+02 -0.21051080686E+03  0.26632010839E+03  0.12500000000E+03 0.  0.
</event>
<event>
 4    0  0.2230743E-002  0.3737934E+03  0.7546771E-02  0.1053252E+00
         21   -1    0    0  502  501  0.00000000000E+00  0.00000000000E+00  0.30372598330E+03  0.30372598330E+03  0.00000000000E+00 0. -1.
         21   -1    0    0  501  502 -0.00000000000E+00 -0.00000000000E+00 -0.46002485270E+03  0.46002485270E+03  0.00000000000E+00 0. -1.
         25    1    1    2    0    0 -0.11915888643E+03  0.31233879028E+03  0.35347812169E+02  0.35864861348E+03  0.12500000000E+03 0.  0.
         25    1    1    2    0    0  0.11915888643E+03 -0.31233879028E+03 -0.19164668157E+03  0.40510222251E+03  0.12500000000E+03 0.  0.
</event>
<event>
 4    0  0.2230743E-002  0.3016935E+03  0.7546771E-02  0.1084397E+00
         21   -1    0    0  502  501  0.00000000000E+00  0.00000000000E+00  0.14908198848E+04  0.14908198848E+04  0.00000000000E+00 0. -1.
         21   -1    0    0  501  502 -0.00000000000E+00 -0.00000000000E+00 -0.61052956547E+02  0.61052956547E+02  0.00000000000E+00 0. -1.
         25    1    1    2    0    0 -0.26732265913E+03  0.14432904405E+01  0.55363978876E+03  0.62737987127E+03  0.12500000000E+03 0.  0.
         25    1    1    2    0    0  0.26732265913E+03 -0.14432904405E+01  0.87612713951E+03  0.92449297010E+03  0.12500000000E+03 0.  0.
</event>
<event>
 4    0  0.2230743E-002  0.2083937E+03  0.7546771E-02  0.1142844E+00
         21   -1    0    0  502  501  0.00000000000E+00  0.00000000000E+00  0.84421870889E+02  0.84421870889E+02  0.00000000000E+00 0. -1.
         21   -1    0    0  501  502 -0.00000000000E+00 -0.00000000000E+00 -0.51441544961E+03  0.51441544961E+03  0.00000000000E+00 0. -1.
         25    1    1    2    0    0 -0.66048327598E+02 -0.14715745324E+03 -0.27570394534E+03  0.34300927553E+03  0.12500000000E+03 0.  0.
         25    1    1    2    0    0  0.66048327598E+02  0.14715745324E+03 -0.15428963338E+03  0.25582804496E+03  0.12500000000E+03 0.  0.
</event>
<event>
 4    0  0.2230743E-002  0.2091587E+03  0.7546771E-02  0.1142234E+00
         21   -1    0    0  502  501  0.00000000000E+00  0.00000000000E+00  0.96261634655E+03  0.96261634655E+03  0.00000000000E+00 0.  1.
         21   -1    0    0  501  502 -0.00000000000E+00 -0.00000000000E+00 -0.45446302215E+02  0.45446302215E+02  0.00000000000E+00 0.  1.
         25    1    1    2    0    0  0.14977351789E+03  0.73425257806E+02  0.41691713895E+03  0.46612045214E+03  0.12500000000E+03 0.  0.
         25    1    1    2    0    0 -0.14977351789E+03 -0.73425257806E+02  0.50025290538E+03  0.54194219663E+03  0.12500000000E+03 0.  0.
</event>
<event>
 4    0  0.2230743E-002  0.3312306E+03  0.7546771E-02  0.1070594E+00
         21   -1    0    0  502  501  0.00000000000E+00  0.00000000000E+00  0.21043592806E+04  0.21043592806E+04  0.00000000000E+00 0. -1.
         21   -1    0    0  501  502 -0.00000000000E+00 -0.00000000000E+00 -0.52136409349E+02  0.52136409349E+02  0.00000000000E+00 0.  1.
         25    1    1    2    0    0  0.24046178580E+03  0.16860058722E+03  0.73786380430E+03  0.80393782231E+03  0.12500000000E+03 0.  0.
         25    1    1    2    0    0 -0.24046178580E+03 -0.16860058722E+03  0.13143590669E+04  0.13525578676E+04  0.12500000000E+03 0.  0.
</event>
<event>
 4    0  0.2230743E-002  0.2010013E+03  0.7546771E-02  0.1148897E+00
         21   -1    0    0  502  501  0.00000000000E+00  0.00000000000E+00  0.91003552270E+03  0.91003552270E+03  0.00000000000E+00 0.  1.
         21   -1    0    0  501  502 -0.00000000000E+00 -0.00000000000E+00 -0.44395540236E+02  0.44395540236E+02  0.00000000000E+00 0.  1.
         25    1    1    2    0    0 -0.13627367875E+03  0.78372769787E+02  0.45177075347E+03  0.49440329717E+03  0.12500000000E+03 0.  0.
         25    1    1    2    0    0  0.13627367875E+03 -0.78372769787E+02  0.41386922900E+03  0.46002776576E+03  0.12500000000E+03 0.  0.
</event>
<event>
 4    0  0.2230743E-002  0.2244232E+03  0.7546771E-02  0.1130628E+00
         21   -1    0    0  502  501  0.00000000000E+00  0.00000000000E+00  0.53365629504E+02  0.53365629504E+02  0.00000000000E+00 0. -1.
         21   -1    0    0  501  502 -0.00000000000E+00 -0.00000000000E+00 -0.94378693657E+03  0.94378693657E+03  0.00000000000E+00 0. -1.
         25    1    1    2    0    0 -0.84918712456E+01 -0.50422527275E+02 -0.47017515396E+02  0.14300416039E+03  0.12500000000E+03 0.  0.
         25    1    1    2    0    0  0.84918712456E+01  0.50422527275E+02 -0.84340379167E+03  0.85414840568E+03  0.12500000000E+03 0.  0.
</event>
<event>
 4    0  0.2230743E-002  0.2476840E+03  0.7546771E-02  0.1114777E+00
         21   -1    0    0  502  501  0.00000000000E+00  0.00000000000E+00  0.21529216708E+04  0.21529216708E+04  0.00000000000E+00 0.  1.
         21   -1    0    0  501  502 -0.00000000000E+00 -0.00000000000E+00 -0.28494946380E+02  0.28494946380E+02  0.00000000000E+00 0.  1.
         25    1    1    2    0    0  0.39792217401E+02  0.11736959977E+03  0.18295490287E+04  0.18379971958E+04  0.12500000000E+03 0.  0.
         25    1    1    2    0    0 -0.39792217401E+02 -0.11736959977E+03  0.29487769570E+03  0.34341942131E+03  0.12500000000E+03 0.  0.
</event>
<event>
 4    0  0.2230743E-002  0.1722985E+03  0.7546771E-02  0.1175472E+00
         21   -1    0    0  502  501  0.00000000000E+00  0.00000000000E+00  0.32846647936E+02  0.32846647936E+02  0.00000000000E+00 0. -1.
         21   -1    0    0  501  502 -0.00000000000E+00 -0.00000000000E+00 -0.90379886459E+03  0.90379886459E+03  0.00000000000E+00 0. -1.
         25    1    1    2    0    0  0.10978161307E+03  0.34153460366E+02 -0.35654370579E+03  0.39492641791E+03  0.12500000000E+03 0.  0.
         25    1    1    2    0    0 -0.10978161307E+03 -0.34153460366E+02 -0.51440851086E+03  0.54171909461E+03  0.12500000000E+03 0.  0.
</event>
<event>
 4    0  0.2230743E-002  0.2086157E+03  0.7546771E-02  0.1142667E+00
         21   -1    0    0  502  501  0.00000000000E+00  0.00000000000E+00  0.13914825818E+04  0.13914825818E+04  0.00000000000E+00 0. -1.
         21   -1    0    0  501  502 -0.00000000000E+00 -0.00000000000E+00 -0.31276374724E+02  0.31276374724E+02  0.00000000000E+00 0. -1.
         25    1    1    2    0    0  0.15842366666E+03  0.50157743996E+02  0.62287267306E+03  0.65666523000E+03  0.12500000000E+03 0.  0.
         25    1    1    2    0    0 -0.15842366666E+03 -0.50157743996E+02  0.73733353399E+03  0.76609372651E+03  0.12500000000E+03 0.  0.
</event>
<event>
 4    0  0.2230743E-002  0.2357919E+03  0.7546771E-02  0.1122628E+00
         21   -1    0    0  502  501  0.00000000000E+00  0.00000000000E+00  0.68511450948E+02  0.68511450948E+02  0.00000000000E+00 0.  1.
         21   -1    0    0  501  502 -0.00000000000E+00 -0.00000000000E+00 -0.81151117023E+03  0.81151117023E+03  0.00000000000E+00 0.  1.
         25    1    1    2    0    0  0.20040179312E+02  0.76293234772E+02 -0.71432714336E+03  0.72945906958E+03  0.12500000000E+03 0.  0.
         25    1    1    2    0    0 -0.20040179312E+02 -0.76293234772E+02 -0.28672575923E+02  0.15056355159E+03  0.12500000000E+03 0.  0.
</event>
<event>
 4    0  0.2230743E-002  0.2454000E+03  0.7546771E-02  0.1116247E+00
         21   -1    0    0  502  501  0.00000000000E+00  0.00000000000E+00  0.12459304402E+04  0.12459304402E+04  0.00000000000E+00 0. -1.
         21   -1    0    0  501  502 -0.00000000000E+00 -0.00000000000E+00 -0.48334288573E+02  0.48334288573E+02  0.00000000000E+00 0. -1.
         25    1    1    2    0    0 -0.73225207453E+02  0.33120757502E+02  0.11137814637E+04  0.11236516651E+04  0.12500000000E+03 0.  0.
         25    1    1    2    0    0  0.73225207453E+02 -0.33120757502E+02  0.83814687915E+02  0.17061306367E+03  0.12500000000E+03 0.  0.
</event>
<event>
 4    0  0.2230743E-002  0.1803255E+03  0.7546771E-02  0.1167488E+00
         21   -1    0    0  502  501  0.00000000000E+00  0.00000000000E+00  0.45921796265E+03  0.45921796265E+03  0.00000000000E+00 0. -1.
         21   -1    0    0  501  502 -0.00000000000E+00 -0.00000000000E+00 -0.70810113716E+02  0.70810113716E+02  0.00000000000E+00 0. -1.
         25    1    1    2    0    0  0.58278701002E+02  0.97872230483E+02  0.28618167877E+03  0.33241590479E+03  0.12500000000E+03 0.  0.
         25    1    1    2    0    0 -0.58278701002E+02 -0.97872230483E+02  0.10222617016E+03  0.19761217158E+03  0.12500000000E+03 0.  0.
</event>
<event>
 4    0  0.2230743E-002  0.1452867E+03  0.7546771E-02  0.1206387E+00
         21   -1    0    0  502  501  0.00000000000E+00  0.00000000000E+00  0.10106098374E+03  0.10106098374E+03  0.00000000000E+00 0.  1.
         21   -1    0    0  501  502 -0.00000000000E+00 -0.00000000000E+00 -0.20886612483E+03  0.20886612483E+03  0.00000000000E+00 0.  1.
         25    1    1    2    0    0 -0.51883710893E+02  0.47332875520E+02 -0.28868100077E+02  0.14625555635E+03  0.12500000000E+03 0.  0.
         25    1    1    2    0    0  0.51883710893E+02 -0.47332875520E+02 -0.78937041012E+02  0.16367155222E+03  0.12500000000E+03 0.  0.
</event>
<event>
 4    0  0.2230743E-002  0.2573481E+03  0.7546771E-02  0.1108747E+00
         21   -1    0    0  502  501  0.00000000000E+00  0.00000000000E+00  0.39673224638E+02  0.39673224638E+02  0.00000000000E+00 0.  1.
         21   -1    0    0  501  502 -0.00000000000E+00 -0.00000000000E+00 -0.16693384380E+04  0.16693384380E+04  0.00000000000E+00 0.  1.
         25    1    1    2    0    0 -0.16883081198E+03 -0.11755758138E+03 -0.11169625715E+04  0.11426084255E+04  0.12500000000E+03 0.  0.
         25    1    1    2    0    0  0.16883081198E+03  0.11755758138E+03 -0.51270264193E+03  0.56640323715E+03  0.12500000000E+03 0.  0.
</event>
<event>
 4    0  0.2230743E-002  0.1672997E+03  0.7546771E-02  0.1180693E+00
         21   -1    0    0  502  501  0.00000000000E+00  0.00000000000E+00  0.22066844064E+03  0.22066844064E+03  0.00000000000E+00 0.  1.
         21   -1    0    0  501  502 -0.00000000000E+00 -0.00000000000E+00 -0.12683822285E+03  0.12683822285E+03  0.00000000000E+00 0.  1.
         25    1    1    2    0    0 -0.75366962711E+02 -0.70592683068E+02  0.89745312032E+02  0.18531790794E+03  0.12500000000E+03 0.  0.
         25    1    1    2    0    0  0.75366962711E+02  0.70592683068E+02  0.40849057620E+01  0.16218875555E+03  0.12500000000E+03 0.  0.
</event>
<event>
 4    0  0.2230743E-002  0.2870164E+03  0.7546771E-02  0.1091917E+00
         21   -1    0    0  502  501  0.00000000000E+00  0.00000000000E+00  0.14678421774E+03  0.14678421774E+03  0.00000000000E+00 0. -1.
         21   -1    0    0  501  502 -0.00000000000E+00 -0.00000000000E+00 -0.56122099800E+03  0.56122099800E+03  0.00000000000E+00 0. -1.
         25    1    1    2    0    0  0.64503186558E+02 -0.65153368668E+02  0.90710026151E+02  0.17960771523E+03  0.12500000000E+03 0.  0.
         25    1    1    2    0    0 -0.64503186558E+02  0.65153368668E+02 -0.50514680641E+03  0.52839750052E+03  0.12500000000E+03 0.  0.
</event>
<event>
 4    0  0.2230743E-002  0.2825523E+03  0.7546771E-02  0.1094303E+00
         21   -1    0    0  502  501  0.00000000000E+00  0.00000000000E+00  0.58062070943E+03  0.58062070943E+03  0.00000000000E+00 0. -1.
         21   -1    0    0  501  502 -0.00000000000E+00 -0.00000000000E+00 -0.13750075743E+03  0.13750075743E+03  0.00000000000E+00 0. -1.
         25    1    1    2    0    0 -0.18255254176E+03 -0.16039127851E+03  0.31284378022E+03  0.41538779899E+03  0.12500000000E+03 0.  0.
         25    1    1    2    0    0  0.18255254176E+03  0.16039127851E+03  0.13027617179E+03  0.30273366787E+03  0.12500000000E+03 0.  0.
</event>
<event>
 4    0  0.2230743E-002  0.1505427E+03  0.7546771E-02  0.1199808E+00
         21   -1    0    0  502  501  0.00000000000E+00  0.00000000000E+00  0.90789944321E+02  0.90789944321E+02  0.00000000000E+00 0. -1.
         21   -1    0    0  501  502 -0.00000000000E+00 -0.00000000000E+00 -0.24962119849E+03  0.24962119849E+03  0.00000000000E+00 0. -1.
         25    1    1    2    0    0 -0.78503031578E+02 -0.45613285504E+01 -0.11246674963E+03  0.18562678001E+03  0.12500000000E+03 0.  0.
         25    1    1    2    0    0  0.78503031578E+02  0.45613285504E+01 -0.46364504534E+02  0.15478436279E+03  0.12500000000E+03 0.  0.
</event>
<event>
 4    0  0.2230743E-002  0.2150125E+03  0.7546771E-02  0.1137657E+00
         21   -1    0    0  502  501  0.00000000000E+00  0.00000000000E+00  0.26252725157E+03  0.26252725157E+03  0.00000000000E+00 0. -1.
         21   -1    0    0  501  502 -0.00000000000E+00 -0.00000000000E+00 -0.17609750680E+03  0.17609750680E+03  0.00000000000E+00 0. -1.
         25    1    1    2    0    0  0.13967743388E+03  0.13900904529E+02 -0.63287646788E+02  0.19832636466E+03  0.12500000000E+03 0.  0.
         25    1    1    2    0    0 -0.13967743388E+03 -0.13900904529E+02  0.14971739156E+03  0.24029839371E+03  0.12500000000E+03 0.  0.
</event>
<event>
 4    0  0.2230743E-002  0.1933574E+03  0.7546771E-02  0.1155468E+00
         21   -1    0    0  502  501  0.00000000000E+00  0.00000000000E+00  0.24180921882E+03  0.24180921882E+03  0.00000000000E+00 0. -1.
         21   -1    0    0  501  502 -0.00000000000E+00 -0.00000000000E+00 -0.15461404756E+03  0.15461404756E+03  0.00000000000E+00 0. -1.
         25    1    1    2    0    0 -0.99475741170E+02 -0.71471038335E+01 -0.67830864372E+02  0.17370241891E+03  0.12500000000E+03 0.  0.
         25    1    1    2    0    0  0.99475741170E+02  0.71471038335E+01  0.15502603563E+03  0.22272084747E+03  0.12500000000E+03 0.  0.
</event>
<event>
 4    0  0.2230743E-002  0.1984336E+03  0.7546771E-02  0.1151067E+00
         21   -1    0    0  502  501  0.00000000000E+00  0.00000000000E+00  0.13562341221E+03  0.13562341221E+03  0.00000000000E+00 0. -1.
         21   -1    0    0  501  502 -0.00000000000E+00 -0.00000000000E+00 -0.29033256497E+03  0.29033256497E+03  0.00000000000E+00 0. -1.
         25    1    1    2    0    0  0.42262512586E+02 -0.61736801072E+02  0.67255245068E+02  0.16045504219E+03  0.12500000000E+03 0.  0.
         25    1    1    2    0    0 -0.42262512586E+02  0.61736801072E+02 -0.22196439783E+03  0.26550093499E+03  0.12500000000E+03 0.  0.
</event>
<event>
 4    0  0.2230743E-002  0.2418850E+03  0.7546771E-02  0.1118543E+00
         21   -1    0    0  502  501  0.00000000000E+00  0.00000000000E+00  0.95067650510E+02  0.95067650510E+02  0.00000000000E+00 0. -1.
         21   -1    0    0  501  502 -0.00000000000E+00 -0.00000000000E+00 -0.61543897262E+03  0.61543897262E+03  0.00000000000E+00 0. -1.
         25    1    1    2    0    0  0.60953950053E+02 -0.13129166801E+03 -0.47768254500E+03  0.51454688796E+03  0.12500000000E+03 0.  0.
         25    1    1    2    0    0 -0.60953950053E+02  0.13129166801E+03 -0.42688777111E+02  0.19595973517E+03  0.12500000000E+03 0.  0.
</event>
<event>
 4    0  0.2230743E-002  0.1886783E+03  0.7546771E-02  0.1159659E+00
         21   -1    0    0  502  501  0.00000000000E+00  0.00000000000E+00  0.11666422532E+03  0.11666422532E+03  0.00000000000E+00 0.  1.
         21   -1    0    0  501  502 -0.00000000000E+00 -0.00000000000E+00 -0.30514494281E+03  0.30514494281E+03  0.00000000000E+00 0.  1.
         25    1    1    2    0    0  0.63504731323E+02 -0.12228731614E+03 -0.12936596160E+03  0.22660006754E+03  0.12500000000E+03 0.  0.
         25    1    1    2    0    0 -0.63504731323E+02  0.12228731614E+03 -0.59114755895E+02  0.19520910059E+03  0.12500000000E+03 0.  0.
</event>
<event>
 4    0  0.2230743E-002  0.3819425E+03  0.7546771E-02  0.1050218E+00
         21   -1    0    0  502  501  0.00000000000E+00  0.00000000000E+00  0.96060499175E+02  0.96060499175E+02  0.00000000000E+00 0. -1.
         21   -1    0    0  501  502 -0.00000000000E+00 -0.00000000000E+00 -0.15186271497E+04  0.15186271497E+04  0.00000000000E+00 0. -1.
         25    1    1    2    0    0  0.66516790090E+02  0.30955043954E+03 -0.10774570584E+04  0.11299489682E+04  0.12500000000E+03 0.  0.
         25    1    1    2    0    0 -0.66516790090E+02 -0.30955043954E+03 -0.34510959211E+03  0.48473868069E+03  0.12500000000E+03 0.  0.
</event>
<event>
 4    0  0.2230743E-002  0.2147598E+03  0.7546771E-02  0.1137851E+00
         21   -1    0    0  502  501  0.00000000000E+00  0.00000000000E+00  0.17378356900E+03  0.17378356900E+03  0.00000000000E+00 0. -1.
         21   -1    0    0  501  502 -0.00000000000E+00 -0.00000000000E+00 -0.26539769229E+03  0.26539769229E+03  0.00000000000E+00 0. -1.
         25    1    1    2    0    0 -0.66357248240E+02 -0.16021932933E+03 -0.66842636185E+02  0.22397869519E+03  0.12500000000E+03 0.  0.
         25    1    1    2    0    0  0.66357248240E+02  0.16021932933E+03 -0.24771487108E+02  0.21520256611E+03  0.12500000000E+03 0.  0.
</event>
<event>
 4    0  0.2230743E-002  0.2129931E+03  0.7546771E-02  0.1139217E+00
         21   -1    0    0  502  501  0.00000000000E+00  0.00000000000E+00  0.52745848402E+02  0.52745848402E+02  0.00000000000E+00 0.  1.
         21   -1    0    0  501  502 -0.00000000000E+00 -0.00000000000E+00 -0.86008792547E+03  0.86008792547E+03  0.00000000000E+00 0. -1.
         25    1    1    2    0    0  0.74117569223E+02  0.13537341200E+03 -0.23877164174E+03  0.31057410009E+03  0.12500000000E+03 0.  0.
         25    1    1    2    0    0 -0.74117569223E+02 -0.13537341200E+03 -0.56857043532E+03  0.60225967379E+03  0.12500000000E+03 0.  0.
</event>
<event>
 4    0  0.2230743E-002  0.1949106E+03  0.7546771E-02  0.1154105E+00
         21   -1    0    0  502  501  0.00000000000E+00  0.00000000000E+00  0.16499297428E+03  0.16499297428E+03  0.00000000000E+00 0. -1.
         21   -1    0    0  501  502 -0.00000000000E+00 -0.00000000000E+00 -0.23025297611E+03  0.23025297611E+03  0.00000000000E+00 0. -1.
         25    1    1    2    0    0 -0.11786899312E+03  0.88581458962E+02 -0.72750195485E+01  0.19343655373E+03  0.12500000000E+03 0.  0.
         25    1    1    2    0    0  0.11786899312E+03 -0.88581458962E+02 -0.57984982280E+02  0.20180939666E+03  0.12500000000E+03 0.  0.
</event>
<event>
 4    0  0.2230743E-002  0.2125422E+03  0.7546771E-02  0.1139569E+00
         21   -1    0    0  502  501  0.00000000000E+00  0.00000000000E+00  0.20382487722E+03  0.20382487722E+03  0.00000000000E+00 0.  1.
         21   -1    0    0  501  502 -0.00000000000E+00 -0.00000000000E+00 -0.22163227567E+03  0.22163227567E+03  0.00000000000E+00 0. -1.
         25    1    1    2    0    0 -0.11702241435E+03 -0.10189626303E+03  0.65134671976E+02  0.20962971968E+03  0.12500000000E+03 0.  0.
         25    1    1    2    0    0  0.11702241435E+03  0.10189626303E+03 -0.82942070430E+02  0.21582743321E+03  0.12500000000E+03 0.  0.
</event>
<event>
 4    0  0.2230743E-002  0.2515064E+03  0.7546771E-02  0.1112357E+00
         21   -1    0    0  502  501  0.00000000000E+00  0.00000000000E+00  0.59446954072E+02  0.59446954072E+02  0.00000000000E+00 0.  1.
         21   -1    0    0  501  502 -0.00000000000E+00 -0.00000000000E+00 -0.10640654337E+04  0.10640654337E+04  0.00000000000E+00 0.  1.
         25    1    1    2    0    0  0.14874651855E+03  0.69457723539E+02 -0.18110600725E+03  0.27454378158E+03  0.12500000000E+03 0.  0.
         25    1    1    2    0    0 -0.14874651855E+03 -0.69457723539E+02 -0.82351247242E+03  0.84896860623E+03  0.12500000000E+03 0.  0.
</event>
<event>
 4    0  0.2230743E-002  0.2388838E+03  0.7546771E-02  0.1120539E+00
         21   -1    0    0  502  501  0.00000000000E+00  0.00000000000E+00  0.44282883134E+02  0.44282883134E+02  0.00000000000E+00 0. -1.
         21   -1    0    0  501  502 -0.00000000000E+00 -0.00000000000E+00 -0.12886577282E+04  0.12886577282E+04  0.00000000000E+00 0. -1.
         25    1    1    2    0    0 -0.14565352069E+03  0.10486269663E+03 -0.89021503668E+03  0.91668912111E+03  0.12500000000E+03 0.  0.
         25    1    1    2    0    0  0.14565352069E+03 -0.10486269663E+03 -0.35415980838E+03  0.41625149021E+03  0.12500000000E+03 0.  0.
</event>
<event>
 4    0  0.2230743E-002  0.1995310E+03  0.7546771E-02  0.1150135E+00
         21   -1    0    0  502  501  0.00000000000E+00  0.00000000000E+00  0.44730356134E+03  0.44730356134E+03  0.00000000000E+00 0. -1.
         21   -1    0    0  501  502 -0.00000000000E+00 -0.00000000000E+00 -0.89005822318E+02  0.89005822318E+02  0.00000000000E+00 0. -1.
         25    1    1    2    0    0  0.89145619903E+01  0.15490833757E+03  0.19334359534E+03  0.27763790865E+03  0.12500000000E+03 0.  0.
         25    1    1    2    0    0 -0.89145619903E+01 -0.15490833757E+03  0.16495414368E+03  0.25867147501E+03  0.12500000000E+03 0.  0.
</event>
<event>
 4    0  0.2230743E-002  0.1786769E+03  0.7546771E-02  0.1169090E+00
         21   -1    0    0  502  501  0.00000000000E+00  0.00000000000E+00  0.15423614129E+03  0.15423614129E+03  0.00000000000E+00 0. -1.
         21   -1    0    0  501  502 -0.00000000000E+00 -0.00000000000E+00 -0.20699067869E+03  0.20699067869E+03  0.00000000000E+00 0. -1.
         25    1    1    2    0    0 -0.11410338471E+03  0.17089742663E+02 -0.81639712263E+02  0.18868408604E+03  0.12500000000E+03 0.  0.
         25    1    1    2    0    0  0.11410338471E+03 -0.17089742663E+02  0.28885174869E+02  0.17254273394E+03  0.12500000000E+03 0.  0.
</event>
<event>
 4    0  0.2230743E-002  0.2117267E+03  0.7546771E-02  0.1140206E+00
         21   -1    0    0  502  501  0.00000000000E+00  0.00000000000E+00  0.11959206041E+04  0.11959206041E+04  0.00000000000E+00 0. -1.
         21   -1    0    0  501  502 -0.00000000000E+00 -0.00000000000E+00 -0.37484248435E+02  0.37484248435E+02  0.00000000000E+00 0. -1.
         25    1    1    2    0    0  0.13439976366E+03 -0.32830822281E+01  0.27194100719E+03  0.32810209767E+03  0.12500000000E+03 0.  0.
         25    1    1    2    0    0 -0.13439976366E+03  0.32830822281E+01  0.88649534844E+03  0.90530275484E+03  0.12500000000E+03 0.  0.
</event>
<event>
 4    0  0.2230743E-002  0.2157214E+03  0.7546771E-02  0.1137114E+00
         21   -1    0    0  502  501  0.00000000000E+00  0.00000000000E+00  0.23602238014E+02  0.23602238014E+02  0.00000000000E+00 0.  1.
         21   -1    0    0  501  502 -0.00000000000E+00 -0.00000000000E+00 -0.19716654359E+04  0.19716654359E+04  0.00000000000E+00 0.  1.
         25    1    1    2    0    0  0.10760481490E+03 -0.62789062634E+02 -0.40032535455E+03  0.43750045951E+03  0.12500000000E+03 0.  0.
         25    1    1    2    0    0 -0.10760481490E+03  0.62789062634E+02 -0.15477378433E+04  0.15577672144E+04  0.12500000000E+03 0.  0.
</event>
<event>
 4    0  0.2230743E-002  0.2973106E+03  0.7546771E-02  0.1086593E+00
         21   -1    0    0  502  501  0.00000000000E+00  0.00000000000E+00  0.82598663428E+02  0.82598663428E+02  0.00000000000E+00 0.  1.
         21   -1    0    0  501  502 -0.00000000000E+00 -0.00000000000E+00 -0.10701574549E+04  0.10701574549E+04  0.00000000000E+00 0.  1.
         25    1    1    2    0    0 -0.11104378361E+01 -0.15559891352E+03 -0.66590481207E+02  0.21040804916E+03  0.12500000000E+03 0.  0.
         25    1    1    2    0    0  0.11104378361E+01  0.15559891352E+03 -0.92096831027E+03  0.94234806917E+03  0.12500000000E+03 0.  0.
</event>
<event>
 4    0  0.2230743E-002  0.2674519E+03  0.7546771E-02  0.1102747E+00
         21   -1    0    0  502  501  0.00000000000E+00  0.00000000000E+00  0.19007018632E+03  0.19007018632E+03  0.00000000000E+00 0.  1.
         21   -1    0    0  501  502 -0.00000000000E+00 -0.00000000000E+00 -0.37633745366E+03  0.37633745366E+03  0.00000000000E+00 0.  1.
         25    1    1    2    0    0  0.65100095417E+02 -0.33137891878E+02  0.14498711156E+03  0.20489608298E+03  0.12500000000E+03 0.  0.
         25    1    1    2    0    0 -0.65100095417E+02  0.33137891878E+02 -0.33125437890E+03  0.36151155700E+03  0.12500000000E+03 0.  0.
</event>
<event>
 4    0  0.2230743E-002  0.1822051E+03  0.7546771E-02  0.1165686E+00
         21   -1    0    0  502  501  0.00000000000E+00  0.00000000000E+00  0.11899960322E+03  0.11899960322E+03  0.00000000000E+00 0. -1.
         21   -1    0    0  501  502 -0.00000000000E+00 -0.00000000000E+00 -0.27898155388E+03  0.27898155388E+03  0.00000000000E+00 0. -1.
         25    1    1    2    0    0 -0.75487503666E+02 -0.99103843142E+02 -0.30497632969E+02  0.17909506010E+03  0.12500000000E+03 0.  0.
         25    1    1    2    0    0  0.75487503666E+02  0.99103843142E+02 -0.12948431769E+03  0.21888609701E+03  0.12500000000E+03 0.  0.
</event>
<event>
 4    0  0.2230743E-002  0.2184808E+03  0.7546771E-02  0.1135021E+00
         21   -1    0    0  502  501  0.00000000000E+00  0.00000000000E+00  0.33240443309E+03  0.33240443309E+03  0.00000000000E+00 0.  1.
         21   -1    0    0  501  502 -0.00000000000E+00 -0.00000000000E+00 -0.14360176898E+03  0.14360176898E+03  0.00000000000E+00 0.  1.
         25    1    1    2    0    0 -0.50868854417E+02 -0.40140336198E+02  0.27639197601E+03  0.31018770341E+03  0.12500000000E+03 0.  0.
         25    1    1    2    0    0  0.50868854417E+02  0.40140336198E+02 -0.87589311900E+02  0.16581849866E+03  0.12500000000E+03 0.  0.
</event>
<event>
 4    0  0.2230743E-002  0.2207832E+03  0.7546771E-02  0.1133301E+00
         21   -1    0    0  502  501  0.00000000000E+00  0.00000000000E+00  0.36544014125E+03  0.36544014125E+03  0.00000000000E+00 0.  1.
         21   -1    0    0  501  502 -0.00000000000E+00 -0.00000000000E+00 -0.13338766177E+03  0.13338766177E+03  0.00000000000E+00 0.  1.
         25    1    1    2    0    0 -0.13718510174E+03 -0.11738747467E+03  0.90249901751E+02  0.23742286351E+03  0.12500000000E+03 0.  0.
         25    1    1    2    0    0  0.13718510174E+03  0.11738747467E+03  0.14180257773E+03  0.26140493951E+03  0.12500000000E+03 0.  0.
</event>
<event>
 4    0  0.2230743E-002  0.1868631E+03  0.7546771E-02  0.1161321E+00
         21   -1    0    0  502  501  0.00000000000E+00  0.00000000000E+00  0.37540615390E+03  0.37540615390E+03  0.00000000000E+00 0. -1.
         21   -1    0    0  501  502 -0.00000000000E+00 -0.00000000000E+00 -0.93013419392E+02  0.93013419392E+02  0.00000000000E+00 0. -1.
         25    1    1    2    0    0  0.97171514270E+02  0.39800556228E+02  0.25515319226E+03  0.30291011700E+03  0.12500000000E+03 0.  0.
         25    1    1    2    0    0 -0.97171514270E+02 -0.39800556228E+02  0.27239542256E+02  0.16550945630E+03  0.12500000000E+03 0.  0.
</event>
<event>
 4    0  0.2230743E-002  0.2188205E+03  0.7546771E-02  0.1134765E+00
         21   -1    0    0  502  501  0.00000000000E+00  0.00000000000E+00  0.53513043015E+02  0.53513043015E+02  0.00000000000E+00 0. -1.
         21   -1    0    0  501  502 -0.00000000000E+00 -0.00000000000E+00 -0.89478060128E+03  0.89478060128E+03  0.00000000000E+00 0. -1.
         25    1    1    2    0    0 -0.12856480070E+03  0.86065575374E+02 -0.22297377279E+03  0.29879507124E+03  0.12500000000E+03 0.  0.
         25    1    1    2    0    0  0.12856480070E+03 -0.86065575374E+02 -0.61829378547E+03  0.64949857305E+03  0.12500000000E+03 0.  0.
</event>
<event>
 4    0  0.2230743E-002  0.1886023E+03  0.7546771E-02  0.1159728E+00
         21   -1    0    0  502  501  0.00000000000E+00  0.00000000000E+00  0.13873399287E+03  0.13873399287E+03  0.00000000000E+00 0. -1.
         21   -1    0    0  501  502 -0.00000000000E+00 -0.00000000000E+00 -0.25639577659E+03  0.25639577659E+03  0.00000000000E+00 0. -1.
         25    1    1    2    0    0  0.98269649022E+02 -0.97660860305E+02 -0.87542194182E+02  0.20611453931E+03  0.12500000000E+03 0.  0.
         25    1    1    2    0    0 -0.98269649022E+02  0.97660860305E+02 -0.30119589536E+02  0.18901523015E+03  0.12500000000E+03 0.  0.
</event>
<event>
 4    0  0.2230743E-002  0.2957350E+03  0.7546771E-02  0.1087392E+00
         21   -1    0    0  502  501  0.00000000000E+00  0.00000000000E+00  0.52363960324E+02  0.52363960324E+02  0.00000000000E+00 0. -1.
         21   -1    0    0  501  502 -0.00000000000E+00 -0.00000000000E+00 -0.16702168778E+04  0.16702168778E+04  0.00000000000E+00 0. -1.
         25    1    1    2    0    0  0.11447050528E+03  0.24229082477E+03 -0.79412484911E+03  0.84738870439E+03  0.12500000000E+03 0.  0.
         25    1    1    2    0    0 -0.11447050528E+03 -0.24229082477E+03 -0.82372806839E+03  0.87519213377E+03  0.12500000000E+03 0.  0.
</event>
<event>
 4    0  0.2230743E-002  0.2996419E+03  0.7546771E-02  0.1085420E+00
         21   -1    0    0  502  501  0.00000000000E+00  0.00000000000E+00  0.11683245874E+04  0.11683245874E+04  0.00000000000E+00 0. -1.
         21   -1    0    0  501  502 -0.00000000000E+00 -0.00000000000E+00 -0.76849585594E+02  0.76849585594E+02  0.00000000000E+00 0. -1.
         25    1    1    2    0    0  0.65583936747E+02 -0.14785040859E+03  0.10009507310E+04  0.10216106704E+04  0.12500000000E+03 0.  0.
         25    1    1    2    0    0 -0.65583936747E+02  0.14785040859E+03  0.90524270849E+02  0.22356350259E+03  0.12500000000E+03 0.  0.
</event>
<event>
 4    0  0.2230743E-002  0.2800374E+03  0.7546771E-02  0.1095668E+00
         21   -1    0    0  502  501  0.00000000000E+00  0.00000000000E+00  0.31832340749E+03  0.31832340749E+03  0.00000000000E+00 0. -1.
         21   -1    0    0  501  502 -0.00000000000E+00 -0.00000000000E+00 -0.24635627962E+03  0.24635627962E+03  0.00000000000E+00 0. -1.
         25    1    1    2    0    0  0.31566846980E+02 -0.16639700611E+03 -0.15022803654E+03  0.25860760320E+03  0.12500000000E+03 0.  0.
         25    1    1    2    0    0 -0.31566846980E+02  0.16639700611E+03  0.22219516441E+03  0.30607208392E+03  0.12500000000E+03 0.  0.
</event>
<event>
 4    0  0.2230743E-002  0.2206833E+03  0.7546771E-02  0.1133375E+00
         21   -1    0    0  502  501  0.00000000000E+00  0.00000000000E+00  0.58909437308E+03  0.58909437308E+03  0.00000000000E+00 0. -1.
         21   -1    0    0  501  502 -0.00000000000E+00 -0.00000000000E+00 -0.82671157864E+02  0.82671157864E+02  0.00000000000E+00 0. -1.
         25    1    1    2    0    0 -0.20600863645E+02 -0.11065823758E+03  0.35790229035E+02  0.17197552623E+03  0.12500000000E+03 0.  0.
         25    1    1    2    0    0  0.20600863645E+02  0.11065823758E+03  0.47063298618E+03  0.49979000471E+03  0.12500000000E+03 0.  0.
</event>
<event>
 4    0  0.2230743E-002  0.2557093E+03  0.7546771E-02  0.1109749E+00
         21   -1    0    0  502  501  0.00000000000E+00  0.00000000000E+00  0.35049272526E+03  0.35049272526E+03  0.00000000000E+00 0. -1.
         21   -1    0    0  501  502 -0.00000000000E+00 -0.00000000000E+00 -0.18655801488E+03  0.18655801488E+03  0.00000000000E+00 0. -1.
         25    1    1    2    0    0 -0.19738109123E+02 -0.65035011608E+02 -0.14115057045E+03  0.20041863493E+03  0.12500000000E+03 0.  0.
         25    1    1    2    0    0  0.19738109123E+02  0.65035011608E+02  0.30508528083E+03  0.33663210522E+03  0.12500000000E+03 0.  0.
</event>
<event>
 4    0  0.2230743E-002  0.2207380E+03  0.7546771E-02  0.1133334E+00
         21   -1    0    0  502  501  0.00000000000E+00  0.00000000000E+00  0.80831116857E+02  0.80831116857E+02  0.00000000000E+00 0.  1.
         21   -1    0    0  501  502 -0.00000000000E+00 -0.00000000000E+00 -0.60280328549E+03  0.60280328549E+03  0.00000000000E+00 0.  1.
         25    1    1    2    0    0  0.11515137774E+03  0.11786171372E+03 -0.14154871113E+03  0.25062374385E+03  0.12500000000E+03 0.  0.
         25    1    1    2    0    0 -0.11515137774E+03 -0.11786171372E+03 -0.38042345750E+03  0.43301065850E+03  0.12500000000E+03 0.  0.
</event>
<event>
 4    0  0.2230743E-002  0.1808598E+03  0.7546771E-02  0.1166973E+00
         21   -1    0    0  502  501  0.00000000000E+00  0.00000000000E+00  0.13293513934E+04  0.13293513934E+04  0.00000000000E+00 0. -1.
         21   -1    0    0  501  502 -0.00000000000E+00 -0.00000000000E+00 -0.24606195307E+02  0.24606195307E+02  0.00000000000E+00 0. -1.
         25    1    1    2    0    0  0.29130408176E+02  0.10088724898E+03  0.36102319094E+03  0.39621908344E+03  0.12500000000E+03 0.  0.
         25    1    1    2    0    0 -0.29130408176E+02 -0.10088724898E+03  0.94372200720E+03  0.95773850532E+03  0.12500000000E+03 0.  0.
</event>
<event>
 4    0  0.2230743E-002  0.2411811E+03  0.7546771E-02  0.1119009E+00
         21   -1    0    0  502  501  0.00000000000E+00  0.00000000000E+00  0.98885859981E+02  0.98885859981E+02  0.00000000000E+00 0.  1.
         21   -1    0    0  501  502 -0.00000000000E+00 -0.00000000000E+00 -0.58823682905E+03  0.58823682905E+03  0.00000000000E+00 0.  1.
         25    1    1    2    0    0  0.48671797151E+02  0.11127745764E+03 -0.48215084493E+03  0.51268514089E+03  0.12500000000E+03 0.  0.
         25    1    1    2    0    0 -0.48671797151E+02 -0.11127745764E+03 -0.72001241433E+01  0.17443754815E+03  0.12500000000E+03 0.  0.
</event>
<event>
 4    0  0.2230743E-002  0.2165965E+03  0.7546771E-02  0.1136446E+00
         21   -1    0    0  502  501  0.00000000000E+00  0.00000000000E+00  0.14756829224E+03  0.14756829224E+03  0.00000000000E+00 0.  1.
         21   -1    0    0  501  502 -0.00000000000E+00 -0.00000000000E+00 -0.31791425109E+03  0.31791425109E+03  0.00000000000E+00 0.  1.
         25    1    1    2    0    0  0.13158614957E+03 -0.11779668736E+03 -0.95815183716E+02  0.23663584627E+03  0.12500000000E+03 0.  0.
         25    1    1    2    0    0 -0.13158614957E+03  0.11779668736E+03 -0.74530775131E+02  0.22884669705E+03  0.12500000000E+03 0.  0.
</event>
<event>
 4    0  0.2230743E-002  0.2591141E+03  0.7546771E-02  0.1107677E+00
         21   -1    0    0  502  501  0.00000000000E+00  0.00000000000E+00  0.19713337326E+03  0.19713337326E+03  0.00000000000E+00 0.  1.
         21   -1    0    0  501  502 -0.00000000000E+00 -0.00000000000E+00 -0.34058228742E+03  0.34058228742E+03  0.00000000000E+00 0.  1.
         25    1    1    2    0    0  0.43775994686E+02  0.19539291500E+03 -0.18260934463E+03  0.29843910885E+03  0.12500000000E+03 0.  0.
         25    1    1    2    0    0 -0.43775994686E+02 -0.19539291500E+03  0.39160430462E+02  0.23927655184E+03  0.12500000000E+03 0.  0.
</event>
<event>
 4    0  0.2230743E-002  0.1747710E+03  0.7546771E-02  0.1172962E+00
         21   -1    0    0  502  501  0.00000000000E+00  0.00000000000E+00  0.13743464107E+03  0.13743464107E+03  0.00000000000E+00 0.  1.
         21   -1    0    0  501  502 -0.00000000000E+00 -0.00000000000E+00 -0.22225031404E+03  0.22225031404E+03  0.00000000000E+00 0.  1.
         25    1    1    2    0    0  0.77203319958E+02  0.38234221235E+02  0.46693976508E+02  0.15883178438E+03  0.12500000000E+03 0.  0.
         25    1    1    2    0    0 -0.77203319958E+02 -0.38234221235E+02 -0.13150964948E+03  0.20085317073E+03  0.12500000000E+03 0.  0.
</event>
<event>
 4    0  0.2230743E-002  0.2207851E+03  0.7546771E-02  0.1133299E+00
         21   -1    0    0  502  501  0.00000000000E+00  0.00000000000E+00  0.22125636040E+03  0.22125636040E+03  0.00000000000E+00 0. -1.
         21   -1    0    0  501  502 -0.00000000000E+00 -0.00000000000E+00 -0.22031492244E+03  0.22031492244E+03  0.00000000000E+00 0. -1.
         25    1    1    2    0    0 -0.14636331671E+03 -0.34638925067E+02 -0.10199415304E+03  0.22056718446E+03  0.12500000000E+03 0.  0.
         25    1    1    2    0    0  0.14636331671E+03  0.34638925067E+02  0.10293559100E+03  0.22100409838E+03  0.12500000000E+03 0.  0.
</event>
<event>
 4    0  0.2230743E-002  0.3419977E+03  0.7546771E-02  0.1065948E+00
         21   -1    0    0  502  501  0.00000000000E+00  0.00000000000E+00  0.81178253723E+03  0.81178253723E+03  0.00000000000E+00 0. -1.
         21   -1    0    0  501  502 -0.00000000000E+00 -0.00000000000E+00 -0.14408097290E+03  0.14408097290E+03  0.00000000000E+00 0. -1.
         25    1    1    2    0    0  0.16082892474E+03 -0.81973272797E+02  0.70027564671E+03  0.73389136925E+03  0.12500000000E+03 0.  0.
         25    1    1    2    0    0 -0.16082892474E+03  0.81973272797E+02 -0.32574082383E+02  0.22197214088E+03  0.12500000000E+03 0.  0.
</event>
<event>
 4    0  0.2230743E-002  0.1872237E+03  0.7546771E-02  0.1160990E+00
         21   -1    0    0  502  501  0.00000000000E+00  0.00000000000E+00  0.82608359743E+02  0.82608359743E+02  0.00000000000E+00 0.  1.
         21   -1    0    0  501  502 -0.00000000000E+00 -0.00000000000E+00 -0.42432382718E+03  0.42432382718E+03  0.00000000000E+00 0.  1.
         25    1    1    2    0    0 -0.71703803955E+02  0.67822137447E+02 -0.37615852806E+02  0.16364971803E+03  0.12500000000E+03 0.  0.
         25    1    1    2    0    0  0.71703803955E+02 -0.67822137447E+02 -0.30409961463E+03  0.34328246889E+03  0.12500000000E+03 0.  0.
</event>
<event>
 4    0  0.2230743E-002  0.2767386E+03  0.7546771E-02  0.1097484E+00
         21   -1    0    0  502  501  0.00000000000E+00  0.00000000000E+00  0.46374084393E+02  0.46374084393E+02  0.00000000000E+00 0. -1.
         21   -1    0    0  501  502 -0.00000000000E+00 -0.00000000000E+00 -0.16514454474E+04  0.16514454474E+04  0.00000000000E+00 0. -1.
         25    1    1    2    0    0  0.24364577096E+02 -0.22169175431E+03 -0.11274413420E+04  0.11560665405E+04  0.12500000000E+03 0.  0.
         25    1    1    2    0    0 -0.24364577096E+02  0.22169175431E+03 -0.47763002102E+03  0.54175299125E+03  0.12500000000E+03 0.  0.
</event>
<event>
 4    0  0.2230743E-002  0.2336996E+03  0.7546771E-02  0.1124063E+00
         21   -1    0    0  502  501  0.00000000000E+00  0.00000000000E+00  0.17314045986E+03  0.17314045986E+03  0.00000000000E+00 0.  1.
         21   -1    0    0  501  502 -0.00000000000E+00 -0.00000000000E+00 -0.31544037586E+03  0.31544037586E+03  0.00000000000E+00 0.  1.
         25    1    1    2    0    0  0.11877729140E+02  0.31420267945E+02 -0.27455012492E+03  0.30353102770E+03  0.12500000000E+03 0.  0.
         25    1    1    2    0    0 -0.11877729140E+02 -0.31420267945E+02  0.13225020892E+03  0.18504980802E+03  0.12500000000E+03 0.  0.
</event>
<event>
 4    0  0.2230743E-002  0.1775332E+03  0.7546771E-02  0.1170212E+00
         21   -1    0    0  502  501  0.00000000000E+00  0.00000000000E+00  0.30833852629E+03  0.30833852629E+03  0.00000000000E+00 0.  1.
         21   -1    0    0  501  502 -0.00000000000E+00 -0.00000000000E+00 -0.10221893507E+03  0.10221893507E+03  0.00000000000E+00 0.  1.
         25    1    1    2    0    0  0.29183306229E+02 -0.12243248362E+03  0.11137036189E+03  0.20945103464E+03  0.12500000000E+03 0.  0.
         25    1    1    2    0    0 -0.29183306229E+02  0.12243248362E+03  0.94749229338E+02  0.20110642672E+03  0.12500000000E+03 0.  0.
</event>
<event>
 4    0  0.2230743E-002  0.2382409E+03  0.7546771E-02  0.1120970E+00
         21   -1    0    0  502  501  0.00000000000E+00  0.00000000000E+00  0.19698650293E+03  0.19698650293E+03  0.00000000000E+00 0.  1.
         21   -1    0    0  501  502 -0.00000000000E+00 -0.00000000000E+00 -0.28813509353E+03  0.28813509353E+03  0.00000000000E+00 0.  1.
         25    1    1    2    0    0 -0.12922830557E+03  0.56287953029E+02 -0.19404523035E+03  0.27045672489E+03  0.12500000000E+03 0.  0.
         25    1    1    2    0    0  0.12922830557E+03 -0.56287953029E+02  0.10289663975E+03  0.21466487158E+03  0.12500000000E+03 0.  0.
</event>
<event>
 4    0  0.2230743E-002  0.4140660E+03  0.7546771E-02  0.1039015E+00
         21   -1    0    0  502  501  0.00000000000E+00  0.00000000000E+00  0.15773937477E+03  0.15773937477E+03  0.00000000000E+00 0.  1.
         21   -1    0    0  501  502 -0.00000000000E+00 -0.00000000000E+00 -0.10869237440E+04  0.10869237440E+04  0.00000000000E+00 0.  1.
         25    1    1    2    0    0 -0.12920053110E+02 -0.36072251131E+03 -0.70477713348E+03  0.80163798925E+03  0.12500000000E+03 0.  0.
         25    1    1    2    0    0  0.12920053110E+02  0.36072251131E+03 -0.22440723578E+03  0.44302512955E+03  0.12500000000E+03 0.  0.
</event>
<event>
 4    0  0.2230743E-002  0.2186729E+03  0.7546771E-02  0.1134876E+00
         21   -1    0    0  502  501  0.00000000000E+00  0.00000000000E+00  0.25044739188E+03  0.25044739188E+03  0.00000000000E+00 0. -1.
         21   -1    0    0  501  502 -0.00000000000E+00 -0.00000000000E+00 -0.19092970485E+03  0.19092970485E+03  0.00000000000E+00 0. -1.
         25    1    1    2    0    0  0.16637865747E+03 -0.48693765968E+02 -0.16926671027E+02  0.21439321980E+03  0.12500000000E+03 0.  0.
         25    1    1    2    0    0 -0.16637865747E+03  0.48693765968E+02  0.76444358054E+02  0.22698387692E+03  0.12500000000E+03 0.  0.
</event>
<event>
 4    0  0.2230743E-002  0.2449805E+03  0.7546771E-02  0.1116519E+00
         21   -1    0    0  502  501  0.00000000000E+00  0.00000000000E+00  0.13576069445E+03  0.13576069445E+03  0.00000000000E+00 0. -1.
         21   -1    0    0  501  502 -0.00000000000E+00 -0.00000000000E+00 -0.44206786431E+03  0.44206786431E+03  0.00000000000E+00 0. -1.
         25    1    1    2    0    0  0.97732710463E+02 -0.15543431236E+02 -0.37251373248E+03  0.40519718883E+03  0.12500000000E+03 0.  0.
         25    1    1    2    0    0 -0.97732710463E+02  0.15543431236E+02  0.66206562618E+02  0.17263136993E+03  0.12500000000E+03 0.  0.
</event>
<event>
 4    0  0.2230743E-002  0.3433745E+03  0.7546771E-02  0.1065368E+00
         21   -1    0    0  502  501  0.00000000000E+00  0.00000000000E+00  0.12932436651E+03  0.12932436651E+03  0.00000000000E+00 0. -1.
         21   -1    0    0  501  502 -0.00000000000E+00 -0.00000000000E+00 -0.91170781374E+03  0.91170781374E+03  0.00000000000E+00 0.  1.
         25    1    1    2    0    0  0.16574237048E+03  0.23226014354E+03 -0.17222258523E+03  0.35595073607E+03  0.12500000000E+03 0.  0.
         25    1    1    2    0    0 -0.16574237048E+03 -0.23226014354E+03 -0.61016086200E+03  0.68508144418E+03  0.12500000000E+03 0.  0.
</event>
<event>
 4    0  0.2230743E-002  0.2169263E+03  0.7546771E-02  0.1136196E+00
         21   -1    0    0  502  501  0.00000000000E+00  0.00000000000E+00  0.88771653588E+02  0.88771653588E+02  0.00000000000E+00 0. -1.
         21   -1    0    0  501  502 -0.00000000000E+00 -0.00000000000E+00 -0.53009069102E+03  0.53009069102E+03  0.00000000000E+00 0. -1.
         25    1    1    2    0    0  0.13690572746E+03 -0.12700825583E+02 -0.61003724842E+02  0.19557848457E+03  0.12500000000E+03 0.  0.
         25    1    1    2    0    0 -0.13690572746E+03  0.12700825583E+02 -0.38031531259E+03  0.42328386004E+03  0.12500000000E+03 0.  0.
</event>
<event>
 4    0  0.2230743E-002  0.1930263E+03  0.7546771E-02  0.1155760E+00
         21   -1    0    0  502  501  0.00000000000E+00  0.00000000000E+00  0.53706919309E+03  0.53706919309E+03  0.00000000000E+00 0. -1.
         21   -1    0    0  501  502 -0.00000000000E+00 -0.00000000000E+00 -0.69374927284E+02  0.69374927284E+02  0.00000000000E+00 0. -1.
         25    1    1    2    0    0 -0.65828207453E+02 -0.13125595437E+03  0.22045698364E+03  0.29289547639E+03  0.12500000000E+03 0.  0.
         25    1    1    2    0    0  0.65828207453E+02  0.13125595437E+03  0.24723728217E+03  0.31354864399E+03  0.12500000000E+03 0.  0.
</event>
<event>
 4    0  0.2230743E-002  0.2910699E+03  0.7546771E-02  0.1089792E+00
         21   -1    0    0  502  501  0.00000000000E+00  0.00000000000E+00  0.75043276615E+02  0.75043276615E+02  0.00000000000E+00 0.  1.
         21   -1    0    0  501  502 -0.00000000000E+00 -0.00000000000E+00 -0.11289709900E+04  0.11289709900E+04  0.00000000000E+00 0.  1.
         25    1    1    2    0    0  0.57890734522E+02  0.24928281097E+03 -0.65111825622E+03  0.71068505020E+03  0.12500000000E+03 0.  0.
         25    1    1    2    0    0 -0.57890734522E+02 -0.24928281097E+03 -0.40280945716E+03  0.49332921642E+03  0.12500000000E+03 0.  0.
</event>
<event>
 4    0  0.2230743E-002  0.1808307E+03  0.7546771E-02  0.1167002E+00
         21   -1    0    0  502  501  0.00000000000E+00  0.00000000000E+00  0.75849405658E+02  0.75849405658E+02  0.00000000000E+00 0.  1.
         21   -1    0    0  501  502 -0.00000000000E+00 -0.00000000000E+00 -0.43111382048E+03  0.43111382048E+03  0.00000000000E+00 0.  1.
         25    1    1    2    0    0  0.10093847583E+03  0.10391289212E+02 -0.29303882144E+03  0.33435505928E+03  0.12500000000E+03 0.  0.
         25    1    1    2    0    0 -0.10093847583E+03 -0.10391289212E+02 -0.62225593381E+02  0.17260816686E+03  0.12500000000E+03 0.  0.
</event>
<event>
 4    0  0.2230743E-002  0.1765255E+03  0.7546771E-02  0.1171209E+00
         21   -1    0    0  502  501  0.00000000000E+00  0.00000000000E+00  0.71895172387E+03  0.71895172387E+03  0.00000000000E+00 0.  1.
         21   -1    0    0  501  502 -0.00000000000E+00 -0.00000000000E+00 -0.43342643114E+02  0.43342643114E+02  0.00000000000E+00 0.  1.
         25    1    1    2    0    0 -0.84342386791E+02  0.85691147835E+02  0.26685851857E+03  0.31826887998E+03  0.12500000000E+03 0.  0.
         25    1    1    2    0    0  0.84342386791E+02 -0.85691147835E+02  0.40875056219E+03  0.44402548701E+03  0.12500000000E+03 0.  0.
</event>
<event>
 4    0  0.2230743E-002  0.2573482E+03  0.7546771E-02  0.1108747E+00
         21   -1    0    0  502  501  0.00000000000E+00  0.00000000000E+00  0.66322300337E+02  0.66322300337E+02  0.00000000000E+00 0. -1.
         21   -1    0    0  501  502 -0.00000000000E+00 -0.00000000000E+00 -0.99857943748E+03  0.99857943748E+03  0.00000000000E+00 0. -1.
         25    1    1    2    0    0  0.16985437232E+03  0.89999928060E+02 -0.22437885264E+03  0.32081359753E+03  0.12500000000E+03 0.  0.
         25    1    1    2    0    0 -0.16985437232E+03 -0.89999928060E+02 -0.70787828450E+03  0.74408814028E+03  0.12500000000E+03 0.  0.
</event>
<event>
 4    0  0.2230743E-002  0.2097803E+03  0.7546771E-02  0.1141740E+00
         21   -1    0    0  502  501  0.00000000000E+00  0.00000000000E+00  0.21703350292E+03  0.21703350292E+03  0.00000000000E+00 0.  1.
         21   -1    0    0  501  502 -0.00000000000E+00 -0.00000000000E+00 -0.20276946182E+03  0.20276946182E+03  0.00000000000E+00 0.  1.
         25    1    1    2    0    0  0.12426776867E+03  0.11060360115E+03  0.33739331517E+02  0.21080554406E+03  0.12500000000E+03 0.  0.
         25    1    1    2    0    0 -0.12426776867E+03 -0.11060360115E+03 -0.19475290414E+02  0.20899742068E+03  0.12500000000E+03 0.  0.
</event>
<event>
 4    0  0.2230743E-002  0.2301579E+03  0.7546771E-02  0.1126529E+00
         21   -1    0    0  502  501  0.00000000000E+00  0.00000000000E+00  0.33664199044E+03  0.33664199044E+03  0.00000000000E+00 0.  1.
         21   -1    0    0  501  502 -0.00000000000E+00 -0.00000000000E+00 -0.15735607552E+03  0.15735607552E+03  0.00000000000E+00 0.  1.
         25    1    1    2    0    0 -0.16998271057E+03 -0.28486454736E+02  0.18345846751E+03  0.28104734352E+03  0.12500000000E+03 0.  0.
         25    1    1    2    0    0  0.16998271057E+03  0.28486454736E+02 -0.41725525887E+01  0.21295072245E+03  0.12500000000E+03 0.  0.
</event>
<event>
 4    0  0.2230743E-002  0.1823533E+03  0.7546771E-02  0.1165545E+00
         21   -1    0    0  502  501  0.00000000000E+00  0.00000000000E+00  0.20348033953E+03  0.20348033953E+03  0.00000000000E+00 0. -1.
         21   -1    0    0  501  502 -0.00000000000E+00 -0.00000000000E+00 -0.16341990461E+03  0.16341990461E+03  0.00000000000E+00 0. -1.
         25    1    1    2    0    0  0.35770164204E+02 -0.10087904283E+03  0.99062587857E+02  0.19207936444E+03  0.12500000000E+03 0.  0.
         25    1    1    2    0    0 -0.35770164204E+02  0.10087904283E+03 -0.59002152938E+02  0.17482087971E+03  0.12500000000E+03 0.  0.
</event>
<event>
 4    0  0.2230743E-002  0.2661109E+03  0.7546771E-02  0.1103526E+00
         21   -1    0    0  502  501  0.00000000000E+00  0.00000000000E+00  0.80599117210E+02  0.80599117210E+02  0.00000000000E+00 0.  1.
         21   -1    0    0  501  502 -0.00000000000E+00 -0.00000000000E+00 -0.87860780959E+03  0.87860780959E+03  0.00000000000E+00 0.  1.
         25    1    1    2    0    0  0.14515169668E+03  0.10961067514E+03 -0.66697030071E+03  0.70253675860E+03  0.12500000000E+03 0.  0.
         25    1    1    2    0    0 -0.14515169668E+03 -0.10961067514E+03 -0.13103839167E+03  0.25667016820E+03  0.12500000000E+03 0.  0.
</event>
<event>
 4    0  0.2230743E-002  0.2183958E+03  0.7546771E-02  0.1135085E+00
         21   -1    0    0  502  501  0.00000000000E+00  0.00000000000E+00  0.12970370279E+03  0.12970370279E+03  0.00000000000E+00 0.  1.
         21   -1    0    0  501  502 -0.00000000000E+00 -0.00000000000E+00 -0.36773598317E+03  0.36773598317E+03  0.00000000000E+00 0.  1.
         25    1    1    2    0    0  0.10689601206E+03 -0.14359544437E+03 -0.12474553936E+03  0.25146144561E+03  0.12500000000E+03 0.  0.
         25    1    1    2    0    0 -0.10689601206E+03  0.14359544437E+03 -0.11328674102E+03  0.24597824035E+03  0.12500000000E+03 0.  0.
</event>
<event>
 4    0  0.2230743E-002  0.2702402E+03  0.7546771E-02  0.1101142E+00
         21   -1    0    0  502  501  0.00000000000E+00  0.00000000000E+00  0.22559403223E+04  0.22559403223E+04  0.00000000000E+00 0.  1.
         21   -1    0    0  501  502 -0.00000000000E+00 -0.00000000000E+00 -0.32372208618E+02  0.32372208618E+02  0.00000000000E+00 0.  1.
         25    1    1    2    0    0 -0.13249239029E+03  0.93233403208E+02  0.18591282206E+04  0.18703554319E+04  0.12500000000E+03 0.  0.
         25    1    1    2    0    0  0.13249239029E+03 -0.93233403208E+02  0.36443989308E+03  0.41795709903E+03  0.12500000000E+03 0.  0.
</event>
<event>
 4    0  0.2230743E-002  0.4275640E+03  0.7546771E-02  0.1034632E+00
         21   -1    0    0  502  501  0.00000000000E+00  0.00000000000E+00  0.31058900868E+03  0.31058900868E+03  0.00000000000E+00 0.  1.
         21   -1    0    0  501  502 -0.00000000000E+00 -0.00000000000E+00 -0.58859438609E+03  0.58859438609E+03  0.00000000000E+00 0.  1.
         25    1    1    2    0    0 -0.10069370077E+03 -0.20360964196E+03 -0.49650348483E+03  0.56012214571E+03  0.12500000000E+03 0.  0.
         25    1    1    2    0    0  0.10069370077E+03  0.20360964196E+03  0.21849810741E+03  0.33906124906E+03  0.12500000000E+03 0.  0.
</event>
<event>
 4    0  0.2230743E-002  0.1594105E+03  0.7546771E-02  0.1189364E+00
         21   -1    0    0  502  501  0.00000000000E+00  0.00000000000E+00  0.11765303236E+03  0.11765303236E+03  0.00000000000E+00 0. -1.
         21   -1    0    0  501  502 -0.00000000000E+00 -0.00000000000E+00 -0.21598861013E+03  0.21598861013E+03  0.00000000000E+00 0. -1.
         25    1    1    2    0    0 -0.72196307988E+02  0.46216420054E+02  0.25083724557E+01  0.15159009302E+03  0.12500000000E+03 0.  0.
         25    1    1    2    0    0  0.72196307988E+02 -0.46216420054E+02 -0.10084395022E+03  0.18205154947E+03  0.12500000000E+03 0.  0.
</event>
<event>
 4    0  0.2230743E-002  0.3529877E+03  0.7546771E-02  0.1061395E+00
         21   -1    0    0  502  501  0.00000000000E+00  0.00000000000E+00  0.91482193443E+02  0.91482193443E+02  0.00000000000E+00 0.  1.
         21   -1    0    0  501  502 -0.00000000000E+00 -0.00000000000E+00 -0.13620169600E+04  0.13620169600E+04  0.00000000000E+00 0.  1.
         25    1    1    2    0    0 -0.12460898556E+03  0.21062618730E+03 -0.10914066610E+04  0.11254706969E+04  0.12500000000E+03 0.  0.
         25    1    1    2    0    0  0.12460898556E+03 -0.21062618730E+03 -0.17912810556E+03  0.32802845648E+03  0.12500000000E+03 0.  0.
</event>
<event>
 4    0  0.2230743E-002  0.3066400E+03  0.7546771E-02  0.1081968E+00
         21   -1    0    0  502  501  0.00000000000E+00  0.00000000000E+00  0.49210092480E+03  0.49210092480E+03  0.00000000000E+00 0.  1.
         21   -1    0    0  501  502 -0.00000000000E+00 -0.00000000000E+00 -0.19107476285E+03  0.19107476285E+03  0.00000000000E+00 0.  1.
         25    1    1    2    0    0 -0.56103696523E+02 -0.14356419296E+03 -0.10989108869E+03  0.22684654204E+03  0.12500000000E+03 0.  0.
         25    1    1    2    0    0  0.56103696523E+02  0.14356419296E+03  0.41091725063E+03  0.45632914561E+03  0.12500000000E+03 0.  0.
</event>
<event>
 4    0  0.2230743E-002  0.2134120E+03  0.7546771E-02  0.1138892E+00
         21   -1    0    0  502  501  0.00000000000E+00  0.00000000000E+00  0.65449207494E+02  0.65449207494E+02  0.00000000000E+00 0.  1.
         21   -1    0    0  501  502 -0.00000000000E+00 -0.00000000000E+00 -0.69587816021E+03  0.69587816021E+03  0.00000000000E+00 0.  1.
         25    1    1    2    0    0 -0.16866226777E+03  0.20376520308E+02 -0.37321942983E+03  0.42869558658E+03  0.12500000000E+03 0.  0.
         25    1    1    2    0    0  0.16866226777E+03 -0.20376520308E+02 -0.25720952288E+03  0.33263178112E+03  0.12500000000E+03 0.  0.
</event>
<event>
 4    0  0.2230743E-002  0.2333328E+03  0.7546771E-02  0.1124316E+00
         21   -1    0    0  502  501  0.00000000000E+00  0.00000000000E+00  0.16095815837E+03  0.16095815837E+03  0.00000000000E+00 0. -1.
         21   -1    0    0  501  502 -0.00000000000E+00 -0.00000000000E+00 -0.33825053099E+03  0.33825053099E+03  0.00000000000E+00 0. -1.
         25    1    1    2    0    0 -0.12705944353E+01  0.17434763371E+03  0.95160820309E+01  0.21474232840E+03  0.12500000000E+03 0.  0.
         25    1    1    2    0    0  0.12705944353E+01 -0.17434763371E+03 -0.18680845465E+03  0.28446636096E+03  0.12500000000E+03 0.  0.
</event>
<event>
 4    0  0.2230743E-002  0.1474989E+03  0.7546771E-02  0.1203580E+00
         21   -1    0    0  502  501  0.00000000000E+00  0.00000000000E+00  0.17157517986E+02  0.17157517986E+02  0.00000000000E+00 0.  1.
         21   -1    0    0  501  502 -0.00000000000E+00 -0.00000000000E+00 -0.12680111774E+04  0.12680111774E+04  0.00000000000E+00 0.  1.
         25    1    1    2    0    0  0.44182590400E+02  0.14436667431E+02 -0.89993724405E+03  0.90976511358E+03  0.12500000000E+03 0.  0.
         25    1    1    2    0    0 -0.44182590400E+02 -0.14436667431E+02 -0.35091641537E+03  0.37540358182E+03  0.12500000000E+03 0.  0.
</event>
<event>
 4    0  0.2230743E-002  0.2667688E+03  0.7546771E-02  0.1103143E+00
         21   -1    0    0  502  501  0.00000000000E+00  0.00000000000E+00  0.16258055316E+03  0.16258055316E+03  0.00000000000E+00 0.  1.
         21   -1    0    0  501  502 -0.00000000000E+00 -0.00000000000E+00 -0.43772528162E+03  0.43772528162E+03  0.00000000000E+00 0.  1.
         25    1    1    2    0    0 -0.84166254756E+02  0.15839867249E+03 -0.30956287200E+03  0.37898320492E+03  0.12500000000E+03 0.  0.
         25    1    1    2    0    0  0.84166254756E+02 -0.15839867249E+03  0.34418143544E+02  0.22132262987E+03  0.12500000000E+03 0.  0.
</event>
<event>
 4    0  0.2230743E-002  0.2728209E+03  0.7546771E-02  0.1099676E+00
         21   -1    0    0  502  501  0.00000000000E+00  0.00000000000E+00  0.26106474065E+03  0.26106474065E+03  0.00000000000E+00 0.  1.
         21   -1    0    0  501  502 -0.00000000000E+00 -0.00000000000E+00 -0.28510635805E+03  0.28510635805E+03  0.00000000000E+00 0. -1.
         25    1    1    2    0    0 -0.14009531556E+03  0.76409329250E+02  0.17075189836E+03  0.26504017400E+03  0.12500000000E+03 0.  0.
         25    1    1    2    0    0  0.14009531556E+03 -0.76409329250E+02 -0.19479351576E+03  0.28113092470E+03  0.12500000000E+03 0.  0.
</event>
<event>
 4    0  0.2230743E-002  0.1930869E+03  0.7546771E-02  0.1155706E+00
         21   -1    0    0  502  501  0.00000000000E+00  0.00000000000E+00  0.46049283962E+03  0.46049283962E+03  0.00000000000E+00 0. -1.
         21   -1    0    0  501  502 -0.00000000000E+00 -0.00000000000E+00 -0.80962242700E+02  0.80962242700E+02  0.00000000000E+00 0. -1.
         25    1    1    2    0    0  0.13803441888E+03 -0.45547638371E+02  0.15750338576E+03  0.24811369306E+03  0.12500000000E+03 0.  0.
         25    1    1    2    0    0 -0.13803441888E+03  0.45547638371E+02  0.22202721116E+03  0.29334138926E+03  0.12500000000E+03 0.  0.
</event>
<event>
 4    0  0.2230743E-002  0.1871122E+03  0.7546771E-02  0.1161092E+00
         21   -1    0    0  502  501  0.00000000000E+00  0.00000000000E+00  0.14256123970E+03  0.14256123970E+03  0.00000000000E+00 0.  1.
         21   -1    0    0  501  502 -0.00000000000E+00 -0.00000000000E+00 -0.24558562285E+03  0.24558562285E+03  0.00000000000E+00 0.  1.
         25    1    1    2    0    0  0.46950432694E+02 -0.11967209776E+03  0.39586651428E+01  0.17935000737E+03  0.12500000000E+03 0.  0.
         25    1    1    2    0    0 -0.46950432694E+02  0.11967209776E+03 -0.10698304829E+03  0.20879685518E+03  0.12500000000E+03 0.  0.
</event>
<event>
 4    0  0.2230743E-002  0.1861746E+03  0.7546771E-02  0.1161958E+00
         21   -1    0    0  502  501  0.00000000000E+00  0.00000000000E+00  0.27267213665E+03  0.27267213665E+03  0.00000000000E+00 0. -1.
         21   -1    0    0  501  502 -0.00000000000E+00 -0.00000000000E+00 -0.12711595115E+03  0.12711595115E+03  0.00000000000E+00 0. -1.
         25    1    1    2    0    0  0.61993095914E+02 -0.40540847631E+02  0.19775721092E+03  0.24539685967E+03  0.12500000000E+03 0.  0.
         25    1    1    2    0    0 -0.61993095914E+02  0.40540847631E+02 -0.52201025415E+02  0.15439122813E+03  0.12500000000E+03 0.  0.
</event>
<event>
 4    0  0.2230743E-002  0.2260313E+03  0.7546771E-02  0.1129465E+00
         21   -1    0    0  502  501  0.00000000000E+00  0.00000000000E+00  0.99962602379E+03  0.99962602379E+03  0.00000000000E+00 0.  1.
         21   -1    0    0  501  502 -0.00000000000E+00 -0.00000000000E+00 -0.51109243787E+02  0.51109243787E+02  0.00000000000E+00 0. -1.
         25    1    1    2    0    0  0.31324097904E+02  0.17820431065E+03  0.35287767352E+03  0.41579517543E+03  0.12500000000E+03 0.  0.
         25    1    1    2    0    0 -0.31324097904E+02 -0.17820431065E+03  0.59563910648E+03  0.63494009214E+03  0.12500000000E+03 0.  0.
</event>
<event>
 4    0  0.2230743E-002  0.3209458E+03  0.7546771E-02  0.1075215E+00
         21   -1    0    0  502  501  0.00000000000E+00  0.00000000000E+00  0.46337240717E+03  0.46337240717E+03  0.00000000000E+00 0. -1.
         21   -1    0    0  501  502 -0.00000000000E+00 -0.00000000000E+00 -0.22229675684E+03  0.22229675684E+03  0.00000000000E+00 0. -1.
         25    1    1    2    0    0 -0.24159889378E+03 -0.24568081132E+02  0.30057823669E+03  0.40613531298E+03  0.12500000000E+03 0.  0.
         25    1    1    2    0    0  0.24159889378E+03  0.24568081132E+02 -0.59502586355E+02  0.27953385102E+03  0.12500000000E+03 0.  0.
</event>
<event>
 4    0  0.2230743E-002  0.2153026E+03  0.7546771E-02  0.1137434E+00
         21   -1    0    0  502  501  0.00000000000E+00  0.00000000000E+00  0.91868641653E+02  0.91868641653E+02  0.00000000000E+00 0. -1.
         21   -1    0    0  501  502 -0.00000000000E+00 -0.00000000000E+00 -0.50458133572E+03  0.50458133572E+03  0.00000000000E+00 0. -1.
         25    1    1    2    0    0  0.11358916210E+03 -0.11019749925E+03 -0.10192519886E+03  0.22596400765E+03  0.12500000000E+03 0.  0.
         25    1    1    2    0    0 -0.11358916210E+03  0.11019749925E+03 -0.31078749520E+03  0.37048596973E+03  0.12500000000E+03 0.  0.
</event>
<event>
 4    0  0.2230743E-002  0.2874694E+03  0.7546771E-02  0.1091678E+00
         21   -1    0    0  502  501  0.00000000000E+00  0.00000000000E+00  0.17189040203E+03  0.17189040203E+03  0.00000000000E+00 0. -1.
         21   -1    0    0  501  502 -0.00000000000E+00 -0.00000000000E+00 -0.48076362509E+03  0.48076362509E+03  0.00000000000E+00 0.  1.
         25    1    1    2    0    0  0.29626328074E+02 -0.23786661090E+03 -0.26540161996E+03  0.37884200370E+03  0.12500000000E+03 0.  0.
         25    1    1    2    0    0 -0.29626328074E+02  0.23786661090E+03 -0.43471603098E+02  0.27381202342E+03  0.12500000000E+03 0.  0.
</event>
<event>
 4    0  0.2230743E-002  0.3332462E+03  0.7546771E-02  0.1069709E+00
         21   -1    0    0  502  501  0.00000000000E+00  0.00000000000E+00  0.52299810913E+03  0.52299810913E+03  0.00000000000E+00 0.  1.
         21   -1    0    0  501  502 -0.00000000000E+00 -0.00000000000E+00 -0.21233931094E+03  0.21233931094E+03  0.00000000000E+00 0.  1.
         25    1    1    2    0    0  0.21809357912E+03  0.21822382820E+03  0.13818001357E+03  0.36042359051E+03  0.12500000000E+03 0.  0.
         25    1    1    2    0    0 -0.21809357912E+03 -0.21822382820E+03  0.17247878462E+03  0.37491382956E+03  0.12500000000E+03 0.  0.
</event>
<event>
 4    0  0.2230743E-002  0.6100847E+03  0.7546771E-02  0.9884702E-01
         21   -1    0    0  502  501  0.00000000000E+00  0.00000000000E+00  0.39843433365E+03  0.39843433365E+03  0.00000000000E+00 0.  1.
         21   -1    0    0  501  502 -0.00000000000E+00 -0.00000000000E+00 -0.93416487666E+03  0.93416487666E+03  0.00000000000E+00 0. -1.
         25    1    1    2    0    0  0.38641648443E+03  0.25259345696E+03 -0.68152247876E+03  0.83259776783E+03  0.12500000000E+03 0.  0.
         25    1    1    2    0    0 -0.38641648443E+03 -0.25259345696E+03  0.14579193575E+03  0.50000144247E+03  0.12500000000E+03 0.  0.
</event>
<event>
 4    0  0.2230743E-002  0.2208090E+03  0.7546771E-02  0.1133281E+00
         21   -1    0    0  502  501  0.00000000000E+00  0.00000000000E+00  0.50557859310E+03  0.50557859310E+03  0.00000000000E+00 0.  1.
         21   -1    0    0  501  502 -0.00000000000E+00 -0.00000000000E+00 -0.96437221388E+02  0.96437221388E+02  0.00000000000E+00 0.  1.
         25    1    1    2    0    0  0.88560187046E+02  0.15782624180E+03  0.17801212618E+03  0.28295820610E+03  0.12500000000E+03 0.  0.
         25    1    1    2    0    0 -0.88560187046E+02 -0.15782624180E+03  0.23112924554E+03  0.31905760839E+03  0.12500000000E+03 0.  0.
</event>
<event>
 4    0  0.2230743E-002  0.2135976E+03  0.7546771E-02  0.1138748E+00
         21   -1    0    0  502  501  0.00000000000E+00  0.00000000000E+00  0.12156605523E+03  0.12156605523E+03  0.00000000000E+00 0.  1.
         21   -1    0    0  501  502 -0.00000000000E+00 -0.00000000000E+00 -0.37530167873E+03  0.37530167873E+03  0.00000000000E+00 0.  1.
         25    1    1    2    0    0 -0.30827803060E+02  0.42741888475E+02 -0.31876657776E+03  0.34643087849E+03  0.12500000000E+03 0.  0.
         25    1    1    2    0    0  0.30827803060E+02 -0.42741888475E+02  0.65030954269E+02  0.15043685547E+03  0.12500000000E+03 0.  0.
</event>
<event>
 4    0  0.2230743E-002  0.2911914E+03  0.7546771E-02  0.1089729E+00
         21   -1    0    0  502  501  0.00000000000E+00  0.00000000000E+00  0.31805379709E+03  0.31805379709E+03  0.00000000000E+00 0.  1.
         21   -1    0    0  501  502 -0.00000000000E+00 -0.00000000000E+00 -0.26659784282E+03  0.26659784282E+03  0.00000000000E+00 0.  1.
         25    1    1    2    0    0 -0.23099944220E+02 -0.25888700773E+03 -0.14570224681E+02  0.28877912259E+03  0.12500000000E+03 0.  0.
         25    1    1    2    0    0  0.23099944220E+02  0.25888700773E+03  0.66026178955E+02  0.29587251732E+03  0.12500000000E+03 0.  0.
</event>
<event>
 4    0  0.2230743E-002  0.4049897E+03  0.7546771E-02  0.1042066E+00
         21   -1    0    0  502  501  0.00000000000E+00  0.00000000000E+00  0.35678032716E+03  0.35678032716E+03  0.00000000000E+00 0.  1.
         21   -1    0    0  501  502 -0.00000000000E+00 -0.00000000000E+00 -0.45971318781E+03  0.45971318781E+03  0.00000000000E+00 0.  1.
         25    1    1    2    0    0  0.14944494666E+02 -0.15193683468E+03  0.30504937990E+03  0.36330189076E+03  0.12500000000E+03 0.  0.
         25    1    1    2    0    0 -0.14944494666E+02  0.15193683468E+03 -0.40798224055E+03  0.45319162422E+03  0.12500000000E+03 0.  0.
</event>
<event>
 4    0  0.2230743E-002  0.1852466E+03  0.7546771E-02  0.1162820E+00
         21   -1    0    0  502  501  0.00000000000E+00  0.00000000000E+00  0.19493196459E+02  0.19493196459E+02  0.00000000000E+00 0. -1.
         21   -1    0    0  501  502 -0.00000000000E+00 -0.00000000000E+00 -0.17604255010E+04  0.17604255010E+04  0.00000000000E+00 0. -1.
         25    1    1    2    0    0  0.79972000119E+02  0.79676120253E+02 -0.12409656252E+04  0.12523435981E+04  0.12500000000E+03 0.  0.
         25    1    1    2    0    0 -0.79972000119E+02 -0.79676120253E+02 -0.49996667935E+03  0.52757509930E+03  0.12500000000E+03 0.  0.
</event>
<event>
 4    0  0.2230743E-002  0.1779202E+03  0.7546771E-02  0.1169831E+00
         21   -1    0    0  502  501  0.00000000000E+00  0.00000000000E+00  0.20188060905E+02  0.20188060905E+02  0.00000000000E+00 0. -1.
         21   -1    0    0  501  502 -0.00000000000E+00 -0.00000000000E+00 -0.15680349059E+04  0.15680349059E+04  0.00000000000E+00 0. -1.
         25    1    1    2    0    0 -0.62375393977E+02 -0.43254876886E+02 -0.32163186163E+03  0.35331816902E+03  0.12500000000E+03 0.  0.
         25    1    1    2    0    0  0.62375393977E+02  0.43254876886E+02 -0.12262149833E+04  0.12349047978E+04  0.12500000000E+03 0.  0.
</event>
<event>
 4    0  0.2230743E-002  0.2220459E+03  0.7546771E-02  0.1132367E+00
         21   -1    0    0  502  501  0.00000000000E+00  0.00000000000E+00  0.70466995476E+02  0.70466995476E+02  0.00000000000E+00 0.  1.
         21   -1    0    0  501  502 -0.00000000000E+00 -0.00000000000E+00 -0.69968028537E+03  0.69968028537E+03  0.00000000000E+00 0.  1.
         25    1    1    2    0    0 -0.12149250597E+03 -0.13529613667E+03 -0.35757490357E+03  0.42017887295E+03  0.12500000000E+03 0.  0.
         25    1    1    2    0    0  0.12149250597E+03  0.13529613667E+03 -0.27163838632E+03  0.34996840789E+03  0.12500000000E+03 0.  0.
</event>
<event>
 4    0  0.2230743E-002  0.2539469E+03  0.7546771E-02  0.1110836E+00
         21   -1    0    0  502  501  0.00000000000E+00  0.00000000000E+00  0.72705610638E+02  0.72705610638E+02  0.00000000000E+00 0.  1.
         21   -1    0    0  501  502 -0.00000000000E+00 -0.00000000000E+00 -0.88698850402E+03  0.88698850402E+03  0.00000000000E+00 0.  1.
         25    1    1    2    0    0 -0.25061944778E+02  0.20753598031E+03 -0.27134612528E+03  0.36462721224E+03  0.12500000000E+03 0.  0.
         25    1    1    2    0    0  0.25061944778E+02 -0.20753598031E+03 -0.54293676810E+03  0.59506690242E+03  0.12500000000E+03 0.  0.
</event>
<event>
 4    0  0.2230743E-002  0.2252087E+03  0.7546771E-02  0.1130058E+00
         21   -1    0    0  502  501  0.00000000000E+00  0.00000000000E+00  0.36384941328E+03  0.36384941328E+03  0.00000000000E+00 0. -1.
         21   -1    0    0  501  502 -0.00000000000E+00 -0.00000000000E+00 -0.13939551326E+03  0.13939551326E+03  0.00000000000E+00 0. -1.
         25    1    1    2    0    0 -0.18594450003E+03  0.22425254479E+02  0.10779615801E+03  0.24964627138E+03  0.12500000000E+03 0.  0.
         25    1    1    2    0    0  0.18594450003E+03 -0.22425254479E+02  0.11665774201E+03  0.25359865516E+03  0.12500000000E+03 0.  0.
</event>
<event>
 4    0  0.2230743E-002  0.2877144E+03  0.7546771E-02  0.1091549E+00
         21   -1    0    0  502  501  0.00000000000E+00  0.00000000000E+00  0.69502774263E+02  0.69502774263E+02  0.00000000000E+00 0.  1.
         21   -1    0    0  501  502 -0.00000000000E+00 -0.00000000000E+00 -0.11910251705E+04  0.11910251705E+04  0.00000000000E+00 0.  1.
         25    1    1    2    0    0 -0.17486896673E+03  0.11112797579E+03 -0.90171971192E+03  0.93362306173E+03  0.12500000000E+03 0.  0.
         25    1    1    2    0    0  0.17486896673E+03 -0.11112797579E+03 -0.21980268436E+03  0.32690488308E+03  0.12500000000E+03 0.  0.
</event>
<event>
 4    0  0.2230743E-002  0.1543284E+03  0.7546771E-02  0.1195253E+00
         21   -1    0    0  502  501  0.00000000000E+00  0.00000000000E+00  0.28390959534E+03  0.28390959534E+03  0.00000000000E+00 0. -1.
         21   -1    0    0  501  502 -0.00000000000E+00 -0.00000000000E+00 -0.83890327810E+02  0.83890327810E+02  0.00000000000E+00 0. -1.
         25    1    1    2    0    0  0.68736024885E+02  0.12620318099E+02  0.16854926148E+03  0.22117361301E+03  0.12500000000E+03 0.  0.
         25    1    1    2    0    0 -0.68736024885E+02 -0.12620318099E+02  0.31470006056E+02  0.14662631015E+03  0.12500000000E+03 0.  0.
</event>
<event>
 4    0  0.2230743E-002  0.1866350E+03  0.7546771E-02  0.1161532E+00
         21   -1    0    0  502  501  0.00000000000E+00  0.00000000000E+00  0.17243337651E+03  0.17243337651E+03  0.00000000000E+00 0. -1.
         21   -1    0    0  501  502 -0.00000000000E+00 -0.00000000000E+00 -0.20200634983E+03  0.20200634983E+03  0.00000000000E+00 0. -1.
         25    1    1    2    0    0 -0.44756328199E+02  0.82727733100E+02 -0.11689262088E+03  0.19528413032E+03  0.12500000000E+03 0.  0.
         25    1    1    2    0    0  0.44756328199E+02 -0.82727733100E+02  0.87319647562E+02  0.17915559603E+03  0.12500000000E+03 0.  0.
</event>
<event>
 4    0  0.2230743E-002  0.2899093E+03  0.7546771E-02  0.1090397E+00
         21   -1    0    0  502  501  0.00000000000E+00  0.00000000000E+00  0.85646744113E+03  0.85646744113E+03  0.00000000000E+00 0. -1.
         21   -1    0    0  501  502 -0.00000000000E+00 -0.00000000000E+00 -0.98132602276E+02  0.98132602276E+02  0.00000000000E+00 0. -1.
         25    1    1    2    0    0 -0.20800038610E+03 -0.15731186159E+03  0.34578221868E+03  0.45077879849E+03  0.12500000000E+03 0.  0.
         25    1    1    2    0    0  0.20800038610E+03  0.15731186159E+03  0.41255262018E+03  0.50382124492E+03  0.12500000000E+03 0.  0.
</event>
<event>
 4    0  0.2230743E-002  0.2260947E+03  0.7546771E-02  0.1129419E+00
         21   -1    0    0  502  501  0.00000000000E+00  0.00000000000E+00  0.19197995038E+03  0.19197995038E+03  0.00000000000E+00 0.  1.
         21   -1    0    0  501  502 -0.00000000000E+00 -0.00000000000E+00 -0.26627164378E+03  0.26627164378E+03  0.00000000000E+00 0.  1.
         25    1    1    2    0    0  0.72296023671E+02  0.14029973436E+03  0.67107441971E+02  0.21222426644E+03  0.12500000000E+03 0.  0.
         25    1    1    2    0    0 -0.72296023671E+02 -0.14029973436E+03 -0.14139913538E+03  0.24602732772E+03  0.12500000000E+03 0.  0.
</event>
<event>
 4    0  0.2230743E-002  0.1696752E+03  0.7546771E-02  0.1178187E+00
         21   -1    0    0  502  501  0.00000000000E+00  0.00000000000E+00  0.44614341061E+03  0.44614341061E+03  0.00000000000E+00 0. -1.
         21   -1    0    0  501  502 -0.00000000000E+00 -0.00000000000E+00 -0.64530112073E+02  0.64530112073E+02  0.00000000000E+00 0. -1.
         25    1    1    2    0    0  0.56205807330E+02 -0.56875980182E+01  0.40522530491E+02  0.14303327244E+03  0.12500000000E+03 0.  0.
         25    1    1    2    0    0 -0.56205807330E+02  0.56875980182E+01  0.34109076805E+03  0.36764025024E+03  0.12500000000E+03 0.  0.
</event>
<event>
 4    0  0.2230743E-002  0.1853974E+03  0.7546771E-02  0.1162679E+00
         21   -1    0    0  502  501  0.00000000000E+00  0.00000000000E+00  0.72599533492E+03  0.72599533492E+03  0.00000000000E+00 0.  1.
         21   -1    0    0  501  502 -0.00000000000E+00 -0.00000000000E+00 -0.47344906958E+02  0.47344906958E+02  0.00000000000E+00 0.  1.
         25    1    1    2    0    0  0.65631120334E+02 -0.11728889337E+03  0.28481670469E+03  0.33883577694E+03  0.12500000000E+03 0.  0.
         25    1    1    2    0    0 -0.65631120334E+02  0.11728889337E+03  0.39383372327E+03  0.43450446494E+03  0.12500000000E+03 0.  0.
</event>
<event>
 4    0  0.2230743E-002  0.2312825E+03  0.7546771E-02  0.1125740E+00
         21   -1    0    0  502  501  0.00000000000E+00  0.00000000000E+00  0.85759828542E+02  0.85759828542E+02  0.00000000000E+00 0. -1.
         21   -1    0    0  501  502 -0.00000000000E+00 -0.00000000000E+00 -0.62373741897E+03  0.62373741897E+03  0.00000000000E+00 0. -1.
         25    1    1    2    0    0  0.13268662469E+03 -0.96163778604E+02 -0.10802114577E+03  0.23269460806E+03  0.12500000000E+03 0.  0.
         25    1    1    2    0    0 -0.13268662469E+03  0.96163778604E+02 -0.42995644466E+03  0.47680263945E+03  0.12500000000E+03 0.  0.
</event>
<event>
 4    0  0.2230743E-002  0.2002798E+03  0.7546771E-02  0.1149503E+00
         21   -1    0    0  502  501  0.00000000000E+00  0.00000000000E+00  0.24112918618E+02  0.24112918618E+02  0.00000000000E+00 0. -1.
         21   -1    0    0  501  502 -0.00000000000E+00 -0.00000000000E+00 -0.16635065680E+04  0.16635065680E+04  0.00000000000E+00 0. -1.
         25    1    1    2    0    0 -0.10330988221E+03  0.10039526936E+01 -0.32452911515E+03  0.36279207029E+03  0.12500000000E+03 0.  0.
         25    1    1    2    0    0  0.10330988221E+03 -0.10039526936E+01 -0.13148645342E+04  0.13248274163E+04  0.12500000000E+03 0.  0.
</event>
<event>
 4    0  0.2230743E-002  0.1962731E+03  0.7546771E-02  0.1152922E+00
         21   -1    0    0  502  501  0.00000000000E+00  0.00000000000E+00  0.22223612868E+03  0.22223612868E+03  0.00000000000E+00 0.  1.
         21   -1    0    0  501  502 -0.00000000000E+00 -0.00000000000E+00 -0.17334315824E+03  0.17334315824E+03  0.00000000000E+00 0.  1.
         25    1    1    2    0    0 -0.82493751239E+02 -0.12658428633E+03  0.32836190625E+02  0.19882659770E+03  0.12500000000E+03 0.  0.
         25    1    1    2    0    0  0.82493751239E+02  0.12658428633E+03  0.16056779815E+02  0.19675268922E+03  0.12500000000E+03 0.  0.
</event>
<event>
 4    0  0.2230743E-002  0.1757219E+03  0.7546771E-02  0.1172009E+00
         21   -1    0    0  502  501  0.00000000000E+00  0.00000000000E+00  0.56257736237E+02  0.56257736237E+02  0.00000000000E+00 0.  1.
         21   -1    0    0  501  502 -0.00000000000E+00 -0.00000000000E+00 -0.54887021814E+03  0.54887021814E+03  0.00000000000E+00 0.  1.
         25    1    1    2    0    0  0.94013054636E+02  0.79114566289E+02 -0.22482627337E+03  0.28507792310E+03  0.12500000000E+03 0.  0.
         25    1    1    2    0    0 -0.94013054636E+02 -0.79114566289E+02 -0.26778620853E+03  0.32005003128E+03  0.12500000000E+03 0.  0.
</event>
<event>
 4    0  0.2230743E-002  0.1703257E+03  0.7546771E-02  0.1177509E+00
         21   -1    0    0  502  501  0.00000000000E+00  0.00000000000E+00  0.29015647277E+04  0.29015647277E+04  0.00000000000E+00 0. -1.
         21   -1    0    0  501  502 -0.00000000000E+00 -0.00000000000E+00 -0.99983501582E+01  0.99983501582E+01  0.00000000000E+00 0. -1.
         25    1    1    2    0    0 -0.95830732559E+02 -0.62723341555E+01  0.19972489069E+04  0.20034597744E+04  0.12500000000E+03 0.  0.
         25    1    1    2    0    0  0.95830732559E+02  0.62723341555E+01  0.89431747066E+03  0.90810330349E+03  0.12500000000E+03 0.  0.
</event>
<event>
 4    0  0.2230743E-002  0.2250482E+03  0.7546771E-02  0.1130174E+00
         21   -1    0    0  502  501  0.00000000000E+00  0.00000000000E+00  0.43143741225E+02  0.43143741225E+02  0.00000000000E+00 0. -1.
         21   -1    0    0  501  502 -0.00000000000E+00 -0.00000000000E+00 -0.11739063105E+04  0.11739063105E+04  0.00000000000E+00 0. -1.
         25    1    1    2    0    0 -0.28939635224E+02  0.46599639042E+02 -0.81583529612E+02  0.15902798857E+03  0.12500000000E+03 0.  0.
         25    1    1    2    0    0  0.28939635224E+02 -0.46599639042E+02 -0.10491790397E+04  0.10580220632E+04  0.12500000000E+03 0.  0.
</event>
<event>
 4    0  0.2230743E-002  0.1773219E+03  0.7546771E-02  0.1170420E+00
         21   -1    0    0  502  501  0.00000000000E+00  0.00000000000E+00  0.16929455875E+03  0.16929455875E+03  0.00000000000E+00 0.  1.
         21   -1    0    0  501  502 -0.00000000000E+00 -0.00000000000E+00 -0.18572984986E+03  0.18572984986E+03  0.00000000000E+00 0.  1.
         25    1    1    2    0    0 -0.23715285959E+02  0.93989853792E+02  0.72002906775E+02  0.17379852125E+03  0.12500000000E+03 0.  0.
         25    1    1    2    0    0  0.23715285959E+02 -0.93989853792E+02 -0.88438197887E+02  0.18122588736E+03  0.12500000000E+03 0.  0.
</event>
<event>
 4    0  0.2230743E-002  0.2430655E+03  0.7546771E-02  0.1117767E+00
         21   -1    0    0  502  501  0.00000000000E+00  0.00000000000E+00  0.14460887320E+04  0.14460887320E+04  0.00000000000E+00 0. -1.
         21   -1    0    0  501  502 -0.00000000000E+00 -0.00000000000E+00 -0.40855615003E+02  0.40855615003E+02  0.00000000000E+00 0. -1.
         25    1    1    2    0    0  0.20202394570E+03  0.48534859569E+02  0.65084014952E+03  0.69454100488E+03  0.12500000000E+03 0.  0.
         25    1    1    2    0    0 -0.20202394570E+03 -0.48534859569E+02  0.75439296749E+03  0.79240334214E+03  0.12500000000E+03 0.  0.
</event>
<event>
 4    0  0.2230743E-002  0.1952929E+03  0.7546771E-02  0.1153772E+00
         21   -1    0    0  502  501  0.00000000000E+00  0.00000000000E+00  0.43020843484E+03  0.43020843484E+03  0.00000000000E+00 0. -1.
         21   -1    0    0  501  502 -0.00000000000E+00 -0.00000000000E+00 -0.88653131089E+02  0.88653131089E+02  0.00000000000E+00 0. -1.
         25    1    1    2    0    0 -0.77103714178E+02  0.11716365619E+03  0.99958854375E+02  0.21281230613E+03  0.12500000000E+03 0.  0.
         25    1    1    2    0    0  0.77103714178E+02 -0.11716365619E+03  0.24159644938E+03  0.30604925980E+03  0.12500000000E+03 0.  0.
</event>
<event>
 4    0  0.2230743E-002  0.1855342E+03  0.7546771E-02  0.1162552E+00
         21   -1    0    0  502  501  0.00000000000E+00  0.00000000000E+00  0.47118916981E+02  0.47118916981E+02  0.00000000000E+00 0. -1.
         21   -1    0    0  501  502 -0.00000000000E+00 -0.00000000000E+00 -0.73055442154E+03  0.73055442154E+03  0.00000000000E+00 0. -1.
         25    1    1    2    0    0  0.30512840665E+02 -0.30996430659E+02 -0.61421697255E+03  0.62831465169E+03  0.12500000000E+03 0.  0.
         25    1    1    2    0    0 -0.30512840665E+02  0.30996430659E+02 -0.69218532013E+02  0.14935868684E+03  0.12500000000E+03 0.  0.
</event>
<event>
 4    0  0.2230743E-002  0.1914518E+03  0.7546771E-02  0.1157158E+00
         21   -1    0    0  502  501  0.00000000000E+00  0.00000000000E+00  0.48457905418E+03  0.48457905418E+03  0.00000000000E+00 0. -1.
         21   -1    0    0  501  502 -0.00000000000E+00 -0.00000000000E+00 -0.75640494915E+02  0.75640494915E+02  0.00000000000E+00 0. -1.
         25    1    1    2    0    0 -0.36755949185E+01  0.38232050292E+02  0.40905820703E+03  0.42945176260E+03  0.12500000000E+03 0.  0.
         25    1    1    2    0    0  0.36755949185E+01 -0.38232050292E+02 -0.11964776479E+00  0.13076778649E+03  0.12500000000E+03 0.  0.
</event>
<event>
 4    0  0.2230743E-002  0.3021581E+03  0.7546771E-02  0.1084167E+00
         21   -1    0    0  502  501  0.00000000000E+00  0.00000000000E+00  0.54220952166E+03  0.54220952166E+03  0.00000000000E+00 0. -1.
         21   -1    0    0  501  502 -0.00000000000E+00 -0.00000000000E+00 -0.16838425637E+03  0.16838425637E+03  0.00000000000E+00 0. -1.
         25    1    1    2    0    0 -0.99075314565E+02 -0.25611280218E+03  0.20604931643E+03  0.36536421034E+03  0.12500000000E+03 0.  0.
         25    1    1    2    0    0  0.99075314565E+02  0.25611280218E+03  0.16777594886E+03  0.34522956770E+03  0.12500000000E+03 0.  0.
</event>
<event>
 4    0  0.2230743E-002  0.2756227E+03  0.7546771E-02  0.1098104E+00
         21   -1    0    0  502  501  0.00000000000E+00  0.00000000000E+00  0.72223008476E+02  0.72223008476E+02  0.00000000000E+00 0. -1.
         21   -1    0    0  501  502 -0.00000000000E+00 -0.00000000000E+00 -0.10518512298E+04  0.10518512298E+04  0.00000000000E+00 0. -1.
         25    1    1    2    0    0  0.47746739936E+02  0.22216820517E+03 -0.68006181079E+03  0.72783757052E+03  0.12500000000E+03 0.  0.
         25    1    1    2    0    0 -0.47746739936E+02 -0.22216820517E+03 -0.29956641058E+03  0.39623666780E+03  0.12500000000E+03 0.  0.
</event>
<event>
 4    0  0.2230743E-002  0.2558244E+03  0.7546771E-02  0.1109678E+00
         21   -1    0    0  502  501  0.00000000000E+00  0.00000000000E+00  0.14205461639E+04  0.14205461639E+04  0.00000000000E+00 0.  1.
         21   -1    0    0  501  502 -0.00000000000E+00 -0.00000000000E+00 -0.46071098303E+02  0.46071098303E+02  0.00000000000E+00 0.  1.
         25    1    1    2    0    0 -0.78193568380E+01  0.21230622959E+03  0.88345968833E+03  0.91720286653E+03  0.12500000000E+03 0.  0.
         25    1    1    2    0    0  0.78193568380E+01 -0.21230622959E+03  0.49101537731E+03  0.54941439571E+03  0.12500000000E+03 0.  0.
</event>
<event>
 4    0  0.2230743E-002  0.2195497E+03  0.7546771E-02  0.1134219E+00
         21   -1    0    0  502  501  0.00000000000E+00  0.00000000000E+00  0.34602573097E+03  0.34602573097E+03  0.00000000000E+00 0. -1.
         21   -1    0    0  501  502 -0.00000000000E+00 -0.00000000000E+00 -0.13930195879E+03  0.13930195879E+03  0.00000000000E+00 0. -1.
         25    1    1    2    0    0  0.16799637915E+03  0.29308679607E+02  0.16870701993E+03  0.27049739496E+03  0.12500000000E+03 0.  0.
         25    1    1    2    0    0 -0.16799637915E+03 -0.29308679607E+02  0.38016752254E+02  0.21483029479E+03  0.12500000000E+03 0.  0.
</event>
<event>
 4    0  0.2230743E-002  0.2025110E+03  0.7546771E-02  0.1147638E+00
         21   -1    0    0  502  501  0.00000000000E+00  0.00000000000E+00  0.30697933680E+02  0.30697933680E+02  0.00000000000E+00 0.  1.
         21   -1    0    0  501  502 -0.00000000000E+00 -0.00000000000E+00 -0.13359429881E+04  0.13359429881E+04  0.00000000000E+00 0.  1.
         25    1    1    2    0    0 -0.26320057465E+02  0.11599931423E+03 -0.29493559796E+03  0.34170249234E+03  0.12500000000E+03 0.  0.
         25    1    1    2    0    0  0.26320057465E+02 -0.11599931423E+03 -0.10103094565E+04  0.10249384294E+04  0.12500000000E+03 0.  0.
</event>
<event>
 4    0  0.2230743E-002  0.2126789E+03  0.7546771E-02  0.1139462E+00
         21   -1    0    0  502  501  0.00000000000E+00  0.00000000000E+00  0.33259342727E+03  0.33259342727E+03  0.00000000000E+00 0.  1.
         21   -1    0    0  501  502 -0.00000000000E+00 -0.00000000000E+00 -0.13599881834E+03  0.13599881834E+03  0.00000000000E+00 0.  1.
         25    1    1    2    0    0 -0.24623447158E+02  0.11810845161E+03 -0.36856739632E+02  0.17759318610E+03  0.12500000000E+03 0.  0.
         25    1    1    2    0    0  0.24623447158E+02 -0.11810845161E+03  0.23345134856E+03  0.29099905951E+03  0.12500000000E+03 0.  0.
</event>
<event>
 4    0  0.2230743E-002  0.2436752E+03  0.7546771E-02  0.1117368E+00
         21   -1    0    0  502  501  0.00000000000E+00  0.00000000000E+00  0.25834473847E+03  0.25834473847E+03  0.00000000000E+00 0. -1.
         21   -1    0    0  501  502 -0.00000000000E+00 -0.00000000000E+00 -0.22983869345E+03  0.22983869345E+03  0.00000000000E+00 0. -1.
         25    1    1    2    0    0  0.68152638630E+02  0.19772899846E+03  0.17587099240E+02  0.24428639963E+03  0.12500000000E+03 0.  0.
         25    1    1    2    0    0 -0.68152638630E+02 -0.19772899846E+03  0.10918945779E+02  0.24389703229E+03  0.12500000000E+03 0.  0.
</event>
<event>
 4    0  0.2230743E-002  0.2406152E+03  0.7546771E-02  0.1119384E+00
         21   -1    0    0  502  501  0.00000000000E+00  0.00000000000E+00  0.29164678289E+03  0.29164678289E+03  0.00000000000E+00 0. -1.
         21   -1    0    0  501  502 -0.00000000000E+00 -0.00000000000E+00 -0.19851302394E+03  0.19851302394E+03  0.00000000000E+00 0. -1.
         25    1    1    2    0    0  0.14984476428E+03  0.99574860290E+02  0.14792248855E+03  0.26433817129E+03  0.12500000000E+03 0.  0.
         25    1    1    2    0    0 -0.14984476428E+03 -0.99574860290E+02 -0.54788729598E+02  0.22582163553E+03  0.12500000000E+03 0.  0.
</event>
<event>
 4    0  0.2230743E-002  0.2400876E+03  0.7546771E-02  0.1119734E+00
         21   -1    0    0  502  501  0.00000000000E+00  0.00000000000E+00  0.25472392330E+03  0.25472392330E+03  0.00000000000E+00 0. -1.
         21   -1    0    0  501  502 -0.00000000000E+00 -0.00000000000E+00 -0.22629230516E+03  0.22629230516E+03  0.00000000000E+00 0. -1.
         25    1    1    2    0    0 -0.52305591850E+02  0.19096024887E+03 -0.38937203099E+02  0.23736637793E+03  0.12500000000E+03 0.  0.
         25    1    1    2    0    0  0.52305591850E+02 -0.19096024887E+03  0.67368821235E+02  0.24364985053E+03  0.12500000000E+03 0.  0.
</event>
<event>
 4    0  0.2230743E-002  0.2178270E+03  0.7546771E-02  0.1135514E+00
         21   -1    0    0  502  501  0.00000000000E+00  0.00000000000E+00  0.14862939720E+04  0.14862939720E+04  0.00000000000E+00 0. -1.
         21   -1    0    0  501  502 -0.00000000000E+00 -0.00000000000E+00 -0.31924103224E+02  0.31924103224E+02  0.00000000000E+00 0. -1.
         25    1    1    2    0    0 -0.14673742827E+03  0.93169792841E+02  0.86706514070E+03  0.89310662374E+03  0.12500000000E+03 0.  0.
         25    1    1    2    0    0  0.14673742827E+03 -0.93169792841E+02  0.58730472803E+03  0.62511145144E+03  0.12500000000E+03 0.  0.
</event>
<event>
 4    0  0.2230743E-002  0.3632243E+03  0.7546771E-02  0.1057314E+00
         21   -1    0    0  502  501  0.00000000000E+00  0.00000000000E+00  0.15724915176E+03  0.15724915176E+03  0.00000000000E+00 0.  1.
         21   -1    0    0  501  502 -0.00000000000E+00 -0.00000000000E+00 -0.83899891299E+03  0.83899891299E+03  0.00000000000E+00 0. -1.
         25    1    1    2    0    0  0.10566074143E+03  0.31269646170E+03 -0.45855623951E+03  0.57865541925E+03  0.12500000000E+03 0.  0.
         25    1    1    2    0    0 -0.10566074143E+03 -0.31269646170E+03 -0.22319352172E+03  0.41759264550E+03  0.12500000000E+03 0.  0.
</event>
<event>
 4    0  0.2230743E-002  0.2234968E+03  0.7546771E-02  0.1131303E+00
         21   -1    0    0  502  501  0.00000000000E+00  0.00000000000E+00  0.44439171523E+02  0.44439171523E+02  0.00000000000E+00 0.  1.
         21   -1    0    0  501  502 -0.00000000000E+00 -0.00000000000E+00 -0.11240270712E+04  0.11240270712E+04  0.00000000000E+00 0.  1.
         25    1    1    2    0    0  0.16380603564E+03 -0.44580700679E+02 -0.73376278354E+03  0.76344788866E+03  0.12500000000E+03 0.  0.
         25    1    1    2    0    0 -0.16380603564E+03  0.44580700679E+02 -0.34582511616E+03  0.40501835409E+03  0.12500000000E+03 0.  0.
</event>
<event>
 4    0  0.2230743E-002  0.2291654E+03  0.7546771E-02  0.1127229E+00
         21   -1    0    0  502  501  0.00000000000E+00  0.00000000000E+00  0.60828677165E+02  0.60828677165E+02  0.00000000000E+00 0. -1.
         21   -1    0    0  501  502 -0.00000000000E+00 -0.00000000000E+00 -0.86335582951E+03  0.86335582951E+03  0.00000000000E+00 0. -1.
         25    1    1    2    0    0  0.54043433503E+02  0.85332323415E+02 -0.71843725103E+02  0.17603641374E+03  0.12500000000E+03 0.  0.
         25    1    1    2    0    0 -0.54043433503E+02 -0.85332323415E+02 -0.73068342725E+03  0.74814809294E+03  0.12500000000E+03 0.  0.
</event>
<event>
 4    0  0.2230743E-002  0.2380364E+03  0.7546771E-02  0.1121108E+00
         21   -1    0    0  502  501  0.00000000000E+00  0.00000000000E+00  0.12419059465E+04  0.12419059465E+04  0.00000000000E+00 0.  1.
         21   -1    0    0  501  502 -0.00000000000E+00 -0.00000000000E+00 -0.45624493598E+02  0.45624493598E+02  0.00000000000E+00 0.  1.
         25    1    1    2    0    0  0.44203021797E+01 -0.49798022908E+02  0.67228428841E+02  0.15047937999E+03  0.12500000000E+03 0.  0.
         25    1    1    2    0    0 -0.44203021797E+01  0.49798022908E+02  0.11290530241E+04  0.11370510601E+04  0.12500000000E+03 0.  0.
</event>
<event>
 4    0  0.2230743E-002  0.1909201E+03  0.7546771E-02  0.1157634E+00
         21   -1    0    0  502  501  0.00000000000E+00  0.00000000000E+00  0.70106544039E+02  0.70106544039E+02  0.00000000000E+00 0. -1.
         21   -1    0    0  501  502 -0.00000000000E+00 -0.00000000000E+00 -0.51992992287E+03  0.51992992287E+03  0.00000000000E+00 0. -1.
         25    1    1    2    0    0  0.57474311627E+02  0.24256785118E+02 -0.23829127333E+02  0.14171984840E+03  0.12500000000E+03 0.  0.
         25    1    1    2    0    0 -0.57474311627E+02 -0.24256785118E+02 -0.42599425150E+03  0.44831661851E+03  0.12500000000E+03 0.  0.
</event>
<event>
 4    0  0.2230743E-002  0.1710297E+03  0.7546771E-02  0.1176778E+00
         21   -1    0    0  502  501  0.00000000000E+00  0.00000000000E+00  0.13188603079E+04  0.13188603079E+04  0.00000000000E+00 0.  1.
         21   -1    0    0  501  502 -0.00000000000E+00 -0.00000000000E+00 -0.22179106719E+02  0.22179106719E+02  0.00000000000E+00 0.  1.
         25    1    1    2    0    0  0.45533999616E+02 -0.89659085350E+02  0.88074475841E+03  0.89523651968E+03  0.12500000000E+03 0.  0.
         25    1    1    2    0    0 -0.45533999616E+02  0.89659085350E+02  0.41593644274E+03  0.44580289491E+03  0.12500000000E+03 0.  0.
</event>
<event>
 4    0  0.2230743E-002  0.1848610E+03  0.7546771E-02  0.1163180E+00
         21   -1    0    0  502  501  0.00000000000E+00  0.00000000000E+00  0.83242994744E+03  0.83242994744E+03  0.00000000000E+00 0.  1.
         21   -1    0    0  501  502 -0.00000000000E+00 -0.00000000000E+00 -0.41052833011E+02  0.41052833011E+02  0.00000000000E+00 0.  1.
         25    1    1    2    0    0 -0.27888131642E+02 -0.11548297302E+03  0.23836152239E+03  0.29420278771E+03  0.12500000000E+03 0.  0.
         25    1    1    2    0    0  0.27888131642E+02  0.11548297302E+03  0.55301559205E+03  0.57927999274E+03  0.12500000000E+03 0.  0.
</event>
<event>
 4    0  0.2230743E-002  0.2922959E+03  0.7546771E-02  0.1089157E+00
         21   -1    0    0  502  501  0.00000000000E+00  0.00000000000E+00  0.14215883585E+04  0.14215883585E+04  0.00000000000E+00 0.  1.
         21   -1    0    0  501  502 -0.00000000000E+00 -0.00000000000E+00 -0.60099589189E+02  0.60099589189E+02  0.00000000000E+00 0.  1.
         25    1    1    2    0    0 -0.11969132566E+02  0.26345886806E+03  0.72145882493E+03  0.77825553089E+03  0.12500000000E+03 0.  0.
         25    1    1    2    0    0  0.11969132566E+02 -0.26345886806E+03  0.64002994438E+03  0.70343241680E+03  0.12500000000E+03 0.  0.
</event>
<event>
 4    0  0.2230743E-002  0.3311811E+03  0.7546771E-02  0.1070615E+00
         21   -1    0    0  502  501  0.00000000000E+00  0.00000000000E+00  0.37894701030E+03  0.37894701030E+03  0.00000000000E+00 0.  1.
         21   -1    0    0  501  502 -0.00000000000E+00 -0.00000000000E+00 -0.28943606456E+03  0.28943606456E+03  0.00000000000E+00 0.  1.
         25    1    1    2    0    0 -0.16771160048E+03 -0.25669346191E+03  0.50911501835E+02  0.33501596282E+03  0.12500000000E+03 0.  0.
         25    1    1    2    0    0  0.16771160048E+03  0.25669346191E+03  0.38599443904E+02  0.33336711205E+03  0.12500000000E+03 0.  0.
</event>
<event>
 4    0  0.2230743E-002  0.3617458E+03  0.7546771E-02  0.1057895E+00
         21   -1    0    0  502  501  0.00000000000E+00  0.00000000000E+00  0.24844924264E+03  0.24844924264E+03  0.00000000000E+00 0.  1.
         21   -1    0    0  501  502 -0.00000000000E+00 -0.00000000000E+00 -0.52670724268E+03  0.52670724268E+03  0.00000000000E+00 0.  1.
         25    1    1    2    0    0  0.14459008864E+03  0.25150492618E+03 -0.32799528752E+03  0.45537559252E+03  0.12500000000E+03 0.  0.
         25    1    1    2    0    0 -0.14459008864E+03 -0.25150492618E+03  0.49737287485E+02  0.31978089279E+03  0.12500000000E+03 0.  0.
</event>
<event>
 4    0  0.2230743E-002  0.1919503E+03  0.7546771E-02  0.1156714E+00
         21   -1    0    0  502  501  0.00000000000E+00  0.00000000000E+00  0.54380901941E+03  0.54380901941E+03  0.00000000000E+00 0. -1.
         21   -1    0    0  501  502 -0.00000000000E+00 -0.00000000000E+00 -0.67753402690E+02  0.67753402690E+02  0.00000000000E+00 0. -1.
         25    1    1    2    0    0  0.67360200752E+02 -0.35346004082E+02  0.43592957705E+03  0.45983294010E+03  0.12500000000E+03 0.  0.
         25    1    1    2    0    0 -0.67360200752E+02  0.35346004082E+02  0.40126039672E+02  0.15172948201E+03  0.12500000000E+03 0.  0.
</event>
<event>
 4    0  0.2230743E-002  0.2210988E+03  0.7546771E-02  0.1133067E+00
         21   -1    0    0  502  501  0.00000000000E+00  0.00000000000E+00  0.35542602410E+03  0.35542602410E+03  0.00000000000E+00 0.  1.
         21   -1    0    0  501  502 -0.00000000000E+00 -0.00000000000E+00 -0.13753822163E+03  0.13753822163E+03  0.00000000000E+00 0.  1.
         25    1    1    2    0    0 -0.36221528598E+02  0.68959364070E+02 -0.74888409249E+02  0.16522913444E+03  0.12500000000E+03 0.  0.
         25    1    1    2    0    0  0.36221528598E+02 -0.68959364070E+02  0.29277621172E+03  0.32773511129E+03  0.12500000000E+03 0.  0.
</event>
<event>
 4    0  0.2230743E-002  0.1768736E+03  0.7546771E-02  0.1170864E+00
         21   -1    0    0  502  501  0.00000000000E+00  0.00000000000E+00  0.11056700633E+04  0.11056700633E+04  0.00000000000E+00 0.  1.
         21   -1    0    0  501  502 -0.00000000000E+00 -0.00000000000E+00 -0.28294393552E+02  0.28294393552E+02  0.00000000000E+00 0.  1.
         25    1    1    2    0    0  0.11227228270E+03  0.57773356271E+01  0.36250282287E+03  0.39958946390E+03  0.12500000000E+03 0.  0.
         25    1    1    2    0    0 -0.11227228270E+03 -0.57773356271E+01  0.71487284689E+03  0.73437499297E+03  0.12500000000E+03 0.  0.
</event>
<event>
 4    0  0.2230743E-002  0.3000777E+03  0.7546771E-02  0.1085202E+00
         21   -1    0    0  502  501  0.00000000000E+00  0.00000000000E+00  0.29960117258E+03  0.29960117258E+03  0.00000000000E+00 0.  1.
         21   -1    0    0  501  502 -0.00000000000E+00 -0.00000000000E+00 -0.30055500217E+03  0.30055500217E+03  0.00000000000E+00 0.  1.
         25    1    1    2    0    0 -0.78461665645E+01 -0.26860156761E+03 -0.47522341912E+02  0.30015285678E+03  0.12500000000E+03 0.  0.
         25    1    1    2    0    0  0.78461665645E+01  0.26860156761E+03  0.46568512319E+02  0.30000331797E+03  0.12500000000E+03 0.  0.
</event>
<event>
 4    0  0.2230743E-002  0.2037030E+03  0.7546771E-02  0.1146652E+00
         21   -1    0    0  502  501  0.00000000000E+00  0.00000000000E+00  0.67256299697E+03  0.67256299697E+03  0.00000000000E+00 0. -1.
         21   -1    0    0  501  502 -0.00000000000E+00 -0.00000000000E+00 -0.61696696280E+02  0.61696696280E+02  0.00000000000E+00 0. -1.
         25    1    1    2    0    0 -0.78228493967E+02 -0.54021378650E+02  0.53925706768E+03  0.56165931992E+03  0.12500000000E+03 0.  0.
         25    1    1    2    0    0  0.78228493967E+02  0.54021378650E+02  0.71609233016E+02  0.17260037333E+03  0.12500000000E+03 0.  0.
</event>
<event>
 4    0  0.2230743E-002  0.2300587E+03  0.7546771E-02  0.1126598E+00
         21   -1    0    0  502  501  0.00000000000E+00  0.00000000000E+00  0.33094598440E+04  0.33094598440E+04  0.00000000000E+00 0. -1.
         21   -1    0    0  501  502 -0.00000000000E+00 -0.00000000000E+00 -0.15992636474E+02  0.15992636474E+02  0.00000000000E+00 0. -1.
         25    1    1    2    0    0 -0.13161511365E+03 -0.51504223982E+02  0.25980848739E+04  0.26049271075E+04  0.12500000000E+03 0.  0.
         25    1    1    2    0    0  0.13161511365E+03  0.51504223982E+02  0.69538233362E+03  0.72052537300E+03  0.12500000000E+03 0.  0.
</event>
<event>
 4    0  0.2230743E-002  0.2339842E+03  0.7546771E-02  0.1123867E+00
         21   -1    0    0  502  501  0.00000000000E+00  0.00000000000E+00  0.70521340730E+02  0.70521340730E+02  0.00000000000E+00 0. -1.
         21   -1    0    0  501  502 -0.00000000000E+00 -0.00000000000E+00 -0.77634073772E+03  0.77634073772E+03  0.00000000000E+00 0. -1.
         25    1    1    2    0    0 -0.94099804811E+01  0.52479589999E+02 -0.69760507266E+03  0.71071829334E+03  0.12500000000E+03 0.  0.
         25    1    1    2    0    0  0.94099804811E+01 -0.52479589999E+02 -0.82143243357E+01  0.13614378511E+03  0.12500000000E+03 0.  0.
</event>
<event>
 4    0  0.2230743E-002  0.1822646E+03  0.7546771E-02  0.1165629E+00
         21   -1    0    0  502  501  0.00000000000E+00  0.00000000000E+00  0.56242421520E+03  0.56242421520E+03  0.00000000000E+00 0.  1.
         21   -1    0    0  501  502 -0.00000000000E+00 -0.00000000000E+00 -0.59066417035E+02  0.59066417035E+02  0.00000000000E+00 0.  1.
         25    1    1    2    0    0 -0.95924186438E+02  0.31562721388E+02  0.10503923368E+03  0.19197889347E+03  0.12500000000E+03 0.  0.
         25    1    1    2    0    0  0.95924186438E+02 -0.31562721388E+02  0.39831856448E+03  0.42951173876E+03  0.12500000000E+03 0.  0.
</event>
<event>
 4    0  0.2230743E-002  0.3097830E+03  0.7546771E-02  0.1080450E+00
         21   -1    0    0  502  501  0.00000000000E+00  0.00000000000E+00  0.16160650673E+04  0.16160650673E+04  0.00000000000E+00 0.  1.
         21   -1    0    0  501  502 -0.00000000000E+00 -0.00000000000E+00 -0.59382200528E+02  0.59382200528E+02  0.00000000000E+00 0.  1.
         25    1    1    2    0    0 -0.18165858084E+03  0.20023257153E+03  0.54812324717E+03  0.62382450800E+03  0.12500000000E+03 0.  0.
         25    1    1    2    0    0  0.18165858084E+03 -0.20023257153E+03  0.10085596196E+04  0.10516227598E+04  0.12500000000E+03 0.  0.
</event>
<event>
 4    0  0.2230743E-002  0.2292348E+03  0.7546771E-02  0.1127180E+00
         21   -1    0    0  502  501  0.00000000000E+00  0.00000000000E+00  0.83662608217E+02  0.83662608217E+02  0.00000000000E+00 0.  1.
         21   -1    0    0  501  502 -0.00000000000E+00 -0.00000000000E+00 -0.62810125138E+03  0.62810125138E+03  0.00000000000E+00 0.  1.
         25    1    1    2    0    0 -0.20944976817E+02 -0.73253204277E+02 -0.54608479362E+03  0.56536565674E+03  0.12500000000E+03 0.  0.
         25    1    1    2    0    0  0.20944976817E+02  0.73253204277E+02  0.16461504557E+01  0.14639820286E+03  0.12500000000E+03 0.  0.
</event>
<event>
 4    0  0.2230743E-002  0.1725318E+03  0.7546771E-02  0.1175233E+00
         21   -1    0    0  502  501  0.00000000000E+00  0.00000000000E+00  0.11840563869E+03  0.11840563869E+03  0.00000000000E+00 0. -1.
         21   -1    0    0  501  502 -0.00000000000E+00 -0.00000000000E+00 -0.25140024046E+03  0.25140024046E+03  0.00000000000E+00 0. -1.
         25    1    1    2    0    0  0.68740671762E+02  0.96856598749E+02 -0.60091652395E+02  0.18259925346E+03  0.12500000000E+03 0.  0.
         25    1    1    2    0    0 -0.68740671762E+02 -0.96856598749E+02 -0.72902949370E+02  0.18720662569E+03  0.12500000000E+03 0.  0.
</event>
<event>
 4    0  0.2230743E-002  0.2463113E+03  0.7546771E-02  0.1115658E+00
         21   -1    0    0  502  501  0.00000000000E+00  0.00000000000E+00  0.24543619137E+03  0.24543619137E+03  0.00000000000E+00 0.  1.
         21   -1    0    0  501  502 -0.00000000000E+00 -0.00000000000E+00 -0.24718953674E+03  0.24718953674E+03  0.00000000000E+00 0.  1.
         25    1    1    2    0    0  0.92604362278E+02 -0.18932544038E+03  0.24114847169E+02  0.24622391465E+03  0.12500000000E+03 0.  0.
         25    1    1    2    0    0 -0.92604362278E+02  0.18932544038E+03 -0.25868192540E+02  0.24640181346E+03  0.12500000000E+03 0.  0.
</event>
<event>
 4    0  0.2230743E-002  0.2618473E+03  0.7546771E-02  0.1106038E+00
         21   -1    0    0  502  501  0.00000000000E+00  0.00000000000E+00  0.38234852748E+03  0.38234852748E+03  0.00000000000E+00 0. -1.
         21   -1    0    0  501  502 -0.00000000000E+00 -0.00000000000E+00 -0.17932336800E+03  0.17932336800E+03  0.00000000000E+00 0. -1.
         25    1    1    2    0    0  0.47233888169E+02 -0.66155594106E+02  0.33236921543E+03  0.36428271739E+03  0.12500000000E+03 0.  0.
         25    1    1    2    0    0 -0.47233888169E+02  0.66155594106E+02 -0.12934405595E+03  0.19738917810E+03  0.12500000000E+03 0.  0.
</event>
<event>
 4    0  0.2230743E-002  0.2194075E+03  0.7546771E-02  0.1134326E+00
         21   -1    0    0  502  501  0.00000000000E+00  0.00000000000E+00  0.57024052448E+02  0.57024052448E+02  0.00000000000E+00 0. -1.
         21   -1    0    0  501  502 -0.00000000000E+00 -0.00000000000E+00 -0.84419940596E+03  0.84419940596E+03  0.00000000000E+00 0. -1.
         25    1    1    2    0    0  0.15973375792E+03 -0.63758314985E+02 -0.50484559823E+03  0.54779017352E+03  0.12500000000E+03 0.  0.
         25    1    1    2    0    0 -0.15973375792E+03  0.63758314985E+02 -0.28232975527E+03  0.35343328488E+03  0.12500000000E+03 0.  0.
</event>
<event>
 4    0  0.2230743E-002  0.1660207E+03  0.7546771E-02  0.1182062E+00
         21   -1    0    0  502  501  0.00000000000E+00  0.00000000000E+00  0.42563052475E+03  0.42563052475E+03  0.00000000000E+00 0. -1.
         21   -1    0    0  501  502 -0.00000000000E+00 -0.00000000000E+00 -0.64757733400E+02  0.64757733400E+02  0.00000000000E+00 0. -1.
         25    1    1    2    0    0  0.71286627742E+02 -0.31163951706E+02  0.67139725821E+02  0.16182001719E+03  0.12500000000E+03 0.  0.
         25    1    1    2    0    0 -0.71286627742E+02  0.31163951706E+02  0.29373306553E+03  0.32856824096E+03  0.12500000000E+03 0.  0.
</event>
<event>
 4    0  0.2230743E-002  0.2979019E+03  0.7546771E-02  0.1086294E+00
         21   -1    0    0  502  501  0.00000000000E+00  0.00000000000E+00  0.86168489680E+02  0.86168489680E+02  0.00000000000E+00 0. -1.
         21   -1    0    0  501  502 -0.00000000000E+00 -0.00000000000E+00 -0.10299072854E+04  0.10299072854E+04  0.00000000000E+00 0. -1.
         25    1    1    2    0    0 -0.10029184723E+02 -0.21248572821E+03 -0.78459050703E+03  0.82247068821E+03  0.12500000000E+03 0.  0.
         25    1    1    2    0    0  0.10029184723E+02  0.21248572821E+03 -0.15914828867E+03  0.29360508686E+03  0.12500000000E+03 0.  0.
</event>
<event>
 4    0  0.2230743E-002  0.2054358E+03  0.7546771E-02  0.1145232E+00
         21   -1    0    0  502  501  0.00000000000E+00  0.00000000000E+00  0.21079322529E+03  0.21079322529E+03  0.00000000000E+00 0.  1.
         21   -1    0    0  501  502 -0.00000000000E+00 -0.00000000000E+00 -0.20021449204E+03  0.20021449204E+03  0.00000000000E+00 0.  1.
         25    1    1    2    0    0 -0.15795269146E+03 -0.38393765205E+02 -0.71937344748E+01  0.20518256203E+03  0.12500000000E+03 0.  0.
         25    1    1    2    0    0  0.15795269146E+03  0.38393765205E+02  0.17772467721E+02  0.20582515530E+03  0.12500000000E+03 0.  0.
</event>
<event>
 4    0  0.2230743E-002  0.2078805E+03  0.7546771E-02  0.1143256E+00
         21   -1    0    0  502  501  0.00000000000E+00  0.00000000000E+00  0.17499977485E+03  0.17499977485E+03  0.00000000000E+00 0.  1.
         21   -1    0    0  501  502 -0.00000000000E+00 -0.00000000000E+00 -0.24693908927E+03  0.24693908927E+03  0.00000000000E+00 0.  1.
         25    1    1    2    0    0 -0.92553660680E+02  0.13359520146E+03 -0.70763605267E+02  0.21690169614E+03  0.12500000000E+03 0.  0.
         25    1    1    2    0    0  0.92553660680E+02 -0.13359520146E+03 -0.11757091499E+01  0.20503716797E+03  0.12500000000E+03 0.  0.
</event>
<event>
 4    0  0.2230743E-002  0.2078051E+03  0.7546771E-02  0.1143316E+00
         21   -1    0    0  502  501  0.00000000000E+00  0.00000000000E+00  0.14912135001E+03  0.14912135001E+03  0.00000000000E+00 0.  1.
         21   -1    0    0  501  502 -0.00000000000E+00 -0.00000000000E+00 -0.28958280111E+03  0.28958280111E+03  0.00000000000E+00 0.  1.
         25    1    1    2    0    0 -0.15697864914E+03 -0.51187145185E+02 -0.88377811788E+02  0.22516229199E+03  0.12500000000E+03 0.  0.
         25    1    1    2    0    0  0.15697864914E+03  0.51187145185E+02 -0.52083639312E+02  0.21354185913E+03  0.12500000000E+03 0.  0.
</event>
<event>
 4    0  0.2230743E-002  0.1832706E+03  0.7546771E-02  0.1164675E+00
         21   -1    0    0  502  501  0.00000000000E+00  0.00000000000E+00  0.93171522260E+02  0.93171522260E+02  0.00000000000E+00 0. -1.
         21   -1    0    0  501  502 -0.00000000000E+00 -0.00000000000E+00 -0.36049773704E+03  0.36049773704E+03  0.00000000000E+00 0. -1.
         25    1    1    2    0    0 -0.65082562784E+01 -0.10038264938E+03 -0.24328259116E+03  0.29142829797E+03  0.12500000000E+03 0.  0.
         25    1    1    2    0    0  0.65082562784E+01  0.10038264938E+03 -0.24043623619E+02  0.16224096133E+03  0.12500000000E+03 0.  0.
</event>
<event>
 4    0  0.2230743E-002  0.2117843E+03  0.7546771E-02  0.1140161E+00
         21   -1    0    0  502  501  0.00000000000E+00  0.00000000000E+00  0.17246112604E+04  0.17246112604E+04  0.00000000000E+00 0.  1.
         21   -1    0    0  501  502 -0.00000000000E+00 -0.00000000000E+00 -0.26007352134E+02  0.26007352134E+02  0.00000000000E+00 0.  1.
         25    1    1    2    0    0 -0.28665433742E+02  0.16062252619E+03  0.63830435426E+03  0.67058090614E+03  0.12500000000E+03 0.  0.
         25    1    1    2    0    0  0.28665433742E+02 -0.16062252619E+03  0.10602995540E+04  0.10800377064E+04  0.12500000000E+03 0.  0.
</event>
<event>
 4    0  0.2230743E-002  0.2086030E+03  0.7546771E-02  0.1142677E+00
         21   -1    0    0  502  501  0.00000000000E+00  0.00000000000E+00  0.30779917009E+04  0.30779917009E+04  0.00000000000E+00 0.  1.
         21   -1    0    0  501  502 -0.00000000000E+00 -0.00000000000E+00 -0.14137528555E+02  0.14137528555E+02  0.00000000000E+00 0.  1.
         25    1    1    2    0    0 -0.13579550612E+03  0.74762160719E+02  0.19924201210E+04  0.20023468078E+04  0.12500000000E+03 0.  0.
         25    1    1    2    0    0  0.13579550612E+03 -0.74762160719E+02  0.10714340514E+04  0.10897824217E+04  0.12500000000E+03 0.  0.
</event>
<event>
 4    0  0.2230743E-002  0.2919710E+03  0.7546771E-02  0.1089325E+00
         21   -1    0    0  502  501  0.00000000000E+00  0.00000000000E+00  0.31515446887E+03  0.31515446887E+03  0.00000000000E+00 0. -1.
         21   -1    0    0  501  502 -0.00000000000E+00 -0.00000000000E+00 -0.27049287554E+03  0.27049287554E+03  0.00000000000E+00 0. -1.
         25    1    1    2    0    0  0.39143898223E+02 -0.24528587966E+03 -0.66949588808E+02  0.28601513067E+03  0.12500000000E+03 0.  0.
         25    1    1    2    0    0 -0.39143898223E+02  0.24528587966E+03  0.11161118214E+03  0.29963221373E+03  0.12500000000E+03 0.  0.
</event>
<event>
 4    0  0.2230743E-002  0.1929034E+03  0.7546771E-02  0.1155868E+00
         21   -1    0    0  502  501  0.00000000000E+00  0.00000000000E+00  0.95416603966E+03  0.95416603966E+03  0.00000000000E+00 0. -1.
         21   -1    0    0  501  502 -0.00000000000E+00 -0.00000000000E+00 -0.38999213516E+02  0.38999213516E+02  0.00000000000E+00 0. -1.
         25    1    1    2    0    0  0.27746595629E+02 -0.63819302233E+02  0.79068795560E+03  0.80352673884E+03  0.12500000000E+03 0.  0.
         25    1    1    2    0    0 -0.27746595629E+02  0.63819302233E+02  0.12447887055E+03  0.18963851434E+03  0.12500000000E+03 0.  0.
</event>
<event>
 4    0  0.2230743E-002  0.2073643E+03  0.7546771E-02  0.1143670E+00
         21   -1    0    0  502  501  0.00000000000E+00  0.00000000000E+00  0.13391960129E+04  0.13391960129E+04  0.00000000000E+00 0. -1.
         21   -1    0    0  501  502 -0.00000000000E+00 -0.00000000000E+00 -0.32108785335E+02  0.32108785335E+02  0.00000000000E+00 0. -1.
         25    1    1    2    0    0 -0.11054231922E+03  0.47464027055E+02  0.10291277523E+04  0.10436481058E+04  0.12500000000E+03 0.  0.
         25    1    1    2    0    0  0.11054231922E+03 -0.47464027055E+02  0.27795947526E+03  0.32765669242E+03  0.12500000000E+03 0.  0.
</event>
<event>
 4    0  0.2230743E-002  0.2626726E+03  0.7546771E-02  0.1105548E+00
         21   -1    0    0  502  501  0.00000000000E+00  0.00000000000E+00  0.48486878668E+03  0.48486878668E+03  0.00000000000E+00 0. -1.
         21   -1    0    0  501  502 -0.00000000000E+00 -0.00000000000E+00 -0.14230011999E+03  0.14230011999E+03  0.00000000000E+00 0. -1.
         25    1    1    2    0    0 -0.59586500062E+02  0.62010703589E+02  0.42726396349E+03  0.45340420471E+03  0.12500000000E+03 0.  0.
         25    1    1    2    0    0  0.59586500062E+02 -0.62010703589E+02 -0.84695296803E+02  0.17376470197E+03  0.12500000000E+03 0.  0.
</event>
<event>
 4    0  0.2230743E-002  0.2119363E+03  0.7546771E-02  0.1140042E+00
         21   -1    0    0  502  501  0.00000000000E+00  0.00000000000E+00  0.79947758976E+03  0.79947758976E+03  0.00000000000E+00 0.  1.
         21   -1    0    0  501  502 -0.00000000000E+00 -0.00000000000E+00 -0.56182931646E+02  0.56182931646E+02  0.00000000000E+00 0.  1.
         25    1    1    2    0    0 -0.89161943758E+02  0.88173676875E+02  0.13651259210E+03  0.22357356130E+03  0.12500000000E+03 0.  0.
         25    1    1    2    0    0  0.89161943758E+02 -0.88173676875E+02  0.60678206601E+03  0.63208696011E+03  0.12500000000E+03 0.  0.
</event>
<event>
 4    0  0.2230743E-002  0.1775922E+03  0.7546771E-02  0.1170154E+00
         21   -1    0    0  502  501  0.00000000000E+00  0.00000000000E+00  0.50282676521E+02  0.50282676521E+02  0.00000000000E+00 0. -1.
         21   -1    0    0  501  502 -0.00000000000E+00 -0.00000000000E+00 -0.62723369162E+03  0.62723369162E+03  0.00000000000E+00 0. -1.
         25    1    1    2    0    0 -0.52190164288E+02 -0.10077952334E+03 -0.18341255573E+03  0.24928997407E+03  0.12500000000E+03 0.  0.
         25    1    1    2    0    0  0.52190164288E+02  0.10077952334E+03 -0.39353845937E+03  0.42822639407E+03  0.12500000000E+03 0.  0.
</event>
<event>
 4    0  0.2230743E-002  0.2349785E+03  0.7546771E-02  0.1123184E+00
         21   -1    0    0  502  501  0.00000000000E+00  0.00000000000E+00  0.17150439917E+03  0.17150439917E+03  0.00000000000E+00 0.  1.
         21   -1    0    0  501  502 -0.00000000000E+00 -0.00000000000E+00 -0.32194448383E+03  0.32194448383E+03  0.00000000000E+00 0.  1.
         25    1    1    2    0    0 -0.17375373270E+03 -0.41429094015E+02  0.16815198050E+02  0.21866522436E+03  0.12500000000E+03 0.  0.
         25    1    1    2    0    0  0.17375373270E+03  0.41429094015E+02 -0.16725528272E+03  0.27478365864E+03  0.12500000000E+03 0.  0.
</event>
<event>
 4    0  0.2230743E-002  0.1595577E+03  0.7546771E-02  0.1189197E+00
         21   -1    0    0  502  501  0.00000000000E+00  0.00000000000E+00  0.92409772318E+02  0.92409772318E+02  0.00000000000E+00 0. -1.
         21   -1    0    0  501  502 -0.00000000000E+00 -0.00000000000E+00 -0.27549734309E+03  0.27549734309E+03  0.00000000000E+00 0. -1.
         25    1    1    2    0    0 -0.61668351373E+02  0.82021041194E+00 -0.18106970153E+03  0.22850578793E+03  0.12500000000E+03 0.  0.
         25    1    1    2    0    0  0.61668351373E+02 -0.82021041194E+00 -0.20178692430E+01  0.13940132748E+03  0.12500000000E+03 0.  0.
</event>
<event>
 4    0  0.2230743E-002  0.2342346E+03  0.7546771E-02  0.1123694E+00
         21   -1    0    0  502  501  0.00000000000E+00  0.00000000000E+00  0.24813410946E+03  0.24813410946E+03  0.00000000000E+00 0.  1.
         21   -1    0    0  501  502 -0.00000000000E+00 -0.00000000000E+00 -0.22111372568E+03  0.22111372568E+03  0.00000000000E+00 0.  1.
         25    1    1    2    0    0  0.84116709380E+02  0.11630018253E+03 -0.12324328422E+03  0.22674933376E+03  0.12500000000E+03 0.  0.
         25    1    1    2    0    0 -0.84116709380E+02 -0.11630018253E+03  0.15026366800E+03  0.24249850138E+03  0.12500000000E+03 0.  0.
</event>
<event>
 4    0  0.2230743E-002  0.2566836E+03  0.7546771E-02  0.1109152E+00
         21   -1    0    0  502  501  0.00000000000E+00  0.00000000000E+00  0.62539984388E+03  0.62539984388E+03  0.00000000000E+00 0. -1.
         21   -1    0    0  501  502 -0.00000000000E+00 -0.00000000000E+00 -0.10535098669E+03  0.10535098669E+03  0.00000000000E+00 0. -1.
         25    1    1    2    0    0  0.32032549927E+02  0.93819656632E+02  0.54625143743E+03  0.56907279422E+03  0.12500000000E+03 0.  0.
         25    1    1    2    0    0 -0.32032549927E+02 -0.93819656632E+02 -0.26202580239E+02  0.16167803635E+03  0.12500000000E+03 0.  0.
</event>
<event>
 4    0  0.2230743E-002  0.2118853E+03  0.7546771E-02  0.1140082E+00
         21   -1    0    0  502  501  0.00000000000E+00  0.00000000000E+00  0.20209744813E+03  0.20209744813E+03  0.00000000000E+00 0. -1.
         21   -1    0    0  501  502 -0.00000000000E+00 -0.00000000000E+00 -0.22214724993E+03  0.22214724993E+03  0.00000000000E+00 0. -1.
         25    1    1    2    0    0  0.17926652717E+02  0.11772426664E+03  0.11295397373E+03  0.20631036817E+03  0.12500000000E+03 0.  0.
         25    1    1    2    0    0 -0.17926652717E+02 -0.11772426664E+03 -0.13300377553E+03  0.21793432988E+03  0.12500000000E+03 0.  0.
</event>
<event>
 4    0  0.2230743E-002  0.2340565E+03  0.7546771E-02  0.1123817E+00
         21   -1    0    0  502  501  0.00000000000E+00  0.00000000000E+00  0.38547303271E+03  0.38547303271E+03  0.00000000000E+00 0. -1.
         21   -1    0    0  501  502 -0.00000000000E+00 -0.00000000000E+00 -0.14211747618E+03  0.14211747618E+03  0.00000000000E+00 0. -1.
         25    1    1    2    0    0 -0.36480237191E+02  0.16370777546E+03  0.24002643282E+03  0.31838456606E+03  0.12500000000E+03 0.  0.
         25    1    1    2    0    0  0.36480237191E+02 -0.16370777546E+03  0.33291237111E+01  0.20920594284E+03  0.12500000000E+03 0.  0.
</event>
<event>
 4    0  0.2230743E-002  0.2650022E+03  0.7546771E-02  0.1104175E+00
         21   -1    0    0  502  501  0.00000000000E+00  0.00000000000E+00  0.36510698331E+03  0.36510698331E+03  0.00000000000E+00 0. -1.
         21   -1    0    0  501  502 -0.00000000000E+00 -0.00000000000E+00 -0.19234401423E+03  0.19234401423E+03  0.00000000000E+00 0. -1.
         25    1    1    2    0    0 -0.20869339576E+03  0.60221787510E+02  0.17699113932E+03  0.30680687822E+03  0.12500000000E+03 0.  0.
         25    1    1    2    0    0  0.20869339576E+03 -0.60221787510E+02 -0.42281702342E+01  0.25064411932E+03  0.12500000000E+03 0.  0.
</event>
<event>
 4    0  0.2230743E-002  0.1957195E+03  0.7546771E-02  0.1153402E+00
         21   -1    0    0  502  501  0.00000000000E+00  0.00000000000E+00  0.47046829321E+02  0.47046829321E+02  0.00000000000E+00 0.  1.
         21   -1    0    0  501  502 -0.00000000000E+00 -0.00000000000E+00 -0.81421296209E+03  0.81421296209E+03  0.00000000000E+00 0.  1.
         25    1    1    2    0    0 -0.56092445384E+02  0.10123267501E+03 -0.17155116992E+03  0.24176273663E+03  0.12500000000E+03 0.  0.
         25    1    1    2    0    0  0.56092445384E+02 -0.10123267501E+03 -0.59561496285E+03  0.61949705479E+03  0.12500000000E+03 0.  0.
</event>
<event>
 4    0  0.2230743E-002  0.3694986E+03  0.7546771E-02  0.1054885E+00
         21   -1    0    0  502  501  0.00000000000E+00  0.00000000000E+00  0.74606825090E+03  0.74606825090E+03  0.00000000000E+00 0. -1.
         21   -1    0    0  501  502 -0.00000000000E+00 -0.00000000000E+00 -0.18299831328E+03  0.18299831328E+03  0.00000000000E+00 0.  1.
         25    1    1    2    0    0  0.24123319551E+03  0.24442864767E+03  0.34999650061E+03  0.50602506742E+03  0.12500000000E+03 0.  0.
         25    1    1    2    0    0 -0.24123319551E+03 -0.24442864767E+03  0.21307343701E+03  0.42304149676E+03  0.12500000000E+03 0.  0.
</event>
<event>
 4    0  0.2230743E-002  0.1889800E+03  0.7546771E-02  0.1159385E+00
         21   -1    0    0  502  501  0.00000000000E+00  0.00000000000E+00  0.36695446823E+02  0.36695446823E+02  0.00000000000E+00 0. -1.
         21   -1    0    0  501  502 -0.00000000000E+00 -0.00000000000E+00 -0.97323910325E+03  0.97323910325E+03  0.00000000000E+00 0. -1.
         25    1    1    2    0    0  0.73861082698E+02 -0.12092999594E+03 -0.46029119809E+03  0.49756658901E+03  0.12500000000E+03 0.  0.
         25    1    1    2    0    0 -0.73861082698E+02  0.12092999594E+03 -0.47625245834E+03  0.51236796107E+03  0.12500000000E+03 0.  0.
</event>
<event>
 4    0  0.2230743E-002  0.1777762E+03  0.7546771E-02  0.1169973E+00
         21   -1    0    0  502  501  0.00000000000E+00  0.00000000000E+00  0.43292777080E+03  0.43292777080E+03  0.00000000000E+00 0. -1.
         21   -1    0    0  501  502 -0.00000000000E+00 -0.00000000000E+00 -0.73001497054E+02  0.73001497054E+02  0.00000000000E+00 0. -1.
         25    1    1    2    0    0  0.10883683710E+03  0.60433457322E+02  0.14873245128E+03  0.23074661847E+03  0.12500000000E+03 0.  0.
         25    1    1    2    0    0 -0.10883683710E+03 -0.60433457322E+02  0.21119382247E+03  0.27518264938E+03  0.12500000000E+03 0.  0.
</event>
<event>
 4    0  0.2230743E-002  0.1441376E+03  0.7546771E-02  0.1207867E+00
         21   -1    0    0  502  501  0.00000000000E+00  0.00000000000E+00  0.23081850233E+03  0.23081850233E+03  0.00000000000E+00 0.  1.
         21   -1    0    0  501  502 -0.00000000000E+00 -0.00000000000E+00 -0.90008590010E+02  0.90008590010E+02  0.00000000000E+00 0.  1.
         25    1    1    2    0    0 -0.68723534659E+02 -0.19519050332E+02  0.78012833572E+02  0.16375261752E+03  0.12500000000E+03 0.  0.
         25    1    1    2    0    0  0.68723534659E+02  0.19519050332E+02  0.62797078749E+02  0.15707447482E+03  0.12500000000E+03 0.  0.
</event>
<event>
 4    0  0.2230743E-002  0.2529998E+03  0.7546771E-02  0.1111424E+00
         21   -1    0    0  502  501  0.00000000000E+00  0.00000000000E+00  0.11276191301E+03  0.11276191301E+03  0.00000000000E+00 0.  1.
         21   -1    0    0  501  502 -0.00000000000E+00 -0.00000000000E+00 -0.56764650241E+03  0.56764650241E+03  0.00000000000E+00 0.  1.
         25    1    1    2    0    0 -0.66936987418E+02  0.45232327626E+02 -0.50255174538E+03  0.52412763763E+03  0.12500000000E+03 0.  0.
         25    1    1    2    0    0  0.66936987418E+02 -0.45232327626E+02  0.47667155984E+02  0.15628077779E+03  0.12500000000E+03 0.  0.
</event>
<event>
 4    0  0.2230743E-002  0.2069970E+03  0.7546771E-02  0.1143966E+00
         21   -1    0    0  502  501  0.00000000000E+00  0.00000000000E+00  0.29037705787E+02  0.29037705787E+02  0.00000000000E+00 0. -1.
         21   -1    0    0  501  502 -0.00000000000E+00 -0.00000000000E+00 -0.14755908085E+04  0.14755908085E+04  0.00000000000E+00 0.  1.
         25    1    1    2    0    0 -0.67415647217E+02  0.14276735519E+03 -0.54915084171E+03  0.58490942388E+03  0.12500000000E+03 0.  0.
         25    1    1    2    0    0  0.67415647217E+02 -0.14276735519E+03 -0.89740226096E+03  0.91971909036E+03  0.12500000000E+03 0.  0.
</event>
<event>
 4    0  0.2230743E-002  0.1483646E+03  0.7546771E-02  0.1202497E+00
         21   -1    0    0  502  501  0.00000000000E+00  0.00000000000E+00  0.50492149642E+03  0.50492149642E+03  0.00000000000E+00 0. -1.
         21   -1    0    0  501  502 -0.00000000000E+00 -0.00000000000E+00 -0.43595023275E+02  0.43595023275E+02  0.00000000000E+00 0. -1.
         25    1    1    2    0    0  0.66134609767E+02  0.44852722813E+02  0.22839093130E+03  0.27234715136E+03  0.12500000000E+03 0.  0.
         25    1    1    2    0    0 -0.66134609767E+02 -0.44852722813E+02  0.23293554184E+03  0.27616936833E+03  0.12500000000E+03 0.  0.
</event>
<event>
 4    0  0.2230743E-002  0.2892836E+03  0.7546771E-02  0.1090724E+00
         21   -1    0    0  502  501  0.00000000000E+00  0.00000000000E+00  0.21647058338E+03  0.21647058338E+03  0.00000000000E+00 0.  1.
         21   -1    0    0  501  502 -0.00000000000E+00 -0.00000000000E+00 -0.38658840275E+03  0.38658840275E+03  0.00000000000E+00 0.  1.
         25    1    1    2    0    0 -0.15637155147E+03  0.20865574147E+03 -0.93825440543E+02  0.30400245698E+03  0.12500000000E+03 0.  0.
         25    1    1    2    0    0  0.15637155147E+03 -0.20865574147E+03 -0.76292378831E+02  0.29905652915E+03  0.12500000000E+03 0.  0.
</event>
<event>
 4    0  0.2230743E-002  0.2949183E+03  0.7546771E-02  0.1087809E+00
         21   -1    0    0  502  501  0.00000000000E+00  0.00000000000E+00  0.72004920225E+03  0.72004920225E+03  0.00000000000E+00 0.  1.
         21   -1    0    0  501  502 -0.00000000000E+00 -0.00000000000E+00 -0.12079287144E+03  0.12079287144E+03  0.00000000000E+00 0.  1.
         25    1    1    2    0    0 -0.11339862371E+03  0.21933655610E+03  0.15436154454E+03  0.31689155737E+03  0.12500000000E+03 0.  0.
         25    1    1    2    0    0  0.11339862371E+03 -0.21933655610E+03  0.44489478627E+03  0.52395051632E+03  0.12500000000E+03 0.  0.
</event>
<event>
 4    0  0.2230743E-002  0.3224901E+03  0.7546771E-02  0.1074509E+00
         21   -1    0    0  502  501  0.00000000000E+00  0.00000000000E+00  0.15982366297E+04  0.15982366297E+04  0.00000000000E+00 0.  1.
         21   -1    0    0  501  502 -0.00000000000E+00 -0.00000000000E+00 -0.65071620357E+02  0.65071620357E+02  0.00000000000E+00 0.  1.
         25    1    1    2    0    0 -0.10796209938E+03 -0.22101914687E+03  0.11971007105E+04  0.12284870326E+04  0.12500000000E+03 0.  0.
         25    1    1    2    0    0  0.10796209938E+03  0.22101914687E+03  0.33606429880E+03  0.43482121742E+03  0.12500000000E+03 0.  0.
</event>
<event>
 4    0  0.2230743E-002  0.2644604E+03  0.7546771E-02  0.1104493E+00
         21   -1    0    0  502  501  0.00000000000E+00  0.00000000000E+00  0.48323002172E+03  0.48323002172E+03  0.00000000000E+00 0.  1.
         21   -1    0    0  501  502 -0.00000000000E+00 -0.00000000000E+00 -0.14473298368E+03  0.14473298368E+03  0.00000000000E+00 0.  1.
         25    1    1    2    0    0  0.50942444899E+02  0.21728066605E+03  0.89531717072E+02  0.27101097560E+03  0.12500000000E+03 0.  0.
         25    1    1    2    0    0 -0.50942444899E+02 -0.21728066605E+03  0.24896532098E+03  0.35695202980E+03  0.12500000000E+03 0.  0.
</event>
<event>
 4    0  0.2230743E-002  0.1855231E+03  0.7546771E-02  0.1162562E+00
         21   -1    0    0  502  501  0.00000000000E+00  0.00000000000E+00  0.56347357308E+03  0.56347357308E+03  0.00000000000E+00 0.  1.
         21   -1    0    0  501  502 -0.00000000000E+00 -0.00000000000E+00 -0.61083301719E+02  0.61083301719E+02  0.00000000000E+00 0.  1.
         25    1    1    2    0    0 -0.13176402722E+03  0.59426798895E+01  0.18828746359E+03  0.26167583622E+03  0.12500000000E+03 0.  0.
         25    1    1    2    0    0  0.13176402722E+03 -0.59426798895E+01  0.31410280776E+03  0.36288103858E+03  0.12500000000E+03 0.  0.
</event>
<event>
 4    0  0.2230743E-002  0.2180739E+03  0.7546771E-02  0.1135327E+00
         21   -1    0    0  502  501  0.00000000000E+00  0.00000000000E+00  0.62712810339E+02  0.62712810339E+02  0.00000000000E+00 0. -1.
         21   -1    0    0  501  502 -0.00000000000E+00 -0.00000000000E+00 -0.75831789822E+03  0.75831789822E+03  0.00000000000E+00 0. -1.
         25    1    1    2    0    0 -0.69707380085E-01  0.12704270854E+03 -0.58435955604E+03  0.61093448535E+03  0.12500000000E+03 0.  0.
         25    1    1    2    0    0  0.69707380085E-01 -0.12704270854E+03 -0.11124553184E+03  0.21009622321E+03  0.12500000000E+03 0.  0.
</event>
<event>
 4    0  0.2230743E-002  0.2019390E+03  0.7546771E-02  0.1148113E+00
         21   -1    0    0  502  501  0.00000000000E+00  0.00000000000E+00  0.35312507644E+03  0.35312507644E+03  0.00000000000E+00 0.  1.
         21   -1    0    0  501  502 -0.00000000000E+00 -0.00000000000E+00 -0.11548133713E+03  0.11548133713E+03  0.00000000000E+00 0.  1.
         25    1    1    2    0    0  0.64325546922E+01 -0.35051886723E+02 -0.60492339510E+02  0.14336783343E+03  0.12500000000E+03 0.  0.
         25    1    1    2    0    0 -0.64325546922E+01  0.35051886723E+02  0.29813607882E+03  0.32523858015E+03  0.12500000000E+03 0.  0.
</event>
<event>
 4    0  0.2230743E-002  0.1859381E+03  0.7546771E-02  0.1162177E+00
         21   -1    0    0  502  501  0.00000000000E+00  0.00000000000E+00  0.21161996052E+02  0.21161996052E+02  0.00000000000E+00 0. -1.
         21   -1    0    0  501  502 -0.00000000000E+00 -0.00000000000E+00 -0.16337298594E+04  0.16337298594E+04  0.00000000000E+00 0. -1.
         25    1    1    2    0    0 -0.68632611586E+02  0.50751189661E+02 -0.12868523341E+04  0.12957237547E+04  0.12500000000E+03 0.  0.
         25    1    1    2    0    0  0.68632611586E+02 -0.50751189661E+02 -0.32571552919E+03  0.35916810073E+03  0.12500000000E+03 0.  0.
</event>
<event>
 4    0  0.2230743E-002  0.2071272E+03  0.7546771E-02  0.1143861E+00
         21   -1    0    0  502  501  0.00000000000E+00  0.00000000000E+00  0.32519906544E+02  0.32519906544E+02  0.00000000000E+00 0.  1.
         21   -1    0    0  501  502 -0.00000000000E+00 -0.00000000000E+00 -0.13192433144E+04  0.13192433144E+04  0.00000000000E+00 0.  1.
         25    1    1    2    0    0 -0.54473755029E+02  0.15103231979E+03 -0.76967948014E+03  0.79612163251E+03  0.12500000000E+03 0.  0.
         25    1    1    2    0    0  0.54473755029E+02 -0.15103231979E+03 -0.51704392774E+03  0.55564158846E+03  0.12500000000E+03 0.  0.
</event>
<event>
 4    0  0.2230743E-002  0.2100380E+03  0.7546771E-02  0.1141536E+00
         21   -1    0    0  502  501  0.00000000000E+00  0.00000000000E+00  0.95835954058E+03  0.95835954058E+03  0.00000000000E+00 0. -1.
         21   -1    0    0  501  502 -0.00000000000E+00 -0.00000000000E+00 -0.46032805488E+02  0.46032805488E+02  0.00000000000E+00 0. -1.
         25    1    1    2    0    0  0.12970375079E+03  0.92381086765E+01  0.19884075094E+03  0.26846051824E+03  0.12500000000E+03 0.  0.
         25    1    1    2    0    0 -0.12970375079E+03 -0.92381086765E+01  0.71348598415E+03  0.73593182782E+03  0.12500000000E+03 0.  0.
</event>
<event>
 4    0  0.2230743E-002  0.1544984E+03  0.7546771E-02  0.1195052E+00
         21   -1    0    0  502  501  0.00000000000E+00  0.00000000000E+00  0.31521913166E+03  0.31521913166E+03  0.00000000000E+00 0.  1.
         21   -1    0    0  501  502 -0.00000000000E+00 -0.00000000000E+00 -0.75724366471E+02  0.75724366471E+02  0.00000000000E+00 0.  1.
         25    1    1    2    0    0 -0.74131730795E+02 -0.19557739486E+02  0.18129852479E+03  0.23317841619E+03  0.12500000000E+03 0.  0.
         25    1    1    2    0    0  0.74131730795E+02  0.19557739486E+02  0.58196240399E+02  0.15776508194E+03  0.12500000000E+03 0.  0.
</event>
<event>
 4    0  0.2230743E-002  0.2389370E+03  0.7546771E-02  0.1120503E+00
         21   -1    0    0  502  501  0.00000000000E+00  0.00000000000E+00  0.16857916705E+03  0.16857916705E+03  0.00000000000E+00 0.  1.
         21   -1    0    0  501  502 -0.00000000000E+00 -0.00000000000E+00 -0.33865934156E+03  0.33865934156E+03  0.00000000000E+00 0.  1.
         25    1    1    2    0    0  0.12488240200E+03 -0.84984811648E+01  0.85447340423E+02  0.19645377700E+03  0.12500000000E+03 0.  0.
         25    1    1    2    0    0 -0.12488240200E+03  0.84984811648E+01 -0.25552751494E+03  0.31078473161E+03  0.12500000000E+03 0.  0.
</event>
<event>
 4    0  0.2230743E-002  0.2790275E+03  0.7546771E-02  0.1096221E+00
         21   -1    0    0  502  501  0.00000000000E+00  0.00000000000E+00  0.12484305940E+03  0.12484305940E+03  0.00000000000E+00 0. -1.
         21   -1    0    0  501  502 -0.00000000000E+00 -0.00000000000E+00 -0.62363392869E+03  0.62363392869E+03  0.00000000000E+00 0. -1.
         25    1    1    2    0    0  0.17748560462E+03  0.12408816857E+03 -0.83319842585E+02  0.26356443158E+03  0.12500000000E+03 0.  0.
         25    1    1    2    0    0 -0.17748560462E+03 -0.12408816857E+03 -0.41547102671E+03  0.48491255651E+03  0.12500000000E+03 0.  0.
</event>
<event>
 4    0  0.2230743E-002  0.2294663E+03  0.7546771E-02  0.1127016E+00
         21   -1    0    0  502  501  0.00000000000E+00  0.00000000000E+00  0.69778148527E+03  0.69778148527E+03  0.00000000000E+00 0. -1.
         21   -1    0    0  501  502 -0.00000000000E+00 -0.00000000000E+00 -0.75460284057E+02  0.75460284057E+02  0.00000000000E+00 0. -1.
         25    1    1    2    0    0  0.17708370707E+03 -0.32956884955E+02  0.19707371251E+03  0.29480136319E+03  0.12500000000E+03 0.  0.
         25    1    1    2    0    0 -0.17708370707E+03  0.32956884955E+02  0.42524748870E+03  0.47844040613E+03  0.12500000000E+03 0.  0.
</event>
<event>
 4    0  0.2230743E-002  0.3418505E+03  0.7546771E-02  0.1066011E+00
         21   -1    0    0  502  501  0.00000000000E+00  0.00000000000E+00  0.11990251481E+04  0.11990251481E+04  0.00000000000E+00 0.  1.
         21   -1    0    0  501  502 -0.00000000000E+00 -0.00000000000E+00 -0.97463969160E+02  0.97463969160E+02  0.00000000000E+00 0.  1.
         25    1    1    2    0    0 -0.12390416928E+03 -0.51164528898E+02  0.35903297057E+01  0.18332469187E+03  0.12500000000E+03 0.  0.
         25    1    1    2    0    0  0.12390416928E+03  0.51164528898E+02  0.10979708492E+04  0.11131644254E+04  0.12500000000E+03 0.  0.
</event>
<event>
 4    0  0.2230743E-002  0.2482415E+03  0.7546771E-02  0.1114421E+00
         21   -1    0    0  502  501  0.00000000000E+00  0.00000000000E+00  0.47753514248E+02  0.47753514248E+02  0.00000000000E+00 0.  1.
         21   -1    0    0  501  502 -0.00000000000E+00 -0.00000000000E+00 -0.12904569433E+04  0.12904569433E+04  0.00000000000E+00 0.  1.
         25    1    1    2    0    0  0.88455403838E+02  0.90498250147E+02 -0.10880850841E+04  0.11025282046E+04  0.12500000000E+03 0.  0.
         25    1    1    2    0    0 -0.88455403838E+02 -0.90498250147E+02 -0.15461834495E+03  0.23568225292E+03  0.12500000000E+03 0.  0.
</event>
<event>
 4    0  0.2230743E-002  0.1685197E+03  0.7546771E-02  0.1179400E+00
         21   -1    0    0  502  501  0.00000000000E+00  0.00000000000E+00  0.25277041962E+02  0.25277041962E+02  0.00000000000E+00 0. -1.
         21   -1    0    0  501  502 -0.00000000000E+00 -0.00000000000E+00 -0.11235048600E+04  0.11235048600E+04  0.00000000000E+00 0.  1.
         25    1    1    2    0    0 -0.34906640860E+02 -0.60175312264E+02 -0.85272129147E+03  0.86463757882E+03  0.12500000000E+03 0.  0.
         25    1    1    2    0    0  0.34906640860E+02  0.60175312264E+02 -0.24550652652E+03  0.28414432310E+03  0.12500000000E+03 0.  0.
</event>
<event>
 4    0  0.2230743E-002  0.1934937E+03  0.7546771E-02  0.1155347E+00
         21   -1    0    0  502  501  0.00000000000E+00  0.00000000000E+00  0.20719976693E+03  0.20719976693E+03  0.00000000000E+00 0.  1.
         21   -1    0    0  501  502 -0.00000000000E+00 -0.00000000000E+00 -0.18069426202E+03  0.18069426202E+03  0.00000000000E+00 0.  1.
         25    1    1    2    0    0 -0.11851608249E+02 -0.24285401022E+01  0.16079969523E+03  0.20402916559E+03  0.12500000000E+03 0.  0.
         25    1    1    2    0    0  0.11851608249E+02  0.24285401022E+01 -0.13429419033E+03  0.18386486336E+03  0.12500000000E+03 0.  0.
</event>
<event>
 4    0  0.2230743E-002  0.1915709E+03  0.7546771E-02  0.1157052E+00
         21   -1    0    0  502  501  0.00000000000E+00  0.00000000000E+00  0.84359985112E+02  0.84359985112E+02  0.00000000000E+00 0. -1.
         21   -1    0    0  501  502 -0.00000000000E+00 -0.00000000000E+00 -0.43503333237E+03  0.43503333237E+03  0.00000000000E+00 0. -1.
         25    1    1    2    0    0 -0.25805085703E+02  0.14266532334E+03 -0.16527324013E+03  0.25290223573E+03  0.12500000000E+03 0.  0.
         25    1    1    2    0    0  0.25805085703E+02 -0.14266532334E+03 -0.18540010712E+03  0.26649108175E+03  0.12500000000E+03 0.  0.
</event>
<event>
 4    0  0.2230743E-002  0.1865853E+03  0.7546771E-02  0.1161578E+00
         21   -1    0    0  502  501  0.00000000000E+00  0.00000000000E+00  0.13389336376E+03  0.13389336376E+03  0.00000000000E+00 0.  1.
         21   -1    0    0  501  502 -0.00000000000E+00 -0.00000000000E+00 -0.26001344323E+03  0.26001344323E+03  0.00000000000E+00 0.  1.
         25    1    1    2    0    0  0.90081570093E+02  0.96017763346E+02 -0.17597360979E+02  0.18239727866E+03  0.12500000000E+03 0.  0.
         25    1    1    2    0    0 -0.90081570093E+02 -0.96017763346E+02 -0.10852271849E+03  0.21150952834E+03  0.12500000000E+03 0.  0.
</event>
<event>
 4    0  0.2230743E-002  0.2149036E+03  0.7546771E-02  0.1137741E+00
         21   -1    0    0  502  501  0.00000000000E+00  0.00000000000E+00  0.22932499272E+03  0.22932499272E+03  0.00000000000E+00 0.  1.
         21   -1    0    0  501  502 -0.00000000000E+00 -0.00000000000E+00 -0.20138904735E+03  0.20138904735E+03  0.00000000000E+00 0.  1.
         25    1    1    2    0    0 -0.14167030268E+02  0.20597372761E+02 -0.15941034477E+03  0.20411176970E+03  0.12500000000E+03 0.  0.
         25    1    1    2    0    0  0.14167030268E+02 -0.20597372761E+02  0.18734629014E+03  0.22660227038E+03  0.12500000000E+03 0.  0.
</event>
<event>
 4    0  0.2230743E-002  0.1888251E+03  0.7546771E-02  0.1159525E+00
         21   -1    0    0  502  501  0.00000000000E+00  0.00000000000E+00  0.13626912043E+03  0.13626912043E+03  0.00000000000E+00 0.  1.
         21   -1    0    0  501  502 -0.00000000000E+00 -0.00000000000E+00 -0.26165061958E+03  0.26165061958E+03  0.00000000000E+00 0.  1.
         25    1    1    2    0    0 -0.11703887755E+03 -0.38053822591E+02 -0.13632514098E+03  0.22216150957E+03  0.12500000000E+03 0.  0.
         25    1    1    2    0    0  0.11703887755E+03  0.38053822591E+02  0.10943641835E+02  0.17575823044E+03  0.12500000000E+03 0.  0.
</event>
<event>
 4    0  0.2230743E-002  0.3168751E+03  0.7546771E-02  0.1077097E+00
         21   -1    0    0  502  501  0.00000000000E+00  0.00000000000E+00  0.36071609930E+02  0.36071609930E+02  0.00000000000E+00 0. -1.
         21   -1    0    0  501  502 -0.00000000000E+00 -0.00000000000E+00 -0.27836249356E+04  0.27836249356E+04  0.00000000000E+00 0. -1.
         25    1    1    2    0    0  0.22042555600E+03  0.40630367149E+02 -0.22007410114E+04  0.22156543620E+04  0.12500000000E+03 0.  0.
         25    1    1    2    0    0 -0.22042555600E+03 -0.40630367149E+02 -0.54681231423E+03  0.60404218351E+03  0.12500000000E+03 0.  0.
</event>
<event>
 4    0  0.2230743E-002  0.3360980E+03  0.7546771E-02  0.1068470E+00
         21   -1    0    0  502  501  0.00000000000E+00  0.00000000000E+00  0.61551951986E+03  0.61551951986E+03  0.00000000000E+00 0.  1.
         21   -1    0    0  501  502 -0.00000000000E+00 -0.00000000000E+00 -0.18352281100E+03  0.18352281100E+03  0.00000000000E+00 0.  1.
         25    1    1    2    0    0 -0.66571477660E+02 -0.25649966107E+03  0.20265866793E+02  0.29369974996E+03  0.12500000000E+03 0.  0.
         25    1    1    2    0    0  0.66571477660E+02  0.25649966107E+03  0.41173084206E+03  0.50534258090E+03  0.12500000000E+03 0.  0.
</event>
<event>
 4    0  0.2230743E-002  0.1869408E+03  0.7546771E-02  0.1161250E+00
         21   -1    0    0  502  501  0.00000000000E+00  0.00000000000E+00  0.24305608920E+03  0.24305608920E+03  0.00000000000E+00 0. -1.
         21   -1    0    0  501  502 -0.00000000000E+00 -0.00000000000E+00 -0.14378111515E+03  0.14378111515E+03  0.00000000000E+00 0. -1.
         25    1    1    2    0    0 -0.13806530446E+03 -0.60351531782E+01  0.34172158515E+02  0.18944969725E+03  0.12500000000E+03 0.  0.
         25    1    1    2    0    0  0.13806530446E+03  0.60351531782E+01  0.65102815545E+02  0.19738750710E+03  0.12500000000E+03 0.  0.
</event>
<event>
 4    0  0.2230743E-002  0.2179577E+03  0.7546771E-02  0.1135415E+00
         21   -1    0    0  502  501  0.00000000000E+00  0.00000000000E+00  0.75905976947E+02  0.75905976947E+02  0.00000000000E+00 0. -1.
         21   -1    0    0  501  502 -0.00000000000E+00 -0.00000000000E+00 -0.62584739223E+03  0.62584739223E+03  0.00000000000E+00 0. -1.
         25    1    1    2    0    0 -0.15329421656E+03  0.14815061150E+02 -0.12953220508E+03  0.23690123473E+03  0.12500000000E+03 0.  0.
         25    1    1    2    0    0  0.15329421656E+03 -0.14815061150E+02 -0.42040921021E+03  0.46485213444E+03  0.12500000000E+03 0.  0.
</event>
<event>
 4    0  0.2230743E-002  0.1927729E+03  0.7546771E-02  0.1155984E+00
         21   -1    0    0  502  501  0.00000000000E+00  0.00000000000E+00  0.10033137630E+04  0.10033137630E+04  0.00000000000E+00 0.  1.
         21   -1    0    0  501  502 -0.00000000000E+00 -0.00000000000E+00 -0.37038657024E+02  0.37038657024E+02  0.00000000000E+00 0.  1.
         25    1    1    2    0    0  0.12289444728E+03  0.73489419504E+02  0.56985010855E+03  0.60071447974E+03  0.12500000000E+03 0.  0.
         25    1    1    2    0    0 -0.12289444728E+03 -0.73489419504E+02  0.39642499737E+03  0.43963794023E+03  0.12500000000E+03 0.  0.
</event>
<event>
 4    0  0.2230743E-002  0.2273736E+03  0.7546771E-02  0.1128502E+00
         21   -1    0    0  502  501  0.00000000000E+00  0.00000000000E+00  0.21336118119E+03  0.21336118119E+03  0.00000000000E+00 0.  1.
         21   -1    0    0  501  502 -0.00000000000E+00 -0.00000000000E+00 -0.24230619876E+03  0.24230619876E+03  0.00000000000E+00 0.  1.
         25    1    1    2    0    0 -0.14416599072E+00 -0.10808794831E+03  0.14201879622E+03  0.21789301006E+03  0.12500000000E+03 0.  0.
         25    1    1    2    0    0  0.14416599072E+00  0.10808794831E+03 -0.17096381379E+03  0.23777436989E+03  0.12500000000E+03 0.  0.
</event>
<event>
 4    0  0.2230743E-002  0.1688023E+03  0.7546771E-02  0.1179103E+00
         21   -1    0    0  502  501  0.00000000000E+00  0.00000000000E+00  0.34654168147E+02  0.34654168147E+02  0.00000000000E+00 0. -1.
         21   -1    0    0  501  502 -0.00000000000E+00 -0.00000000000E+00 -0.82224482669E+03  0.82224482669E+03  0.00000000000E+00 0. -1.
         25    1    1    2    0    0  0.77435518459E+02  0.81066708779E+02 -0.34974944598E+03  0.38796616573E+03  0.12500000000E+03 0.  0.
         25    1    1    2    0    0 -0.77435518459E+02 -0.81066708779E+02 -0.43784121257E+03  0.46893282911E+03  0.12500000000E+03 0.  0.
</event>
<event>
 4    0  0.2230743E-002  0.3342100E+03  0.7546771E-02  0.1069289E+00
         21   -1    0    0  502  501  0.00000000000E+00  0.00000000000E+00  0.74800433695E+02  0.74800433695E+02  0.00000000000E+00 0. -1.
         21   -1    0    0  501  502 -0.00000000000E+00 -0.00000000000E+00 -0.14932575884E+04  0.14932575884E+04  0.00000000000E+00 0. -1.
         25    1    1    2    0    0 -0.91680815076E+02 -0.26856755944E+03 -0.10016451714E+04  0.10485475456E+04  0.12500000000E+03 0.  0.
         25    1    1    2    0    0  0.91680815076E+02  0.26856755944E+03 -0.41681198328E+03  0.51951047655E+03  0.12500000000E+03 0.  0.
</event>
<event>
 4    0  0.2230743E-002  0.2697056E+03  0.7546771E-02  0.1101448E+00
         21   -1    0    0  502  501  0.00000000000E+00  0.00000000000E+00  0.63128231351E+03  0.63128231351E+03  0.00000000000E+00 0.  1.
         21   -1    0    0  501  502 -0.00000000000E+00 -0.00000000000E+00 -0.11522753603E+03  0.11522753603E+03  0.00000000000E+00 0.  1.
         25    1    1    2    0    0 -0.94634724950E+02  0.16872642460E+03  0.45223129144E+03  0.50750613640E+03  0.12500000000E+03 0.  0.
         25    1    1    2    0    0  0.94634724950E+02 -0.16872642460E+03  0.63823486036E+02  0.23900371314E+03  0.12500000000E+03 0.  0.
</event>
<event>
 4    0  0.2230743E-002  0.1407058E+03  0.7546771E-02  0.1212382E+00
         21   -1    0    0  502  501  0.00000000000E+00  0.00000000000E+00  0.90136327228E+02  0.90136327228E+02  0.00000000000E+00 0. -1.
         21   -1    0    0  501  502 -0.00000000000E+00 -0.00000000000E+00 -0.21964627642E+03  0.21964627642E+03  0.00000000000E+00 0. -1.
         25    1    1    2    0    0 -0.16331742300E+02  0.45828640449E+01  0.38620590707E+01  0.12620476992E+03  0.12500000000E+03 0.  0.
         25    1    1    2    0    0  0.16331742300E+02 -0.45828640449E+01 -0.13337200826E+03  0.18357783373E+03  0.12500000000E+03 0.  0.
</event>
<event>
 4    0  0.2230743E-002  0.2148301E+03  0.7546771E-02  0.1137797E+00
         21   -1    0    0  502  501  0.00000000000E+00  0.00000000000E+00  0.75140302832E+02  0.75140302832E+02  0.00000000000E+00 0. -1.
         21   -1    0    0  501  502 -0.00000000000E+00 -0.00000000000E+00 -0.61421074823E+03  0.61421074823E+03  0.00000000000E+00 0. -1.
         25    1    1    2    0    0 -0.17026379520E+03  0.14698692620E+02 -0.32785215075E+03  0.39027918760E+03  0.12500000000E+03 0.  0.
         25    1    1    2    0    0  0.17026379520E+03 -0.14698692620E+02 -0.21121829465E+03  0.29907186346E+03  0.12500000000E+03 0.  0.
</event>
<event>
 4    0  0.2230743E-002  0.1909721E+03  0.7546771E-02  0.1157587E+00
         21   -1    0    0  502  501  0.00000000000E+00  0.00000000000E+00  0.28731360329E+03  0.28731360329E+03  0.00000000000E+00 0. -1.
         21   -1    0    0  501  502 -0.00000000000E+00 -0.00000000000E+00 -0.12693571676E+03  0.12693571676E+03  0.00000000000E+00 0. -1.
         25    1    1    2    0    0 -0.86294534620E+02  0.48053047611E+02  0.19440261457E+03  0.25134283089E+03  0.12500000000E+03 0.  0.
         25    1    1    2    0    0  0.86294534620E+02 -0.48053047611E+02 -0.34024728044E+02  0.16290648915E+03  0.12500000000E+03 0.  0.
</event>
<event>
 4    0  0.2230743E-002  0.2325072E+03  0.7546771E-02  0.1124887E+00
         21   -1    0    0  502  501  0.00000000000E+00  0.00000000000E+00  0.88199510431E+02  0.88199510431E+02  0.00000000000E+00 0. -1.
         21   -1    0    0  501  502 -0.00000000000E+00 -0.00000000000E+00 -0.61292400145E+03  0.61292400145E+03  0.00000000000E+00 0. -1.
         25    1    1    2    0    0 -0.10315556321E+03  0.66998798538E+02 -0.32191683931E+02  0.17830090785E+03  0.12500000000E+03 0.  0.
         25    1    1    2    0    0  0.10315556321E+03 -0.66998798538E+02 -0.49253280709E+03  0.52282260403E+03  0.12500000000E+03 0.  0.
</event>
<event>
 4    0  0.2230743E-002  0.2191444E+03  0.7546771E-02  0.1134523E+00
         21   -1    0    0  502  501  0.00000000000E+00  0.00000000000E+00  0.48572286304E+03  0.48572286304E+03  0.00000000000E+00 0.  1.
         21   -1    0    0  501  502 -0.00000000000E+00 -0.00000000000E+00 -0.98871720081E+02  0.98871720081E+02  0.00000000000E+00 0.  1.
         25    1    1    2    0    0 -0.17404553876E+03 -0.23332293331E+01  0.25457703349E+03  0.33276381940E+03  0.12500000000E+03 0.  0.
         25    1    1    2    0    0  0.17404553876E+03  0.23332293331E+01  0.13227410947E+03  0.25183076372E+03  0.12500000000E+03 0.  0.
</event>
<event>
 4    0  0.2230743E-002  0.2518712E+03  0.7546771E-02  0.1112128E+00
         21   -1    0    0  502  501  0.00000000000E+00  0.00000000000E+00  0.29302428544E+03  0.29302428544E+03  0.00000000000E+00 0.  1.
         21   -1    0    0  501  502 -0.00000000000E+00 -0.00000000000E+00 -0.21649773077E+03  0.21649773077E+03  0.00000000000E+00 0.  1.
         25    1    1    2    0    0  0.11467603231E+03  0.32737534686E+02 -0.14712011247E+03  0.22691775175E+03  0.12500000000E+03 0.  0.
         25    1    1    2    0    0 -0.11467603231E+03 -0.32737534686E+02  0.22364666715E+03  0.28260426446E+03  0.12500000000E+03 0.  0.
</event>
<event>
 4    0  0.2230743E-002  0.1539279E+03  0.7546771E-02  0.1195728E+00
         21   -1    0    0  502  501  0.00000000000E+00  0.00000000000E+00  0.90067995166E+03  0.90067995166E+03  0.00000000000E+00 0.  1.
         21   -1    0    0  501  502 -0.00000000000E+00 -0.00000000000E+00 -0.26306581906E+02  0.26306581906E+02  0.00000000000E+00 0.  1.
         25    1    1    2    0    0  0.76842956790E+02 -0.64067224865E+00  0.29712785708E+03  0.33138378645E+03  0.12500000000E+03 0.  0.
         25    1    1    2    0    0 -0.76842956790E+02  0.64067224865E+00  0.57724551268E+03  0.59560274712E+03  0.12500000000E+03 0.  0.
</event>
<event>
 4    0  0.2230743E-002  0.3291610E+03  0.7546771E-02  0.1071509E+00
         21   -1    0    0  502  501  0.00000000000E+00  0.00000000000E+00  0.12968316638E+03  0.12968316638E+03  0.00000000000E+00 0.  1.
         21   -1    0    0  501  502 -0.00000000000E+00 -0.00000000000E+00 -0.83547458799E+03  0.83547458799E+03  0.00000000000E+00 0.  1.
         25    1    1    2    0    0 -0.18991824713E+03 -0.18292321034E+03 -0.12962570940E+03  0.31930810514E+03  0.12500000000E+03 0.  0.
         25    1    1    2    0    0  0.18991824713E+03  0.18292321034E+03 -0.57616571221E+03  0.64584964922E+03  0.12500000000E+03 0.  0.
</event>
<event>
 4    0  0.2230743E-002  0.2312304E+03  0.7546771E-02  0.1125777E+00
         21   -1    0    0  502  501  0.00000000000E+00  0.00000000000E+00  0.74572093647E+02  0.74572093647E+02  0.00000000000E+00 0. -1.
         21   -1    0    0  501  502 -0.00000000000E+00 -0.00000000000E+00 -0.71699083305E+03  0.71699083305E+03  0.00000000000E+00 0. -1.
         25    1    1    2    0    0 -0.14735935220E+03 -0.62003004501E+02 -0.13150863847E+03  0.24182364078E+03  0.12500000000E+03 0.  0.
         25    1    1    2    0    0  0.14735935220E+03  0.62003004501E+02 -0.51091010093E+03  0.54973928592E+03  0.12500000000E+03 0.  0.
</event>
<event>
 4    0  0.2230743E-002  0.2301458E+03  0.7546771E-02  0.1126537E+00
         21   -1    0    0  502  501  0.00000000000E+00  0.00000000000E+00  0.32220447290E+03  0.32220447290E+03  0.00000000000E+00 0.  1.
         21   -1    0    0  501  502 -0.00000000000E+00 -0.00000000000E+00 -0.16438963469E+03  0.16438963469E+03  0.00000000000E+00 0.  1.
         25    1    1    2    0    0  0.17985617089E+03  0.53749897421E+02  0.30407903175E+02  0.22756742793E+03  0.12500000000E+03 0.  0.
         25    1    1    2    0    0 -0.17985617089E+03 -0.53749897421E+02  0.12740693504E+03  0.25902667966E+03  0.12500000000E+03 0.  0.
</event>
<event>
 4    0  0.2230743E-002  0.2026574E+03  0.7546771E-02  0.1147516E+00
         21   -1    0    0  502  501  0.00000000000E+00  0.00000000000E+00  0.92689401135E+03  0.92689401135E+03  0.00000000000E+00 0. -1.
         21   -1    0    0  501  502 -0.00000000000E+00 -0.00000000000E+00 -0.44309314711E+02  0.44309314711E+02  0.00000000000E+00 0. -1.
         25    1    1    2    0    0 -0.67706417129E+02 -0.13078993819E+03  0.29446222757E+03  0.35216923534E+03  0.12500000000E+03 0.  0.
         25    1    1    2    0    0  0.67706417129E+02  0.13078993819E+03  0.58812246908E+03  0.61903409073E+03  0.12500000000E+03 0.  0.
</event>
<event>
 4    0  0.2230743E-002  0.2294967E+03  0.7546771E-02  0.1126994E+00
         21   -1    0    0  502  501  0.00000000000E+00  0.00000000000E+00  0.46374477724E+03  0.46374477724E+03  0.00000000000E+00 0.  1.
         21   -1    0    0  501  502 -0.00000000000E+00 -0.00000000000E+00 -0.11357269022E+03  0.11357269022E+03  0.00000000000E+00 0.  1.
         25    1    1    2    0    0  0.89037110957E+02  0.14348926624E+01  0.38970087646E+03  0.41883342650E+03  0.12500000000E+03 0.  0.
         25    1    1    2    0    0 -0.89037110957E+02 -0.14348926624E+01 -0.39528789435E+02  0.15848404096E+03  0.12500000000E+03 0.  0.
</event>
<event>
 4    0  0.2230743E-002  0.3687227E+03  0.7546771E-02  0.1055182E+00
         21   -1    0    0  502  501  0.00000000000E+00  0.00000000000E+00  0.22601681227E+03  0.22601681227E+03  0.00000000000E+00 0. -1.
         21   -1    0    0  501  502 -0.00000000000E+00 -0.00000000000E+00 -0.60153241972E+03  0.60153241972E+03  0.00000000000E+00 0. -1.
         25    1    1    2    0    0  0.34538828744E+03  0.26913639736E+02 -0.16787180701E+03  0.40475098109E+03  0.12500000000E+03 0.  0.
         25    1    1    2    0    0 -0.34538828744E+03 -0.26913639736E+02 -0.20764380044E+03  0.42279825090E+03  0.12500000000E+03 0.  0.
</event>
<event>
 4    0  0.2230743E-002  0.2070981E+03  0.7546771E-02  0.1143885E+00
         21   -1    0    0  502  501  0.00000000000E+00  0.00000000000E+00  0.13610724936E+03  0.13610724936E+03  0.00000000000E+00 0.  1.
         21   -1    0    0  501  502 -0.00000000000E+00 -0.00000000000E+00 -0.31511632540E+03  0.31511632540E+03  0.00000000000E+00 0.  1.
         25    1    1    2    0    0 -0.95531876463E+01  0.16018117801E+03 -0.13191189375E+03  0.24243560154E+03  0.12500000000E+03 0.  0.
         25    1    1    2    0    0  0.95531876463E+01 -0.16018117801E+03 -0.47097182287E+02  0.20878797322E+03  0.12500000000E+03 0.  0.
</event>
<event>
 4    0  0.2230743E-002  0.1644613E+03  0.7546771E-02  0.1183750E+00
         21   -1    0    0  502  501  0.00000000000E+00  0.00000000000E+00  0.24204199353E+03  0.24204199353E+03  0.00000000000E+00 0. -1.
         21   -1    0    0  501  502 -0.00000000000E+00 -0.00000000000E+00 -0.11174722528E+03  0.11174722528E+03  0.00000000000E+00 0. -1.
         25    1    1    2    0    0 -0.48926364298E+02  0.87823782500E+02  0.26132365074E+02  0.16252601761E+03  0.12500000000E+03 0.  0.
         25    1    1    2    0    0  0.48926364298E+02 -0.87823782500E+02  0.10416240318E+03  0.19126320120E+03  0.12500000000E+03 0.  0.
</event>
<event>
 4    0  0.2230743E-002  0.2574525E+03  0.7546771E-02  0.1108684E+00
         21   -1    0    0  502  501  0.00000000000E+00  0.00000000000E+00  0.28723347519E+03  0.28723347519E+03  0.00000000000E+00 0. -1.
         21   -1    0    0  501  502 -0.00000000000E+00 -0.00000000000E+00 -0.23075920068E+03  0.23075920068E+03  0.00000000000E+00 0. -1.
         25    1    1    2    0    0 -0.20760495791E+03  0.72000800307E+02 -0.20766712890E+02  0.25365368154E+03  0.12500000000E+03 0.  0.
         25    1    1    2    0    0  0.20760495791E+03 -0.72000800307E+02  0.77240987395E+02  0.26433899433E+03  0.12500000000E+03 0.  0.
</event>
<event>
 4    0  0.2230743E-002  0.1627168E+03  0.7546771E-02  0.1185663E+00
         21   -1    0    0  502  501  0.00000000000E+00  0.00000000000E+00  0.80001197000E+02  0.80001197000E+02  0.00000000000E+00 0.  1.
         21   -1    0    0  501  502 -0.00000000000E+00 -0.00000000000E+00 -0.33095458038E+03  0.33095458038E+03  0.00000000000E+00 0.  1.
         25    1    1    2    0    0  0.75455834753E+02 -0.50905424415E+02 -0.61498768655E+02  0.16640926591E+03  0.12500000000E+03 0.  0.
         25    1    1    2    0    0 -0.75455834753E+02  0.50905424415E+02 -0.18945461472E+03  0.24454651147E+03  0.12500000000E+03 0.  0.
</event>
<event>
 4    0  0.2230743E-002  0.1859251E+03  0.7546771E-02  0.1162189E+00
         21   -1    0    0  502  501  0.00000000000E+00  0.00000000000E+00  0.39816925390E+03  0.39816925390E+03  0.00000000000E+00 0. -1.
         21   -1    0    0  501  502 -0.00000000000E+00 -0.00000000000E+00 -0.86817676591E+02  0.86817676591E+02  0.00000000000E+00 0. -1.
         25    1    1    2    0    0 -0.55099577525E+02 -0.12285562343E+03  0.11847226461E+03  0.21860957237E+03  0.12500000000E+03 0.  0.
         25    1    1    2    0    0  0.55099577525E+02  0.12285562343E+03  0.19287931270E+03  0.26637735812E+03  0.12500000000E+03 0.  0.
</event>
<event>
 4    0  0.2230743E-002  0.2392184E+03  0.7546771E-02  0.1120315E+00
         21   -1    0    0  502  501  0.00000000000E+00  0.00000000000E+00  0.50408619887E+03  0.50408619887E+03  0.00000000000E+00 0.  1.
         21   -1    0    0  501  502 -0.00000000000E+00 -0.00000000000E+00 -0.11352316643E+03  0.11352316643E+03  0.00000000000E+00 0.  1.
         25    1    1    2    0    0 -0.13770694949E+03  0.14762639089E+03  0.15778552382E+03  0.28509301421E+03  0.12500000000E+03 0.  0.
         25    1    1    2    0    0  0.13770694949E+03 -0.14762639089E+03  0.23277750862E+03  0.33251635109E+03  0.12500000000E+03 0.  0.
</event>
<event>
 4    0  0.2230743E-002  0.1849170E+03  0.7546771E-02  0.1163127E+00
         21   -1    0    0  502  501  0.00000000000E+00  0.00000000000E+00  0.15179008741E+04  0.15179008741E+04  0.00000000000E+00 0. -1.
         21   -1    0    0  501  502 -0.00000000000E+00 -0.00000000000E+00 -0.22527354939E+02  0.22527354939E+02  0.00000000000E+00 0. -1.
         25    1    1    2    0    0 -0.10298538132E+03 -0.47551899750E+02  0.43316345064E+03  0.46489003743E+03  0.12500000000E+03 0.  0.
         25    1    1    2    0    0  0.10298538132E+03  0.47551899750E+02  0.10622100685E+04  0.10755381916E+04  0.12500000000E+03 0.  0.
</event>
<event>
 4    0  0.2230743E-002  0.2529270E+03  0.7546771E-02  0.1111469E+00
         21   -1    0    0  502  501  0.00000000000E+00  0.00000000000E+00  0.27380551921E+03  0.27380551921E+03  0.00000000000E+00 0. -1.
         21   -1    0    0  501  502 -0.00000000000E+00 -0.00000000000E+00 -0.23364060529E+03  0.23364060529E+03  0.00000000000E+00 0. -1.
         25    1    1    2    0    0 -0.52887517960E+02  0.11316716381E+03  0.20160274951E+03  0.26809059128E+03  0.12500000000E+03 0.  0.
         25    1    1    2    0    0  0.52887517960E+02 -0.11316716381E+03 -0.16143783560E+03  0.23935553322E+03  0.12500000000E+03 0.  0.
</event>
<event>
 4    0  0.2230743E-002  0.2330245E+03  0.7546771E-02  0.1124529E+00
         21   -1    0    0  502  501  0.00000000000E+00  0.00000000000E+00  0.85697548859E+03  0.85697548859E+03  0.00000000000E+00 0.  1.
         21   -1    0    0  501  502 -0.00000000000E+00 -0.00000000000E+00 -0.63362866304E+02  0.63362866304E+02  0.00000000000E+00 0.  1.
         25    1    1    2    0    0  0.38900762731E+02 -0.14413699957E+03  0.14401543465E+03  0.24218627006E+03  0.12500000000E+03 0.  0.
         25    1    1    2    0    0 -0.38900762731E+02  0.14413699957E+03  0.64959718763E+03  0.67815208483E+03  0.12500000000E+03 0.  0.
</event>
<event>
 4    0  0.2230743E-002  0.1746043E+03  0.7546771E-02  0.1173130E+00
         21   -1    0    0  502  501  0.00000000000E+00  0.00000000000E+00  0.16478810804E+03  0.16478810804E+03  0.00000000000E+00 0. -1.
         21   -1    0    0  501  502 -0.00000000000E+00 -0.00000000000E+00 -0.18500533297E+03  0.18500533297E+03  0.00000000000E+00 0. -1.
         25    1    1    2    0    0  0.56474537809E+02 -0.10246626655E+03  0.24197379831E+02  0.17291391613E+03  0.12500000000E+03 0.  0.
         25    1    1    2    0    0 -0.56474537809E+02  0.10246626655E+03 -0.44414604762E+02  0.17687952487E+03  0.12500000000E+03 0.  0.
</event>
<event>
 4    0  0.2230743E-002  0.2083291E+03  0.7546771E-02  0.1142896E+00
         21   -1    0    0  502  501  0.00000000000E+00  0.00000000000E+00  0.17020788147E+03  0.17020788147E+03  0.00000000000E+00 0.  1.
         21   -1    0    0  501  502 -0.00000000000E+00 -0.00000000000E+00 -0.25498832907E+03  0.25498832907E+03  0.00000000000E+00 0.  1.
         25    1    1    2    0    0 -0.13604759697E+03  0.94860097278E+02 -0.25664227657E+02  0.20926308628E+03  0.12500000000E+03 0.  0.
         25    1    1    2    0    0  0.13604759697E+03 -0.94860097278E+02 -0.59116219941E+02  0.21593312427E+03  0.12500000000E+03 0.  0.
</event>
<event>
 4    0  0.2230743E-002  0.2331813E+03  0.7546771E-02  0.1124420E+00
         21   -1    0    0  502  501  0.00000000000E+00  0.00000000000E+00  0.10066071947E+04  0.10066071947E+04  0.00000000000E+00 0. -1.
         21   -1    0    0  501  502 -0.00000000000E+00 -0.00000000000E+00 -0.54016639268E+02  0.54016639268E+02  0.00000000000E+00 0. -1.
         25    1    1    2    0    0  0.71841726718E+01  0.94141333644E+02  0.83473307122E+02  0.17750210151E+03  0.12500000000E+03 0.  0.
         25    1    1    2    0    0 -0.71841726718E+01 -0.94141333644E+02  0.86911724836E+03  0.88312173251E+03  0.12500000000E+03 0.  0.
</event>
<event>
 4    0  0.2230743E-002  0.2078333E+03  0.7546771E-02  0.1143293E+00
         21   -1    0    0  502  501  0.00000000000E+00  0.00000000000E+00  0.13514649824E+03  0.13514649824E+03  0.00000000000E+00 0. -1.
         21   -1    0    0  501  502 -0.00000000000E+00 -0.00000000000E+00 -0.31961372240E+03  0.31961372240E+03  0.00000000000E+00 0. -1.
         25    1    1    2    0    0 -0.85658560044E+02  0.12701034970E+03 -0.22174582749E+02  0.19896162936E+03  0.12500000000E+03 0.  0.
         25    1    1    2    0    0  0.85658560044E+02 -0.12701034970E+03 -0.16229264141E+03  0.25579859127E+03  0.12500000000E+03 0.  0.
</event>
<event>
 4    0  0.2230743E-002  0.2693597E+03  0.7546771E-02  0.1101647E+00
         21   -1    0    0  502  501  0.00000000000E+00  0.00000000000E+00  0.36614400223E+03  0.36614400223E+03  0.00000000000E+00 0.  1.
         21   -1    0    0  501  502 -0.00000000000E+00 -0.00000000000E+00 -0.19815883307E+03  0.19815883307E+03  0.00000000000E+00 0.  1.
         25    1    1    2    0    0 -0.21702043344E+03  0.97912310574E+02  0.10038768567E+03  0.28703201307E+03  0.12500000000E+03 0.  0.
         25    1    1    2    0    0  0.21702043344E+03 -0.97912310574E+02  0.67597483491E+02  0.27727082224E+03  0.12500000000E+03 0.  0.
</event>
<event>
 4    0  0.2230743E-002  0.1927357E+03  0.7546771E-02  0.1156017E+00
         21   -1    0    0  502  501  0.00000000000E+00  0.00000000000E+00  0.23626584532E+03  0.23626584532E+03  0.00000000000E+00 0.  1.
         21   -1    0    0  501  502 -0.00000000000E+00 -0.00000000000E+00 -0.15722560284E+03  0.15722560284E+03  0.00000000000E+00 0.  1.
         25    1    1    2    0    0 -0.15085241961E+02 -0.73850758418E+02 -0.88957710860E+02  0.17093850756E+03  0.12500000000E+03 0.  0.
         25    1    1    2    0    0  0.15085241961E+02  0.73850758418E+02  0.16799795334E+03  0.22255294060E+03  0.12500000000E+03 0.  0.
</event>
<event>
 4    0  0.2230743E-002  0.1730475E+03  0.7546771E-02  0.1174707E+00
         21   -1    0    0  502  501  0.00000000000E+00  0.00000000000E+00  0.15130970180E+04  0.15130970180E+04  0.00000000000E+00 0. -1.
         21   -1    0    0  501  502 -0.00000000000E+00 -0.00000000000E+00 -0.19790822728E+02  0.19790822728E+02  0.00000000000E+00 0. -1.
         25    1    1    2    0    0  0.38910710136E+02 -0.43354252072E+02  0.28367379666E+03  0.31541949440E+03  0.12500000000E+03 0.  0.
         25    1    1    2    0    0 -0.38910710136E+02  0.43354252072E+02  0.12096323986E+04  0.12174683463E+04  0.12500000000E+03 0.  0.
</event>
<event>
 4    0  0.2230743E-002  0.2729488E+03  0.7546771E-02  0.1099604E+00
         21   -1    0    0  502  501  0.00000000000E+00  0.00000000000E+00  0.15997946261E+03  0.15997946261E+03  0.00000000000E+00 0.  1.
         21   -1    0    0  501  502 -0.00000000000E+00 -0.00000000000E+00 -0.46569138558E+03  0.46569138558E+03  0.00000000000E+00 0.  1.
         25    1    1    2    0    0 -0.13757297648E+03  0.19818426292E+03 -0.12312864915E+03  0.29831022471E+03  0.12500000000E+03 0.  0.
         25    1    1    2    0    0  0.13757297648E+03 -0.19818426292E+03 -0.18258327381E+03  0.32736062348E+03  0.12500000000E+03 0.  0.
</event>
<event>
 4    0  0.2230743E-002  0.1919735E+03  0.7546771E-02  0.1156693E+00
         21   -1    0    0  502  501  0.00000000000E+00  0.00000000000E+00  0.80587698773E+02  0.80587698773E+02  0.00000000000E+00 0.  1.
         21   -1    0    0  501  502 -0.00000000000E+00 -0.00000000000E+00 -0.45731332301E+03  0.45731332301E+03  0.00000000000E+00 0.  1.
         25    1    1    2    0    0 -0.89102125024E+02 -0.75462755342E+02 -0.31045708901E+03  0.35446074570E+03  0.12500000000E+03 0.  0.
         25    1    1    2    0    0  0.89102125024E+02  0.75462755342E+02 -0.66268535228E+02  0.18344027608E+03  0.12500000000E+03 0.  0.
</event>
<event>
 4    0  0.2230743E-002  0.2218155E+03  0.7546771E-02  0.1132537E+00
         21   -1    0    0  502  501  0.00000000000E+00  0.00000000000E+00  0.72735829814E+03  0.72735829814E+03  0.00000000000E+00 0.  1.
         21   -1    0    0  501  502 -0.00000000000E+00 -0.00000000000E+00 -0.67644957459E+02  0.67644957459E+02  0.00000000000E+00 0.  1.
         25    1    1    2    0    0 -0.15991306507E+03  0.84298272391E+02  0.27613338159E+03  0.35292071565E+03  0.12500000000E+03 0.  0.
         25    1    1    2    0    0  0.15991306507E+03 -0.84298272391E+02  0.38357995909E+03  0.44208253994E+03  0.12500000000E+03 0.  0.
</event>
<event>
 4    0  0.2230743E-002  0.2060870E+03  0.7546771E-02  0.1144703E+00
         21   -1    0    0  502  501  0.00000000000E+00  0.00000000000E+00  0.23504032980E+03  0.23504032980E+03  0.00000000000E+00 0. -1.
         21   -1    0    0  501  502 -0.00000000000E+00 -0.00000000000E+00 -0.18070031848E+03  0.18070031848E+03  0.00000000000E+00 0. -1.
         25    1    1    2    0    0  0.28143002195E+02 -0.15837651533E+03  0.58612059536E+02  0.21198000543E+03  0.12500000000E+03 0.  0.
         25    1    1    2    0    0 -0.28143002195E+02  0.15837651533E+03 -0.42720482198E+01  0.20376064285E+03  0.12500000000E+03 0.  0.
</event>
<event>
 4    0  0.2230743E-002  0.2908195E+03  0.7546771E-02  0.1089922E+00
         21   -1    0    0  502  501  0.00000000000E+00  0.00000000000E+00  0.28029335565E+03  0.28029335565E+03  0.00000000000E+00 0.  1.
         21   -1    0    0  501  502 -0.00000000000E+00 -0.00000000000E+00 -0.30174091769E+03  0.30174091769E+03  0.00000000000E+00 0.  1.
         25    1    1    2    0    0  0.21750458654E+02 -0.37668441628E+02 -0.26985726345E+03  0.30056602699E+03  0.12500000000E+03 0.  0.
         25    1    1    2    0    0 -0.21750458654E+02  0.37668441628E+02  0.24840970141E+03  0.28146824635E+03  0.12500000000E+03 0.  0.
</event>
<event>
 4    0  0.2230743E-002  0.2345777E+03  0.7546771E-02  0.1123459E+00
         21   -1    0    0  502  501  0.00000000000E+00  0.00000000000E+00  0.22656995395E+03  0.22656995395E+03  0.00000000000E+00 0. -1.
         21   -1    0    0  501  502 -0.00000000000E+00 -0.00000000000E+00 -0.24286839577E+03  0.24286839577E+03  0.00000000000E+00 0. -1.
         25    1    1    2    0    0 -0.52454732348E+02 -0.18370815855E+03  0.45748798496E+02  0.23284788818E+03  0.12500000000E+03 0.  0.
         25    1    1    2    0    0  0.52454732348E+02  0.18370815855E+03 -0.62047240317E+02  0.23659046155E+03  0.12500000000E+03 0.  0.
</event>
<event>
 4    0  0.2230743E-002  0.2411417E+03  0.7546771E-02  0.1119035E+00
         21   -1    0    0  502  501  0.00000000000E+00  0.00000000000E+00  0.52186026716E+02  0.52186026716E+02  0.00000000000E+00 0.  1.
         21   -1    0    0  501  502 -0.00000000000E+00 -0.00000000000E+00 -0.11142699198E+04  0.11142699198E+04  0.00000000000E+00 0.  1.
         25    1    1    2    0    0  0.80648485731E+02  0.18176910288E+03 -0.39900849389E+03  0.46300859950E+03  0.12500000000E+03 0.  0.
         25    1    1    2    0    0 -0.80648485731E+02 -0.18176910288E+03 -0.66307539922E+03  0.70344734704E+03  0.12500000000E+03 0.  0.
</event>
<event>
 4    0  0.2230743E-002  0.1749406E+03  0.7546771E-02  0.1172791E+00
         21   -1    0    0  502  501  0.00000000000E+00  0.00000000000E+00  0.24108598810E+03  0.24108598810E+03  0.00000000000E+00 0.  1.
         21   -1    0    0  501  502 -0.00000000000E+00 -0.00000000000E+00 -0.12694319360E+03  0.12694319360E+03  0.00000000000E+00 0.  1.
         25    1    1    2    0    0 -0.11174631735E+03  0.28831260552E+02  0.99937395528E+02  0.19730931061E+03  0.12500000000E+03 0.  0.
         25    1    1    2    0    0  0.11174631735E+03 -0.28831260552E+02  0.14205398974E+02  0.17071987110E+03  0.12500000000E+03 0.  0.
</event>
<event>
 4    0  0.2230743E-002  0.1826406E+03  0.7546771E-02  0.1165272E+00
         21   -1    0    0  502  501  0.00000000000E+00  0.00000000000E+00  0.59180822756E+02  0.59180822756E+02  0.00000000000E+00 0. -1.
         21   -1    0    0  501  502 -0.00000000000E+00 -0.00000000000E+00 -0.56365556674E+03  0.56365556674E+03  0.00000000000E+00 0. -1.
         25    1    1    2    0    0  0.10055270915E+03  0.64327801738E+02 -0.35287633070E+03  0.39293207830E+03  0.12500000000E+03 0.  0.
         25    1    1    2    0    0 -0.10055270915E+03 -0.64327801738E+02 -0.15159841329E+03  0.22990431119E+03  0.12500000000E+03 0.  0.
</event>
<event>
 4    0  0.2230743E-002  0.3382881E+03  0.7546771E-02  0.1067527E+00
         21   -1    0    0  502  501  0.00000000000E+00  0.00000000000E+00  0.20365206174E+03  0.20365206174E+03  0.00000000000E+00 0. -1.
         21   -1    0    0  501  502 -0.00000000000E+00 -0.00000000000E+00 -0.56193314237E+03  0.56193314237E+03  0.00000000000E+00 0. -1.
         25    1    1    2    0    0 -0.17644636516E+02 -0.26700719838E+02  0.17471263750E+03  0.21719522863E+03  0.12500000000E+03 0.  0.
         25    1    1    2    0    0  0.17644636516E+02  0.26700719838E+02 -0.53299371813E+03  0.54838997547E+03  0.12500000000E+03 0.  0.
</event>
<event>
 4    0  0.2230743E-002  0.2052587E+03  0.7546771E-02  0.1145377E+00
         21   -1    0    0  502  501  0.00000000000E+00  0.00000000000E+00  0.40352876107E+03  0.40352876107E+03  0.00000000000E+00 0. -1.
         21   -1    0    0  501  502 -0.00000000000E+00 -0.00000000000E+00 -0.10440677837E+03  0.10440677837E+03  0.00000000000E+00 0. -1.
         25    1    1    2    0    0  0.24738474198E+02 -0.16083554716E+03  0.15587883805E+03  0.25768833401E+03  0.12500000000E+03 0.  0.
         25    1    1    2    0    0 -0.24738474198E+02  0.16083554716E+03  0.14324314465E+03  0.25024720543E+03  0.12500000000E+03 0.  0.
</event>
<event>
 4    0  0.2230743E-002  0.2192190E+03  0.7546771E-02  0.1134467E+00
         21   -1    0    0  502  501  0.00000000000E+00  0.00000000000E+00  0.40864054439E+03  0.40864054439E+03  0.00000000000E+00 0.  1.
         21   -1    0    0  501  502 -0.00000000000E+00 -0.00000000000E+00 -0.11760202318E+03  0.11760202318E+03  0.00000000000E+00 0.  1.
         25    1    1    2    0    0  0.17157570255E+03 -0.43358086962E+02  0.18557670957E+03  0.28527506120E+03  0.12500000000E+03 0.  0.
         25    1    1    2    0    0 -0.17157570255E+03  0.43358086962E+02  0.10546181164E+03  0.24096750637E+03  0.12500000000E+03 0.  0.
</event>
<event>
 4    0  0.2230743E-002  0.1902960E+03  0.7546771E-02  0.1158195E+00
         21   -1    0    0  502  501  0.00000000000E+00  0.00000000000E+00  0.22439688644E+03  0.22439688644E+03  0.00000000000E+00 0. -1.
         21   -1    0    0  501  502 -0.00000000000E+00 -0.00000000000E+00 -0.16137731865E+03  0.16137731865E+03  0.00000000000E+00 0. -1.
         25    1    1    2    0    0 -0.45318799933E+02  0.45029819317E+02 -0.98715594332E+02  0.17161365569E+03  0.12500000000E+03 0.  0.
         25    1    1    2    0    0  0.45318799933E+02 -0.45029819317E+02  0.16173516212E+03  0.21416054940E+03  0.12500000000E+03 0.  0.
</event>
<event>
 4    0  0.2230743E-002  0.2641174E+03  0.7546771E-02  0.1104694E+00
         21   -1    0    0  502  501  0.00000000000E+00  0.00000000000E+00  0.15986637559E+04  0.15986637559E+04  0.00000000000E+00 0. -1.
         21   -1    0    0  501  502 -0.00000000000E+00 -0.00000000000E+00 -0.43635197348E+02  0.43635197348E+02  0.00000000000E+00 0. -1.
         25    1    1    2    0    0  0.63715591556E+01 -0.19853043263E+03  0.11541832061E+04  0.11778025313E+04  0.12500000000E+03 0.  0.
         25    1    1    2    0    0 -0.63715591556E+01  0.19853043263E+03  0.40084535250E+03  0.46449642201E+03  0.12500000000E+03 0.  0.
</event>
<event>
 4    0  0.2230743E-002  0.2086361E+03  0.7546771E-02  0.1142651E+00
         21   -1    0    0  502  501  0.00000000000E+00  0.00000000000E+00  0.95806948440E+03  0.95806948440E+03  0.00000000000E+00 0.  1.
         21   -1    0    0  501  502 -0.00000000000E+00 -0.00000000000E+00 -0.45434109348E+02  0.45434109348E+02  0.00000000000E+00 0.  1.
         25    1    1    2    0    0 -0.97576764481E+02 -0.33817995201E+02  0.77207787558E+03  0.78891959522E+03  0.12500000000E+03 0.  0.
         25    1    1    2    0    0  0.97576764481E+02  0.33817995201E+02  0.14055749948E+03  0.21458399853E+03  0.12500000000E+03 0.  0.
</event>
<event>
 4    0  0.2230743E-002  0.3172675E+03  0.7546771E-02  0.1076914E+00
         21   -1    0    0  502  501  0.00000000000E+00  0.00000000000E+00  0.93223290762E+02  0.93223290762E+02  0.00000000000E+00 0. -1.
         21   -1    0    0  501  502 -0.00000000000E+00 -0.00000000000E+00 -0.10797587912E+04  0.10797587912E+04  0.00000000000E+00 0. -1.
         25    1    1    2    0    0 -0.18924223699E+03 -0.73816183172E+01 -0.90316092217E+03  0.93123131599E+03  0.12500000000E+03 0.  0.
         25    1    1    2    0    0  0.18924223699E+03  0.73816183172E+01 -0.83374578275E+02  0.24175076598E+03  0.12500000000E+03 0.  0.
</event>
<event>
 4    0  0.2230743E-002  0.2397471E+03  0.7546771E-02  0.1119961E+00
         21   -1    0    0  502  501  0.00000000000E+00  0.00000000000E+00  0.10695531668E+04  0.10695531668E+04  0.00000000000E+00 0.  1.
         21   -1    0    0  501  502 -0.00000000000E+00 -0.00000000000E+00 -0.53740837980E+02  0.53740837980E+02  0.00000000000E+00 0.  1.
         25    1    1    2    0    0 -0.25352831742E+02  0.17385382361E+03  0.26236449781E+03  0.33959983476E+03  0.12500000000E+03 0.  0.
         25    1    1    2    0    0  0.25352831742E+02 -0.17385382361E+03  0.75344783100E+03  0.78369417001E+03  0.12500000000E+03 0.  0.
</event>
<event>
 4    0  0.2230743E-002  0.2321132E+03  0.7546771E-02  0.1125161E+00
         21   -1    0    0  502  501  0.00000000000E+00  0.00000000000E+00  0.11345897824E+03  0.11345897824E+03  0.00000000000E+00 0.  1.
         21   -1    0    0  501  502 -0.00000000000E+00 -0.00000000000E+00 -0.47485466648E+03  0.47485466648E+03  0.00000000000E+00 0.  1.
         25    1    1    2    0    0  0.10654205715E+03 -0.16391024149E+03 -0.18805997551E+03  0.29867931230E+03  0.12500000000E+03 0.  0.
         25    1    1    2    0    0 -0.10654205715E+03  0.16391024149E+03 -0.17333571272E+03  0.28963433241E+03  0.12500000000E+03 0.  0.
</event>
<event>
 4    0  0.2230743E-002  0.2179887E+03  0.7546771E-02  0.1135392E+00
         21   -1    0    0  502  501  0.00000000000E+00  0.00000000000E+00  0.32689631584E+02  0.32689631584E+02  0.00000000000E+00 0. -1.
         21   -1    0    0  501  502 -0.00000000000E+00 -0.00000000000E+00 -0.14536429820E+04  0.14536429820E+04  0.00000000000E+00 0. -1.
         25    1    1    2    0    0  0.16021307279E+03 -0.51640080343E+02 -0.50708936170E+03  0.54872538427E+03  0.12500000000E+03 0.  0.
         25    1    1    2    0    0 -0.16021307279E+03  0.51640080343E+02 -0.91386398872E+03  0.93760722932E+03  0.12500000000E+03 0.  0.
</event>
<event>
 4    0  0.2230743E-002  0.2229060E+03  0.7546771E-02  0.1131735E+00
         21   -1    0    0  502  501  0.00000000000E+00  0.00000000000E+00  0.39739115941E+03  0.39739115941E+03  0.00000000000E+00 0.  1.
         21   -1    0    0  501  502 -0.00000000000E+00 -0.00000000000E+00 -0.12503319886E+03  0.12503319886E+03  0.00000000000E+00 0.  1.
         25    1    1    2    0    0  0.14879665451E+02  0.12669052415E+03 -0.20122106825E+02  0.17972699446E+03  0.12500000000E+03 0.  0.
         25    1    1    2    0    0 -0.14879665451E+02 -0.12669052415E+03  0.29248006737E+03  0.34269736381E+03  0.12500000000E+03 0.  0.
</event>
<event>
 4    0  0.2230743E-002  0.2373585E+03  0.7546771E-02  0.1121565E+00
         21   -1    0    0  502  501  0.00000000000E+00  0.00000000000E+00  0.62908912541E+02  0.62908912541E+02  0.00000000000E+00 0.  1.
         21   -1    0    0  501  502 -0.00000000000E+00 -0.00000000000E+00 -0.89556564375E+03  0.89556564375E+03  0.00000000000E+00 0.  1.
         25    1    1    2    0    0 -0.85530416122E+02  0.26044240999E+02 -0.51108433696E+02  0.16195933615E+03  0.12500000000E+03 0.  0.
         25    1    1    2    0    0  0.85530416122E+02 -0.26044240999E+02 -0.78154829752E+03  0.79651522015E+03  0.12500000000E+03 0.  0.
</event>
<event>
 4    0  0.2230743E-002  0.3158514E+03  0.7546771E-02  0.1077575E+00
         21   -1    0    0  502  501  0.00000000000E+00  0.00000000000E+00  0.23139464826E+04  0.23139464826E+04  0.00000000000E+00 0.  1.
         21   -1    0    0  501  502 -0.00000000000E+00 -0.00000000000E+00 -0.43113404769E+02  0.43113404769E+02  0.00000000000E+00 0.  1.
         25    1    1    2    0    0  0.26973221156E+03  0.75831003548E+02  0.85541378535E+03  0.90877035120E+03  0.12500000000E+03 0.  0.
         25    1    1    2    0    0 -0.26973221156E+03 -0.75831003548E+02  0.14154192925E+04  0.14482895362E+04  0.12500000000E+03 0.  0.
</event>
<event>
 4    0  0.2230743E-002  0.2729945E+03  0.7546771E-02  0.1099578E+00
         21   -1    0    0  502  501  0.00000000000E+00  0.00000000000E+00  0.38665610610E+03  0.38665610610E+03  0.00000000000E+00 0. -1.
         21   -1    0    0  501  502 -0.00000000000E+00 -0.00000000000E+00 -0.19274493019E+03  0.19274493019E+03  0.00000000000E+00 0. -1.
         25    1    1    2    0    0 -0.46965659816E+02  0.22510828843E+03  0.14608675777E+02  0.26214104625E+03  0.12500000000E+03 0.  0.
         25    1    1    2    0    0  0.46965659816E+02 -0.22510828843E+03  0.17930250013E+03  0.31725999003E+03  0.12500000000E+03 0.  0.
</event>
<event>
 4    0  0.2230743E-002  0.2461774E+03  0.7546771E-02  0.1115745E+00
         21   -1    0    0  502  501  0.00000000000E+00  0.00000000000E+00  0.28710154586E+04  0.28710154586E+04  0.00000000000E+00 0.  1.
         21   -1    0    0  501  502 -0.00000000000E+00 -0.00000000000E+00 -0.21108666657E+02  0.21108666657E+02  0.00000000000E+00 0.  1.
         25    1    1    2    0    0  0.19429259112E+03 -0.35000980571E+02  0.18800941010E+04  0.18945589218E+04  0.12500000000E+03 0.  0.
         25    1    1    2    0    0 -0.19429259112E+03  0.35000980571E+02  0.96981269092E+03  0.99756520342E+03  0.12500000000E+03 0.  0.
</event>
<event>
 4    0  0.2230743E-002  0.1710665E+03  0.7546771E-02  0.1176740E+00
         21   -1    0    0  502  501  0.00000000000E+00  0.00000000000E+00  0.16319391709E+03  0.16319391709E+03  0.00000000000E+00 0.  1.
         21   -1    0    0  501  502 -0.00000000000E+00 -0.00000000000E+00 -0.17931881445E+03  0.17931881445E+03  0.00000000000E+00 0.  1.
         25    1    1    2    0    0  0.29644476024E+02  0.33985186886E+02  0.99783412376E+02  0.16617917220E+03  0.12500000000E+03 0.  0.
         25    1    1    2    0    0 -0.29644476024E+02 -0.33985186886E+02 -0.11590830973E+03  0.17633355935E+03  0.12500000000E+03 0.  0.
</event>
<event>
 4    0  0.2230743E-002  0.2300441E+03  0.7546771E-02  0.1126609E+00
         21   -1    0    0  502  501  0.00000000000E+00  0.00000000000E+00  0.42554499683E+03  0.42554499683E+03  0.00000000000E+00 0. -1.
         21   -1    0    0  501  502 -0.00000000000E+00 -0.00000000000E+00 -0.12435888085E+03  0.12435888085E+03  0.00000000000E+00 0. -1.
         25    1    1    2    0    0  0.69982731398E+02  0.13469405897E+03  0.29329592990E+03  0.35311127808E+03  0.12500000000E+03 0.  0.
         25    1    1    2    0    0 -0.69982731398E+02 -0.13469405897E+03  0.78901860826E+01  0.19679259959E+03  0.12500000000E+03 0.  0.
</event>
<event>
 4    0  0.2230743E-002  0.1419399E+03  0.7546771E-02  0.1210742E+00
         21   -1    0    0  502  501  0.00000000000E+00  0.00000000000E+00  0.95598438916E+02  0.95598438916E+02  0.00000000000E+00 0. -1.
         21   -1    0    0  501  502 -0.00000000000E+00 -0.00000000000E+00 -0.21074550471E+03  0.21074550471E+03  0.00000000000E+00 0. -1.
         25    1    1    2    0    0 -0.37056620508E+02 -0.44770799223E+02 -0.21068799241E+02  0.13945075076E+03  0.12500000000E+03 0.  0.
         25    1    1    2    0    0  0.37056620508E+02  0.44770799223E+02 -0.94078266554E+02  0.16689319286E+03  0.12500000000E+03 0.  0.
</event>
<event>
 4    0  0.2230743E-002  0.3519813E+03  0.7546771E-02  0.1061805E+00
         21   -1    0    0  502  501  0.00000000000E+00  0.00000000000E+00  0.28367069746E+03  0.28367069746E+03  0.00000000000E+00 0.  1.
         21   -1    0    0  501  502 -0.00000000000E+00 -0.00000000000E+00 -0.43674174703E+03  0.43674174703E+03  0.00000000000E+00 0.  1.
         25    1    1    2    0    0  0.81414965825E+02 -0.22090968350E+03  0.15869735611E+03  0.31022465370E+03  0.12500000000E+03 0.  0.
         25    1    1    2    0    0 -0.81414965825E+02  0.22090968350E+03 -0.31176840569E+03  0.41018779079E+03  0.12500000000E+03 0.  0.
</event>
<event>
 4    0  0.2230743E-002  0.3017769E+03  0.7546771E-02  0.1084356E+00
         21   -1    0    0  502  501  0.00000000000E+00  0.00000000000E+00  0.15008994442E+04  0.15008994442E+04  0.00000000000E+00 0. -1.
         21   -1    0    0  501  502 -0.00000000000E+00 -0.00000000000E+00 -0.60676470378E+02  0.60676470378E+02  0.00000000000E+00 0. -1.
         25    1    1    2    0    0  0.24798189468E+03  0.85116397373E+02  0.93196176487E+03  0.97617495992E+03  0.12500000000E+03 0.  0.
         25    1    1    2    0    0 -0.24798189468E+03 -0.85116397373E+02  0.50826120896E+03  0.58540095466E+03  0.12500000000E+03 0.  0.
</event>
<event>
 4    0  0.2230743E-002  0.4879037E+03  0.7546771E-02  0.1016985E+00
         21   -1    0    0  502  501  0.00000000000E+00  0.00000000000E+00  0.36944340466E+03  0.36944340466E+03  0.00000000000E+00 0. -1.
         21   -1    0    0  501  502 -0.00000000000E+00 -0.00000000000E+00 -0.64434779054E+03  0.64434779054E+03  0.00000000000E+00 0. -1.
         25    1    1    2    0    0  0.24604290283E+03  0.93209151257E+02 -0.54409561443E+03  0.61716293923E+03  0.12500000000E+03 0.  0.
         25    1    1    2    0    0 -0.24604290283E+03 -0.93209151257E+02  0.26919122855E+03  0.39662825597E+03  0.12500000000E+03 0.  0.
</event>
<event>
 4    0  0.2230743E-002  0.3641327E+03  0.7546771E-02  0.1056959E+00
         21   -1    0    0  502  501  0.00000000000E+00  0.00000000000E+00  0.20289660862E+04  0.20289660862E+04  0.00000000000E+00 0. -1.
         21   -1    0    0  501  502 -0.00000000000E+00 -0.00000000000E+00 -0.65349833456E+02  0.65349833456E+02  0.00000000000E+00 0. -1.
         25    1    1    2    0    0  0.20010640374E+03  0.25269387896E+03  0.13105871395E+04  0.13554189092E+04  0.12500000000E+03 0.  0.
         25    1    1    2    0    0 -0.20010640374E+03 -0.25269387896E+03  0.65302911331E+03  0.73889701049E+03  0.12500000000E+03 0.  0.
</event>
<event>
 4    0  0.2230743E-002  0.1753028E+03  0.7546771E-02  0.1172428E+00
         21   -1    0    0  502  501  0.00000000000E+00  0.00000000000E+00  0.21267896298E+03  0.21267896298E+03  0.00000000000E+00 0. -1.
         21   -1    0    0  501  502 -0.00000000000E+00 -0.00000000000E+00 -0.14449513999E+03  0.14449513999E+03  0.00000000000E+00 0. -1.
         25    1    1    2    0    0  0.41930965601E+02 -0.10553736771E+03  0.81980401659E+02  0.18772886863E+03  0.12500000000E+03 0.  0.
         25    1    1    2    0    0 -0.41930965601E+02  0.10553736771E+03 -0.13796578678E+02  0.16944523435E+03  0.12500000000E+03 0.  0.
</event>
<event>
 4    0  0.2230743E-002  0.1987953E+03  0.7546771E-02  0.1150759E+00
         21   -1    0    0  502  501  0.00000000000E+00  0.00000000000E+00  0.62476337133E+02  0.62476337133E+02  0.00000000000E+00 0. -1.
         21   -1    0    0  501  502 -0.00000000000E+00 -0.00000000000E+00 -0.63255250715E+03  0.63255250715E+03  0.00000000000E+00 0. -1.
         25    1    1    2    0    0  0.65924163540E+02 -0.10280589224E+03 -0.45068877444E+03  0.48338433800E+03  0.12500000000E+03 0.  0.
         25    1    1    2    0    0 -0.65924163540E+02  0.10280589224E+03 -0.11938739558E+03  0.21164450628E+03  0.12500000000E+03 0.  0.
</event>
<event>
 4    0  0.2230743E-002  0.1568988E+03  0.7546771E-02  0.1192243E+00
         21   -1    0    0  502  501  0.00000000000E+00  0.00000000000E+00  0.23884006678E+02  0.23884006678E+02  0.00000000000E+00 0.  1.
         21   -1    0    0  501  502 -0.00000000000E+00 -0.00000000000E+00 -0.10306998627E+04  0.10306998627E+04  0.00000000000E+00 0.  1.
         25    1    1    2    0    0  0.60368728112E+02 -0.48315795971E+02 -0.68789371490E+03  0.70342132643E+03  0.12500000000E+03 0.  0.
         25    1    1    2    0    0 -0.60368728112E+02  0.48315795971E+02 -0.31892214112E+03  0.35116254295E+03  0.12500000000E+03 0.  0.
</event>
<event>
 4    0  0.2230743E-002  0.1858693E+03  0.7546771E-02  0.1162241E+00
         21   -1    0    0  502  501  0.00000000000E+00  0.00000000000E+00  0.24880155061E+03  0.24880155061E+03  0.00000000000E+00 0. -1.
         21   -1    0    0  501  502 -0.00000000000E+00 -0.00000000000E+00 -0.13885530033E+03  0.13885530033E+03  0.00000000000E+00 0. -1.
         25    1    1    2    0    0  0.72149254061E+02  0.66844337014E+02  0.15526155566E+03  0.22227197511E+03  0.12500000000E+03 0.  0.
         25    1    1    2    0    0 -0.72149254061E+02 -0.66844337014E+02 -0.45315305379E+02  0.16538487583E+03  0.12500000000E+03 0.  0.
</event>
<event>
 4    0  0.2230743E-002  0.1737669E+03  0.7546771E-02  0.1173976E+00
         21   -1    0    0  502  501  0.00000000000E+00  0.00000000000E+00  0.49237381790E+02  0.49237381790E+02  0.00000000000E+00 0. -1.
         21   -1    0    0  501  502 -0.00000000000E+00 -0.00000000000E+00 -0.61325249733E+03  0.61325249733E+03  0.00000000000E+00 0. -1.
         25    1    1    2    0    0 -0.11313390469E+02 -0.11634162328E+03 -0.33940406650E+03  0.38010983474E+03  0.12500000000E+03 0.  0.
         25    1    1    2    0    0  0.11313390469E+02  0.11634162328E+03 -0.22461104904E+03  0.28238004438E+03  0.12500000000E+03 0.  0.
</event>
<event>
 4    0  0.2230743E-002  0.2458716E+03  0.7546771E-02  0.1115942E+00
         21   -1    0    0  502  501  0.00000000000E+00  0.00000000000E+00  0.34328695191E+02  0.34328695191E+02  0.00000000000E+00 0.  1.
         21   -1    0    0  501  502 -0.00000000000E+00 -0.00000000000E+00 -0.17610001146E+04  0.17610001146E+04  0.00000000000E+00 0.  1.
         25    1    1    2    0    0  0.58554229114E+01 -0.95451357073E+02 -0.15529938085E+04  0.15609484350E+04  0.12500000000E+03 0.  0.
         25    1    1    2    0    0 -0.58554229114E+01  0.95451357073E+02 -0.17367761088E+03  0.23438037474E+03  0.12500000000E+03 0.  0.
</event>
<event>
 4    0  0.2230743E-002  0.2205364E+03  0.7546771E-02  0.1133484E+00
         21   -1    0    0  502  501  0.00000000000E+00  0.00000000000E+00  0.86578083926E+02  0.86578083926E+02  0.00000000000E+00 0. -1.
         21   -1    0    0  501  502 -0.00000000000E+00 -0.00000000000E+00 -0.56176211767E+03  0.56176211767E+03  0.00000000000E+00 0. -1.
         25    1    1    2    0    0  0.81313580294E+02  0.15731715997E+03 -0.29731299361E+03  0.36794103241E+03  0.12500000000E+03 0.  0.
         25    1    1    2    0    0 -0.81313580294E+02 -0.15731715997E+03 -0.17787104013E+03  0.28039916918E+03  0.12500000000E+03 0.  0.
</event>
<event>
 4    0  0.2230743E-002  0.2182826E+03  0.7546771E-02  0.1135170E+00
         21   -1    0    0  502  501  0.00000000000E+00  0.00000000000E+00  0.27005326584E+03  0.27005326584E+03  0.00000000000E+00 0. -1.
         21   -1    0    0  501  502 -0.00000000000E+00 -0.00000000000E+00 -0.17643670098E+03  0.17643670098E+03  0.00000000000E+00 0. -1.
         25    1    1    2    0    0 -0.13878275764E+03  0.11296594911E+03  0.46205098234E+02  0.22311851241E+03  0.12500000000E+03 0.  0.
         25    1    1    2    0    0  0.13878275764E+03 -0.11296594911E+03  0.47411466625E+02  0.22337145441E+03  0.12500000000E+03 0.  0.
</event>
<event>
 4    0  0.2230743E-002  0.1596129E+03  0.7546771E-02  0.1189134E+00
         21   -1    0    0  502  501  0.00000000000E+00  0.00000000000E+00  0.18859100950E+03  0.18859100950E+03  0.00000000000E+00 0. -1.
         21   -1    0    0  501  502 -0.00000000000E+00 -0.00000000000E+00 -0.13508750938E+03  0.13508750938E+03  0.00000000000E+00 0. -1.
         25    1    1    2    0    0  0.83721693035E+02 -0.14162504317E+02  0.78863081362E+02  0.17045317250E+03  0.12500000000E+03 0.  0.
         25    1    1    2    0    0 -0.83721693035E+02  0.14162504317E+02 -0.25359581249E+02  0.15322534638E+03  0.12500000000E+03 0.  0.
</event>
<event>
 4    0  0.2230743E-002  0.3132350E+03  0.7546771E-02  0.1078806E+00
         21   -1    0    0  502  501  0.00000000000E+00  0.00000000000E+00  0.32882361593E+03  0.32882361593E+03  0.00000000000E+00 0.  1.
         21   -1    0    0  501  502 -0.00000000000E+00 -0.00000000000E+00 -0.29838539270E+03  0.29838539270E+03  0.00000000000E+00 0.  1.
         25    1    1    2    0    0 -0.16314687347E+03  0.23366272807E+03 -0.20544042138E+02  0.31186893157E+03  0.12500000000E+03 0.  0.
         25    1    1    2    0    0  0.16314687347E+03 -0.23366272807E+03  0.50982265371E+02  0.31534007705E+03  0.12500000000E+03 0.  0.
</event>
<event>
 4    0  0.2230743E-002  0.2246930E+03  0.7546771E-02  0.1130432E+00
         21   -1    0    0  502  501  0.00000000000E+00  0.00000000000E+00  0.69236352755E+03  0.69236352755E+03  0.00000000000E+00 0. -1.
         21   -1    0    0  501  502 -0.00000000000E+00 -0.00000000000E+00 -0.72919733542E+02  0.72919733542E+02  0.00000000000E+00 0. -1.
         25    1    1    2    0    0  0.17642893915E+03 -0.31108310515E+02  0.22014162420E+03  0.31013260431E+03  0.12500000000E+03 0.  0.
         25    1    1    2    0    0 -0.17642893915E+03  0.31108310515E+02  0.39930216981E+03  0.45515065678E+03  0.12500000000E+03 0.  0.
</event>
<event>
 4    0  0.2230743E-002  0.1990267E+03  0.7546771E-02  0.1150563E+00
         21   -1    0    0  502  501  0.00000000000E+00  0.00000000000E+00  0.17439381356E+03  0.17439381356E+03  0.00000000000E+00 0. -1.
         21   -1    0    0  501  502 -0.00000000000E+00 -0.00000000000E+00 -0.22713893920E+03  0.22713893920E+03  0.00000000000E+00 0. -1.
         25    1    1    2    0    0  0.26560502461E+02  0.13184814985E+03  0.51092113930E+02  0.19059065826E+03  0.12500000000E+03 0.  0.
         25    1    1    2    0    0 -0.26560502461E+02 -0.13184814985E+03 -0.10383723958E+03  0.21094209450E+03  0.12500000000E+03 0.  0.
</event>
<event>
 4    0  0.2230743E-002  0.2145500E+03  0.7546771E-02  0.1138013E+00
         21   -1    0    0  502  501  0.00000000000E+00  0.00000000000E+00  0.36675072271E+03  0.36675072271E+03  0.00000000000E+00 0. -1.
         21   -1    0    0  501  502 -0.00000000000E+00 -0.00000000000E+00 -0.12551219974E+03  0.12551219974E+03  0.00000000000E+00 0. -1.
         25    1    1    2    0    0 -0.71403941504E+02  0.68622241415E+02  0.28526988282E+03  0.32682019662E+03  0.12500000000E+03 0.  0.
         25    1    1    2    0    0  0.71403941504E+02 -0.68622241415E+02 -0.44031359840E+02  0.16544272583E+03  0.12500000000E+03 0.  0.
</event>
<event>
 4    0  0.2230743E-002  0.2417411E+03  0.7546771E-02  0.1118638E+00
         21   -1    0    0  502  501  0.00000000000E+00  0.00000000000E+00  0.60050135594E+03  0.60050135594E+03  0.00000000000E+00 0. -1.
         21   -1    0    0  501  502 -0.00000000000E+00 -0.00000000000E+00 -0.97316607629E+02  0.97316607629E+02  0.00000000000E+00 0. -1.
         25    1    1    2    0    0  0.17444353983E+03  0.52814537030E+02  0.39296251896E+03  0.45084860565E+03  0.12500000000E+03 0.  0.
         25    1    1    2    0    0 -0.17444353983E+03 -0.52814537030E+02  0.11022222936E+03  0.24696935792E+03  0.12500000000E+03 0.  0.
</event>
<event>
 4    0  0.2230743E-002  0.1842006E+03  0.7546771E-02  0.1163799E+00
         21   -1    0    0  502  501  0.00000000000E+00  0.00000000000E+00  0.37928765723E+02  0.37928765723E+02  0.00000000000E+00 0. -1.
         21   -1    0    0  501  502 -0.00000000000E+00 -0.00000000000E+00 -0.89456798501E+03  0.89456798501E+03  0.00000000000E+00 0. -1.
         25    1    1    2    0    0 -0.22110326379E+02 -0.86654569191E+02 -0.17134395058E+03  0.23017738876E+03  0.12500000000E+03 0.  0.
         25    1    1    2    0    0  0.22110326379E+02  0.86654569191E+02 -0.68529526871E+03  0.70231936198E+03  0.12500000000E+03 0.  0.
</event>
<event>
 4    0  0.2230743E-002  0.2156562E+03  0.7546771E-02  0.1137164E+00
         21   -1    0    0  502  501  0.00000000000E+00  0.00000000000E+00  0.13615965370E+03  0.13615965370E+03  0.00000000000E+00 0. -1.
         21   -1    0    0  501  502 -0.00000000000E+00 -0.00000000000E+00 -0.34156650517E+03  0.34156650517E+03  0.00000000000E+00 0. -1.
         25    1    1    2    0    0 -0.11815435665E+03  0.28232315666E+02  0.37945966052E+02  0.17838837402E+03  0.12500000000E+03 0.  0.
         25    1    1    2    0    0  0.11815435665E+03 -0.28232315666E+02 -0.24335281753E+03  0.29933778486E+03  0.12500000000E+03 0.  0.
</event>
<event>
 4    0  0.2230743E-002  0.2817159E+03  0.7546771E-02  0.1094755E+00
         21   -1    0    0  502  501  0.00000000000E+00  0.00000000000E+00  0.10422447260E+03  0.10422447260E+03  0.00000000000E+00 0.  1.
         21   -1    0    0  501  502 -0.00000000000E+00 -0.00000000000E+00 -0.76147058286E+03  0.76147058286E+03  0.00000000000E+00 0.  1.
         25    1    1    2    0    0 -0.53954822389E+02  0.20654368789E+03 -0.53571849410E+03  0.59007687871E+03  0.12500000000E+03 0.  0.
         25    1    1    2    0    0  0.53954822389E+02 -0.20654368789E+03 -0.12152761616E+03  0.27561817675E+03  0.12500000000E+03 0.  0.
</event>
<event>
 4    0  0.2230743E-002  0.2996701E+03  0.7546771E-02  0.1085406E+00
         21   -1    0    0  502  501  0.00000000000E+00  0.00000000000E+00  0.28943123136E+03  0.28943123136E+03  0.00000000000E+00 0. -1.
         21   -1    0    0  501  502 -0.00000000000E+00 -0.00000000000E+00 -0.31027111873E+03  0.31027111873E+03  0.00000000000E+00 0. -1.
         25    1    1    2    0    0  0.25899007621E+03  0.83248554771E+02 -0.23503414651E+02  0.30030583069E+03  0.12500000000E+03 0.  0.
         25    1    1    2    0    0 -0.25899007621E+03 -0.83248554771E+02  0.26635272770E+01  0.29939651939E+03  0.12500000000E+03 0.  0.
</event>
<event>
 4    0  0.2230743E-002  0.2647610E+03  0.7546771E-02  0.1104316E+00
         21   -1    0    0  502  501  0.00000000000E+00  0.00000000000E+00  0.37032464125E+03  0.37032464125E+03  0.00000000000E+00 0.  1.
         21   -1    0    0  501  502 -0.00000000000E+00 -0.00000000000E+00 -0.18928907778E+03  0.18928907778E+03  0.00000000000E+00 0.  1.
         25    1    1    2    0    0 -0.17536473876E+03 -0.11103354269E+03 -0.22281806526E+02  0.24331608682E+03  0.12500000000E+03 0.  0.
         25    1    1    2    0    0  0.17536473876E+03  0.11103354269E+03  0.20331736999E+03  0.31629763221E+03  0.12500000000E+03 0.  0.
</event>
<event>
 4    0  0.2230743E-002  0.2588905E+03  0.7546771E-02  0.1107812E+00
         21   -1    0    0  502  501  0.00000000000E+00  0.00000000000E+00  0.61352358280E+03  0.61352358280E+03  0.00000000000E+00 0.  1.
         21   -1    0    0  501  502 -0.00000000000E+00 -0.00000000000E+00 -0.10924488948E+03  0.10924488948E+03  0.00000000000E+00 0.  1.
         25    1    1    2    0    0  0.15181186555E+03  0.16765288356E+03  0.23029082938E+03  0.34614043101E+03  0.12500000000E+03 0.  0.
         25    1    1    2    0    0 -0.15181186555E+03 -0.16765288356E+03  0.27398786394E+03  0.37662804127E+03  0.12500000000E+03 0.  0.
</event>
<event>
 4    0  0.2230743E-002  0.2181967E+03  0.7546771E-02  0.1135235E+00
         21   -1    0    0  502  501  0.00000000000E+00  0.00000000000E+00  0.16594339707E+04  0.16594339707E+04  0.00000000000E+00 0. -1.
         21   -1    0    0  501  502 -0.00000000000E+00 -0.00000000000E+00 -0.28690392329E+02  0.28690392329E+02  0.00000000000E+00 0. -1.
         25    1    1    2    0    0 -0.16949719388E+03  0.56195775664E+02  0.85357807253E+03  0.88096980075E+03  0.12500000000E+03 0.  0.
         25    1    1    2    0    0  0.16949719388E+03 -0.56195775664E+02  0.77716550586E+03  0.80715456229E+03  0.12500000000E+03 0.  0.
</event>
<event>
 4    0  0.2230743E-002  0.2069764E+03  0.7546771E-02  0.1143983E+00
         21   -1    0    0  502  501  0.00000000000E+00  0.00000000000E+00  0.45274757117E+02  0.45274757117E+02  0.00000000000E+00 0. -1.
         21   -1    0    0  501  502 -0.00000000000E+00 -0.00000000000E+00 -0.94620526250E+03  0.94620526250E+03  0.00000000000E+00 0. -1.
         25    1    1    2    0    0 -0.12095342399E+03  0.10278119172E+03 -0.34280295270E+03  0.39791025185E+03  0.12500000000E+03 0.  0.
         25    1    1    2    0    0  0.12095342399E+03 -0.10278119172E+03 -0.55812755269E+03  0.59356976778E+03  0.12500000000E+03 0.  0.
</event>
<event>
 4    0  0.2230743E-002  0.1728139E+03  0.7546771E-02  0.1174945E+00
         21   -1    0    0  502  501  0.00000000000E+00  0.00000000000E+00  0.19791601510E+02  0.19791601510E+02  0.00000000000E+00 0.  1.
         21   -1    0    0  501  502 -0.00000000000E+00 -0.00000000000E+00 -0.15089548050E+04  0.15089548050E+04  0.00000000000E+00 0.  1.
         25    1    1    2    0    0 -0.38350135532E+02 -0.65698746239E+02 -0.33793105530E+03  0.36825189245E+03  0.12500000000E+03 0.  0.
         25    1    1    2    0    0  0.38350135532E+02  0.65698746239E+02 -0.11512321482E+04  0.11604945141E+04  0.12500000000E+03 0.  0.
</event>
<event>
 4    0  0.2230743E-002  0.2865283E+03  0.7546771E-02  0.1092176E+00
         21   -1    0    0  502  501  0.00000000000E+00  0.00000000000E+00  0.84919809138E+03  0.84919809138E+03  0.00000000000E+00 0. -1.
         21   -1    0    0  501  502 -0.00000000000E+00 -0.00000000000E+00 -0.96677626530E+02  0.96677626530E+02  0.00000000000E+00 0. -1.
         25    1    1    2    0    0 -0.44367036970E+02  0.21971933270E+03  0.16599138672E+03  0.30565202371E+03  0.12500000000E+03 0.  0.
         25    1    1    2    0    0  0.44367036970E+02 -0.21971933270E+03  0.58652907812E+03  0.64022369420E+03  0.12500000000E+03 0.  0.
</event>
<event>
 4    0  0.2230743E-002  0.1700535E+03  0.7546771E-02  0.1177792E+00
         21   -1    0    0  502  501  0.00000000000E+00  0.00000000000E+00  0.92342486415E+03  0.92342486415E+03  0.00000000000E+00 0. -1.
         21   -1    0    0  501  502 -0.00000000000E+00 -0.00000000000E+00 -0.31316243725E+02  0.31316243725E+02  0.00000000000E+00 0. -1.
         25    1    1    2    0    0 -0.45051203976E+02 -0.94085123127E+02  0.30819993480E+03  0.34855963791E+03  0.12500000000E+03 0.  0.
         25    1    1    2    0    0  0.45051203976E+02  0.94085123127E+02  0.58390868563E+03  0.60618146996E+03  0.12500000000E+03 0.  0.
</event>
<event>
 4    0  0.2230743E-002  0.2148458E+03  0.7546771E-02  0.1137785E+00
         21   -1    0    0  502  501  0.00000000000E+00  0.00000000000E+00  0.52075396829E+03  0.52075396829E+03  0.00000000000E+00 0. -1.
         21   -1    0    0  501  502 -0.00000000000E+00 -0.00000000000E+00 -0.88638204872E+02  0.88638204872E+02  0.00000000000E+00 0. -1.
         25    1    1    2    0    0  0.10123557045E+03  0.69273090177E+02  0.39570413582E+02  0.17955004700E+03  0.12500000000E+03 0.  0.
         25    1    1    2    0    0 -0.10123557045E+03 -0.69273090177E+02  0.39254534983E+03  0.42984212616E+03  0.12500000000E+03 0.  0.
</event>
<event>
 4    0  0.2230743E-002  0.1932671E+03  0.7546771E-02  0.1155547E+00
         21   -1    0    0  502  501  0.00000000000E+00  0.00000000000E+00  0.29492829804E+03  0.29492829804E+03  0.00000000000E+00 0.  1.
         21   -1    0    0  501  502 -0.00000000000E+00 -0.00000000000E+00 -0.12664836404E+03  0.12664836404E+03  0.00000000000E+00 0.  1.
         25    1    1    2    0    0 -0.60592876442E+02  0.13404061611E+03  0.73862114048E+02  0.20668574052E+03  0.12500000000E+03 0.  0.
         25    1    1    2    0    0  0.60592876442E+02 -0.13404061611E+03  0.94417819949E+02  0.21489092156E+03  0.12500000000E+03 0.  0.
</event>
<event>
 4    0  0.2230743E-002  0.1768722E+03  0.7546771E-02  0.1170865E+00
         21   -1    0    0  502  501  0.00000000000E+00  0.00000000000E+00  0.10087745948E+03  0.10087745948E+03  0.00000000000E+00 0. -1.
         21   -1    0    0  501  502 -0.00000000000E+00 -0.00000000000E+00 -0.31011648695E+03  0.31011648695E+03  0.00000000000E+00 0. -1.
         25    1    1    2    0    0  0.29777084973E+02  0.12154047937E+03 -0.10459536018E+03  0.20548467653E+03  0.12500000000E+03 0.  0.
         25    1    1    2    0    0 -0.29777084973E+02 -0.12154047937E+03 -0.10464366729E+03  0.20550926991E+03  0.12500000000E+03 0.  0.
</event>
<event>
 4    0  0.2230743E-002  0.3385650E+03  0.7546771E-02  0.1067409E+00
         21   -1    0    0  502  501  0.00000000000E+00  0.00000000000E+00  0.15326671413E+04  0.15326671413E+04  0.00000000000E+00 0.  1.
         21   -1    0    0  501  502 -0.00000000000E+00 -0.00000000000E+00 -0.74788750412E+02  0.74788750412E+02  0.00000000000E+00 0. -1.
         25    1    1    2    0    0  0.21965930655E+03 -0.14528298331E+03  0.11376674937E+04  0.11744231275E+04  0.12500000000E+03 0.  0.
         25    1    1    2    0    0 -0.21965930655E+03  0.14528298331E+03  0.32021089715E+03  0.43303276417E+03  0.12500000000E+03 0.  0.
</event>
<event>
 4    0  0.2230743E-002  0.1939106E+03  0.7546771E-02  0.1154981E+00
         21   -1    0    0  502  501  0.00000000000E+00  0.00000000000E+00  0.40250708983E+02  0.40250708983E+02  0.00000000000E+00 0. -1.
         21   -1    0    0  501  502 -0.00000000000E+00 -0.00000000000E+00 -0.93417793030E+03  0.93417793030E+03  0.00000000000E+00 0. -1.
         25    1    1    2    0    0  0.14281448406E+02  0.83373782941E+02 -0.75284976242E+03  0.76783000216E+03  0.12500000000E+03 0.  0.
         25    1    1    2    0    0 -0.14281448406E+02 -0.83373782941E+02 -0.14107745890E+03  0.20659863712E+03  0.12500000000E+03 0.  0.
</event>
<event>
 4    0  0.2230743E-002  0.2849585E+03  0.7546771E-02  0.1093011E+00
         21   -1    0    0  502  501  0.00000000000E+00  0.00000000000E+00  0.54797488318E+03  0.54797488318E+03  0.00000000000E+00 0. -1.
         21   -1    0    0  501  502 -0.00000000000E+00 -0.00000000000E+00 -0.14818443248E+03  0.14818443248E+03  0.00000000000E+00 0. -1.
         25    1    1    2    0    0  0.20909206144E+03 -0.14685792973E+03  0.22068263375E+03  0.36001745308E+03  0.12500000000E+03 0.  0.
         25    1    1    2    0    0 -0.20909206144E+03  0.14685792973E+03  0.17910781696E+03  0.33614186258E+03  0.12500000000E+03 0.  0.
</event>
<event>
 4    0  0.2230743E-002  0.3194848E+03  0.7546771E-02  0.1075887E+00
         21   -1    0    0  502  501  0.00000000000E+00  0.00000000000E+00  0.65215446224E+02  0.65215446224E+02  0.00000000000E+00 0. -1.
         21   -1    0    0  501  502 -0.00000000000E+00 -0.00000000000E+00 -0.15651283750E+04  0.15651283750E+04  0.00000000000E+00 0. -1.
         25    1    1    2    0    0  0.20948663738E+03  0.15551792767E+03 -0.40408600584E+03  0.49697180723E+03  0.12500000000E+03 0.  0.
         25    1    1    2    0    0 -0.20948663738E+03 -0.15551792767E+03 -0.10958269229E+04  0.11333720139E+04  0.12500000000E+03 0.  0.
</event>
<event>
 4    0  0.2230743E-002  0.1930272E+03  0.7546771E-02  0.1155759E+00
         21   -1    0    0  502  501  0.00000000000E+00  0.00000000000E+00  0.43455803562E+02  0.43455803562E+02  0.00000000000E+00 0. -1.
         21   -1    0    0  501  502 -0.00000000000E+00 -0.00000000000E+00 -0.85741177079E+03  0.85741177079E+03  0.00000000000E+00 0. -1.
         25    1    1    2    0    0 -0.96704999370E+02  0.25999070564E+02 -0.65837892105E+03  0.67758070535E+03  0.12500000000E+03 0.  0.
         25    1    1    2    0    0  0.96704999370E+02 -0.25999070564E+02 -0.15557704618E+03  0.22328686901E+03  0.12500000000E+03 0.  0.
</event>
<event>
 4    0  0.2230743E-002  0.2665167E+03  0.7546771E-02  0.1103290E+00
         21   -1    0    0  502  501  0.00000000000E+00  0.00000000000E+00  0.16350753596E+03  0.16350753596E+03  0.00000000000E+00 0.  1.
         21   -1    0    0  501  502 -0.00000000000E+00 -0.00000000000E+00 -0.43442119137E+03  0.43442119137E+03  0.00000000000E+00 0. -1.
         25    1    1    2    0    0  0.21252133125E+03 -0.73123100805E+02 -0.56983932978E+02  0.26340932543E+03  0.12500000000E+03 0.  0.
         25    1    1    2    0    0 -0.21252133125E+03  0.73123100805E+02 -0.21392972243E+03  0.33451940190E+03  0.12500000000E+03 0.  0.
</event>
<event>
 4    0  0.2230743E-002  0.2103253E+03  0.7546771E-02  0.1141309E+00
         21   -1    0    0  502  501  0.00000000000E+00  0.00000000000E+00  0.85403086051E+03  0.85403086051E+03  0.00000000000E+00 0.  1.
         21   -1    0    0  501  502 -0.00000000000E+00 -0.00000000000E+00 -0.51797562916E+02  0.51797562916E+02  0.00000000000E+00 0.  1.
         25    1    1    2    0    0 -0.70461188121E+02  0.13683610418E+03  0.25002814246E+03  0.31910495211E+03  0.12500000000E+03 0.  0.
         25    1    1    2    0    0  0.70461188121E+02 -0.13683610418E+03  0.55220515513E+03  0.58672347132E+03  0.12500000000E+03 0.  0.
</event>
<event>
 4    0  0.2230743E-002  0.1766061E+03  0.7546771E-02  0.1171129E+00
         21   -1    0    0  502  501  0.00000000000E+00  0.00000000000E+00  0.16890660178E+03  0.16890660178E+03  0.00000000000E+00 0. -1.
         21   -1    0    0  501  502 -0.00000000000E+00 -0.00000000000E+00 -0.18465661790E+03  0.18465661790E+03  0.00000000000E+00 0. -1.
         25    1    1    2    0    0  0.41040765705E+02  0.14333623277E+02 -0.12493104169E+03  0.18199605046E+03  0.12500000000E+03 0.  0.
         25    1    1    2    0    0 -0.41040765705E+02 -0.14333623277E+02  0.10918102558E+03  0.17156716922E+03  0.12500000000E+03 0.  0.
</event>
<event>
 4    0  0.2230743E-002  0.2150551E+03  0.7546771E-02  0.1137624E+00
         21   -1    0    0  502  501  0.00000000000E+00  0.00000000000E+00  0.67645731190E+03  0.67645731190E+03  0.00000000000E+00 0.  1.
         21   -1    0    0  501  502 -0.00000000000E+00 -0.00000000000E+00 -0.68368952701E+02  0.68368952701E+02  0.00000000000E+00 0.  1.
         25    1    1    2    0    0 -0.30962879594E+02 -0.17001613426E+03  0.35176819396E+03  0.41137579912E+03  0.12500000000E+03 0.  0.
         25    1    1    2    0    0  0.30962879594E+02  0.17001613426E+03  0.25632016524E+03  0.33345046548E+03  0.12500000000E+03 0.  0.
</event>
<event>
 4    0  0.2230743E-002  0.2081962E+03  0.7546771E-02  0.1143002E+00
         21   -1    0    0  502  501  0.00000000000E+00  0.00000000000E+00  0.37942920608E+03  0.37942920608E+03  0.00000000000E+00 0.  1.
         21   -1    0    0  501  502 -0.00000000000E+00 -0.00000000000E+00 -0.11423907282E+03  0.11423907282E+03  0.00000000000E+00 0.  1.
         25    1    1    2    0    0  0.38004704581E+02 -0.85593070394E+01 -0.59319614536E+02  0.14374086397E+03  0.12500000000E+03 0.  0.
         25    1    1    2    0    0 -0.38004704581E+02  0.85593070394E+01  0.32450974779E+03  0.34992741493E+03  0.12500000000E+03 0.  0.
</event>
<event>
 4    0  0.2230743E-002  0.1959215E+03  0.7546771E-02  0.1153226E+00
         21   -1    0    0  502  501  0.00000000000E+00  0.00000000000E+00  0.24219634092E+03  0.24219634092E+03  0.00000000000E+00 0.  1.
         21   -1    0    0  501  502 -0.00000000000E+00 -0.00000000000E+00 -0.15848814071E+03  0.15848814071E+03  0.00000000000E+00 0.  1.
         25    1    1    2    0    0 -0.37107819647E+02  0.27300564950E+02 -0.10504647307E+03  0.16965280024E+03  0.12500000000E+03 0.  0.
         25    1    1    2    0    0  0.37107819647E+02 -0.27300564950E+02  0.18875467327E+03  0.23103168140E+03  0.12500000000E+03 0.  0.
</event>
<event>
 4    0  0.2230743E-002  0.1924402E+03  0.7546771E-02  0.1156279E+00
         21   -1    0    0  502  501  0.00000000000E+00  0.00000000000E+00  0.53185384089E+03  0.53185384089E+03  0.00000000000E+00 0.  1.
         21   -1    0    0  501  502 -0.00000000000E+00 -0.00000000000E+00 -0.69630479983E+02  0.69630479983E+02  0.00000000000E+00 0.  1.
         25    1    1    2    0    0  0.63283523463E+02 -0.10632395127E+03  0.10906797898E+03  0.20695509415E+03  0.12500000000E+03 0.  0.
         25    1    1    2    0    0 -0.63283523463E+02  0.10632395127E+03  0.35315538192E+03  0.39452922672E+03  0.12500000000E+03 0.  0.
</event>
<event>
 4    0  0.2230743E-002  0.2746066E+03  0.7546771E-02  0.1098672E+00
         21   -1    0    0  502  501  0.00000000000E+00  0.00000000000E+00  0.49879552502E+03  0.49879552502E+03  0.00000000000E+00 0. -1.
         21   -1    0    0  501  502 -0.00000000000E+00 -0.00000000000E+00 -0.15118180002E+03  0.15118180002E+03  0.00000000000E+00 0. -1.
         25    1    1    2    0    0 -0.17370265690E+03 -0.16255386751E+03  0.24062243216E+03  0.36072223070E+03  0.12500000000E+03 0.  0.
         25    1    1    2    0    0  0.17370265690E+03  0.16255386751E+03  0.10699129283E+03  0.28925509434E+03  0.12500000000E+03 0.  0.
</event>
<event>
 4    0  0.2230743E-002  0.1617998E+03  0.7546771E-02  0.1186680E+00
         21   -1    0    0  502  501  0.00000000000E+00  0.00000000000E+00  0.59416020503E+02  0.59416020503E+02  0.00000000000E+00 0. -1.
         21   -1    0    0  501  502 -0.00000000000E+00 -0.00000000000E+00 -0.44060806251E+03  0.44060806251E+03  0.00000000000E+00 0. -1.
         25    1    1    2    0    0  0.67569619845E+02  0.41294794509E+01 -0.31000132258E+03  0.34104035850E+03  0.12500000000E+03 0.  0.
         25    1    1    2    0    0 -0.67569619845E+02 -0.41294794509E+01 -0.71190719426E+02  0.15898372451E+03  0.12500000000E+03 0.  0.
</event>
<event>
 4    0  0.2230743E-002  0.1844574E+03  0.7546771E-02  0.1163558E+00
         21   -1    0    0  502  501  0.00000000000E+00  0.00000000000E+00  0.15805962254E+03  0.15805962254E+03  0.00000000000E+00 0. -1.
         21   -1    0    0  501  502 -0.00000000000E+00 -0.00000000000E+00 -0.21526396039E+03  0.21526396039E+03  0.00000000000E+00 0. -1.
         25    1    1    2    0    0 -0.21120598224E+02  0.80894205910E+02 -0.13669434986E+03  0.20322474629E+03  0.12500000000E+03 0.  0.
         25    1    1    2    0    0  0.21120598224E+02 -0.80894205910E+02  0.79490012014E+02  0.17009883665E+03  0.12500000000E+03 0.  0.
</event>
<event>
 4    0  0.2230743E-002  0.1803126E+03  0.7546771E-02  0.1167501E+00
         21   -1    0    0  502  501  0.00000000000E+00  0.00000000000E+00  0.71519313726E+03  0.71519313726E+03  0.00000000000E+00 0. -1.
         21   -1    0    0  501  502 -0.00000000000E+00 -0.00000000000E+00 -0.45459930263E+02  0.45459930263E+02  0.00000000000E+00 0. -1.
         25    1    1    2    0    0 -0.47069045283E+02  0.10908409125E+03  0.44593475531E+03  0.47811885549E+03  0.12500000000E+03 0.  0.
         25    1    1    2    0    0  0.47069045283E+02 -0.10908409125E+03  0.22379845169E+03  0.28253421203E+03  0.12500000000E+03 0.  0.
</event>
<event>
 4    0  0.2230743E-002  0.1838941E+03  0.7546771E-02  0.1164087E+00
         21   -1    0    0  502  501  0.00000000000E+00  0.00000000000E+00  0.15572911083E+03  0.15572911083E+03  0.00000000000E+00 0. -1.
         21   -1    0    0  501  502 -0.00000000000E+00 -0.00000000000E+00 -0.21715295247E+03  0.21715295247E+03  0.00000000000E+00 0. -1.
         25    1    1    2    0    0 -0.80088809082E+01  0.12732348708E+03  0.13673684764E+02  0.17912951234E+03  0.12500000000E+03 0.  0.
         25    1    1    2    0    0  0.80088809082E+01 -0.12732348708E+03 -0.75097526398E+02  0.19375255097E+03  0.12500000000E+03 0.  0.
</event>
<event>
 4    0  0.2230743E-002  0.3243745E+03  0.7546771E-02  0.1073653E+00
         21   -1    0    0  502  501  0.00000000000E+00  0.00000000000E+00  0.17261121735E+03  0.17261121735E+03  0.00000000000E+00 0. -1.
         21   -1    0    0  501  502 -0.00000000000E+00 -0.00000000000E+00 -0.60957129923E+03  0.60957129923E+03  0.00000000000E+00 0. -1.
         25    1    1    2    0    0  0.27236401660E+03  0.10359036850E+02 -0.36763550616E+03  0.47441578027E+03  0.12500000000E+03 0.  0.
         25    1    1    2    0    0 -0.27236401660E+03 -0.10359036850E+02 -0.69324575727E+02  0.30776673632E+03  0.12500000000E+03 0.  0.
</event>
<event>
 4    0  0.2230743E-002  0.1821992E+03  0.7546771E-02  0.1165691E+00
         21   -1    0    0  502  501  0.00000000000E+00  0.00000000000E+00  0.15958959484E+04  0.15958959484E+04  0.00000000000E+00 0.  1.
         21   -1    0    0  501  502 -0.00000000000E+00 -0.00000000000E+00 -0.20801191803E+02  0.20801191803E+02  0.00000000000E+00 0.  1.
         25    1    1    2    0    0 -0.37140562534E+02 -0.60658107260E+02  0.12838287512E+04  0.12918591602E+04  0.12500000000E+03 0.  0.
         25    1    1    2    0    0  0.37140562534E+02  0.60658107260E+02  0.29126600544E+03  0.32483798005E+03  0.12500000000E+03 0.  0.
</event>
<event>
 4    0  0.2230743E-002  0.2610113E+03  0.7546771E-02  0.1106537E+00
         21   -1    0    0  502  501  0.00000000000E+00  0.00000000000E+00  0.81967728902E+03  0.81967728902E+03  0.00000000000E+00 0.  1.
         21   -1    0    0  501  502 -0.00000000000E+00 -0.00000000000E+00 -0.83114306976E+02  0.83114306976E+02  0.00000000000E+00 0.  1.
         25    1    1    2    0    0 -0.10329429404E+03  0.19076620468E+03  0.24072113288E+03  0.34732278912E+03  0.12500000000E+03 0.  0.
         25    1    1    2    0    0  0.10329429404E+03 -0.19076620468E+03  0.49584184917E+03  0.55546880688E+03  0.12500000000E+03 0.  0.
</event>
<event>
 4    0  0.2230743E-002  0.2456058E+03  0.7546771E-02  0.1116114E+00
         21   -1    0    0  502  501  0.00000000000E+00  0.00000000000E+00  0.20578494327E+03  0.20578494327E+03  0.00000000000E+00 0.  1.
         21   -1    0    0  501  502 -0.00000000000E+00 -0.00000000000E+00 -0.29313217690E+03  0.29313217690E+03  0.00000000000E+00 0.  1.
         25    1    1    2    0    0 -0.12328456119E+03  0.89213306458E+02 -0.19273788613E+03  0.27555578351E+03  0.12500000000E+03 0.  0.
         25    1    1    2    0    0  0.12328456119E+03 -0.89213306458E+02  0.10539065250E+03  0.22336133665E+03  0.12500000000E+03 0.  0.
</event>
<event>
 4    0  0.2230743E-002  0.1865527E+03  0.7546771E-02  0.1161608E+00
         21   -1    0    0  502  501  0.00000000000E+00  0.00000000000E+00  0.84618134425E+03  0.84618134425E+03  0.00000000000E+00 0. -1.
         21   -1    0    0  501  502 -0.00000000000E+00 -0.00000000000E+00 -0.41128180132E+02  0.41128180132E+02  0.00000000000E+00 0. -1.
         25    1    1    2    0    0  0.63368803357E+02  0.52018921062E+02  0.13711417760E+03  0.20284691540E+03  0.12500000000E+03 0.  0.
         25    1    1    2    0    0 -0.63368803357E+02 -0.52018921062E+02  0.66793898652E+03  0.68446260898E+03  0.12500000000E+03 0.  0.
</event>
<event>
 4    0  0.2230743E-002  0.3137018E+03  0.7546771E-02  0.1078585E+00
         21   -1    0    0  502  501  0.00000000000E+00  0.00000000000E+00  0.26405886994E+03  0.26405886994E+03  0.00000000000E+00 0.  1.
         21   -1    0    0  501  502 -0.00000000000E+00 -0.00000000000E+00 -0.37267761936E+03  0.37267761936E+03  0.00000000000E+00 0.  1.
         25    1    1    2    0    0 -0.12127941626E+02  0.10861408731E+03 -0.32442588914E+03  0.36444651799E+03  0.12500000000E+03 0.  0.
         25    1    1    2    0    0  0.12127941626E+02 -0.10861408731E+03  0.21580713972E+03  0.27228997132E+03  0.12500000000E+03 0.  0.
</event>
<event>
 4    0  0.2230743E-002  0.2187233E+03  0.7546771E-02  0.1134838E+00
         21   -1    0    0  502  501  0.00000000000E+00  0.00000000000E+00  0.30501497184E+03  0.30501497184E+03  0.00000000000E+00 0. -1.
         21   -1    0    0  501  502 -0.00000000000E+00 -0.00000000000E+00 -0.15684435974E+03  0.15684435974E+03  0.00000000000E+00 0. -1.
         25    1    1    2    0    0 -0.43122699064E+02 -0.15453785573E+03 -0.10862005856E+02  0.20367743910E+03  0.12500000000E+03 0.  0.
         25    1    1    2    0    0  0.43122699064E+02  0.15453785573E+03  0.15903261796E+03  0.25818189248E+03  0.12500000000E+03 0.  0.
</event>
<event>
 4    0  0.2230743E-002  0.2507826E+03  0.7546771E-02  0.1112811E+00
         21   -1    0    0  502  501  0.00000000000E+00  0.00000000000E+00  0.50499790418E+02  0.50499790418E+02  0.00000000000E+00 0. -1.
         21   -1    0    0  501  502 -0.00000000000E+00 -0.00000000000E+00 -0.12453899875E+04  0.12453899875E+04  0.00000000000E+00 0. -1.
         25    1    1    2    0    0 -0.20957786644E+02 -0.18999156634E+03 -0.86508992743E+03  0.89472990709E+03  0.12500000000E+03 0.  0.
         25    1    1    2    0    0  0.20957786644E+02  0.18999156634E+03 -0.32980026967E+03  0.40115987085E+03  0.12500000000E+03 0.  0.
</event>
<event>
 4    0  0.2230743E-002  0.2123384E+03  0.7546771E-02  0.1139728E+00
         21   -1    0    0  502  501  0.00000000000E+00  0.00000000000E+00  0.15708654177E+03  0.15708654177E+03  0.00000000000E+00 0. -1.
         21   -1    0    0  501  502 -0.00000000000E+00 -0.00000000000E+00 -0.28702384343E+03  0.28702384343E+03  0.00000000000E+00 0. -1.
         25    1    1    2    0    0  0.13974261676E+03 -0.89644708209E+02 -0.11053324422E+03  0.23538642851E+03  0.12500000000E+03 0.  0.
         25    1    1    2    0    0 -0.13974261676E+03  0.89644708209E+02 -0.19404057433E+02  0.20872395669E+03  0.12500000000E+03 0.  0.
</event>
<event>
 4    0  0.2230743E-002  0.2253736E+03  0.7546771E-02  0.1129939E+00
         21   -1    0    0  502  501  0.00000000000E+00  0.00000000000E+00  0.41270593930E+02  0.41270593930E+02  0.00000000000E+00 0.  1.
         21   -1    0    0  501  502 -0.00000000000E+00 -0.00000000000E+00 -0.12307369976E+04  0.12307369976E+04  0.00000000000E+00 0.  1.
         25    1    1    2    0    0  0.97823575163E+02  0.45120002320E+02 -0.16154977663E+03  0.23092985254E+03  0.12500000000E+03 0.  0.
         25    1    1    2    0    0 -0.97823575163E+02 -0.45120002320E+02 -0.10279166271E+04  0.10410777390E+04  0.12500000000E+03 0.  0.
</event>
<event>
 4    0  0.2230743E-002  0.2337758E+03  0.7546771E-02  0.1124010E+00
         21   -1    0    0  502  501  0.00000000000E+00  0.00000000000E+00  0.65621584535E+03  0.65621584535E+03  0.00000000000E+00 0.  1.
         21   -1    0    0  501  502 -0.00000000000E+00 -0.00000000000E+00 -0.83282234850E+02  0.83282234850E+02  0.00000000000E+00 0.  1.
         25    1    1    2    0    0 -0.36257500657E+02 -0.86184611173E+02  0.11226401665E+02  0.15650375603E+03  0.12500000000E+03 0.  0.
         25    1    1    2    0    0  0.36257500657E+02  0.86184611173E+02  0.56170720884E+03  0.58299432417E+03  0.12500000000E+03 0.  0.
</event>
<event>
 4    0  0.2230743E-002  0.2622281E+03  0.7546771E-02  0.1105812E+00
         21   -1    0    0  502  501  0.00000000000E+00  0.00000000000E+00  0.36634354226E+03  0.36634354226E+03  0.00000000000E+00 0. -1.
         21   -1    0    0  501  502 -0.00000000000E+00 -0.00000000000E+00 -0.18770241143E+03  0.18770241143E+03  0.00000000000E+00 0. -1.
         25    1    1    2    0    0  0.40604138983E+01 -0.30697614315E+02 -0.15199622116E+03  0.19921516441E+03  0.12500000000E+03 0.  0.
         25    1    1    2    0    0 -0.40604138983E+01  0.30697614315E+02  0.33063735199E+03  0.35483078928E+03  0.12500000000E+03 0.  0.
</event>
<event>
 4    0  0.2230743E-002  0.1702570E+03  0.7546771E-02  0.1177580E+00
         21   -1    0    0  502  501  0.00000000000E+00  0.00000000000E+00  0.67913183602E+02  0.67913183602E+02  0.00000000000E+00 0. -1.
         21   -1    0    0  501  502 -0.00000000000E+00 -0.00000000000E+00 -0.42683071498E+03  0.42683071498E+03  0.00000000000E+00 0. -1.
         25    1    1    2    0    0 -0.72312215472E+02 -0.83665272767E+02 -0.22837533814E+03  0.28285902751E+03  0.12500000000E+03 0.  0.
         25    1    1    2    0    0  0.72312215472E+02  0.83665272767E+02 -0.13054219324E+03  0.21188487107E+03  0.12500000000E+03 0.  0.
</event>
<event>
 4    0  0.2230743E-002  0.2018660E+03  0.7546771E-02  0.1148174E+00
         21   -1    0    0  502  501  0.00000000000E+00  0.00000000000E+00  0.40804956199E+03  0.40804956199E+03  0.00000000000E+00 0. -1.
         21   -1    0    0  501  502 -0.00000000000E+00 -0.00000000000E+00 -0.99865000729E+02  0.99865000729E+02  0.00000000000E+00 0. -1.
         25    1    1    2    0    0  0.13108880246E+03  0.15439803650E+02  0.43683101323E+02  0.18696490315E+03  0.12500000000E+03 0.  0.
         25    1    1    2    0    0 -0.13108880246E+03 -0.15439803650E+02  0.26450145994E+03  0.32094965957E+03  0.12500000000E+03 0.  0.
</event>
<event>
 4    0  0.2230743E-002  0.2040109E+03  0.7546771E-02  0.1146398E+00
         21   -1    0    0  502  501  0.00000000000E+00  0.00000000000E+00  0.34248221343E+02  0.34248221343E+02  0.00000000000E+00 0.  1.
         21   -1    0    0  501  502 -0.00000000000E+00 -0.00000000000E+00 -0.12152584380E+04  0.12152584380E+04  0.00000000000E+00 0.  1.
         25    1    1    2    0    0 -0.89331844309E+02  0.12860340649E+03 -0.70817382064E+03  0.73597158560E+03  0.12500000000E+03 0.  0.
         25    1    1    2    0    0  0.89331844309E+02 -0.12860340649E+03 -0.47283639605E+03  0.51353507378E+03  0.12500000000E+03 0.  0.
</event>
<event>
 4    0  0.2230743E-002  0.3544606E+03  0.7546771E-02  0.1060799E+00
         21   -1    0    0  502  501  0.00000000000E+00  0.00000000000E+00  0.25742247771E+03  0.25742247771E+03  0.00000000000E+00 0.  1.
         21   -1    0    0  501  502 -0.00000000000E+00 -0.00000000000E+00 -0.48807820258E+03  0.48807820258E+03  0.00000000000E+00 0. -1.
         25    1    1    2    0    0  0.31340340927E+03  0.54739260345E+02 -0.16683535308E+02  0.34223007453E+03  0.12500000000E+03 0.  0.
         25    1    1    2    0    0 -0.31340340927E+03 -0.54739260345E+02 -0.21397218956E+03  0.40327060576E+03  0.12500000000E+03 0.  0.
</event>
<event>
 4    0  0.2230743E-002  0.2425228E+03  0.7546771E-02  0.1118124E+00
         21   -1    0    0  502  501  0.00000000000E+00  0.00000000000E+00  0.58646505471E+02  0.58646505471E+02  0.00000000000E+00 0.  1.
         21   -1    0    0  501  502 -0.00000000000E+00 -0.00000000000E+00 -0.10029126929E+04  0.10029126929E+04  0.00000000000E+00 0.  1.
         25    1    1    2    0    0 -0.74396030694E+02  0.67501956003E+02 -0.87031582078E+03  0.88496661595E+03  0.12500000000E+03 0.  0.
         25    1    1    2    0    0  0.74396030694E+02 -0.67501956003E+02 -0.73950366694E+02  0.17659258246E+03  0.12500000000E+03 0.  0.
</event>
<event>
 4    0  0.2230743E-002  0.1668215E+03  0.7546771E-02  0.1181204E+00
         21   -1    0    0  502  501  0.00000000000E+00  0.00000000000E+00  0.55783407824E+02  0.55783407824E+02  0.00000000000E+00 0.  1.
         21   -1    0    0  501  502 -0.00000000000E+00 -0.00000000000E+00 -0.49888358504E+03  0.49888358504E+03  0.00000000000E+00 0.  1.
         25    1    1    2    0    0  0.53011856721E+02  0.88001391532E+02 -0.15402234321E+03  0.22338841526E+03  0.12500000000E+03 0.  0.
         25    1    1    2    0    0 -0.53011856721E+02 -0.88001391532E+02 -0.28907783400E+03  0.33127857760E+03  0.12500000000E+03 0.  0.
</event>
<event>
 4    0  0.2230743E-002  0.2561481E+03  0.7546771E-02  0.1109480E+00
         21   -1    0    0  502  501  0.00000000000E+00  0.00000000000E+00  0.41230982586E+02  0.41230982586E+02  0.00000000000E+00 0.  1.
         21   -1    0    0  501  502 -0.00000000000E+00 -0.00000000000E+00 -0.15913235842E+04  0.15913235842E+04  0.00000000000E+00 0.  1.
         25    1    1    2    0    0 -0.28865610025E+02 -0.83548617642E+02 -0.14294791678E+04  0.14376540912E+04  0.12500000000E+03 0.  0.
         25    1    1    2    0    0  0.28865610025E+02  0.83548617642E+02 -0.12061343388E+03  0.19490047559E+03  0.12500000000E+03 0.  0.
</event>
<event>
 4    0  0.2230743E-002  0.1994700E+03  0.7546771E-02  0.1150187E+00
         21   -1    0    0  502  501  0.00000000000E+00  0.00000000000E+00  0.82392624221E+03  0.82392624221E+03  0.00000000000E+00 0. -1.
         21   -1    0    0  501  502 -0.00000000000E+00 -0.00000000000E+00 -0.48291071484E+02  0.48291071484E+02  0.00000000000E+00 0. -1.
         25    1    1    2    0    0  0.13924923052E+03  0.46456405726E+02  0.49961479861E+03  0.53552636987E+03  0.12500000000E+03 0.  0.
         25    1    1    2    0    0 -0.13924923052E+03 -0.46456405726E+02  0.27602037212E+03  0.33669094383E+03  0.12500000000E+03 0.  0.
</event>
<event>
 4    0  0.2230743E-002  0.2819226E+03  0.7546771E-02  0.1094643E+00
         21   -1    0    0  502  501  0.00000000000E+00  0.00000000000E+00  0.27056243999E+03  0.27056243999E+03  0.00000000000E+00 0.  1.
         21   -1    0    0  501  502 -0.00000000000E+00 -0.00000000000E+00 -0.29375964426E+03  0.29375964426E+03  0.00000000000E+00 0.  1.
         25    1    1    2    0    0 -0.24240345388E+03  0.71130785723E+02 -0.17628895505E+02  0.28240892530E+03  0.12500000000E+03 0.  0.
         25    1    1    2    0    0  0.24240345388E+03 -0.71130785723E+02 -0.55683087674E+01  0.28191315896E+03  0.12500000000E+03 0.  0.
</event>
<event>
 4    0  0.2230743E-002  0.1959284E+03  0.7546771E-02  0.1153220E+00
         21   -1    0    0  502  501  0.00000000000E+00  0.00000000000E+00  0.36747487320E+03  0.36747487320E+03  0.00000000000E+00 0. -1.
         21   -1    0    0  501  502 -0.00000000000E+00 -0.00000000000E+00 -0.10446408346E+03  0.10446408346E+03  0.00000000000E+00 0. -1.
         25    1    1    2    0    0  0.11205632149E+03 -0.74414186571E+02  0.21379837575E+03  0.28183121868E+03  0.12500000000E+03 0.  0.
         25    1    1    2    0    0 -0.11205632149E+03  0.74414186571E+02  0.49212413992E+02  0.19010773798E+03  0.12500000000E+03 0.  0.
</event>
<event>
 4    0  0.2230743E-002  0.1684144E+03  0.7546771E-02  0.1179511E+00
         21   -1    0    0  502  501  0.00000000000E+00  0.00000000000E+00  0.76364427265E+02  0.76364427265E+02  0.00000000000E+00 0.  1.
         21   -1    0    0  501  502 -0.00000000000E+00 -0.00000000000E+00 -0.37142191550E+03  0.37142191550E+03  0.00000000000E+00 0.  1.
         25    1    1    2    0    0 -0.11017068994E+03 -0.22982558448E+02 -0.13619800535E+03  0.21642706757E+03  0.12500000000E+03 0.  0.
         25    1    1    2    0    0  0.11017068994E+03  0.22982558448E+02 -0.15885948288E+03  0.23135927519E+03  0.12500000000E+03 0.  0.
</event>
<event>
 4    0  0.2230743E-002  0.2332279E+03  0.7546771E-02  0.1124388E+00
         21   -1    0    0  502  501  0.00000000000E+00  0.00000000000E+00  0.41064498647E+03  0.41064498647E+03  0.00000000000E+00 0. -1.
         21   -1    0    0  501  502 -0.00000000000E+00 -0.00000000000E+00 -0.13246297953E+03  0.13246297953E+03  0.00000000000E+00 0. -1.
         25    1    1    2    0    0  0.15541393212E+03  0.59637253074E+02  0.16641654292E+02  0.20883495136E+03  0.12500000000E+03 0.  0.
         25    1    1    2    0    0 -0.15541393212E+03 -0.59637253074E+02  0.26154035265E+03  0.33427301464E+03  0.12500000000E+03 0.  0.
</event>
<event>
 4    0  0.2230743E-002  0.2458749E+03  0.7546771E-02  0.1115940E+00
         21   -1    0    0  502  501  0.00000000000E+00  0.00000000000E+00  0.75137232430E+03  0.75137232430E+03  0.00000000000E+00 0. -1.
         21   -1    0    0  501  502 -0.00000000000E+00 -0.00000000000E+00 -0.80458702162E+02  0.80458702162E+02  0.00000000000E+00 0. -1.
         25    1    1    2    0    0 -0.18402041565E+03  0.75146659828E+02  0.21208888671E+03  0.31641306820E+03  0.12500000000E+03 0.  0.
         25    1    1    2    0    0  0.18402041565E+03 -0.75146659828E+02  0.45882473543E+03  0.51541795826E+03  0.12500000000E+03 0.  0.
</event>
<event>
 4    0  0.2230743E-002  0.2526123E+03  0.7546771E-02  0.1111665E+00
         21   -1    0    0  502  501  0.00000000000E+00  0.00000000000E+00  0.23207733449E+03  0.23207733449E+03  0.00000000000E+00 0.  1.
         21   -1    0    0  501  502 -0.00000000000E+00 -0.00000000000E+00 -0.27496426183E+03  0.27496426183E+03  0.00000000000E+00 0.  1.
         25    1    1    2    0    0 -0.64124129986E+02  0.19246778854E+03 -0.10560338232E+03  0.26063926801E+03  0.12500000000E+03 0.  0.
         25    1    1    2    0    0  0.64124129986E+02 -0.19246778854E+03  0.62716454976E+02  0.24640232831E+03  0.12500000000E+03 0.  0.
</event>
<event>
 4    0  0.2230743E-002  0.2527952E+03  0.7546771E-02  0.1111551E+00
         21   -1    0    0  502  501  0.00000000000E+00  0.00000000000E+00  0.30044802388E+02  0.30044802388E+02  0.00000000000E+00 0. -1.
         21   -1    0    0  501  502 -0.00000000000E+00 -0.00000000000E+00 -0.21270038402E+04  0.21270038402E+04  0.00000000000E+00 0. -1.
         25    1    1    2    0    0 -0.68539654174E+02 -0.13163191583E+03 -0.35716852241E+03  0.40647139981E+03  0.12500000000E+03 0.  0.
         25    1    1    2    0    0  0.68539654174E+02  0.13163191583E+03 -0.17397905154E+04  0.17505772428E+04  0.12500000000E+03 0.  0.
</event>
<event>
 4    0  0.2230743E-002  0.2185745E+03  0.7546771E-02  0.1134950E+00
         21   -1    0    0  502  501  0.00000000000E+00  0.00000000000E+00  0.18140333632E+03  0.18140333632E+03  0.00000000000E+00 0. -1.
         21   -1    0    0  501  502 -0.00000000000E+00 -0.00000000000E+00 -0.26336247517E+03  0.26336247517E+03  0.00000000000E+00 0. -1.
         25    1    1    2    0    0  0.95606193864E+02 -0.31112869009E+02  0.11007024343E+03  0.19454822901E+03  0.12500000000E+03 0.  0.
         25    1    1    2    0    0 -0.95606193864E+02  0.31112869009E+02 -0.19202938228E+03  0.25021758248E+03  0.12500000000E+03 0.  0.
</event>
<event>
 4    0  0.2230743E-002  0.2056962E+03  0.7546771E-02  0.1145020E+00
         21   -1    0    0  502  501  0.00000000000E+00  0.00000000000E+00  0.92334374663E+02  0.92334374663E+02  0.00000000000E+00 0. -1.
         21   -1    0    0  501  502 -0.00000000000E+00 -0.00000000000E+00 -0.45823610864E+03  0.45823610864E+03  0.00000000000E+00 0. -1.
         25    1    1    2    0    0  0.66140307234E+02 -0.10539550452E+03 -0.32460441499E+03  0.36942628337E+03  0.12500000000E+03 0.  0.
         25    1    1    2    0    0 -0.66140307234E+02  0.10539550452E+03 -0.41297318987E+02  0.18114419993E+03  0.12500000000E+03 0.  0.
</event>
<event>
 4    0  0.2230743E-002  0.3595195E+03  0.7546771E-02  0.1058774E+00
         21   -1    0    0  502  501  0.00000000000E+00  0.00000000000E+00  0.12641121492E+04  0.12641121492E+04  0.00000000000E+00 0. -1.
         21   -1    0    0  501  502 -0.00000000000E+00 -0.00000000000E+00 -0.10224905409E+03  0.10224905409E+03  0.00000000000E+00 0. -1.
         25    1    1    2    0    0  0.22671205443E+03 -0.24597328418E+03  0.50193785731E+03  0.61600959794E+03  0.12500000000E+03 0.  0.
         25    1    1    2    0    0 -0.22671205443E+03  0.24597328418E+03  0.65992523776E+03  0.75035160531E+03  0.12500000000E+03 0.  0.
</event>
<event>
 4    0  0.2230743E-002  0.1779016E+03  0.7546771E-02  0.1169849E+00
         21   -1    0    0  502  501  0.00000000000E+00  0.00000000000E+00  0.32041266123E+03  0.32041266123E+03  0.00000000000E+00 0. -1.
         21   -1    0    0  501  502 -0.00000000000E+00 -0.00000000000E+00 -0.98775667338E+02  0.98775667338E+02  0.00000000000E+00 0. -1.
         25    1    1    2    0    0  0.21868654551E+02  0.10979478054E+02  0.25714216880E+03  0.28695972185E+03  0.12500000000E+03 0.  0.
         25    1    1    2    0    0 -0.21868654551E+02 -0.10979478054E+02 -0.35505174904E+02  0.13222860672E+03  0.12500000000E+03 0.  0.
</event>
<event>
 4    0  0.2230743E-002  0.1642819E+03  0.7546771E-02  0.1183946E+00
         21   -1    0    0  502  501  0.00000000000E+00  0.00000000000E+00  0.70315555594E+03  0.70315555594E+03  0.00000000000E+00 0. -1.
         21   -1    0    0  501  502 -0.00000000000E+00 -0.00000000000E+00 -0.38382021226E+02  0.38382021226E+02  0.00000000000E+00 0. -1.
         25    1    1    2    0    0 -0.10417426178E+03  0.15573815462E+02  0.29539064519E+03  0.33760250859E+03  0.12500000000E+03 0.  0.
         25    1    1    2    0    0  0.10417426178E+03 -0.15573815462E+02  0.36938288952E+03  0.40393506857E+03  0.12500000000E+03 0.  0.
</event>
<event>
 4    0  0.2230743E-002  0.1930703E+03  0.7546771E-02  0.1155721E+00
         21   -1    0    0  502  501  0.00000000000E+00  0.00000000000E+00  0.14872138444E+03  0.14872138444E+03  0.00000000000E+00 0.  1.
         21   -1    0    0  501  502 -0.00000000000E+00 -0.00000000000E+00 -0.25064414076E+03  0.25064414076E+03  0.00000000000E+00 0.  1.
         25    1    1    2    0    0  0.69160785428E+02  0.54156835885E+02  0.71128048104E+02  0.16852411205E+03  0.12500000000E+03 0.  0.
         25    1    1    2    0    0 -0.69160785428E+02 -0.54156835885E+02 -0.17305080443E+03  0.23084141316E+03  0.12500000000E+03 0.  0.
</event>
<event>
 4    0  0.2230743E-002  0.2756103E+03  0.7546771E-02  0.1098111E+00
         21   -1    0    0  502  501  0.00000000000E+00  0.00000000000E+00  0.34728779521E+03  0.34728779521E+03  0.00000000000E+00 0.  1.
         21   -1    0    0  501  502 -0.00000000000E+00 -0.00000000000E+00 -0.21872641205E+03  0.21872641205E+03  0.00000000000E+00 0.  1.
         25    1    1    2    0    0 -0.14171940173E+03 -0.24091843470E+02  0.26880252264E+03  0.32946107802E+03  0.12500000000E+03 0.  0.
         25    1    1    2    0    0  0.14171940173E+03  0.24091843470E+02 -0.14024113948E+03  0.23655312924E+03  0.12500000000E+03 0.  0.
</event>
<event>
 4    0  0.2230743E-002  0.2451997E+03  0.7546771E-02  0.1116377E+00
         21   -1    0    0  502  501  0.00000000000E+00  0.00000000000E+00  0.56124813445E+03  0.56124813445E+03  0.00000000000E+00 0.  1.
         21   -1    0    0  501  502 -0.00000000000E+00 -0.00000000000E+00 -0.10712357843E+03  0.10712357843E+03  0.00000000000E+00 0. -1.
         25    1    1    2    0    0 -0.10144054700E+03  0.12321153661E+03  0.41505850746E+03  0.46191972456E+03  0.12500000000E+03 0.  0.
         25    1    1    2    0    0  0.10144054700E+03 -0.12321153661E+03  0.39066048565E+02  0.20645198832E+03  0.12500000000E+03 0.  0.
</event>
<event>
 4    0  0.2230743E-002  0.2293538E+03  0.7546771E-02  0.1127095E+00
         21   -1    0    0  502  501  0.00000000000E+00  0.00000000000E+00  0.56430045410E+02  0.56430045410E+02  0.00000000000E+00 0.  1.
         21   -1    0    0  501  502 -0.00000000000E+00 -0.00000000000E+00 -0.93218367928E+03  0.93218367928E+03  0.00000000000E+00 0.  1.
         25    1    1    2    0    0  0.10592531261E+03 -0.15976087985E+03 -0.40487619836E+03  0.46507359265E+03  0.12500000000E+03 0.  0.
         25    1    1    2    0    0 -0.10592531261E+03  0.15976087985E+03 -0.47087743551E+03  0.52354013204E+03  0.12500000000E+03 0.  0.
</event>
